INSANE! Membrane UpperLeaflet>M3.DPPC:M3.DPPA=75.0:25.0 LowerLeaflet>M3.DPPC:M3.DPPA=75.0:25.0
56932
    1DPPC   NC3    1   4.301   4.211  20.737  0.3260  0.0641  0.1290
    1DPPC   PO4    2   4.106   4.005  20.443  0.1327 -0.2350 -0.0328
    1DPPC   GL1    3   4.001   4.170  20.094  0.2664  0.2273  0.2960
    1DPPC   GL2    4   3.937   3.944  19.988 -0.3770  0.0583 -0.0155
    1DPPC   C1A    5   3.953   4.425  19.807  0.3332 -0.2204  0.1306
    1DPPC   C2A    6   3.955   4.464  19.384  0.0273 -0.1447 -0.0712
    1DPPC   C3A    7   3.847   4.378  18.917 -0.0933 -0.0893  0.1143
    1DPPC   C4A    8   3.886   4.493  18.481 -0.4255  0.0497 -0.2132
    1DPPC   C1B    9   3.981   3.862  19.646  0.1452 -0.1726 -0.1470
    1DPPC   C2B   10   3.835   3.969  19.256  0.2940  0.2362  0.0418
    1DPPC   C3B   11   3.806   3.900  18.798  0.0234 -0.1106  0.0762
    1DPPC   C4B   12   3.725   3.975  18.334 -0.0101  0.0718  0.2043
    2DPPC   NC3   13   4.362   1.203  19.903 -0.2404 -0.1847 -0.0930
    2DPPC   PO4   14   4.364   1.597  19.980 -0.3383 -0.0759  0.0618
    2DPPC   GL1   15   4.422   1.744  19.603  0.0498  0.2850 -0.1702
    2DPPC   GL2   16   4.401   1.497  19.448  0.0058 -0.0014 -0.1598
    2DPPC   C1A   17   4.527   1.990  19.355 -0.2180 -0.0650  0.0044
    2DPPC   C2A   18   4.472   1.987  18.931 -0.0134 -0.2645 -0.3542
    2DPPC   C3A   19   4.472   2.011  18.418 -0.0417 -0.3393 -0.2875
    2DPPC   C4A   20   4.380   1.998  17.910  0.0897 -0.0375 -0.1734
    2DPPC   C1B   21   4.382   1.559  19.122  0.2957  0.5235  0.3078
    2DPPC   C2B   22   4.296   1.588  18.722  0.0459 -0.0120  0.2150
    2DPPC   C3B   23   4.226   1.619  18.260  0.1561  0.1482  0.0596
    2DPPC   C4B   24   4.087   1.541  17.793 -0.0533 -0.1671 -0.0601
    3DPPC   NC3   25   5.923   3.932  20.217  0.1365  0.1356  0.3130
    3DPPC   PO4   26   6.242   4.095  20.200  0.2078  0.0845  0.1580
    3DPPC   GL1   27   6.240   4.283  19.924  0.0114 -0.0386  0.3663
    3DPPC   GL2   28   5.953   4.317  19.917 -0.3329  0.1377  0.1477
    3DPPC   C1A   29   6.358   4.355  19.572 -0.3589  0.0774 -0.1433
    3DPPC   C2A   30   6.230   4.525  19.229  0.2663  0.0479  0.0520
    3DPPC   C3A   31   6.342   4.543  18.817 -0.0258 -0.1236  0.1015
    3DPPC   C4A   32   6.490   4.492  18.396 -0.3557 -0.1005 -0.1281
    3DPPC   C1B   33   5.809   4.367  19.541  0.1802 -0.2214 -0.0374
    3DPPC   C2B   34   5.743   4.419  19.178  0.2325  0.0469 -0.3426
    3DPPC   C3B   35   5.825   4.454  18.739  0.1386 -0.1687  0.2716
    3DPPC   C4B   36   5.933   4.263  18.258  0.0851  0.1675 -0.2090
    4DPPC   NC3   37  25.994   5.408  20.134 -0.0522  0.0190 -0.1289
    4DPPC   PO4   38  26.291   5.627  20.368  0.1678  0.0707 -0.1384
    4DPPC   GL1   39  26.488   5.435  19.969 -0.0075 -0.1033 -0.0881
    4DPPC   GL2   40  26.430   5.708  19.847 -0.0365  0.1778 -0.1776
    4DPPC   C1A   41  26.628   5.400  19.661 -0.1826  0.0432  0.1478
    4DPPC   C2A   42  26.571   5.321  19.280 -0.0244  0.1213 -0.0286
    4DPPC   C3A   43  26.536   5.300  18.840  0.0104  0.0026 -0.0364
    4DPPC   C4A   44  26.444   5.336  18.354 -0.1055 -0.0325  0.1023
    4DPPC   C1B   45  26.200   5.648  19.549 -0.2036 -0.0249  0.2602
    4DPPC   C2B   46  26.209   5.685  19.120  0.0939  0.5923 -0.1561
    4DPPC   C3B   47  26.170   5.659  18.665 -0.1830 -0.3933 -0.0479
    4DPPC   C4B   48  26.152   5.743  18.214 -0.0603  0.0884 -0.1821
    5DPPC   NC3   49   5.688   4.704  20.631 -0.0092  0.0440  0.0426
    5DPPC   PO4   50   5.847   5.046  20.541 -0.1474 -0.1762 -0.1129
    5DPPC   GL1   51   5.960   5.012  20.064 -0.1828 -0.0176 -0.0438
    5DPPC   GL2   52   5.680   5.142  19.987 -0.6555  0.1772 -0.2844
    5DPPC   C1A   53   6.224   4.946  19.818  0.0013 -0.1631  0.3003
    5DPPC   C2A   54   6.447   4.924  19.499 -0.0028  0.0564  0.2201
    5DPPC   C3A   55   6.488   5.002  19.006 -0.0548 -0.1696  0.0052
    5DPPC   C4A   56   6.594   4.948  18.496  0.1083 -0.2236 -0.0809
    5DPPC   C1B   57   5.682   5.229  19.642 -0.5134  0.1347  0.2797
    5DPPC   C2B   58   5.639   5.231  19.235 -0.0078  0.2412  0.1206
    5DPPC   C3B   59   5.515   5.301  18.775 -0.2350  0.1566 -0.2676
    5DPPC   C4B   60   5.551   5.238  18.231  0.2352 -0.3510  0.4974
    6DPPC   NC3   61   2.469   4.623  20.203 -0.1030  0.2576  0.1638
    6DPPC   PO4   62   2.149   4.457  20.347  0.0538  0.0331  0.2859
    6DPPC   GL1   63   2.010   4.587  19.950  0.1965 -0.0739 -0.2976
    6DPPC   GL2   64   1.886   4.851  20.052  0.0934 -0.1015 -0.4165
    6DPPC   C1A   65   1.802   4.372  19.715 -0.1052 -0.2539 -0.3460
    6DPPC   C2A   66   1.654   4.312  19.324  0.0046 -0.0355  0.2336
    6DPPC   C3A   67   1.596   4.283  18.857 -0.1309 -0.1243 -0.3354
    6DPPC   C4A   68   1.612   4.363  18.372 -0.3506 -0.2356 -0.1090
    6DPPC   C1B   69   1.880   4.860  19.696 -0.0603 -0.2015  0.1175
    6DPPC   C2B   70   1.774   4.894  19.300  0.2833  0.0845 -0.2562
    6DPPC   C3B   71   1.727   4.904  18.799  0.0001 -0.1218  0.2588
    6DPPC   C4B   72   1.657   4.832  18.387  0.1395 -0.1767 -0.1670
    7DPPC   NC3   73   4.917   4.954  20.439  0.2755  0.2012 -0.0089
    7DPPC   PO4   74   5.240   4.732  20.493  0.0177 -0.0211  0.0520
    7DPPC   GL1   75   5.358   4.632  20.107  0.3681 -0.0023  0.5555
    7DPPC   GL2   76   5.624   4.706  20.142  0.0337  0.1316  0.1457
    7DPPC   C1A   77   5.418   4.470  19.790 -0.2520  0.0505 -0.2703
    7DPPC   C2A   78   5.324   4.305  19.405 -0.0891 -0.1574 -0.0495
    7DPPC   C3A   79   5.287   4.325  18.928 -0.0647 -0.1690  0.4828
    7DPPC   C4A   80   5.417   4.333  18.467 -0.2525 -0.0038  0.3558
    7DPPC   C1B   81   5.774   4.738  19.830  0.2143 -0.0692 -0.4499
    7DPPC   C2B   82   5.909   4.845  19.452 -0.1548  0.0073  0.1552
    7DPPC   C3B   83   5.974   4.891  19.020 -0.0869 -0.2710  0.0464
    7DPPC   C4B   84   5.984   4.944  18.521 -0.0035  0.1231 -0.0047
    8DPPC   NC3   85   2.090   1.382  20.121 -0.0883  0.1284 -0.0118
    8DPPC   PO4   86   2.451   1.301  20.172  0.1854 -0.2588  0.2356
    8DPPC   GL1   87   2.431   1.069  19.811  0.1653  0.3648  0.0103
    8DPPC   GL2   88   2.625   1.283  19.834 -0.1589  0.1193 -0.1141
    8DPPC   C1A   89   2.317   1.113  19.475 -0.1167 -0.1411 -0.4069
    8DPPC   C2A   90   2.265   0.973  19.036 -0.0390  0.2175 -0.2003
    8DPPC   C3A   91   2.247   1.050  18.530 -0.2646 -0.2223 -0.1050
    8DPPC   C4A   92   2.207   1.073  18.059 -0.2946 -0.0910  0.2995
    8DPPC   C1B   93   2.689   1.535  19.563  0.1205 -0.2570  0.0618
    8DPPC   C2B   94   2.486   1.472  19.243  0.2545 -0.2961  0.0201
    8DPPC   C3B   95   2.430   1.515  18.710  0.1009  0.2001  0.0700
    8DPPC   C4B   96   2.480   1.510  18.228 -0.1908 -0.1873 -0.1027
    9DPPC   NC3   97   0.582   2.834  20.080 -0.0924  0.0929 -0.1188
    9DPPC   PO4   98   0.901   3.127  20.120  0.0062 -0.2529  0.1663
    9DPPC   GL1   99   1.180   3.150  19.820 -0.1343  0.0976  0.0773
    9DPPC   GL2  100   1.046   2.908  19.737  0.4083 -0.1253  0.3736
    9DPPC   C1A  101   1.165   3.369  19.510 -0.2789  0.2504 -0.3456
    9DPPC   C2A  102   1.262   3.364  19.141  0.2303  0.0492 -0.1751
    9DPPC   C3A  103   1.251   3.431  18.671 -0.5885  0.1080 -0.2874
    9DPPC   C4A  104   1.283   3.400  18.200  0.2929  0.0446 -0.2737
    9DPPC   C1B  105   1.056   2.976  19.356  0.1356 -0.2136 -0.3426
    9DPPC   C2B  106   1.083   2.890  18.952 -0.0755  0.1482 -0.0441
    9DPPC   C3B  107   1.126   2.929  18.448 -0.1716  0.0751 -0.2290
    9DPPC   C4B  108   1.052   2.964  17.969  0.1595 -0.1439  0.1139
   10DPPC   NC3  109   2.068   3.793  20.587 -0.1341  0.0898  0.0163
   10DPPC   PO4  110   2.112   3.895  20.226 -0.1194 -0.0427  0.0913
   10DPPC   GL1  111   1.969   3.623  20.049  0.1746 -0.1811  0.0568
   10DPPC   GL2  112   1.839   3.913  19.835 -0.1530  0.0985  0.1235
   10DPPC   C1A  113   2.136   3.474  19.762  0.0875  0.2209  0.0895
   10DPPC   C2A  114   2.364   3.570  19.392  0.0384 -0.1192 -0.0174
   10DPPC   C3A  115   2.298   3.571  18.864 -0.3677 -0.0549 -0.0420
   10DPPC   C4A  116   2.209   3.659  18.377 -0.0364  0.1232  0.3482
   10DPPC   C1B  117   1.959   3.977  19.553 -0.2139 -0.1667  0.0807
   10DPPC   C2B  118   1.958   3.933  19.137 -0.1055  0.0736 -0.1293
   10DPPC   C3B  119   1.960   3.944  18.642  0.2207  0.3142  0.0327
   10DPPC   C4B  120   1.829   3.950  18.117  0.0201 -0.0075  0.0449
   11DPPC   NC3  121   3.103   1.767  19.978  0.3321  0.0452  0.0768
   11DPPC   PO4  122   3.381   1.495  20.055 -0.2496  0.2363  0.3225
   11DPPC   GL1  123   3.532   1.446  19.672 -0.2317 -0.0434  0.3180
   11DPPC   GL2  124   3.492   1.704  19.671  0.2205 -0.0258  0.0220
   11DPPC   C1A  125   3.376   1.273  19.365 -0.2647 -0.1477  0.1082
   11DPPC   C2A  126   3.348   1.301  18.994  0.0125 -0.0470  0.3709
   11DPPC   C3A  127   3.317   1.241  18.486 -0.3285  0.2404  0.1249
   11DPPC   C4A  128   3.237   1.160  17.996  0.0414  0.1186 -0.1266
   11DPPC   C1B  129   3.531   1.732  19.299 -0.1804  0.3233  0.1359
   11DPPC   C2B  130   3.504   1.752  18.886 -0.1977  0.0732  0.0444
   11DPPC   C3B  131   3.408   1.746  18.428  0.0061 -0.1137 -0.1114
   11DPPC   C4B  132   3.327   1.741  17.924  0.0854 -0.1029 -0.2310
   12DPPC   NC3  133   6.200   2.647  20.361  0.1088 -0.1502 -0.0537
   12DPPC   PO4  134   6.301   2.336  20.118  0.1454  0.0435  0.0532
   12DPPC   GL1  135   6.389   2.353  19.644 -0.0683 -0.3215 -0.3649
   12DPPC   GL2  136   6.151   2.591  19.719  0.1553 -0.1067 -0.2283
   12DPPC   C1A  137   6.441   2.273  19.322  0.3331 -0.0347  0.2002
   12DPPC   C2A  138   6.576   2.286  18.897 -0.3505  0.3226 -0.2543
   12DPPC   C3A  139   6.626   2.312  18.438 -0.0073 -0.0819 -0.1715
   12DPPC   C4A  140   6.679   2.373  17.925 -0.1125  0.0692  0.0957
   12DPPC   C1B  141   6.153   2.661  19.356  0.1076 -0.2327 -0.0961
   12DPPC   C2B  142   6.174   2.622  18.896 -0.1615 -0.0216  0.2471
   12DPPC   C3B  143   6.251   2.685  18.466  0.0964  0.1383 -0.2236
   12DPPC   C4B  144   6.126   2.703  17.956 -0.2167 -0.2490  0.1200
   13DPPC   NC3  145   4.221   5.541  20.548 -0.2249 -0.1035  0.2309
   13DPPC   PO4  146   4.512   5.247  20.438 -0.0883 -0.3874  0.0692
   13DPPC   GL1  147   4.624   5.385  19.969 -0.1954  0.0753 -0.0125
   13DPPC   GL2  148   4.528   5.625  20.136  0.0956 -0.2495  0.0621
   13DPPC   C1A  149   4.667   5.479  19.594 -0.0055 -0.3141 -0.2223
   13DPPC   C2A  150   4.718   5.491  19.188  0.1789  0.3390  0.0645
   13DPPC   C3A  151   4.675   5.462  18.682 -0.0902 -0.0765  0.2576
   13DPPC   C4A  152   4.822   5.577  18.214 -0.1334  0.0872  0.0168
   13DPPC   C1B  153   4.412   5.839  19.847  0.0272 -0.3967  0.1560
   13DPPC   C2B  154   4.505   5.921  19.448 -0.4127  0.3629 -0.0664
   13DPPC   C3B  155   4.446   5.937  18.962 -0.0847 -0.0838  0.0856
   13DPPC   C4B  156   4.562   6.070  18.449  0.1181 -0.2108 -0.1318
   14DPPC   NC3  157   3.616   3.899  20.325 -0.0195  0.0863 -0.0886
   14DPPC   PO4  158   3.268   4.062  20.336  0.1314  0.0562  0.2338
   14DPPC   GL1  159   3.140   4.126  19.971  0.1003  0.1084  0.0322
   14DPPC   GL2  160   3.140   4.426  19.963  0.0919 -0.2257 -0.6269
   14DPPC   C1A  161   3.192   4.015  19.682  0.0353 -0.1815 -0.2816
   14DPPC   C2A  162   3.273   3.806  19.337  0.0882 -0.4552  0.1419
   14DPPC   C3A  163   3.271   3.841  18.858  0.1195 -0.2575  0.3336
   14DPPC   C4A  164   3.311   3.727  18.392 -0.2345 -0.0749  0.3134
   14DPPC   C1B  165   3.086   4.594  19.617 -0.2447 -0.0329 -0.1505
   14DPPC   C2B  166   3.019   4.674  19.237  0.1555 -0.1977  0.1644
   14DPPC   C3B  167   3.101   4.760  18.793  0.1294 -0.0583  0.1078
   14DPPC   C4B  168   3.067   4.646  18.305 -0.2475  0.4007 -0.0242
   15DPPC   NC3  169   1.144   1.219  20.166  0.2739  0.0111  0.0546
   15DPPC   PO4  170   0.798   1.051  20.196  0.1808 -0.1905 -0.0209
   15DPPC   GL1  171   0.866   0.972  19.816 -0.2538  0.0819 -0.1319
   15DPPC   GL2  172   0.759   0.677  19.813 -0.1172 -0.2764 -0.2696
   15DPPC   C1A  173   0.938   1.027  19.466 -0.1588 -0.0028 -0.1724
   15DPPC   C2A  174   0.946   1.094  19.031 -0.2204  0.0213 -0.4839
   15DPPC   C3A  175   0.934   1.137  18.603  0.0478  0.0102 -0.1226
   15DPPC   C4A  176   0.965   1.203  18.155 -0.0540  0.1949  0.0292
   15DPPC   C1B  177   0.751   0.552  19.464 -0.2426  0.3445 -0.2130
   15DPPC   C2B  178   0.743   0.627  19.075  0.2125  0.0496 -0.0277
   15DPPC   C3B  179   0.810   0.673  18.576  0.2720 -0.0269  0.0998
   15DPPC   C4B  180   0.777   0.722  18.125  0.2216  0.2070 -0.3328
   16DPPC   NC3  181   4.936   3.526  20.454 -0.3629 -0.1670 -0.3047
   16DPPC   PO4  182   4.978   3.804  20.221 -0.0869 -0.2182  0.0465
   16DPPC   GL1  183   4.797   3.811  19.901  0.0900  0.1023  0.0381
   16DPPC   GL2  184   4.786   4.118  19.839  0.1678  0.1619  0.2360
   16DPPC   C1A  185   4.597   3.730  19.586 -0.1751 -0.1180 -0.0590
   16DPPC   C2A  186   4.642   3.653  19.173 -0.0692  0.0882  0.0087
   16DPPC   C3A  187   4.659   3.694  18.700  0.1552 -0.2841  0.0468
   16DPPC   C4A  188   4.693   3.701  18.210  0.0761  0.1165  0.1822
   16DPPC   C1B  189   4.869   4.145  19.479  0.0246  0.2254 -0.2733
   16DPPC   C2B  190   4.801   4.222  19.113  0.0064  0.2058 -0.2582
   16DPPC   C3B  191   4.819   4.258  18.646  0.1447 -0.2490 -0.2813
   16DPPC   C4B  192   4.750   4.193  18.139 -0.2331 -0.1619  0.2941
   17DPPC   NC3  193   5.140   0.442  20.483  0.2650  0.3138 -0.2228
   17DPPC   PO4  194   5.200   0.551  20.106 -0.3625  0.1170 -0.0230
   17DPPC   GL1  195   5.155   0.727  19.769 -0.1423  0.2526 -0.1043
   17DPPC   GL2  196   5.167   0.982  19.924 -0.0332  0.1574  0.2870
   17DPPC   C1A  197   4.966   0.833  19.406  0.1588  0.0476 -0.1552
   17DPPC   C2A  198   4.957   0.729  19.024 -0.1977  0.0215  0.1089
   17DPPC   C3A  199   4.957   0.767  18.550 -0.0708  0.0130  0.0685
   17DPPC   C4A  200   4.838   0.864  18.078 -0.1174 -0.0425  0.3008
   17DPPC   C1B  201   5.148   1.209  19.694  0.1780  0.3517  0.1861
   17DPPC   C2B  202   5.148   1.272  19.281 -0.1664 -0.1532  0.1851
   17DPPC   C3B  203   5.196   1.177  18.785  0.0759 -0.1434 -0.3728
   17DPPC   C4B  204   5.218   1.153  18.275 -0.2069  0.0376  0.1449
   18DPPC   NC3  205   3.670   3.256  20.248  0.1320 -0.0393  0.0913
   18DPPC   PO4  206   3.795   2.959  20.024 -0.0816 -0.1198 -0.1869
   18DPPC   GL1  207   3.588   2.932  19.647 -0.0808 -0.1761  0.1055
   18DPPC   GL2  208   3.282   2.917  19.688 -0.0846  0.0084 -0.1961
   18DPPC   C1A  209   3.617   3.070  19.285 -0.0182 -0.2689 -0.0764
   18DPPC   C2A  210   3.499   2.949  18.897  0.1678 -0.1429 -0.0418
   18DPPC   C3A  211   3.477   3.041  18.415  0.2211  0.2173  0.0134
   18DPPC   C4A  212   3.377   3.035  17.941 -0.0315  0.0370  0.1606
   18DPPC   C1B  213   3.052   2.986  19.402  0.1098  0.0743  0.1779
   18DPPC   C2B  214   3.003   2.905  18.985 -0.5183 -0.0801 -0.0913
   18DPPC   C3B  215   2.990   2.942  18.492  0.3293  0.1054 -0.1371
   18DPPC   C4B  216   2.883   2.919  18.023 -0.0364 -0.0802 -0.0213
   19DPPC   NC3  217   1.550   0.430  20.621  0.1757  0.2033  0.1787
   19DPPC   PO4  218   1.559   0.201  20.347  0.1965  0.0739 -0.1603
   19DPPC   GL1  219   1.616   0.412  20.030  0.1060 -0.5227 -0.4169
   19DPPC   GL2  220   1.743   0.663  20.043 -0.0178  0.1502  0.2528
   19DPPC   C1A  221   1.620   0.350  19.704 -0.1668  0.0997  0.0909
   19DPPC   C2A  222   1.584   0.356  19.275  0.1220 -0.0419 -0.2759
   19DPPC   C3A  223   1.670   0.369  18.812 -0.2454 -0.0201 -0.1832
   19DPPC   C4A  224   1.629   0.438  18.377 -0.1698  0.2479 -0.0896
   19DPPC   C1B  225   1.684   0.778  19.680  0.0031 -0.3558 -0.4917
   19DPPC   C2B  226   1.684   0.844  19.250  0.0528  0.0413  0.1573
   19DPPC   C3B  227   1.803   0.878  18.830 -0.1682  0.1745 -0.1729
   19DPPC   C4B  228   1.808   0.912  18.316 -0.1938  0.2390 -0.1658
   20DPPC   NC3  229   3.587   4.364  20.075  0.1214  0.3314 -0.2464
   20DPPC   PO4  230   3.374   4.573  20.331  0.1184  0.0798 -0.2811
   20DPPC   GL1  231   3.191   4.824  20.045  0.1665 -0.0925 -0.1402
   20DPPC   GL2  232   2.941   4.768  20.182 -0.0895  0.2279 -0.2036
   20DPPC   C1A  233   3.196   4.990  19.734 -0.1485 -0.2252 -0.2160
   20DPPC   C2A  234   3.248   5.202  19.348  0.0562  0.2860 -0.0424
   20DPPC   C3A  235   3.277   5.224  18.846  0.0466 -0.4208 -0.2550
   20DPPC   C4A  236   3.161   5.166  18.371 -0.0652  0.1237 -0.1392
   20DPPC   C1B  237   2.739   4.619  19.878 -0.1362 -0.1138 -0.2362
   20DPPC   C2B  238   2.591   4.663  19.457 -0.2251  0.0397  0.1444
   20DPPC   C3B  239   2.597   4.621  19.018  0.0176  0.2241  0.0940
   20DPPC   C4B  240   2.585   4.518  18.519 -0.0215  0.1209 -0.1876
   21DPPC   NC3  241  26.318   1.226  20.356  0.1185  0.1147 -0.1975
   21DPPC   PO4  242  26.474   0.853  20.285  0.1865 -0.1490 -0.0757
   21DPPC   GL1  243  26.459   0.653  19.856  0.2295  0.4475  0.4755
   21DPPC   GL2  244  26.409   0.866  19.779 -0.2447  0.4001 -0.1494
   21DPPC   C1A  245  26.736   0.542  19.649 -0.1382  0.4765  0.0425
   21DPPC   C2A  246  26.660   0.476  19.256 -0.1750  0.0169  0.0620
   21DPPC   C3A  247  26.728   0.553  18.767 -0.1027 -0.2997  0.1712
   21DPPC   C4A  248  26.655   0.579  18.260 -0.0224 -0.1479 -0.1959
   21DPPC   C1B  249  26.463   0.908  19.411  0.5261  0.0964  0.2486
   21DPPC   C2B  250  26.382   0.960  18.990 -0.1331 -0.0321  0.0010
   21DPPC   C3B  251  26.376   0.959  18.537 -0.0090 -0.0659 -0.0796
   21DPPC   C4B  252  26.376   0.966  18.053 -0.1765 -0.0704  0.0228
   22DPPC   NC3  253   1.631   2.881  20.393  0.0727  0.2580 -0.1780
   22DPPC   PO4  254   1.961   2.847  20.205 -0.0197 -0.0180 -0.2267
   22DPPC   GL1  255   1.924   2.770  19.776  0.0949 -0.0650  0.0554
   22DPPC   GL2  256   2.195   2.905  19.766  0.2283 -0.0252 -0.3279
   22DPPC   C1A  257   1.859   2.594  19.457  0.0094 -0.1060  0.0676
   22DPPC   C2A  258   1.951   2.645  19.060 -0.3757 -0.2128 -0.2621
   22DPPC   C3A  259   1.918   2.641  18.573 -0.0674 -0.0812 -0.0893
   22DPPC   C4A  260   1.938   2.738  18.120 -0.1016 -0.1457  0.2491
   22DPPC   C1B  261   2.205   3.065  19.469  0.2612 -0.3504 -0.2265
   22DPPC   C2B  262   2.158   3.132  19.046 -0.2079  0.0908  0.1224
   22DPPC   C3B  263   2.145   3.156  18.552  0.0472 -0.0043 -0.0817
   22DPPC   C4B  264   2.027   3.248  18.127 -0.0827 -0.0871 -0.0728
   23DPPC   NC3  265   4.054   4.968  20.430 -0.4124  0.0504  0.1751
   23DPPC   PO4  266   3.850   4.727  20.212  0.2251  0.0896 -0.2430
   23DPPC   GL1  267   3.619   4.817  19.858 -0.3108  0.3421 -0.2006
   23DPPC   GL2  268   3.760   5.042  19.891  0.1197  0.2087  0.5591
   23DPPC   C1A  269   3.547   4.781  19.514  0.0242  0.1970 -0.1197
   23DPPC   C2A  270   3.599   4.814  19.081 -0.2821 -0.0473 -0.0330
   23DPPC   C3A  271   3.599   4.875  18.595  0.3238 -0.0902 -0.1597
   23DPPC   C4A  272   3.508   4.782  18.127 -0.0228 -0.1875 -0.0043
   23DPPC   C1B  273   3.768   5.158  19.520  0.0294  0.1224 -0.0851
   23DPPC   C2B  274   3.711   5.302  19.126 -0.0365 -0.0886 -0.2242
   23DPPC   C3B  275   3.684   5.320  18.670 -0.3086  0.0086  0.0133
   23DPPC   C4B  276   3.688   5.365  18.170 -0.2733 -0.0164 -0.0539
   24DPPC   NC3  277   2.338   6.382  20.709 -0.0316  0.3912  0.1878
   24DPPC   PO4  278   2.476   6.716  20.545 -0.1137 -0.0704 -0.0057
   24DPPC   GL1  279   2.629   6.804  20.200 -0.2599  0.3660 -0.1510
   24DPPC   GL2  280   2.604   7.023  20.100  0.1341 -0.0304 -0.2565
   24DPPC   C1A  281   2.703   6.606  19.901  0.0489  0.3181  0.1421
   24DPPC   C2A  282   2.726   6.477  19.503  0.1355 -0.2411 -0.1522
   24DPPC   C3A  283   2.758   6.347  19.068 -0.0167 -0.0469  0.0710
   24DPPC   C4A  284   2.672   6.382  18.579 -0.0847 -0.1757  0.3126
   24DPPC   C1B  285   2.528   6.990  19.670  0.2228 -0.2853 -0.2112
   24DPPC   C2B  286   2.461   6.850  19.278 -0.1430  0.2187 -0.1801
   24DPPC   C3B  287   2.386   6.740  18.804  0.0718  0.2213  0.0066
   24DPPC   C4B  288   2.383   6.797  18.342  0.1818  0.0494  0.1760
   25DPPC   NC3  289   1.319   2.139  20.082 -0.1265 -0.0077 -0.0080
   25DPPC   PO4  290   0.985   1.965  19.942  0.0744 -0.0877 -0.1351
   25DPPC   GL1  291   0.964   1.749  19.555  0.2113 -0.0928  0.3051
   25DPPC   GL2  292   1.103   1.987  19.562 -0.0043 -0.2744 -0.1196
   25DPPC   C1A  293   1.147   1.621  19.224  0.2862 -0.0217 -0.4244
   25DPPC   C2A  294   1.117   1.565  18.860  0.1455  0.1225  0.3182
   25DPPC   C3A  295   1.085   1.624  18.359  0.4334  0.0667  0.0327
   25DPPC   C4A  296   1.092   1.616  17.850 -0.1087 -0.1469 -0.2863
   25DPPC   C1B  297   1.161   2.066  19.226 -0.0558 -0.1458 -0.0405
   25DPPC   C2B  298   1.234   2.126  18.868  0.0779  0.0017  0.3412
   25DPPC   C3B  299   1.269   2.099  18.358  0.2664 -0.0105 -0.3282
   25DPPC   C4B  300   1.161   2.139  17.888  0.2103 -0.1920 -0.2829
   26DPPC   NC3  301   0.881   4.105  20.423  0.0155 -0.0687  0.0227
   26DPPC   PO4  302   0.790   3.769  20.230 -0.0636 -0.1449  0.0899
   26DPPC   GL1  303   0.642   3.672  19.761  0.2512 -0.0821  0.1025
   26DPPC   GL2  304   0.885   3.477  19.785  0.0984  0.1273 -0.0940
   26DPPC   C1A  305   0.471   3.688  19.419  0.0501 -0.1276 -0.0702
   26DPPC   C2A  306   0.420   3.634  18.942  0.1126  0.1220  0.2526
   26DPPC   C3A  307   0.421   3.724  18.437  0.0751  0.2476  0.0195
   26DPPC   C4A  308   0.384   3.665  17.871 -0.1417 -0.1341  0.0104
   26DPPC   C1B  309   0.758   3.313  19.525  0.0861 -0.0312 -0.1606
   26DPPC   C2B  310   0.734   3.302  19.124  0.0143  0.2479 -0.1703
   26DPPC   C3B  311   0.710   3.333  18.637 -0.0529 -0.0751  0.2205
   26DPPC   C4B  312   0.803   3.381  18.142  0.2096 -0.0309 -0.0587
   27DPPC   NC3  313   5.897   0.140  20.319 -0.1362  0.1087  0.0684
   27DPPC   PO4  314   5.713   0.447  20.226 -0.1632  0.1578  0.1287
   27DPPC   GL1  315   5.623   0.677  19.858 -0.2805  0.1870  0.0003
   27DPPC   GL2  316   5.719   0.402  19.759 -0.2567 -0.1832 -0.2444
   27DPPC   C1A  317   5.484   0.777  19.526 -0.2358 -0.1544  0.1771
   27DPPC   C2A  318   5.513   0.791  19.135  0.1768 -0.4167  0.1193
   27DPPC   C3A  319   5.598   0.864  18.707 -0.1193 -0.2053  0.0784
   27DPPC   C4A  320   5.537   0.810  18.271 -0.0545  0.0491  0.1804
   27DPPC   C1B  321   5.796   0.402  19.375  0.1235 -0.1891  0.0613
   27DPPC   C2B  322   5.817   0.433  18.980 -0.3049 -0.1980  0.2019
   27DPPC   C3B  323   5.874   0.486  18.512 -0.0490  0.2743  0.0940
   27DPPC   C4B  324   5.910   0.546  18.053 -0.3426 -0.1371  0.1163
   28DPPC   NC3  325   7.445   2.588  20.593 -0.0054  0.1010  0.0080
   28DPPC   PO4  326   7.096   2.517  20.358  0.0340  0.2590  0.0202
   28DPPC   GL1  327   7.052   2.691  19.970  0.1310 -0.2063 -0.0081
   28DPPC   GL2  328   7.283   2.511  19.890  0.0418  0.2495 -0.0773
   28DPPC   C1A  329   6.880   2.698  19.637  0.0782  0.0906  0.2224
   28DPPC   C2A  330   6.574   2.722  19.312  0.1385  0.2491 -0.0246
   28DPPC   C3A  331   6.654   2.822  18.818  0.1280 -0.1016  0.0459
   28DPPC   C4A  332   6.685   2.814  18.269 -0.2001 -0.1144 -0.0658
   28DPPC   C1B  333   7.172   2.379  19.556 -0.2406 -0.1413  0.0724
   28DPPC   C2B  334   7.020   2.437  19.188  0.1934 -0.1036 -0.1669
   28DPPC   C3B  335   6.992   2.508  18.688  0.2213  0.1423  0.1229
   28DPPC   C4B  336   7.089   2.535  18.194  0.1594  0.1492  0.0724
   29DPPC   NC3  337   3.464   0.410  20.634  0.0727 -0.2305  0.1813
   29DPPC   PO4  338   3.512   0.646  20.308  0.2505 -0.2631 -0.0884
   29DPPC   GL1  339   3.523   0.559  19.891 -0.1540  0.1158 -0.3107
   29DPPC   GL2  340   3.807   0.484  19.864 -0.0537  0.2777  0.1357
   29DPPC   C1A  341   3.340   0.727  19.639  0.0256  0.3527  0.0951
   29DPPC   C2A  342   3.178   0.821  19.280  0.1710  0.1360  0.0887
   29DPPC   C3A  343   3.095   0.808  18.758  0.2775 -0.0722 -0.1044
   29DPPC   C4A  344   3.097   0.647  18.285 -0.2861 -0.1344  0.0269
   29DPPC   C1B  345   3.899   0.479  19.498 -0.1088 -0.0316  0.1121
   29DPPC   C2B  346   3.981   0.504  19.071  0.0357 -0.1689 -0.0127
   29DPPC   C3B  347   3.957   0.564  18.570  0.1919  0.0134 -0.0745
   29DPPC   C4B  348   3.888   0.476  18.065  0.1364  0.0845 -0.1051
   30DPPC   NC3  349   2.164   0.492  20.267  0.1271 -0.3019  0.0216
   30DPPC   PO4  350   2.306   0.832  20.252  0.0742 -0.0880 -0.0919
   30DPPC   GL1  351   2.011   0.946  19.936  0.1674 -0.3356 -0.0670
   30DPPC   GL2  352   2.161   0.674  19.807  0.1451 -0.3523  0.1178
   30DPPC   C1A  353   1.901   1.212  19.647  0.0481  0.1065  0.0255
   30DPPC   C2A  354   1.981   1.321  19.207  0.1473  0.0755  0.1338
   30DPPC   C3A  355   1.890   1.454  18.752 -0.1972  0.1639 -0.0543
   30DPPC   C4A  356   1.887   1.431  18.265 -0.1162 -0.0759  0.1283
   30DPPC   C1B  357   2.132   0.588  19.427 -0.0845  0.4809 -0.0157
   30DPPC   C2B  358   2.108   0.510  19.016  0.0628 -0.1180  0.2614
   30DPPC   C3B  359   2.144   0.580  18.520 -0.0273  0.0755  0.3077
   30DPPC   C4B  360   2.081   0.578  18.044 -0.0591  0.0954  0.2738
   31DPPC   NC3  361   2.946   3.918  20.656  0.1018  0.0358  0.0335
   31DPPC   PO4  362   2.688   3.964  20.360  0.0650  0.4533 -0.0803
   31DPPC   GL1  363   2.638   4.178  20.026 -0.1219  0.3857 -0.2658
   31DPPC   GL2  364   2.377   4.211  20.025  0.0021 -0.0875 -0.2173
   31DPPC   C1A  365   2.769   4.220  19.709 -0.2795  0.0681  0.1050
   31DPPC   C2A  366   2.891   4.220  19.341 -0.0978 -0.0090  0.1745
   31DPPC   C3A  367   2.936   4.242  18.852 -0.1166  0.1650  0.2323
   31DPPC   C4A  368   3.039   4.130  18.397 -0.2177 -0.3903  0.2651
   31DPPC   C1B  369   2.193   4.293  19.747 -0.0630 -0.1654  0.0531
   31DPPC   C2B  370   2.124   4.515  19.461  0.3320 -0.0751 -0.1708
   31DPPC   C3B  371   2.090   4.551  18.991 -0.0250 -0.1313  0.2373
   31DPPC   C4B  372   2.068   4.439  18.514 -0.0361  0.0230 -0.0671
   32DPPC   NC3  373   4.333   3.807  20.068  0.0254 -0.2196  0.2041
   32DPPC   PO4  374   4.055   3.480  20.054 -0.0607  0.0318 -0.2943
   32DPPC   GL1  375   3.899   3.306  19.692  0.0705  0.0117 -0.0068
   32DPPC   GL2  376   4.014   3.091  19.623 -0.0589 -0.2092  0.5168
   32DPPC   C1A  377   3.766   3.479  19.433  0.4583 -0.1080  0.4518
   32DPPC   C2A  378   3.724   3.490  19.031 -0.1646  0.0219  0.3681
   32DPPC   C3A  379   3.678   3.452  18.610  0.1254 -0.1695 -0.0592
   32DPPC   C4A  380   3.606   3.411  18.112  0.0625 -0.3259  0.0308
   32DPPC   C1B  381   4.015   3.145  19.255  0.0057  0.2359 -0.3059
   32DPPC   C2B  382   4.020   3.145  18.809  0.0583  0.0555  0.2426
   32DPPC   C3B  383   3.949   3.101  18.322 -0.2482 -0.0135  0.2345
   32DPPC   C4B  384   3.905   3.159  17.847  0.0504 -0.0597  0.2131
   33DPPC   NC3  385   2.975   3.709  20.055 -0.1323  0.0615 -0.0786
   33DPPC   PO4  386   3.246   3.512  20.227 -0.0064 -0.1245  0.0287
   33DPPC   GL1  387   3.607   3.642  19.926 -0.1791  0.1029  0.0292
   33DPPC   GL2  388   3.492   3.320  19.844 -0.2899  0.1637  0.3592
   33DPPC   C1A  389   3.608   4.010  19.797 -0.3974  0.3569 -0.1467
   33DPPC   C2A  390   3.500   4.300  19.539  0.0936 -0.2777  0.1238
   33DPPC   C3A  391   3.370   4.321  19.123 -0.0918  0.1455 -0.4797
   33DPPC   C4A  392   3.400   4.360  18.632 -0.3529 -0.4157 -0.3654
   33DPPC   C1B  393   3.374   3.294  19.534  0.2430  0.1219 -0.0966
   33DPPC   C2B  394   3.218   3.360  19.166 -0.2032 -0.4832 -0.3013
   33DPPC   C3B  395   3.128   3.387  18.733  0.0425  0.1840  0.1426
   33DPPC   C4B  396   3.063   3.355  18.239  0.0276  0.0249  0.0739
   34DPPC   NC3  397   3.932   2.309  20.342 -0.0246  0.1740 -0.0332
   34DPPC   PO4  398   4.126   2.645  20.249  0.0764 -0.0020 -0.1523
   34DPPC   GL1  399   4.122   2.643  19.823  0.3393 -0.0454 -0.0867
   34DPPC   GL2  400   4.388   2.759  19.761  0.2761 -0.1093 -0.1932
   34DPPC   C1A  401   3.926   2.638  19.497 -0.3672 -0.2100 -0.0683
   34DPPC   C2A  402   3.914   2.656  19.102 -0.0774 -0.1053 -0.2846
   34DPPC   C3A  403   3.817   2.652  18.657 -0.2470 -0.0887  0.1619
   34DPPC   C4A  404   3.735   2.690  18.093 -0.2139  0.0873  0.5524
   34DPPC   C1B  405   4.373   2.812  19.412  0.2007  0.0132 -0.4480
   34DPPC   C2B  406   4.424   2.730  19.019  0.1666 -0.0998  0.0914
   34DPPC   C3B  407   4.327   2.799  18.563 -0.0350  0.1334 -0.1681
   34DPPC   C4B  408   4.257   2.798  18.020  0.0792  0.0562 -0.1712
   35DPPC   NC3  409   3.879   0.313  20.392 -0.1097 -0.0575 -0.0686
   35DPPC   PO4  410   3.538   0.178  20.187 -0.0625  0.2202 -0.1124
   35DPPC   GL1  411   3.485   0.121  19.786  0.1210 -0.1729  0.0356
   35DPPC   GL2  412   3.625  -0.135  19.788 -0.1207  0.1820 -0.2611
   35DPPC   C1A  413   3.501   0.325  19.451  0.4028 -0.2990  0.0077
   35DPPC   C2A  414   3.496   0.399  19.065  0.0178  0.1118  0.3190
   35DPPC   C3A  415   3.483   0.388  18.529  0.1475  0.2277 -0.0006
   35DPPC   C4A  416   3.407   0.326  18.066  0.0666  0.1380 -0.1491
   35DPPC   C1B  417   3.633  -0.387  19.508 -0.0960 -0.2825 -0.2183
   35DPPC   C2B  418   3.668  -0.359  19.042 -0.0223 -0.1374  0.2026
   35DPPC   C3B  419   3.605  -0.377  18.537 -0.0352  0.1949 -0.2562
   35DPPC   C4B  420   3.491  -0.420  18.093 -0.0002 -0.1866  0.0576
   36DPPC   NC3  421   6.576   1.544  20.081 -0.0197 -0.0416  0.0877
   36DPPC   PO4  422   6.378   1.216  19.962  0.2660  0.0641 -0.1416
   36DPPC   GL1  423   6.451   1.437  19.554 -0.0489 -0.1165  0.4915
   36DPPC   GL2  424   6.134   1.573  19.651  0.1647 -0.3262 -0.2334
   36DPPC   C1A  425   6.597   1.392  19.275 -0.0940  0.0995  0.1063
   36DPPC   C2A  426   6.650   1.436  18.882 -0.1183  0.3910 -0.1745
   36DPPC   C3A  427   6.713   1.476  18.444  0.0491  0.2200 -0.1937
   36DPPC   C4A  428   6.832   1.556  17.991  0.1688  0.1215 -0.1838
   36DPPC   C1B  429   5.936   1.752  19.361 -0.0550  0.0804 -0.0410
   36DPPC   C2B  430   5.934   1.773  18.939  0.0421  0.0094  0.1218
   36DPPC   C3B  431   5.889   1.748  18.436 -0.0504  0.0599 -0.0757
   36DPPC   C4B  432   5.812   1.731  17.932 -0.4350 -0.2864 -0.1559
   37DPPC   NC3  433   5.966   5.442  20.328 -0.0972  0.0807 -0.0929
   37DPPC   PO4  434   5.655   5.724  20.343  0.0076  0.0587  0.0726
   37DPPC   GL1  435   5.649   5.831  20.045  0.0436 -0.1548  0.1012
   37DPPC   GL2  436   5.440   5.558  20.008 -0.1057  0.2219 -0.0921
   37DPPC   C1A  437   5.540   5.843  19.661  0.0021 -0.0913 -0.0285
   37DPPC   C2A  438   5.486   5.995  19.268 -0.1081  0.0238  0.3197
   37DPPC   C3A  439   5.530   6.091  18.835 -0.0825 -0.2074  0.1584
   37DPPC   C4A  440   5.580   6.203  18.356  0.0590 -0.1946  0.0533
   37DPPC   C1B  441   5.301   5.404  19.688  0.0182 -0.3697 -0.2846
   37DPPC   C2B  442   5.142   5.192  19.362 -0.0000 -0.1359  0.1052
   37DPPC   C3B  443   4.999   5.146  18.953  0.0532  0.0294  0.2207
   37DPPC   C4B  444   5.068   5.185  18.480  0.1128 -0.0842 -0.3031
   38DPPC   NC3  445   5.392   2.050  20.111 -0.0526 -0.0910  0.0203
   38DPPC   PO4  446   5.033   2.262  20.091 -0.0324  0.1622 -0.0524
   38DPPC   GL1  447   5.147   2.346  19.724 -0.1600  0.4042 -0.1101
   38DPPC   GL2  448   5.166   2.055  19.559 -0.1654 -0.1207  0.1832
   38DPPC   C1A  449   5.210   2.557  19.488  0.1054 -0.1252  0.2745
   38DPPC   C2A  450   5.286   2.614  19.086  0.0403 -0.0099  0.2281
   38DPPC   C3A  451   5.329   2.816  18.661 -0.0555  0.2241  0.1774
   38DPPC   C4A  452   5.346   2.986  18.191  0.0204  0.2282  0.1704
   38DPPC   C1B  453   5.040   1.974  19.218 -0.1955  0.0706 -0.2104
   38DPPC   C2B  454   5.069   2.044  18.796  0.1484  0.2878  0.2648
   38DPPC   C3B  455   5.126   2.286  18.364  0.2216  0.0031 -0.2134
   38DPPC   C4B  456   5.135   2.552  17.958 -0.1571 -0.1947  0.0450
   39DPPC   NC3  457   3.208   2.868  20.136  0.3776 -0.2293  0.2185
   39DPPC   PO4  458   2.897   2.714  19.959  0.0891 -0.2108  0.1031
   39DPPC   GL1  459   2.557   2.782  19.563 -0.0985 -0.2432  0.2375
   39DPPC   GL2  460   2.649   3.063  19.574  0.1360  0.1726  0.3467
   39DPPC   C1A  461   2.477   2.741  19.186  0.1938  0.1535 -0.2655
   39DPPC   C2A  462   2.401   2.798  18.769 -0.2287 -0.1471 -0.2669
   39DPPC   C3A  463   2.432   2.856  18.282 -0.1545 -0.1316  0.2726
   39DPPC   C4A  464   2.465   2.875  17.770  0.1910  0.1430 -0.0209
   39DPPC   C1B  465   2.707   3.255  19.261 -0.0015 -0.0768  0.2898
   39DPPC   C2B  466   2.687   3.227  18.831  0.1446  0.0371  0.1516
   39DPPC   C3B  467   2.603   3.312  18.419  0.0615 -0.2778  0.4142
   39DPPC   C4B  468   2.505   3.309  17.948  0.0169  0.0900 -0.0821
   40DPPC   NC3  469   1.988   5.992  20.430 -0.1149 -0.2428 -0.1117
   40DPPC   PO4  470   1.613   5.886  20.492 -0.1360 -0.0928  0.3733
   40DPPC   GL1  471   1.647   5.754  20.116  0.1954  0.1603 -0.1551
   40DPPC   GL2  472   1.378   5.661  20.098  0.0282 -0.4943  0.3636
   40DPPC   C1A  473   1.740   5.899  19.871  0.3263 -0.0347  0.2493
   40DPPC   C2A  474   1.858   6.189  19.563  0.0092  0.4686 -0.0970
   40DPPC   C3A  475   1.822   6.113  19.089  0.1383  0.0549  0.1473
   40DPPC   C4A  476   1.757   6.074  18.522 -0.0503 -0.0302 -0.1723
   40DPPC   C1B  477   1.427   5.671  19.715  0.2240  0.4445 -0.0897
   40DPPC   C2B  478   1.655   5.711  19.409 -0.1157 -0.1801  0.0976
   40DPPC   C3B  479   1.677   5.684  18.896  0.1151  0.0730  0.0209
   40DPPC   C4B  480   1.509   5.649  18.429  0.1566  0.1698  0.3045
   41DPPC   NC3  481   0.911   4.729  20.594  0.1571  0.0466  0.1151
   41DPPC   PO4  482   0.680   4.571  20.295 -0.0782  0.1556  0.2387
   41DPPC   GL1  483   0.593   4.666  19.922 -0.2575 -0.2474 -0.1168
   41DPPC   GL2  484   0.792   4.650  19.772 -0.0212  0.2196 -0.2923
   41DPPC   C1A  485   0.363   4.483  19.698 -0.0672  0.3455  0.0265
   41DPPC   C2A  486   0.312   4.467  19.254  0.1961  0.2561 -0.2785
   41DPPC   C3A  487   0.233   4.553  18.736 -0.0644  0.0393 -0.3770
   41DPPC   C4A  488   0.120   4.608  18.298  0.1767 -0.1463 -0.1736
   41DPPC   C1B  489   0.831   4.526  19.447  0.1656 -0.1831 -0.1506
   41DPPC   C2B  490   0.772   4.556  19.052 -0.0217 -0.2519 -0.3259
   41DPPC   C3B  491   0.728   4.642  18.580  0.0492 -0.4327 -0.0376
   41DPPC   C4B  492   0.587   4.748  18.135 -0.0768 -0.3414  0.1528
   42DPPC   NC3  493   1.429   5.435  20.522  0.1752  0.1493 -0.0237
   42DPPC   PO4  494   1.301   5.018  20.576 -0.1775 -0.2613 -0.1577
   42DPPC   GL1  495   1.092   4.941  20.216  0.2488 -0.1327 -0.0397
   42DPPC   GL2  496   1.193   5.245  20.204  0.0661 -0.0400 -0.2350
   42DPPC   C1A  497   1.121   4.959  19.871  0.1031  0.2613  0.1624
   42DPPC   C2A  498   1.062   5.000  19.435  0.2457  0.0021  0.1751
   42DPPC   C3A  499   0.953   5.011  18.944  0.0354  0.3912 -0.3193
   42DPPC   C4A  500   0.926   5.082  18.486 -0.0994  0.4431  0.0500
   42DPPC   C1B  501   1.096   5.405  19.862  0.2223 -0.0151  0.1076
   42DPPC   C2B  502   1.097   5.486  19.444  0.0650  0.1641 -0.0142
   42DPPC   C3B  503   1.112   5.560  19.011 -0.1532 -0.0584 -0.1032
   42DPPC   C4B  504   1.028   5.572  18.497 -0.1127 -0.1862 -0.1879
   43DPPC   NC3  505   1.182   2.770  20.170 -0.2955 -0.1763 -0.1676
   43DPPC   PO4  506   1.462   2.698  19.907 -0.1831 -0.0070  0.0163
   43DPPC   GL1  507   1.434   2.881  19.568 -0.3683  0.3484  0.6652
   43DPPC   GL2  508   1.414   2.628  19.456 -0.1272 -0.0898  0.1705
   43DPPC   C1A  509   1.673   2.974  19.259 -0.0959 -0.0145 -0.0605
   43DPPC   C2A  510   1.604   3.042  18.877  0.0018  0.1665  0.1160
   43DPPC   C3A  511   1.611   3.081  18.368 -0.0561 -0.3024 -0.0189
   43DPPC   C4A  512   1.572   3.042  17.862 -0.0646 -0.0217 -0.2932
   43DPPC   C1B  513   1.402   2.562  19.114 -0.2167 -0.2027 -0.1317
   43DPPC   C2B  514   1.424   2.628  18.665  0.1532  0.1148 -0.0632
   43DPPC   C3B  515   1.462   2.574  18.209 -0.3860  0.1450 -0.0553
   43DPPC   C4B  516   1.306   2.576  17.760 -0.0119  0.1147 -0.0111
   44DPPC   NC3  517   5.320   3.516  19.967 -0.1585 -0.1965  0.2205
   44DPPC   PO4  518   5.710   3.544  19.992  0.3196 -0.2306  0.0476
   44DPPC   GL1  519   5.722   3.403  19.605  0.2470 -0.0289  0.0359
   44DPPC   GL2  520   5.452   3.415  19.544 -0.5174 -0.3021 -0.1057
   44DPPC   C1A  521   5.943   3.398  19.364  0.2851  0.0328 -0.0617
   44DPPC   C2A  522   6.003   3.538  18.953 -0.1430  0.0459 -0.2853
   44DPPC   C3A  523   6.010   3.589  18.464 -0.0425  0.1149 -0.0270
   44DPPC   C4A  524   5.897   3.538  17.977 -0.1893 -0.1330  0.2303
   44DPPC   C1B  525   5.473   3.460  19.175  0.3133  0.1115  0.1497
   44DPPC   C2B  526   5.477   3.434  18.748 -0.0018 -0.2217  0.0277
   44DPPC   C3B  527   5.489   3.455  18.240 -0.0403  0.1914 -0.0623
   44DPPC   C4B  528   5.426   3.528  17.753  0.2626 -0.2737  0.0329
   45DPPC   NC3  529   5.054   1.436  20.466 -0.0158  0.1229 -0.0145
   45DPPC   PO4  530   5.056   1.669  20.141  0.1950  0.0025  0.1050
   45DPPC   GL1  531   5.227   1.630  19.711 -0.0853 -0.1075 -0.1049
   45DPPC   GL2  532   4.925   1.579  19.591 -0.3983  0.1107  0.6142
   45DPPC   C1A  533   5.365   1.659  19.355 -0.0747  0.2216  0.3630
   45DPPC   C2A  534   5.364   1.633  18.946 -0.0205 -0.4829  0.0418
   45DPPC   C3A  535   5.335   1.688  18.466 -0.0738  0.2752 -0.0457
   45DPPC   C4A  536   5.284   1.561  17.978  0.0176 -0.0642 -0.2178
   45DPPC   C1B  537   4.796   1.563  19.220  0.0400  0.1165 -0.2093
   45DPPC   C2B  538   4.801   1.519  18.823 -0.4766 -0.1416 -0.3610
   45DPPC   C3B  539   4.826   1.597  18.361  0.1352  0.0682 -0.1059
   45DPPC   C4B  540   4.888   1.880  17.959  0.0314 -0.0386 -0.1061
   46DPPC   NC3  541   5.189   5.786  20.372  0.0536  0.2722  0.0489
   46DPPC   PO4  542   5.365   6.138  20.265  0.0280 -0.3832  0.0265
   46DPPC   GL1  543   5.312   6.247  19.830  0.1054  0.2442 -0.0357
   46DPPC   GL2  544   5.049   6.324  19.821 -0.2295  0.0731  0.1207
   46DPPC   C1A  545   5.563   6.387  19.543 -0.2475  0.1439  0.4530
   46DPPC   C2A  546   5.645   6.526  19.202 -0.0662  0.3493  0.2271
   46DPPC   C3A  547   5.645   6.631  18.721  0.2896  0.2775  0.0176
   46DPPC   C4A  548   5.739   6.651  18.229 -0.3107  0.0074  0.1361
   46DPPC   C1B  549   5.031   6.134  19.480  0.1221 -0.2474 -0.1834
   46DPPC   C2B  550   4.898   6.027  19.133 -0.0560  0.0290 -0.0328
   46DPPC   C3B  551   4.939   5.958  18.691 -0.0031  0.0668  0.0264
   46DPPC   C4B  552   5.127   6.040  18.240  0.1563 -0.1625 -0.1196
   47DPPC   NC3  553   5.119   4.247  20.125 -0.0449 -0.1564 -0.1153
   47DPPC   PO4  554   4.836   4.576  20.152  0.0284 -0.1198 -0.2392
   47DPPC   GL1  555   4.562   4.550  19.866 -0.0315 -0.1834  0.0583
   47DPPC   GL2  556   4.369   4.407  19.995  0.0242 -0.0751  0.1559
   47DPPC   C1A  557   4.461   4.649  19.547 -0.1065  0.3017 -0.1642
   47DPPC   C2A  558   4.394   4.619  19.142 -0.0394  0.3525 -0.3014
   47DPPC   C3A  559   4.404   4.588  18.647 -0.0637  0.1345 -0.1244
   47DPPC   C4A  560   4.252   4.516  18.186 -0.0608  0.3097  0.0496
   47DPPC   C1B  561   4.334   4.150  19.743  0.0515  0.1338  0.0128
   47DPPC   C2B  562   4.339   4.068  19.346  0.2126  0.2101  0.1485
   47DPPC   C3B  563   4.274   4.143  18.829 -0.1125  0.0944 -0.3398
   47DPPC   C4B  564   4.197   4.063  18.348 -0.0047  0.0573 -0.4201
   48DPPC   NC3  565   3.473   5.072  20.263 -0.0527  0.1660 -0.1027
   48DPPC   PO4  566   3.139   5.195  20.344  0.3198  0.0574  0.1489
   48DPPC   GL1  567   2.936   5.390  19.970  0.2144 -0.1404  0.0234
   48DPPC   GL2  568   2.863   5.131  19.949  0.3548  0.0246 -0.2267
   48DPPC   C1A  569   2.992   5.536  19.586  0.1293  0.1736  0.0672
   48DPPC   C2A  570   2.999   5.599  19.141  0.0729  0.1136  0.1500
   48DPPC   C3A  571   2.976   5.566  18.658  0.0483 -0.1072 -0.0560
   48DPPC   C4A  572   2.916   5.600  18.206 -0.2804  0.1286  0.1077
   48DPPC   C1B  573   2.767   5.024  19.627  0.1056  0.0738  0.2742
   48DPPC   C2B  574   2.771   5.118  19.163 -0.0161  0.1570  0.0760
   48DPPC   C3B  575   2.706   5.109  18.662 -0.3702 -0.0403 -0.0446
   48DPPC   C4B  576   2.726   5.065  18.161 -0.0834 -0.0177  0.2285
   49DPPC   NC3  577   1.284   6.385  20.440 -0.1886 -0.2431 -0.0986
   49DPPC   PO4  578   1.084   6.047  20.487 -0.1561 -0.0319  0.0504
   49DPPC   GL1  579   0.963   6.005  20.088  0.2828 -0.0058 -0.0996
   49DPPC   GL2  580   1.171   6.158  19.980  0.0053  0.0499 -0.2064
   49DPPC   C1A  581   0.834   5.912  19.770  0.2081 -0.0381 -0.0609
   49DPPC   C2A  582   0.774   5.901  19.353  0.1645  0.1841  0.1112
   49DPPC   C3A  583   0.750   5.936  18.879  0.0187 -0.1173  0.2653
   49DPPC   C4A  584   0.635   5.857  18.391 -0.0944 -0.2411  0.0637
   49DPPC   C1B  585   1.263   6.063  19.649  0.1418 -0.0661  0.1445
   49DPPC   C2B  586   1.239   6.006  19.197  0.0571 -0.4612 -0.3060
   49DPPC   C3B  587   1.208   6.014  18.692  0.0721 -0.1765  0.4596
   49DPPC   C4B  588   1.193   6.019  18.261  0.0044 -0.0609 -0.2221
   50DPPC   NC3  589   6.095   3.280  19.849  0.1678 -0.0353  0.0281
   50DPPC   PO4  590   6.250   3.559  20.070 -0.1776  0.0290 -0.1935
   50DPPC   GL1  591   6.335   3.809  19.846 -0.0011 -0.0706  0.3078
   50DPPC   GL2  592   6.033   3.772  19.708 -0.0066  0.2824  0.0821
   50DPPC   C1A  593   6.538   3.943  19.557 -0.1444  0.2169 -0.1964
   50DPPC   C2A  594   6.646   4.144  19.220 -0.1771 -0.0118 -0.1337
   50DPPC   C3A  595   6.742   4.105  18.741 -0.1856  0.1792 -0.2258
   50DPPC   C4A  596   6.784   4.108  18.228  0.0513 -0.0735 -0.2353
   50DPPC   C1B  597   6.114   3.929  19.429 -0.0035  0.1849  0.2767
   50DPPC   C2B  598   6.187   4.081  19.032 -0.1348  0.0150 -0.0223
   50DPPC   C3B  599   6.320   4.032  18.524 -0.0991  0.0082 -0.0847
   50DPPC   C4B  600   6.247   3.858  18.033 -0.2927  0.0765  0.0585
   51DPPC   NC3  601   5.788   6.372  20.026  0.3545  0.0510 -0.1972
   51DPPC   PO4  602   5.479   6.664  19.971 -0.1392  0.0830 -0.0458
   51DPPC   GL1  603   5.304   6.906  19.695 -0.0336  0.1195  0.1096
   51DPPC   GL2  604   5.056   6.764  19.789  0.0118 -0.0931 -0.0658
   51DPPC   C1A  605   5.369   6.977  19.359 -0.1737  0.0881 -0.0170
   51DPPC   C2A  606   5.306   6.984  18.931 -0.0065 -0.2360  0.0004
   51DPPC   C3A  607   5.378   6.991  18.456  0.1003 -0.2418 -0.1812
   51DPPC   C4A  608   5.422   6.954  17.968 -0.3451  0.0571 -0.0870
   51DPPC   C1B  609   5.089   6.616  19.451  0.2571  0.2672  0.1226
   51DPPC   C2B  610   5.139   6.435  19.059  0.1384 -0.2665 -0.0587
   51DPPC   C3B  611   5.168   6.457  18.567  0.0389  0.0862 -0.1762
   51DPPC   C4B  612   5.238   6.535  18.138 -0.1527 -0.0003 -0.2508
   52DPPC   NC3  613   4.964   2.604  20.434 -0.2404  0.0258 -0.1810
   52DPPC   PO4  614   4.582   2.497  20.424  0.1468  0.1973  0.1722
   52DPPC   GL1  615   4.443   2.348  20.002 -0.0412  0.1277  0.1702
   52DPPC   GL2  616   4.679   2.454  19.928 -0.1162  0.1423  0.2786
   52DPPC   C1A  617   4.334   2.283  19.673 -0.2603  0.2077  0.0823
   52DPPC   C2A  618   4.167   2.279  19.271 -0.0258 -0.0465  0.0801
   52DPPC   C3A  619   4.205   2.349  18.754 -0.1569  0.0717 -0.0652
   52DPPC   C4A  620   4.103   2.419  18.299 -0.0150  0.0720  0.0075
   52DPPC   C1B  621   4.744   2.526  19.587 -0.0847 -0.1997  0.4417
   52DPPC   C2B  622   4.730   2.393  19.158 -0.0902  0.1304  0.2517
   52DPPC   C3B  623   4.704   2.390  18.666 -0.0568 -0.0382 -0.0005
   52DPPC   C4B  624   4.622   2.442  18.144 -0.2673  0.1380  0.0679
   53DPPC   NC3  625   1.658   1.556  20.501 -0.3049  0.1122  0.1215
   53DPPC   PO4  626   1.783   1.829  20.293  0.0333  0.1321  0.2373
   53DPPC   GL1  627   1.797   1.794  19.888  0.1255 -0.1216  0.2731
   53DPPC   GL2  628   2.017   1.863  19.785  0.3189 -0.2721 -0.2986
   53DPPC   C1A  629   1.547   1.851  19.545  0.0876  0.2365 -0.1259
   53DPPC   C2A  630   1.580   1.774  19.145 -0.0637 -0.0950 -0.0220
   53DPPC   C3A  631   1.536   1.708  18.632 -0.2744 -0.2324  0.1006
   53DPPC   C4A  632   1.534   1.768  18.131  0.0536 -0.0238  0.0181
   53DPPC   C1B  633   2.027   1.827  19.454  0.0804  0.0304 -0.2058
   53DPPC   C2B  634   2.034   1.883  19.024 -0.0340 -0.4451 -0.2149
   53DPPC   C3B  635   2.080   1.841  18.515  0.0001  0.2504 -0.0992
   53DPPC   C4B  636   2.108   1.908  17.987  0.0647 -0.0417  0.1727
   54DPPC   NC3  637   4.644   2.039  20.330  0.1211 -0.0793  0.3126
   54DPPC   PO4  638   4.217   1.938  20.305 -0.2731 -0.2239 -0.0288
   54DPPC   GL1  639   4.045   2.051  19.926  0.1556 -0.1180  0.0638
   54DPPC   GL2  640   3.975   1.750  19.809 -0.0195  0.2780 -0.2256
   54DPPC   C1A  641   3.885   2.236  19.688  0.2646 -0.1643 -0.1650
   54DPPC   C2A  642   3.683   2.285  19.342 -0.0141  0.1362  0.0127
   54DPPC   C3A  643   3.594   2.242  18.904  0.0608 -0.0621 -0.1962
   54DPPC   C4A  644   3.549   2.248  18.473 -0.1819 -0.4718 -0.1506
   54DPPC   C1B  645   3.940   1.835  19.447  0.2879 -0.2476 -0.0617
   54DPPC   C2B  646   4.010   1.823  19.066 -0.1324  0.0621  0.0941
   54DPPC   C3B  647   3.976   1.954  18.588 -0.0681 -0.0270  0.4528
   54DPPC   C4B  648   3.883   1.925  18.120  0.3217  0.2361  0.1838
   55DPPC   NC3  649   3.977   0.841  20.093 -0.1001 -0.1616  0.1946
   55DPPC   PO4  650   4.271   0.527  20.115  0.1869  0.1153  0.0819
   55DPPC   GL1  651   4.348   0.639  19.662 -0.2140 -0.0224  0.0596
   55DPPC   GL2  652   4.167   0.856  19.683  0.1348  0.1647 -0.0322
   55DPPC   C1A  653   4.499   0.678  19.295 -0.0216  0.1481 -0.0076
   55DPPC   C2A  654   4.498   0.605  18.867 -0.1476 -0.1305 -0.0193
   55DPPC   C3A  655   4.434   0.565  18.383 -0.0092 -0.0799 -0.0801
   55DPPC   C4A  656   4.365   0.692  17.877  0.0969  0.0997  0.0912
   55DPPC   C1B  657   4.142   0.963  19.328 -0.2230 -0.2929  0.0182
   55DPPC   C2B  658   4.114   0.988  18.934 -0.1444 -0.1360  0.0939
   55DPPC   C3B  659   4.138   1.049  18.453 -0.3060 -0.0283 -0.4355
   55DPPC   C4B  660   4.027   1.024  17.958 -0.0154  0.2312 -0.0395
   56DPPC   NC3  661   5.179   6.348  20.731  0.1966 -0.0323  0.1515
   56DPPC   PO4  662   4.869   6.189  20.554  0.1141 -0.0077 -0.1120
   56DPPC   GL1  663   4.871   6.095  20.137  0.0521 -0.1967  0.1408
   56DPPC   GL2  664   4.684   6.293  20.009 -0.0109  0.2732  0.2315
   56DPPC   C1A  665   4.861   5.855  19.823 -0.1469  0.1327 -0.3573
   56DPPC   C2A  666   5.090   5.691  19.449 -0.0387  0.3201 -0.1585
   56DPPC   C3A  667   5.206   5.654  18.969 -0.0272  0.0100 -0.0992
   56DPPC   C4A  668   5.287   5.650  18.499  0.0664 -0.3059 -0.0781
   56DPPC   C1B  669   4.638   6.276  19.669 -0.1472 -0.2493  0.1602
   56DPPC   C2B  670   4.652   6.455  19.339  0.3819  0.1893 -0.1660
   56DPPC   C3B  671   4.679   6.455  18.833  0.3755 -0.3536 -0.0657
   56DPPC   C4B  672   4.761   6.529  18.346  0.2678 -0.0405  0.0264
   57DPPC   NC3  673   7.488   3.571  20.298 -0.1866  0.2235 -0.1199
   57DPPC   PO4  674   7.414   3.311  20.007  0.1047 -0.0205 -0.2799
   57DPPC   GL1  675   7.510   3.419  19.595 -0.0833  0.0623 -0.1765
   57DPPC   GL2  676   7.243   3.366  19.464 -0.0758 -0.1590  0.0674
   57DPPC   C1A  677   7.749   3.465  19.355  0.2103 -0.0269  0.4588
   57DPPC   C2A  678   7.774   3.521  18.978 -0.1141  0.1411  0.2663
   57DPPC   C3A  679   7.996   3.507  18.509  0.0162  0.0237 -0.1028
   57DPPC   C4A  680   7.988   3.523  18.053  0.1668  0.1981  0.1927
   57DPPC   C1B  681   7.326   3.334  19.133  0.1976 -0.0146 -0.0456
   57DPPC   C2B  682   7.402   3.369  18.702 -0.2102 -0.2836  0.0095
   57DPPC   C3B  683   7.502   3.362  18.281 -0.1637  0.1359 -0.1208
   57DPPC   C4B  684   7.587   3.347  17.771 -0.1375  0.1344  0.2832
   58DPPC   NC3  685   3.336   1.290  20.556 -0.1392  0.1494 -0.2737
   58DPPC   PO4  686   3.652   1.124  20.348  0.0941 -0.0467  0.1102
   58DPPC   GL1  687   3.718   1.154  19.982 -0.1041  0.1314 -0.0616
   58DPPC   GL2  688   3.938   1.287  19.950 -0.2617 -0.1131  0.0781
   58DPPC   C1A  689   3.724   1.028  19.645 -0.1148 -0.0858  0.0903
   58DPPC   C2A  690   3.695   0.920  19.246  0.1518 -0.0886 -0.0819
   58DPPC   C3A  691   3.628   0.863  18.771 -0.1559 -0.2398  0.2095
   58DPPC   C4A  692   3.597   0.831  18.243 -0.3872  0.1543  0.1064
   58DPPC   C1B  693   3.919   1.419  19.568  0.1876 -0.1535  0.2181
   58DPPC   C2B  694   3.893   1.352  19.145 -0.0053 -0.0774 -0.1255
   58DPPC   C3B  695   3.802   1.370  18.678 -0.0836 -0.0806  0.1133
   58DPPC   C4B  696   3.752   1.327  18.237  0.1524 -0.2278  0.2186
   59DPPC   NC3  697   2.288   3.215  20.140  0.1138 -0.2390 -0.0023
   59DPPC   PO4  698   2.441   3.513  20.290  0.0144  0.0255 -0.1271
   59DPPC   GL1  699   2.394   3.769  19.888 -0.1730 -0.1123 -0.1488
   59DPPC   GL2  700   2.614   3.590  19.796 -0.0356  0.0126 -0.3525
   59DPPC   C1A  701   2.431   3.951  19.630 -0.1198 -0.1932 -0.0949
   59DPPC   C2A  702   2.407   4.175  19.313 -0.1928  0.0722 -0.0018
   59DPPC   C3A  703   2.374   4.150  18.814  0.0659  0.1697  0.3484
   59DPPC   C4A  704   2.363   4.105  18.317  0.1003  0.4432 -0.2580
   59DPPC   C1B  705   2.865   3.631  19.474  0.2301 -0.1846 -0.1409
   59DPPC   C2B  706   2.846   3.715  19.072 -0.0044 -0.1262 -0.0854
   59DPPC   C3B  707   2.792   3.755  18.632 -0.0375 -0.1910 -0.2723
   59DPPC   C4B  708   2.732   3.748  18.080 -0.0748  0.1699 -0.1344
   60DPPC   NC3  709   6.994   3.126  19.884  0.0287  0.0093 -0.0022
   60DPPC   PO4  710   6.665   3.301  19.998 -0.1643 -0.1398  0.4735
   60DPPC   GL1  711   6.708   3.550  19.641  0.1435 -0.0067  0.0484
   60DPPC   GL2  712   6.412   3.495  19.587  0.1016 -0.0281 -0.0806
   60DPPC   C1A  713   6.904   3.627  19.303  0.3276  0.2630 -0.0271
   60DPPC   C2A  714   7.025   3.668  18.920 -0.1811  0.1869 -0.1277
   60DPPC   C3A  715   7.095   3.650  18.454 -0.1316 -0.2126  0.0717
   60DPPC   C4A  716   7.236   3.711  18.000 -0.1899 -0.0983 -0.1980
   60DPPC   C1B  717   6.396   3.661  19.251 -0.0861 -0.1599  0.3271
   60DPPC   C2B  718   6.482   3.625  18.816  0.0038 -0.1813 -0.1534
   60DPPC   C3B  719   6.586   3.667  18.350  0.1767  0.0277  0.1576
   60DPPC   C4B  720   6.747   3.707  17.869 -0.0568  0.0056 -0.2948
   61DPPC   NC3  721   1.173   3.530  20.120  0.0019 -0.0372  0.4762
   61DPPC   PO4  722   1.372   3.292  20.349  0.1041  0.1265  0.0660
   61DPPC   GL1  723   1.598   3.119  20.035  0.0171  0.0684  0.3756
   61DPPC   GL2  724   1.762   3.290  20.115  0.2285 -0.1398  0.0791
   61DPPC   C1A  725   1.727   3.173  19.640 -0.2475  0.0890 -0.3109
   61DPPC   C2A  726   1.864   3.435  19.401  0.2745 -0.3204  0.1971
   61DPPC   C3A  727   1.798   3.536  18.925  0.0878  0.1169  0.2260
   61DPPC   C4A  728   1.718   3.585  18.430  0.3174 -0.0639  0.2520
   61DPPC   C1B  729   1.611   3.567  19.856  0.2379  0.2021 -0.0464
   61DPPC   C2B  730   1.523   3.803  19.479  0.1789  0.2562 -0.1206
   61DPPC   C3B  731   1.406   3.820  19.074  0.4917 -0.1710  0.1339
   61DPPC   C4B  732   1.409   3.908  18.565  0.1275 -0.1308 -0.3825
   62DPPC   NC3  733   6.830   0.434  20.309  0.1859 -0.3912  0.0944
   62DPPC   PO4  734   6.514   0.632  20.181  0.1338  0.0120 -0.3639
   62DPPC   GL1  735   6.489   0.763  19.810 -0.3612 -0.2214  0.0798
   62DPPC   GL2  736   6.653   0.611  19.720 -0.3143  0.3106 -0.2759
   62DPPC   C1A  737   6.394   0.921  19.533 -0.5109 -0.0578  0.1077
   62DPPC   C2A  738   6.491   0.977  19.160  0.2091 -0.1533 -0.2831
   62DPPC   C3A  739   6.517   1.001  18.685 -0.1026 -0.0606 -0.3071
   62DPPC   C4A  740   6.627   1.022  18.210 -0.2057 -0.0064 -0.0200
   62DPPC   C1B  741   6.780   0.673  19.381  0.3280 -0.0644 -0.1676
   62DPPC   C2B  742   6.823   0.678  18.986 -0.0174  0.2704 -0.1354
   62DPPC   C3B  743   6.909   0.559  18.516 -0.3454 -0.0277 -0.0117
   62DPPC   C4B  744   7.029   0.659  18.077 -0.2843 -0.1479 -0.1894
   63DPPC   NC3  745   1.682   4.227  20.141 -0.1078  0.0743 -0.0043
   63DPPC   PO4  746   1.327   4.044  20.151  0.3087  0.0362  0.2775
   63DPPC   GL1  747   0.932   4.026  19.830 -0.2344  0.0928  0.2928
   63DPPC   GL2  748   1.131   3.823  19.715  0.4899 -0.3469  0.1972
   63DPPC   C1A  749   0.700   4.109  19.576 -0.1418  0.1512 -0.0844
   63DPPC   C2A  750   0.643   4.084  19.190 -0.1656 -0.3072  0.5356
   63DPPC   C3A  751   0.585   4.193  18.731  0.1828 -0.0268  0.1602
   63DPPC   C4A  752   0.573   4.201  18.263 -0.2105 -0.0750 -0.1463
   63DPPC   C1B  753   0.974   3.744  19.364  0.1849  0.0709  0.3209
   63DPPC   C2B  754   0.936   3.697  18.979  0.2740  0.0605  0.0910
   63DPPC   C3B  755   0.938   3.816  18.473 -0.2253  0.2591  0.1145
   63DPPC   C4B  756   0.890   3.874  17.998 -0.2326  0.2319 -0.3796
   64DPPC   NC3  757  26.413   3.584  20.232  0.3044 -0.1742  0.1148
   64DPPC   PO4  758  26.590   3.909  20.187  0.1988 -0.0801 -0.1876
   64DPPC   GL1  759  26.538   3.977  19.795 -0.1695  0.2006  0.1988
   64DPPC   GL2  760  26.533   3.655  19.820 -0.3200 -0.0396  0.1685
   64DPPC   C1A  761  26.599   4.055  19.409  0.1819  0.3904 -0.4013
   64DPPC   C2A  762  26.564   4.085  18.981 -0.0341 -0.3944  0.0247
   64DPPC   C3A  763  26.526   4.137  18.505  0.0224  0.2459 -0.0680
   64DPPC   C4A  764  26.569   4.044  18.079 -0.0461 -0.1239 -0.2061
   64DPPC   C1B  765  26.367   3.600  19.493 -0.0847  0.1070 -0.0715
   64DPPC   C2B  766  26.340   3.581  19.061 -0.0114  0.0424  0.1803
   64DPPC   C3B  767  26.354   3.654  18.609 -0.1010  0.0631  0.1945
   64DPPC   C4B  768  26.372   3.622  18.094  0.2523  0.0094  0.2729
   65DPPC   NC3  769   2.864   6.147  20.653  0.0032  0.2298  0.1552
   65DPPC   PO4  770   3.220   6.060  20.462  0.1106 -0.1143  0.0779
   65DPPC   GL1  771   3.080   6.197  20.052  0.3355  0.1425 -0.1485
   65DPPC   GL2  772   3.187   6.487  20.043 -0.0641  0.1018  0.0067
   65DPPC   C1A  773   3.026   6.046  19.694  0.3239 -0.1599 -0.0678
   65DPPC   C2A  774   3.156   6.017  19.308 -0.1314  0.0297  0.0278
   65DPPC   C3A  775   3.188   6.126  18.786 -0.0471 -0.3092  0.1764
   65DPPC   C4A  776   3.036   6.100  18.326  0.1899 -0.2989 -0.3671
   65DPPC   C1B  777   3.194   6.517  19.662  0.3222 -0.0208  0.2489
   65DPPC   C2B  778   3.186   6.559  19.296  0.0500  0.1590 -0.0365
   65DPPC   C3B  779   3.200   6.589  18.839  0.2562 -0.0408 -0.0037
   65DPPC   C4B  780   3.247   6.592  18.329  0.3623  0.1430  0.1834
   66DPPC   NC3  781   0.509   2.006  19.979  0.1385 -0.1258 -0.1388
   66DPPC   PO4  782   0.379   2.403  19.996 -0.3240  0.2754  0.0799
   66DPPC   GL1  783   0.557   2.620  19.621 -0.1518  0.2027  0.0540
   66DPPC   GL2  784   0.644   2.863  19.574 -0.1946  0.0002  0.0435
   66DPPC   C1A  785   0.439   2.392  19.329  0.1428  0.4071 -0.2325
   66DPPC   C2A  786   0.430   2.300  18.940 -0.2388 -0.1430  0.3384
   66DPPC   C3A  787   0.440   2.343  18.444  0.4023  0.0239  0.2238
   66DPPC   C4A  788   0.424   2.386  17.975  0.0961  0.0799  0.2864
   66DPPC   C1B  789   0.654   2.876  19.206  0.3268 -0.2005 -0.0732
   66DPPC   C2B  790   0.565   2.837  18.780 -0.0284 -0.2846 -0.1498
   66DPPC   C3B  791   0.575   2.910  18.292  0.0853  0.0291  0.0419
   66DPPC   C4B  792   0.557   2.891  17.848  0.1826 -0.1123  0.0406
   67DPPC   NC3  793  25.698   0.481  20.245 -0.2332 -0.1145  0.1153
   67DPPC   PO4  794  25.657   0.858  20.201  0.2218  0.0738  0.5053
   67DPPC   GL1  795  25.684   1.056  19.765  0.1026  0.2271 -0.3404
   67DPPC   GL2  796  25.478   0.753  19.793  0.0206 -0.0871  0.0112
   67DPPC   C1A  797  25.611   1.245  19.517 -0.0322 -0.4151 -0.2519
   67DPPC   C2A  798  25.532   1.241  19.123 -0.0721 -0.1381  0.2091
   67DPPC   C3A  799  25.567   1.265  18.653  0.1289  0.1010 -0.1864
   67DPPC   C4A  800  25.542   1.180  18.130  0.1917  0.1210  0.2072
   67DPPC   C1B  801  25.440   0.656  19.438  0.2417 -0.0475  0.0963
   67DPPC   C2B  802  25.413   0.746  19.040 -0.0384  0.2960 -0.1733
   67DPPC   C3B  803  25.375   0.767  18.579  0.3459  0.5018  0.1436
   67DPPC   C4B  804  25.387   0.728  18.095 -0.0268  0.0863  0.0063
   68DPPC   NC3  805   5.412   5.190  20.345 -0.1130  0.1877 -0.2164
   68DPPC   PO4  806   5.037   5.309  20.168 -0.0761 -0.0952 -0.4273
   68DPPC   GL1  807   5.053   4.996  19.898  0.1007  0.2309  0.0156
   68DPPC   GL2  808   5.338   4.993  19.816  0.0031 -0.2945 -0.1186
   68DPPC   C1A  809   4.970   4.823  19.612 -0.1286  0.0561  0.1753
   68DPPC   C2A  810   4.990   4.686  19.240 -0.1704 -0.0625  0.3941
   68DPPC   C3A  811   5.009   4.726  18.745  0.0844 -0.0680  0.1983
   68DPPC   C4A  812   5.015   4.696  18.276 -0.0241 -0.2820 -0.0532
   68DPPC   C1B  813   5.394   4.897  19.474 -0.3183  0.1883  0.1320
   68DPPC   C2B  814   5.417   4.845  19.016  0.3349 -0.4454  0.0441
   68DPPC   C3B  815   5.447   4.836  18.482  0.0883 -0.0080 -0.2953
   68DPPC   C4B  816   5.753   4.773  18.116 -0.1368  0.3481  0.0502
   69DPPC   NC3  817   2.362   5.454  20.641 -0.0549  0.2706  0.0586
   69DPPC   PO4  818   2.409   5.843  20.649  0.0495  0.0302  0.0314
   69DPPC   GL1  819   2.463   5.883  20.201 -0.0248  0.3369  0.0909
   69DPPC   GL2  820   2.524   5.554  20.217  0.3177  0.1521  0.1377
   69DPPC   C1A  821   2.522   6.049  19.840  0.0016 -0.0642 -0.2051
   69DPPC   C2A  822   2.619   5.956  19.422  0.2648  0.0967  0.2677
   69DPPC   C3A  823   2.681   5.873  18.946 -0.0692 -0.0050  0.0114
   69DPPC   C4A  824   2.538   5.918  18.509  0.0180  0.0705 -0.0209
   69DPPC   C1B  825   2.468   5.434  19.845  0.0845  0.0649  0.1981
   69DPPC   C2B  826   2.542   5.472  19.443  0.2308 -0.0152  0.0083
   69DPPC   C3B  827   2.414   5.437  18.989 -0.2609  0.2572  0.1202
   69DPPC   C4B  828   2.406   5.426  18.427  0.0526  0.1845  0.1130
   70DPPC   NC3  829   7.296   6.515  19.992  0.0469  0.0719  0.2316
   70DPPC   PO4  830   7.072   6.188  20.083 -0.0641 -0.2394  0.0818
   70DPPC   GL1  831   6.693   6.278  19.827  0.0037 -0.0470  0.0520
   70DPPC   GL2  832   6.884   6.367  19.739 -0.0004 -0.2388 -0.0773
   70DPPC   C1A  833   6.540   6.212  19.478 -0.0599  0.1474  0.2693
   70DPPC   C2A  834   6.450   6.260  19.072 -0.1190  0.1454 -0.0132
   70DPPC   C3A  835   6.527   6.319  18.602 -0.1191  0.2520  0.0594
   70DPPC   C4A  836   6.588   6.352  18.111  0.2238  0.2455 -0.1108
   70DPPC   C1B  837   6.993   6.397  19.417 -0.3015  0.3095  0.1380
   70DPPC   C2B  838   7.083   6.424  19.004 -0.0975  0.0429 -0.0458
   70DPPC   C3B  839   7.011   6.467  18.501  0.2097 -0.3192 -0.1646
   70DPPC   C4B  840   7.058   6.504  17.985  0.2236  0.1031 -0.1426
   71DPPC   NC3  841   2.807   0.911  20.161 -0.0670 -0.1329  0.1082
   71DPPC   PO4  842   2.948   1.306  20.194  0.1692 -0.0733 -0.3086
   71DPPC   GL1  843   3.115   1.305  19.769 -0.3858  0.0854  0.0597
   71DPPC   GL2  844   2.983   1.079  19.739 -0.1049 -0.3169  0.1501
   71DPPC   C1A  845   3.101   1.557  19.535  0.0816  0.1882  0.2358
   71DPPC   C2A  846   2.929   1.576  19.173 -0.0968 -0.2348 -0.1409
   71DPPC   C3A  847   3.021   1.624  18.742 -0.0409 -0.0765  0.2433
   71DPPC   C4A  848   2.979   1.617  18.238 -0.1282  0.0289  0.0769
   71DPPC   C1B  849   2.892   1.174  19.402  0.3621  0.1843  0.0180
   71DPPC   C2B  850   2.834   1.163  19.006 -0.2849 -0.3369  0.3840
   71DPPC   C3B  851   2.738   1.163  18.499  0.0306 -0.0764 -0.0686
   71DPPC   C4B  852   2.723   1.082  18.045  0.1205 -0.0555  0.3885
   72DPPC   NC3  853   0.873   0.553  20.247 -0.0580 -0.0177 -0.2030
   72DPPC   PO4  854   1.054   0.241  20.417 -0.1511 -0.0766  0.1809
   72DPPC   GL1  855   1.176   0.003  20.043  0.3717 -0.4236 -0.0904
   72DPPC   GL2  856   1.223   0.267  19.942  0.0848 -0.2772  0.0946
   72DPPC   C1A  857   1.394  -0.116  19.746 -0.0041  0.2850  0.0649
   72DPPC   C2A  858   1.498  -0.121  19.357  0.2906 -0.1332 -0.0284
   72DPPC   C3A  859   1.430  -0.157  18.899  0.0159 -0.2698 -0.1060
   72DPPC   C4A  860   1.406  -0.055  18.430  0.2343 -0.0256 -0.0350
   72DPPC   C1B  861   1.125   0.165  19.569  0.1269  0.0076 -0.1071
   72DPPC   C2B  862   1.134   0.178  19.132  0.1052 -0.1478  0.1396
   72DPPC   C3B  863   1.160   0.295  18.696 -0.0555 -0.0040 -0.0876
   72DPPC   C4B  864   1.028   0.260  18.195 -0.2364 -0.0445 -0.0830
   73DPPC   NC3  865   0.286   5.155  20.688 -0.0705 -0.3974 -0.2524
   73DPPC   PO4  866   0.631   5.136  20.499 -0.0442  0.5790 -0.3055
   73DPPC   GL1  867   0.734   5.157  20.078 -0.1048  0.1465  0.2111
   73DPPC   GL2  868   0.602   5.380  19.948  0.1027  0.1427  0.1336
   73DPPC   C1A  869   0.667   5.016  19.735 -0.1944  0.3456  0.0299
   73DPPC   C2A  870   0.526   4.936  19.368 -0.4092 -0.1127  0.0167
   73DPPC   C3A  871   0.464   4.972  18.859  0.0390  0.1333  0.0993
   73DPPC   C4A  872   0.321   4.997  18.475 -0.1548  0.0381 -0.0653
   73DPPC   C1B  873   0.653   5.438  19.572 -0.3507  0.1204 -0.1120
   73DPPC   C2B  874   0.634   5.378  19.170  0.1643  0.0448 -0.0009
   73DPPC   C3B  875   0.560   5.440  18.708 -0.1725 -0.2910  0.2058
   73DPPC   C4B  876   0.574   5.346  18.238 -0.1441  0.0842 -0.1179
   74DPPC   NC3  877   5.553   2.636  20.025  0.0319  0.2415  0.0032
   74DPPC   PO4  878   5.450   3.000  19.961 -0.0131  0.2241 -0.1711
   74DPPC   GL1  879   5.729   2.981  19.682 -0.3083 -0.1296  0.1225
   74DPPC   GL2  880   5.741   2.721  19.646 -0.3751 -0.1868 -0.1821
   74DPPC   C1A  881   5.856   2.999  19.314  0.0136  0.1807  0.1517
   74DPPC   C2A  882   5.820   3.037  18.893 -0.0064 -0.2667  0.0929
   74DPPC   C3A  883   5.779   3.065  18.419 -0.1382 -0.2786  0.0922
   74DPPC   C4A  884   5.769   3.053  17.915 -0.0500  0.3031  0.0550
   74DPPC   C1B  885   5.660   2.559  19.334 -0.2502  0.1790 -0.0375
   74DPPC   C2B  886   5.715   2.562  18.911 -0.1284 -0.1543 -0.0327
   74DPPC   C3B  887   5.650   2.543  18.371 -0.1653  0.1216 -0.1407
   74DPPC   C4B  888   5.642   2.571  17.824  0.1716 -0.1431 -0.2835
   75DPPC   NC3  889   3.572   6.294  20.203  0.3326  0.1397 -0.1938
   75DPPC   PO4  890   3.938   6.410  20.305 -0.1127 -0.3890 -0.0035
   75DPPC   GL1  891   4.067   6.629  20.003  0.2025  0.0332  0.5803
   75DPPC   GL2  892   4.388   6.619  20.025  0.0912  0.0298 -0.2708
   75DPPC   C1A  893   3.998   6.649  19.655  0.1201  0.2430  0.2097
   75DPPC   C2A  894   3.796   6.695  19.286 -0.1456  0.0115 -0.1710
   75DPPC   C3A  895   3.824   6.673  18.753  0.1913 -0.2663 -0.2795
   75DPPC   C4A  896   3.814   6.647  18.262 -0.1032  0.1137 -0.2195
   75DPPC   C1B  897   4.575   6.708  19.715  0.0940  0.0407 -0.0782
   75DPPC   C2B  898   4.354   6.860  19.392 -0.1974 -0.0889 -0.1613
   75DPPC   C3B  899   4.262   6.685  18.996 -0.1069 -0.3507  0.3329
   75DPPC   C4B  900   4.295   6.649  18.476  0.1100 -0.4268 -0.2140
   76DPPA   PO4  901   6.148   0.351  19.965  0.1594 -0.1445  0.2748
   76DPPA   GL1  902   6.131   0.533  19.656  0.0312 -0.1030 -0.1709
   76DPPA   GL2  903   6.263   0.335  19.494 -0.0123 -0.2136 -0.3581
   76DPPA   C1A  904   5.914   0.788  19.395  0.0730  0.0388  0.0409
   76DPPA   C2A  905   5.989   0.862  18.978  0.0307  0.0095  0.1934
   76DPPA   C3A  906   6.055   0.924  18.474  0.0039 -0.0125  0.0718
   76DPPA   C4A  907   6.127   0.986  18.000  0.0194 -0.2322 -0.4640
   76DPPA   C1B  908   6.407   0.523  19.184  0.2374 -0.0212  0.1987
   76DPPA   C2B  909   6.363   0.566  18.799 -0.0732  0.0056 -0.0131
   76DPPA   C3B  910   6.418   0.617  18.342 -0.0205  0.4229 -0.1921
   76DPPA   C4B  911   6.528   0.661  17.860  0.2006  0.0298 -0.0417
   77DPPA   PO4  912   3.071   0.428  20.283  0.2501  0.1721  0.0147
   77DPPA   GL1  913   2.994   0.587  19.943 -0.1196 -0.2660  0.0541
   77DPPA   GL2  914   3.074   0.309  19.818 -0.2889 -0.1960 -0.1001
   77DPPA   C1A  915   2.772   0.721  19.694  0.0665  0.3856 -0.2547
   77DPPA   C2A  916   2.665   0.777  19.296 -0.0722  0.2508 -0.1738
   77DPPA   C3A  917   2.588   0.715  18.770  0.0259  0.2594 -0.1703
   77DPPA   C4A  918   2.575   0.703  18.329 -0.1725 -0.0063  0.1246
   77DPPA   C1B  919   2.997   0.287  19.483  0.0631  0.2161  0.0934
   77DPPA   C2B  920   2.884   0.363  19.074  0.2119 -0.0521 -0.2076
   77DPPA   C3B  921   2.839   0.320  18.580  0.0062 -0.0576  0.3161
   77DPPA   C4B  922   2.860   0.248  18.109 -0.0822  0.1704 -0.1610
   78DPPA   PO4  923   5.863   2.128  20.313 -0.0355 -0.2607 -0.1075
   78DPPA   GL1  924   5.801   2.283  19.926 -0.2257 -0.2973  0.1136
   78DPPA   GL2  925   6.013   2.153  19.793  0.2060 -0.0177  0.2994
   78DPPA   C1A  926   5.599   2.217  19.630 -0.5097 -0.0378 -0.0115
   78DPPA   C2A  927   5.607   2.106  19.185  0.4075  0.0210 -0.1800
   78DPPA   C3A  928   5.522   2.131  18.707  0.0525 -0.0534 -0.1404
   78DPPA   C4A  929   5.523   2.073  18.219 -0.2655  0.0263 -0.0726
   78DPPA   C1B  930   6.006   2.206  19.433  0.2034  0.0369 -0.2223
   78DPPA   C2B  931   6.075   2.188  19.029 -0.0563 -0.1337  0.3078
   78DPPA   C3B  932   6.036   2.252  18.567  0.0981  0.0496  0.1361
   78DPPA   C4B  933   5.991   2.217  18.089 -0.1411  0.2137  0.2762
   79DPPA   PO4  934   5.642   0.685  15.386  0.1962  0.0848 -0.0495
   79DPPA   GL1  935   5.725   0.647  15.818 -0.3011 -0.0683  0.0402
   79DPPA   GL2  936   5.898   0.959  15.803 -0.0055 -0.0409  0.2508
   79DPPA   C1A  937   5.639   0.443  16.118 -0.2359  0.0462  0.2291
   79DPPA   C2A  938   5.599   0.369  16.510 -0.2066 -0.2835  0.2369
   79DPPA   C3A  939   5.579   0.352  16.993  0.3638  0.1833  0.0097
   79DPPA   C4A  940   5.496   0.496  17.520  0.0351 -0.2839  0.2322
   79DPPA   C1B  941   6.179   1.038  16.025 -0.4496  0.1138  0.1738
   79DPPA   C2B  942   6.229   1.001  16.421 -0.3311 -0.4965  0.0439
   79DPPA   C3B  943   6.187   0.974  16.875  0.0271 -0.0186 -0.0049
   79DPPA   C4B  944   6.195   0.964  17.348 -0.3767  0.1833 -0.0339
   80DPPA   PO4  945   2.173   5.039  20.487 -0.1495  0.0427  0.1835
   80DPPA   GL1  946   2.202   5.216  20.160 -0.1308 -0.1796  0.0897
   80DPPA   GL2  947   2.383   5.011  19.977  0.5312 -0.2057 -0.1050
   80DPPA   C1A  948   2.044   5.280  19.822  0.5556  0.0277  0.1125
   80DPPA   C2A  949   2.013   5.393  19.471  0.3268 -0.0625  0.2015
   80DPPA   C3A  950   1.935   5.337  19.018  0.1424 -0.0657 -0.2522
   80DPPA   C4A  951   1.883   5.321  18.552 -0.0983  0.0246 -0.0274
   80DPPA   C1B  952   2.284   5.011  19.603 -0.0161 -0.2670  0.0563
   80DPPA   C2B  953   2.273   4.977  19.210 -0.2217 -0.2227  0.3405
   80DPPA   C3B  954   2.182   4.972  18.755 -0.0441 -0.2351 -0.0896
   80DPPA   C4B  955   2.145   4.907  18.248 -0.1085 -0.1379  0.0843
   81DPPA   PO4  956   5.042   3.121  20.259 -0.2062 -0.0087  0.0620
   81DPPA   GL1  957   4.984   3.216  19.896  0.0062  0.3065 -0.0743
   81DPPA   GL2  958   4.913   3.440  19.705 -0.0903  0.0486  0.1917
   81DPPA   C1A  959   4.915   2.994  19.615 -0.2355  0.1946 -0.1733
   81DPPA   C2A  960   4.880   2.886  19.231  0.1533  0.0970 -0.0455
   81DPPA   C3A  961   4.823   2.842  18.789  0.0949  0.5426 -0.0235
   81DPPA   C4A  962   4.817   2.914  18.287  0.1730  0.2200 -0.3133
   81DPPA   C1B  963   5.025   3.334  19.358 -0.2050  0.1242  0.2117
   81DPPA   C2B  964   5.069   3.263  18.947 -0.1879  0.1632  0.1693
   81DPPA   C3B  965   4.962   3.298  18.481 -0.1320  0.0144  0.0195
   81DPPA   C4B  966   4.994   3.286  17.988 -0.0476  0.0632 -0.2642
   82DPPA   PO4  967   1.315   4.291  20.630 -0.0599  0.0443  0.1558
   82DPPA   GL1  968   1.291   4.566  20.321 -0.0220  0.0122 -0.3251
   82DPPA   GL2  969   1.095   4.438  20.127 -0.1300 -0.0179 -0.3236
   82DPPA   C1A  970   1.473   4.658  20.004  0.2070 -0.1192 -0.0899
   82DPPA   C2A  971   1.435   4.704  19.604  0.1109 -0.0192  0.2113
   82DPPA   C3A  972   1.328   4.683  19.145  0.2601  0.0620 -0.3130
   82DPPA   C4A  973   1.270   4.697  18.665  0.3280  0.1151  0.0877
   82DPPA   C1B  974   1.206   4.326  19.762  0.0224 -0.1855  0.2983
   82DPPA   C2B  975   1.161   4.167  19.354  0.1171 -0.4386  0.0499
   82DPPA   C3B  976   1.099   4.180  18.873 -0.1617  0.0613  0.3938
   82DPPA   C4B  977   1.111   4.309  18.395 -0.1563  0.1949 -0.0135
   83DPPA   PO4  978   3.886   5.852  20.274  0.0630  0.1319  0.0682
   83DPPA   GL1  979   3.930   5.891  19.860 -0.2583  0.2224  0.0584
   83DPPA   GL2  980   3.982   6.155  19.942 -0.0712 -0.3788  0.3603
   83DPPA   C1A  981   4.064   5.788  19.538  0.2637  0.0676 -0.0859
   83DPPA   C2A  982   3.968   5.767  19.090  0.2251  0.0314  0.0233
   83DPPA   C3A  983   3.926   5.814  18.648 -0.0623  0.0429  0.1485
   83DPPA   C4A  984   3.838   5.815  18.227 -0.0055 -0.1022 -0.1085
   83DPPA   C1B  985   4.215   6.277  19.719 -0.1197 -0.0371  0.2651
   83DPPA   C2B  986   4.173   6.282  19.317 -0.1284 -0.3540  0.2408
   83DPPA   C3B  987   4.099   6.286  18.808 -0.0642 -0.0020 -0.1454
   83DPPA   C4B  988   4.098   6.196  18.367 -0.0510 -0.4543  0.1764
   84DPPA   PO4  989   6.047   5.956  20.217  0.1850 -0.0965  0.2092
   84DPPA   GL1  990   6.029   5.935  19.797 -0.0509 -0.3821 -0.2477
   84DPPA   GL2  991   5.980   5.615  19.768  0.1890 -0.3601 -0.0206
   84DPPA   C1A  992   5.973   6.106  19.530 -0.0230 -0.2985  0.0752
   84DPPA   C2A  993   5.990   6.158  19.137  0.1079 -0.1186  0.2909
   84DPPA   C3A  994   6.034   6.233  18.633 -0.0572  0.2909  0.6141
   84DPPA   C4A  995   6.074   6.272  18.115  0.1162 -0.1904  0.3743
   84DPPA   C1B  996   5.875   5.636  19.426  0.0329  0.1728 -0.0181
   84DPPA   C2B  997   5.815   5.686  19.054  0.0870  0.0345  0.2998
   84DPPA   C3B  998   5.782   5.746  18.523  0.1931 -0.0315 -0.0487
   84DPPA   C4B  999   5.697   5.706  18.024  0.2889 -0.0100 -0.3678
   85DPPA   PO4 1000   0.847   2.392  20.194 -0.0756  0.0141  0.0693
   85DPPA   GL1 1001   1.035   2.444  19.792 -0.2683 -0.0073  0.3688
   85DPPA   GL2 1002   0.754   2.335  19.789  0.1805 -0.0191  0.3966
   85DPPA   C1A 1003   1.003   2.519  19.461 -0.1036 -0.0114 -0.1607
   85DPPA   C2A 1004   0.910   2.442  19.070 -0.0831  0.0188 -0.2600
   85DPPA   C3A 1005   0.949   2.458  18.585 -0.1340  0.3997  0.1397
   85DPPA   C4A 1006   0.899   2.528  18.147 -0.0306 -0.1736 -0.0330
   85DPPA   C1B 1007   0.614   2.104  19.542 -0.1065 -0.0248  0.1669
   85DPPA   C2B 1008   0.762   1.910  19.187 -0.0574 -0.2382  0.1897
   85DPPA   C3B 1009   0.831   1.947  18.669 -0.0389  0.1087  0.2414
   85DPPA   C4B 1010   0.725   1.987  18.162 -0.1920 -0.0997  0.5961
   86DPPA   PO4 1011   2.009   6.598  20.246  0.0716  0.0606 -0.1730
   86DPPA   GL1 1012   2.299   6.632  19.948 -0.2471  0.2279  0.1047
   86DPPA   GL2 1013   2.092   6.869  19.835 -0.2393  0.0487 -0.0065
   86DPPA   C1A 1014   2.302   6.410  19.657 -0.0638 -0.0278 -0.0030
   86DPPA   C2A 1015   2.256   6.288  19.293 -0.0990  0.1609  0.2816
   86DPPA   C3A 1016   2.241   6.271  18.781  0.0738  0.3436 -0.0850
   86DPPA   C4A 1017   2.246   6.284  18.296 -0.0312  0.0029  0.2099
   86DPPA   C1B 1018   1.987   6.786  19.502  0.1415  0.0515 -0.0893
   86DPPA   C2B 1019   1.943   6.634  19.091 -0.0750  0.0706 -0.2704
   86DPPA   C3B 1020   1.911   6.573  18.592  0.2328  0.1421 -0.0614
   86DPPA   C4B 1021   1.918   6.717  18.102  0.1146 -0.0544  0.0202
   87DPPA   PO4 1022   4.549   0.893  20.249 -0.1663 -0.1044 -0.3426
   87DPPA   GL1 1023   4.726   0.834  19.883  0.0491 -0.0009  0.1395
   87DPPA   GL2 1024   4.787   0.536  19.858 -0.1443 -0.1448 -0.0170
   87DPPA   C1A 1025   4.638   1.019  19.551 -0.3492 -0.2203 -0.1463
   87DPPA   C2A 1026   4.600   1.090  19.118 -0.0198  0.1741 -0.0032
   87DPPA   C3A 1027   4.618   1.123  18.609  0.2053  0.0704 -0.1215
   87DPPA   C4A 1028   4.466   1.229  18.125  0.0228 -0.0768 -0.0206
   87DPPA   C1B 1029   4.832   0.438  19.512  0.2684  0.0686 -0.0689
   87DPPA   C2B 1030   4.771   0.289  19.152 -0.1165 -0.0805  0.0538
   87DPPA   C3B 1031   4.880   0.259  18.689  0.1889  0.0778  0.2659
   87DPPA   C4B 1032   4.992   0.351  18.212  0.1729  0.0275 -0.0202
   88DPPA   PO4 1033   0.251   6.484  20.162 -0.0408 -0.3467 -0.1108
   88DPPA   GL1 1034   0.232   6.631  19.774  0.1613  0.0270  0.2994
   88DPPA   GL2 1035  -0.024   6.833  19.837  0.1651 -0.0387  0.2002
   88DPPA   C1A 1036   0.171   6.607  19.397  0.1009 -0.1014 -0.2795
   88DPPA   C2A 1037   0.143   6.664  18.928 -0.0333  0.1160 -0.2001
   88DPPA   C3A 1038   0.094   6.738  18.432  0.0773  0.0549 -0.1917
   88DPPA   C4A 1039   0.075   6.756  17.949 -0.2652  0.0917  0.0106
   88DPPA   C1B 1040  -0.163   7.035  19.501  0.0358 -0.1320  0.1454
   88DPPA   C2B 1041  -0.209   7.012  19.019  0.4530  0.2160  0.0632
   88DPPA   C3B 1042  -0.227   7.120  18.557  0.0717  0.3550  0.0630
   88DPPA   C4B 1043  -0.231   7.118  18.067 -0.1385 -0.1792  0.2033
   89DPPA   PO4 1044   3.751   5.333  20.553 -0.1873 -0.1941 -0.1649
   89DPPA   GL1 1045   3.772   5.428  20.133  0.3209 -0.3654 -0.1998
   89DPPA   GL2 1046   4.031   5.358  20.155 -0.1279  0.5646 -0.1049
   89DPPA   C1A 1047   3.603   5.513  19.844 -0.2422  0.0900 -0.0656
   89DPPA   C2A 1048   3.532   5.591  19.434 -0.2835 -0.0632  0.2147
   89DPPA   C3A 1049   3.428   5.727  18.961 -0.1457 -0.1959  0.3640
   89DPPA   C4A 1050   3.391   5.757  18.431  0.1472 -0.0275 -0.2346
   89DPPA   C1B 1051   4.203   5.329  19.813  0.0537  0.2249  0.2546
   89DPPA   C2B 1052   4.249   5.366  19.383 -0.1579 -0.3094  0.1140
   89DPPA   C3B 1053   4.205   5.394  18.887 -0.5164 -0.2160 -0.0540
   89DPPA   C4B 1054   4.184   5.418  18.412  0.3997 -0.3717  0.2955
   90DPPA   PO4 1055   0.365   1.188  20.523  0.0079  0.1194  0.0080
   90DPPA   GL1 1056   0.329   1.212  20.081 -0.1705  0.0409  0.0767
   90DPPA   GL2 1057   0.132   1.262  19.972 -0.0587  0.1392 -0.0181
   90DPPA   C1A 1058   0.465   1.053  19.757  0.2317  0.3582 -0.1631
   90DPPA   C2A 1059   0.499   0.958  19.371 -0.3242  0.3261 -0.3900
   90DPPA   C3A 1060   0.471   1.009  18.895  0.0865 -0.0210  0.1263
   90DPPA   C4A 1061   0.458   1.050  18.397  0.0316 -0.1103 -0.0375
   90DPPA   C1B 1062   0.182   1.315  19.596 -0.1101  0.1626 -0.1592
   90DPPA   C2B 1063   0.068   1.363  19.211  0.0008 -0.2752  0.0066
   90DPPA   C3B 1064   0.133   1.454  18.746 -0.0428  0.0682 -0.0618
   90DPPA   C4B 1065   0.075   1.442  18.282  0.2010  0.1278  0.0103
   91DPPA   PO4 1066   1.816   5.511  20.810  0.0711  0.4330  0.2575
   91DPPA   GL1 1067   1.959   5.495  20.373 -0.4729  0.0272  0.2338
   91DPPA   GL2 1068   1.775   5.280  20.294 -0.4128  0.2245  0.3607
   91DPPA   C1A 1069   2.102   5.627  20.111 -0.1236 -0.3067 -0.1928
   91DPPA   C2A 1070   2.191   5.787  19.710  0.1485 -0.1744 -0.2036
   91DPPA   C3A 1071   2.178   5.798  19.198 -0.0920  0.0495  0.2118
   91DPPA   C4A 1072   2.113   5.747  18.704  0.1522 -0.2081 -0.1172
   91DPPA   C1B 1073   1.608   5.281  19.969 -0.2153  0.1153  0.0178
   91DPPA   C2B 1074   1.514   5.232  19.607  0.1581 -0.1731  0.3194
   91DPPA   C3B 1075   1.446   5.201  19.112  0.2000 -0.0242  0.0823
   91DPPA   C4B 1076   1.406   5.214  18.602  0.2594  0.2685 -0.2707
   92DPPA   PO4 1077   1.650   2.379  20.387 -0.0263  0.1506 -0.0716
   92DPPA   GL1 1078   1.999   2.438  20.021  0.0686  0.1431 -0.2322
   92DPPA   GL2 1079   1.732   2.315  19.984  0.1766  0.1247 -0.2380
   92DPPA   C1A 1080   2.212   2.269  19.732 -0.1849 -0.2017  0.0883
   92DPPA   C2A 1081   2.355   2.300  19.327 -0.1061  0.3460  0.0418
   92DPPA   C3A 1082   2.265   2.344  18.825  0.2445  0.2970 -0.2899
   92DPPA   C4A 1083   2.328   2.373  18.339 -0.3282  0.0842 -0.1397
   92DPPA   C1B 1084   1.629   2.250  19.665 -0.2659  0.0609 -0.0568
   92DPPA   C2B 1085   1.662   2.261  19.244  0.2143  0.0934  0.1124
   92DPPA   C3B 1086   1.737   2.216  18.770  0.0374 -0.0085  0.0677
   92DPPA   C4B 1087   1.798   2.194  18.302 -0.0307  0.0882  0.0312
   93DPPA   PO4 1088   3.581   1.948  20.092 -0.1902 -0.1166 -0.0636
   93DPPA   GL1 1089   3.319   2.148  19.854  0.1065 -0.1793 -0.2764
   93DPPA   GL2 1090   3.244   2.398  19.902  0.0148  0.2132  0.0399
   93DPPA   C1A 1091   3.140   2.060  19.579 -0.0850 -0.2093 -0.1900
   93DPPA   C2A 1092   3.093   2.026  19.174 -0.2278 -0.1394  0.0030
   93DPPA   C3A 1093   3.081   2.102  18.701  0.2600  0.0567  0.0560
   93DPPA   C4A 1094   3.067   2.104  18.166 -0.1274  0.0179 -0.0660
   93DPPA   C1B 1095   3.292   2.474  19.555  0.0824 -0.1076  0.0497
   93DPPA   C2B 1096   3.296   2.562  19.191 -0.1559  0.2240 -0.1720
   93DPPA   C3B 1097   3.269   2.584  18.749 -0.2820 -0.3006  0.0424
   93DPPA   C4B 1098   3.268   2.622  18.251 -0.0528  0.1638 -0.3569
   94DPPA   PO4 1099   1.368   0.765  20.309 -0.1549  0.0471 -0.1121
   94DPPA   GL1 1100   1.274   0.749  19.949  0.0132  0.1818  0.3489
   94DPPA   GL2 1101   1.328   1.034  19.815 -0.1469 -0.1720  0.0300
   94DPPA   C1A 1102   1.184   0.594  19.613  0.1315 -0.0982 -0.3789
   94DPPA   C2A 1103   1.217   0.669  19.220  0.3032 -0.0535 -0.0415
   94DPPA   C3A 1104   1.300   0.770  18.815  0.0078  0.0217  0.0919
   94DPPA   C4A 1105   1.206   0.754  18.344 -0.2568  0.4776  0.0424
   94DPPA   C1B 1106   1.402   1.102  19.462  0.1771  0.4097  0.1883
   94DPPA   C2B 1107   1.401   1.197  19.051 -0.3194  0.0599  0.1642
   94DPPA   C3B 1108   1.446   1.226  18.578 -0.1672  0.3397  0.2885
   94DPPA   C4B 1109   1.465   1.190  18.078 -0.2233  0.0686 -0.1568
   95DPPA   PO4 1110   5.859   1.293  20.246  0.2591 -0.0003  0.0404
   95DPPA   GL1 1111   5.759   1.158  19.840  0.1790  0.0918  0.1511
   95DPPA   GL2 1112   6.013   1.122  19.700  0.0453 -0.1555  0.3372
   95DPPA   C1A 1113   5.558   1.157  19.535 -0.4716 -0.3064 -0.4589
   95DPPA   C2A 1114   5.651   1.256  19.147 -0.2859 -0.0361 -0.0269
   95DPPA   C3A 1115   5.754   1.347  18.684 -0.1214  0.4618  0.0808
   95DPPA   C4A 1116   5.748   1.249  18.212  0.0796  0.0528 -0.1900
   95DPPA   C1B 1117   6.096   1.205  19.345  0.0539 -0.2056 -0.0318
   95DPPA   C2B 1118   6.171   1.355  18.962  0.2214 -0.1943  0.0349
   95DPPA   C3B 1119   6.244   1.399  18.515 -0.0359 -0.0739  0.0594
   95DPPA   C4B 1120   6.333   1.474  18.060  0.1472  0.1718  0.0904
   96DPPA   PO4 1121   5.630   4.287  20.311 -0.2141  0.1579 -0.0626
   96DPPA   GL1 1122   5.483   4.018  19.986  0.2842 -0.2106  0.1571
   96DPPA   GL2 1123   5.668   4.002  19.813 -0.0493 -0.1068  0.0768
   96DPPA   C1A 1124   5.218   3.988  19.760  0.0276  0.1894  0.2105
   96DPPA   C2A 1125   5.145   3.791  19.407 -0.0478  0.2903 -0.2487
   96DPPA   C3A 1126   5.099   3.849  18.903  0.0887 -0.0571  0.0292
   96DPPA   C4A 1127   5.143   3.846  18.455  0.2398  0.1946 -0.1595
   96DPPA   C1B 1128   5.661   3.991  19.445 -0.3352  0.1567 -0.1566
   96DPPA   C2B 1129   5.700   3.912  19.072 -0.0054  0.1618  0.0512
   96DPPA   C3B 1130   5.624   3.930  18.588  0.1467 -0.0070 -0.1800
   96DPPA   C4B 1131   5.497   3.920  18.099  0.2288 -0.1130  0.2330
   97DPPA   PO4 1132   2.802   2.135  20.164 -0.0697  0.0121  0.1124
   97DPPA   GL1 1133   2.687   2.086  19.779  0.1606 -0.5560 -0.1703
   97DPPA   GL2 1134   2.801   2.357  19.721 -0.0361 -0.0401 -0.0968
   97DPPA   C1A 1135   2.692   1.942  19.437  0.3090 -0.2263 -0.5681
   97DPPA   C2A 1136   2.590   1.928  19.006  0.0188 -0.2206 -0.3502
   97DPPA   C3A 1137   2.622   1.920  18.493  0.0801 -0.3232  0.1952
   97DPPA   C4A 1138   2.604   1.948  17.995 -0.1501  0.1402 -0.1853
   97DPPA   C1B 1139   2.818   2.478  19.334  0.0832  0.0977 -0.2278
   97DPPA   C2B 1140   2.789   2.463  18.932  0.1891  0.1941 -0.0822
   97DPPA   C3B 1141   2.792   2.492  18.457 -0.2397  0.2179 -0.0879
   97DPPA   C4B 1142   2.688   2.436  17.995  0.0743  0.0076  0.1129
   98DPPA   PO4 1143   4.591   3.405  20.119 -0.1599  0.2520 -0.0942
   98DPPA   GL1 1144   4.408   3.421  19.762  0.1425  0.1244 -0.0053
   98DPPA   GL2 1145   4.464   3.193  19.644  0.2362 -0.2003 -0.1821
   98DPPA   C1A 1146   4.216   3.575  19.473 -0.0147  0.1914 -0.0592
   98DPPA   C2A 1147   4.186   3.631  19.046 -0.1342 -0.4630 -0.0293
   98DPPA   C3A 1148   4.151   3.598  18.572  0.0413 -0.1087  0.0238
   98DPPA   C4A 1149   4.100   3.591  18.058  0.0149 -0.0364 -0.1237
   98DPPA   C1B 1150   4.516   3.183  19.283 -0.3002  0.0523 -0.0739
   98DPPA   C2B 1151   4.541   3.255  18.886  0.1542 -0.1579 -0.2062
   98DPPA   C3B 1152   4.483   3.261  18.461 -0.1989  0.1304  0.2664
   98DPPA   C4B 1153   4.443   3.205  18.036 -0.2541 -0.2204 -0.0073
   99DPPA   PO4 1154   4.351   4.597  20.367 -0.1206  0.0283  0.2999
   99DPPA   GL1 1155   4.417   4.913  20.089 -0.1431 -0.4633 -0.2012
   99DPPA   GL2 1156   4.191   4.915  19.970  0.1899  0.3034  0.1754
   99DPPA   C1A 1157   4.586   5.015  19.767 -0.3138  0.0051 -0.0649
   99DPPA   C2A 1158   4.658   5.046  19.337 -0.2081  0.0809 -0.3688
   99DPPA   C3A 1159   4.548   5.008  18.900  0.2061  0.0064  0.2733
   99DPPA   C4A 1160   4.567   5.000  18.380 -0.0031  0.0182 -0.1895
   99DPPA   C1B 1161   4.107   4.930  19.615  0.3738 -0.6340 -0.0470
   99DPPA   C2B 1162   4.054   4.922  19.196 -0.0898 -0.2765 -0.0783
   99DPPA   C3B 1163   4.045   4.907  18.793 -0.0350 -0.4221  0.2619
   99DPPA   C4B 1164   4.023   4.949  18.313  0.0738  0.3572  0.4091
  100DPPA   PO4 1165   4.982   1.226  15.455  0.1965 -0.0534  0.0190
  100DPPA   GL1 1166   4.940   1.340  15.843  0.0804  0.0423 -0.0987
  100DPPA   GL2 1167   4.692   1.134  15.964  0.0257 -0.0368  0.1762
  100DPPA   C1A 1168   5.183   1.301  16.130  0.3668  0.4237  0.1683
  100DPPA   C2A 1169   5.369   1.192  16.456  0.1589  0.1150  0.0799
  100DPPA   C3A 1170   5.414   1.228  16.998 -0.1664  0.1507  0.2615
  100DPPA   C4A 1171   5.416   1.246  17.493  0.1360  0.1041  0.0297
  100DPPA   C1B 1172   4.791   1.145  16.358 -0.3608 -0.1506  0.0191
  100DPPA   C2B 1173   4.898   1.133  16.750  0.0783  0.0381 -0.2561
  100DPPA   C3B 1174   4.908   1.207  17.231 -0.3552 -0.1249 -0.0028
  100DPPA   C4B 1175   4.937   1.248  17.762 -0.1335 -0.1149  0.1405
  101DPPC   NC3 1176   4.827   2.084  15.431  0.0334  0.0721 -0.2242
  101DPPC   PO4 1177   4.779   1.730  15.503 -0.3870  0.3113 -0.1878
  101DPPC   GL1 1178   4.537   1.744  15.857  0.1747  0.0186  0.0175
  101DPPC   GL2 1179   4.341   1.507  15.933  0.0991 -0.5960 -0.0006
  101DPPC   C1A 1180   4.666   1.862  16.163 -0.1760  0.0821  0.2517
  101DPPC   C2A 1181   4.699   2.017  16.484 -0.1974  0.0165 -0.1059
  101DPPC   C3A 1182   4.757   1.968  16.926 -0.3137 -0.2090  0.1569
  101DPPC   C4A 1183   4.717   1.997  17.432  0.0622  0.0569 -0.0736
  101DPPC   C1B 1184   4.503   1.488  16.252 -0.1835  0.4281  0.1239
  101DPPC   C2B 1185   4.593   1.533  16.675  0.0431 -0.2027 -0.0783
  101DPPC   C3B 1186   4.568   1.588  17.172 -0.0590  0.1442  0.0042
  101DPPC   C4B 1187   4.588   1.569  17.656 -0.0118 -0.4265  0.3885
  102DPPC   NC3 1188   2.393   2.634  15.377 -0.0286 -0.0691  0.0255
  102DPPC   PO4 1189   2.066   2.506  15.621  0.1196  0.0660  0.3231
  102DPPC   GL1 1190   1.970   2.355  15.995 -0.0824 -0.3555  0.0656
  102DPPC   GL2 1191   1.789   2.513  15.987 -0.0709 -0.0881 -0.4262
  102DPPC   C1A 1192   2.070   2.320  16.341 -0.0805  0.0082  0.0845
  102DPPC   C2A 1193   2.148   2.281  16.765 -0.3090  0.1486 -0.1286
  102DPPC   C3A 1194   2.168   2.285  17.267  0.0189 -0.1879  0.1185
  102DPPC   C4A 1195   2.230   2.372  17.764 -0.2922  0.0339 -0.6486
  102DPPC   C1B 1196   1.737   2.610  16.321  0.0602 -0.3256  0.0742
  102DPPC   C2B 1197   1.784   2.676  16.725 -0.1432  0.1711  0.2024
  102DPPC   C3B 1198   1.872   2.621  17.172 -0.2923  0.1554  0.1182
  102DPPC   C4B 1199   1.799   2.650  17.652  0.1454  0.2450  0.5246
  103DPPC   NC3 1200   6.806   1.340  15.328  0.1494  0.3116  0.2012
  103DPPC   PO4 1201   6.585   1.031  15.500 -0.0801  0.0084 -0.1498
  103DPPC   GL1 1202   6.709   1.044  15.847 -0.0758  0.0451 -0.2643
  103DPPC   GL2 1203   6.954   0.914  15.830  0.2650 -0.1668  0.2578
  103DPPC   C1A 1204   6.712   1.081  16.206  0.0914  0.1064  0.0312
  103DPPC   C2A 1205   6.693   1.110  16.661  0.2196  0.3455 -0.0103
  103DPPC   C3A 1206   6.681   1.051  17.157 -0.0169  0.0089 -0.2340
  103DPPC   C4A 1207   6.619   1.097  17.675 -0.2604  0.1483  0.2234
  103DPPC   C1B 1208   7.034   0.709  16.148 -0.1913  0.3169  0.2414
  103DPPC   C2B 1209   7.051   0.708  16.604 -0.0754  0.1688 -0.0414
  103DPPC   C3B 1210   7.118   0.719  17.082  0.0190 -0.0072 -0.0700
  103DPPC   C4B 1211   7.043   0.721  17.564 -0.0499  0.1896  0.0231
  104DPPC   NC3 1212   2.073   2.238  15.179  0.3732 -0.4625 -0.0619
  104DPPC   PO4 1213   2.369   2.065  15.345  0.0973  0.1333  0.0893
  104DPPC   GL1 1214   2.378   2.206  15.735 -0.1026 -0.1729  0.5169
  104DPPC   GL2 1215   2.238   1.964  15.818  0.1227  0.1704  0.3967
  104DPPC   C1A 1216   2.477   2.426  16.053  0.2039 -0.1036  0.0691
  104DPPC   C2A 1217   2.601   2.440  16.433 -0.2864 -0.0189  0.0250
  104DPPC   C3A 1218   2.674   2.453  16.909 -0.2045 -0.1388  0.0600
  104DPPC   C4A 1219   2.726   2.454  17.423  0.2434  0.1241 -0.1475
  104DPPC   C1B 1220   2.362   2.004  16.230 -0.2048 -0.1563  0.2596
  104DPPC   C2B 1221   2.418   1.899  16.579  0.1150 -0.1427  0.0026
  104DPPC   C3B 1222   2.471   1.930  17.059  0.0041  0.0146 -0.1247
  104DPPC   C4B 1223   2.522   1.932  17.538  0.3080  0.0090  0.2134
  105DPPC   NC3 1224   0.294   5.905  15.378 -0.0508 -0.2878 -0.0126
  105DPPC   PO4 1225   0.299   6.116  15.676 -0.0791 -0.1048  0.4818
  105DPPC   GL1 1226   0.387   6.084  16.020  0.0797  0.3723  0.1735
  105DPPC   GL2 1227   0.577   5.889  16.130 -0.0155  0.1507  0.0074
  105DPPC   C1A 1228   0.306   6.259  16.303 -0.3815  0.5808 -0.1591
  105DPPC   C2A 1229   0.317   6.355  16.720  0.0813 -0.0759  0.1535
  105DPPC   C3A 1230   0.323   6.394  17.215 -0.0199 -0.0845  0.1946
  105DPPC   C4A 1231   0.429   6.412  17.739  0.0120 -0.0977  0.3238
  105DPPC   C1B 1232   0.709   5.925  16.481  0.0184  0.1094  0.4234
  105DPPC   C2B 1233   0.763   6.003  16.891 -0.1100 -0.2021 -0.2250
  105DPPC   C3B 1234   0.697   5.994  17.386 -0.1015 -0.3399 -0.2051
  105DPPC   C4B 1235   0.706   5.986  17.890  0.1967  0.0208 -0.1489
  106DPPC   NC3 1236   1.280   6.188  15.572 -0.0030  0.0744 -0.0553
  106DPPC   PO4 1237   1.458   5.938  15.822  0.0607  0.1228 -0.1672
  106DPPC   GL1 1238   1.497   6.012  16.203 -0.5465 -0.5705  0.2543
  106DPPC   GL2 1239   1.698   6.185  16.277 -0.1270  0.0883 -0.3474
  106DPPC   C1A 1240   1.486   5.748  16.484  0.2298 -0.2455 -0.3187
  106DPPC   C2A 1241   1.470   5.660  16.909 -0.1936  0.2200  0.1874
  106DPPC   C3A 1242   1.521   5.660  17.384  0.0217  0.1577 -0.0216
  106DPPC   C4A 1243   1.557   5.648  17.880  0.2192 -0.1379 -0.2317
  106DPPC   C1B 1244   1.699   6.107  16.690  0.2844  0.0434 -0.0598
  106DPPC   C2B 1245   1.677   6.118  17.135 -0.0032  0.0474 -0.0954
  106DPPC   C3B 1246   1.728   6.127  17.619 -0.0282 -0.1782 -0.0088
  106DPPC   C4B 1247   1.731   6.211  18.080 -0.1502 -0.0409 -0.0022
  107DPPC   NC3 1248   7.843   3.775  15.121 -0.0916 -0.2345  0.2797
  107DPPC   PO4 1249   7.796   3.471  15.377 -0.1819 -0.0926  0.0289
  107DPPC   GL1 1250   7.701   3.651  15.729  0.2148 -0.0528 -0.1785
  107DPPC   GL2 1251   8.011   3.480  15.772 -0.1794 -0.0378 -0.1296
  107DPPC   C1A 1252   7.513   3.589  16.057  0.0837 -0.3909  0.2471
  107DPPC   C2A 1253   7.577   3.418  16.410  0.0789 -0.1117 -0.1423
  107DPPC   C3A 1254   7.591   3.329  16.795  0.0191 -0.0638 -0.1938
  107DPPC   C4A 1255   7.499   3.429  17.274  0.0450  0.2576 -0.0593
  107DPPC   C1B 1256   8.012   3.267  16.047 -0.0496 -0.0565  0.1291
  107DPPC   C2B 1257   7.889   3.039  16.404 -0.1930 -0.0786 -0.1815
  107DPPC   C3B 1258   7.920   2.948  16.907 -0.3051  0.0733  0.0634
  107DPPC   C4B 1259   7.894   3.052  17.300 -0.0328 -0.1047  0.0225
  108DPPC   NC3 1260   2.545   1.673  15.648 -0.0865  0.0796 -0.1366
  108DPPC   PO4 1261   2.157   1.560  15.683 -0.0821  0.2860 -0.3223
  108DPPC   GL1 1262   2.229   1.632  16.054 -0.1641  0.0580 -0.4757
  108DPPC   GL2 1263   2.543   1.657  16.101 -0.1688 -0.1635 -0.0634
  108DPPC   C1A 1264   2.230   1.505  16.411 -0.0253  0.1440  0.0209
  108DPPC   C2A 1265   2.265   1.508  16.801 -0.1216  0.0001  0.0488
  108DPPC   C3A 1266   2.325   1.456  17.269  0.2059  0.1803  0.1409
  108DPPC   C4A 1267   2.293   1.495  17.785  0.1715 -0.0136 -0.1681
  108DPPC   C1B 1268   2.666   1.593  16.415  0.0733  0.0623 -0.0308
  108DPPC   C2B 1269   2.775   1.571  16.790  0.1842 -0.2468 -0.0904
  108DPPC   C3B 1270   2.821   1.564  17.243 -0.2031  0.3144 -0.0700
  108DPPC   C4B 1271   2.878   1.491  17.755 -0.1425  0.1291 -0.2894
  109DPPC   NC3 1272   6.619   2.971  15.170 -0.4112  0.3285 -0.3046
  109DPPC   PO4 1273   6.491   2.636  15.330  0.1761 -0.0161  0.1689
  109DPPC   GL1 1274   6.532   2.490  15.710 -0.1428  0.0974 -0.2150
  109DPPC   GL2 1275   6.498   2.755  15.865 -0.0821  0.0583  0.1798
  109DPPC   C1A 1276   6.695   2.418  16.035 -0.2821  0.0066  0.0959
  109DPPC   C2A 1277   6.770   2.295  16.410 -0.2428 -0.3350 -0.2518
  109DPPC   C3A 1278   6.765   2.327  16.911 -0.0548  0.0068 -0.1155
  109DPPC   C4A 1279   6.711   2.363  17.361 -0.0679 -0.1424 -0.0883
  109DPPC   C1B 1280   6.464   2.740  16.204 -0.0454  0.1641 -0.2071
  109DPPC   C2B 1281   6.460   2.697  16.605 -0.1352 -0.1655 -0.3176
  109DPPC   C3B 1282   6.408   2.677  17.066 -0.0986  0.0798  0.0623
  109DPPC   C4B 1283   6.409   2.766  17.541 -0.2235 -0.2760 -0.2241
  110DPPC   NC3 1284   6.399   3.806  15.325 -0.2481  0.3831  0.0926
  110DPPC   PO4 1285   6.230   4.123  15.441  0.1616 -0.1539 -0.0236
  110DPPC   GL1 1286   6.473   4.032  15.855 -0.1615 -0.2361 -0.3521
  110DPPC   GL2 1287   6.447   3.846  15.764  0.2535 -0.0258  0.0231
  110DPPC   C1A 1288   6.559   4.159  16.202  0.0738 -0.4360 -0.0627
  110DPPC   C2A 1289   6.330   4.137  16.612 -0.1789  0.3517  0.0948
  110DPPC   C3A 1290   6.366   4.123  17.115  0.0835  0.0132  0.0602
  110DPPC   C4A 1291   6.371   4.152  17.623 -0.0437  0.0371 -0.0820
  110DPPC   C1B 1292   6.299   3.729  16.084 -0.0051  0.0716  0.0035
  110DPPC   C2B 1293   5.911   3.717  16.272 -0.0024  0.2461  0.0361
  110DPPC   C3B 1294   5.545   3.666  16.507 -0.1245 -0.0944 -0.0329
  110DPPC   C4B 1295   5.243   3.394  16.794 -0.2050  0.1219  0.3577
  111DPPC   NC3 1296   4.918   6.599  15.725  0.0617 -0.1822  0.0286
  111DPPC   PO4 1297   4.624   6.840  15.763 -0.0338 -0.0879 -0.2507
  111DPPC   GL1 1298   4.632   6.729  16.248 -0.1678 -0.0608  0.1318
  111DPPC   GL2 1299   4.927   6.600  16.160  0.2331 -0.2063 -0.2960
  111DPPC   C1A 1300   4.708   6.768  16.585  0.2656  0.0319  0.1890
  111DPPC   C2A 1301   4.608   6.789  16.979  0.0923 -0.1886 -0.1050
  111DPPC   C3A 1302   4.538   6.802  17.497  0.0082  0.1446 -0.0951
  111DPPC   C4A 1303   4.444   6.807  18.030 -0.0054 -0.0376 -0.0614
  111DPPC   C1B 1304   4.968   6.435  16.508 -0.0770 -0.1575  0.3310
  111DPPC   C2B 1305   4.908   6.454  16.897  0.2215 -0.2351  0.0401
  111DPPC   C3B 1306   4.878   6.510  17.351 -0.0954  0.1063 -0.2600
  111DPPC   C4B 1307   4.867   6.490  17.827  0.1154 -0.0899  0.0634
  112DPPC   NC3 1308   4.119   1.688  15.070  0.0324  0.0137  0.0847
  112DPPC   PO4 1309   4.081   1.421  15.415 -0.0540  0.0093  0.4545
  112DPPC   GL1 1310   3.828   1.447  15.690 -0.3560 -0.0448  0.1424
  112DPPC   GL2 1311   3.816   1.155  15.726 -0.1094 -0.5048 -0.0581
  112DPPC   C1A 1312   3.791   1.475  16.021  0.1067 -0.0138 -0.3092
  112DPPC   C2A 1313   4.032   1.405  16.352 -0.4687  0.0070  0.1723
  112DPPC   C3A 1314   4.055   1.482  16.795  0.1331  0.0110  0.0001
  112DPPC   C4A 1315   4.072   1.455  17.310 -0.0292  0.0024 -0.2323
  112DPPC   C1B 1316   3.833   1.081  16.075  0.1452  0.3830  0.0459
  112DPPC   C2B 1317   3.930   0.923  16.474 -0.2129  0.0761  0.0769
  112DPPC   C3B 1318   4.000   0.921  16.994  0.1296  0.2644  0.1361
  112DPPC   C4B 1319   3.929   0.996  17.433 -0.0903 -0.1226  0.1502
  113DPPC   NC3 1320   2.775   5.089  15.734 -0.0210  0.2401 -0.0733
  113DPPC   PO4 1321   3.145   5.109  15.727  0.2599  0.1821 -0.1073
  113DPPC   GL1 1322   3.297   5.225  16.067 -0.0919 -0.0166  0.0946
  113DPPC   GL2 1323   3.061   5.306  16.201 -0.1626  0.0770  0.0671
  113DPPC   C1A 1324   3.463   5.180  16.364  0.1597 -0.0064  0.0636
  113DPPC   C2A 1325   3.536   5.226  16.752 -0.1478 -0.2063  0.0150
  113DPPC   C3A 1326   3.580   5.314  17.183 -0.1498  0.0131 -0.2750
  113DPPC   C4A 1327   3.677   5.369  17.670  0.1424 -0.0050 -0.2143
  113DPPC   C1B 1328   3.059   5.177  16.532  0.0163 -0.3404 -0.2983
  113DPPC   C2B 1329   3.068   5.191  16.955  0.0782  0.0598  0.0763
  113DPPC   C3B 1330   3.075   5.192  17.437  0.0362  0.1788  0.0001
  113DPPC   C4B 1331   3.211   5.218  17.880 -0.1499  0.2155 -0.0154
  114DPPC   NC3 1332   3.598   3.126  15.197 -0.0036 -0.1850  0.0676
  114DPPC   PO4 1333   3.524   3.430  15.457 -0.1748 -0.1923 -0.3565
  114DPPC   GL1 1334   3.280   3.209  15.736  0.1356  0.1448 -0.0716
  114DPPC   GL2 1335   3.119   3.404  15.851 -0.4733 -0.0882  0.0321
  114DPPC   C1A 1336   3.480   3.155  16.044 -0.5346  0.2344  0.0520
  114DPPC   C2A 1337   3.706   3.081  16.387  0.1342 -0.3507  0.1226
  114DPPC   C3A 1338   3.819   3.125  16.803 -0.1473  0.0877 -0.1473
  114DPPC   C4A 1339   3.842   3.104  17.287  0.0251  0.0631  0.2194
  114DPPC   C1B 1340   3.241   3.478  16.218  0.3356  0.2450 -0.2901
  114DPPC   C2B 1341   3.471   3.484  16.594 -0.3644 -0.4697 -0.0868
  114DPPC   C3B 1342   3.499   3.485  17.053 -0.1911  0.1241  0.3462
  114DPPC   C4B 1343   3.568   3.445  17.538 -0.1011  0.0526  0.0411
  115DPPC   NC3 1344   4.296   6.009  15.805  0.0482 -0.2238  0.2882
  115DPPC   PO4 1345   4.059   5.722  15.904  0.2186 -0.1859  0.0921
  115DPPC   GL1 1346   3.906   5.969  16.138  0.0435 -0.0517 -0.0148
  115DPPC   GL2 1347   3.635   5.858  16.115  0.4841  0.1080 -0.1035
  115DPPC   C1A 1348   3.903   6.095  16.466 -0.1193  0.1039 -0.1321
  115DPPC   C2A 1349   3.915   6.214  16.866  0.0374  0.2436 -0.2040
  115DPPC   C3A 1350   3.931   6.245  17.312 -0.0194  0.1319  0.0493
  115DPPC   C4A 1351   3.943   6.249  17.827  0.1761 -0.1187 -0.1688
  115DPPC   C1B 1352   3.661   5.681  16.384  0.3570  0.1633  0.0037
  115DPPC   C2B 1353   3.724   5.743  16.788 -0.1367  0.0245 -0.2553
  115DPPC   C3B 1354   3.787   5.751  17.274 -0.1242  0.0854 -0.2207
  115DPPC   C4B 1355   3.794   5.814  17.710  0.0315 -0.2643 -0.2450
  116DPPC   NC3 1356   6.355   4.587  15.648 -0.2479  0.0226 -0.1559
  116DPPC   PO4 1357   6.278   4.934  15.872  0.0103 -0.0866  0.0725
  116DPPC   GL1 1358   6.230   4.952  16.300  0.4399 -0.1194 -0.3050
  116DPPC   GL2 1359   6.390   5.226  16.213  0.2061 -0.0959 -0.0870
  116DPPC   C1A 1360   6.232   4.904  16.707 -0.2224 -0.4676 -0.0350
  116DPPC   C2A 1361   6.243   4.936  17.111 -0.4440 -0.3695  0.0848
  116DPPC   C3A 1362   6.206   4.963  17.602 -0.2402  0.2193  0.1630
  116DPPC   C4A 1363   6.258   4.911  18.104 -0.0149  0.0882 -0.1726
  116DPPC   C1B 1364   6.344   5.436  16.447  0.0051 -0.2919 -0.0329
  116DPPC   C2B 1365   6.384   5.416  16.874  0.2039  0.1177 -0.0154
  116DPPC   C3B 1366   6.376   5.430  17.361  0.0553  0.4233 -0.2219
  116DPPC   C4B 1367   6.182   5.414  17.812  0.3660 -0.3797 -0.1638
  117DPPC   NC3 1368   2.403   3.517  15.527 -0.2977 -0.2488  0.0143
  117DPPC   PO4 1369   2.006   3.482  15.649 -0.0296 -0.1483  0.0099
  117DPPC   GL1 1370   1.873   3.619  16.004 -0.0550  0.3534  0.1013
  117DPPC   GL2 1371   1.948   3.849  16.020 -0.2159 -0.1433 -0.1311
  117DPPC   C1A 1372   1.829   3.427  16.300  0.0087 -0.2226 -0.1214
  117DPPC   C2A 1373   1.890   3.155  16.670  0.0738 -0.1399 -0.3382
  117DPPC   C3A 1374   1.957   3.119  17.156 -0.1218  0.0679 -0.1265
  117DPPC   C4A 1375   2.015   3.082  17.631 -0.0582 -0.2206 -0.1583
  117DPPC   C1B 1376   1.912   3.955  16.372  0.0562 -0.1529  0.4770
  117DPPC   C2B 1377   1.687   4.013  16.707  0.0051  0.1082  0.0984
  117DPPC   C3B 1378   1.776   4.028  17.150  0.0300 -0.1087 -0.1857
  117DPPC   C4B 1379   1.801   3.936  17.624  0.2186 -0.0473  0.1526
  118DPPC   NC3 1380   1.798   0.232  15.489  0.0461  0.0901  0.0547
  118DPPC   PO4 1381   1.469   0.043  15.608 -0.2967 -0.0287 -0.1394
  118DPPC   GL1 1382   1.628   0.280  15.942 -0.0070  0.4169 -0.1215
  118DPPC   GL2 1383   1.396   0.202  16.201  0.4949  0.0754 -0.3533
  118DPPC   C1A 1384   1.783   0.416  16.208  0.1849  0.1254 -0.0020
  118DPPC   C2A 1385   1.977   0.498  16.578  0.0367  0.0128 -0.3420
  118DPPC   C3A 1386   1.981   0.511  17.074  0.3613  0.0899  0.0231
  118DPPC   C4A 1387   2.019   0.539  17.557 -0.1296  0.0222 -0.0038
  118DPPC   C1B 1388   1.532   0.326  16.511 -0.0871  0.1519 -0.1590
  118DPPC   C2B 1389   1.518   0.403  16.911 -0.0934  0.0120  0.0528
  118DPPC   C3B 1390   1.531   0.422  17.365  0.2970  0.0092  0.1978
  118DPPC   C4B 1391   1.605   0.380  17.864 -0.0455 -0.0817  0.3323
  119DPPC   NC3 1392   3.622   5.368  15.758 -0.1958  0.0943 -0.2062
  119DPPC   PO4 1393   3.660   5.005  15.792 -0.2465  0.0067  0.1364
  119DPPC   GL1 1394   3.921   5.037  16.129 -0.1431 -0.0044 -0.0237
  119DPPC   GL2 1395   3.885   5.340  16.175 -0.0924 -0.1266 -0.0575
  119DPPC   C1A 1396   3.919   4.983  16.518  0.1210  0.1606 -0.0522
  119DPPC   C2A 1397   3.846   4.929  16.918  0.1691 -0.1050  0.1257
  119DPPC   C3A 1398   3.935   4.898  17.374  0.0772 -0.2622  0.1597
  119DPPC   C4A 1399   3.911   4.912  17.822 -0.2216  0.3310 -0.0416
  119DPPC   C1B 1400   3.936   5.417  16.589  0.1415 -0.1411 -0.0743
  119DPPC   C2B 1401   4.104   5.361  16.951 -0.0554 -0.0067 -0.3173
  119DPPC   C3B 1402   4.093   5.350  17.409  0.1320 -0.2008  0.0788
  119DPPC   C4B 1403   4.170   5.402  17.900  0.0032  0.0924 -0.0512
  120DPPC   NC3 1404   5.090   6.343  15.139 -0.0625 -0.2497 -0.1215
  120DPPC   PO4 1405   5.272   6.354  15.484 -0.1604  0.0542  0.0345
  120DPPC   GL1 1406   5.280   6.353  15.904  0.1786 -0.0542 -0.3739
  120DPPC   GL2 1407   5.313   6.018  15.977 -0.5424 -0.3967 -0.1714
  120DPPC   C1A 1408   5.306   6.548  16.248 -0.0932  0.1494 -0.4277
  120DPPC   C2A 1409   5.392   6.547  16.625 -0.1395 -0.0612  0.2381
  120DPPC   C3A 1410   5.406   6.541  17.096 -0.1140  0.0528  0.0302
  120DPPC   C4A 1411   5.313   6.642  17.559 -0.0549  0.2789 -0.1147
  120DPPC   C1B 1412   5.293   6.031  16.374 -0.1327  0.1821  0.0516
  120DPPC   C2B 1413   5.240   6.094  16.748 -0.1302 -0.2218 -0.1484
  120DPPC   C3B 1414   5.167   6.082  17.210 -0.1038  0.2697 -0.2380
  120DPPC   C4B 1415   5.222   6.165  17.682  0.1380  0.2112 -0.0094
  121DPPC   NC3 1416   1.034   3.958  15.887  0.1673  0.1484  0.2392
  121DPPC   PO4 1417   0.820   4.204  15.664  0.1326  0.1532  0.0059
  121DPPC   GL1 1418   0.480   4.347  15.873  0.0719 -0.0235  0.1688
  121DPPC   GL2 1419   0.598   4.653  15.927  0.0438 -0.2932  0.3371
  121DPPC   C1A 1420   0.428   4.198  16.174  0.3702  0.0796  0.1162
  121DPPC   C2A 1421   0.473   4.121  16.594 -0.0523  0.5103  0.0363
  121DPPC   C3A 1422   0.504   4.148  17.118 -0.0476  0.1578  0.2764
  121DPPC   C4A 1423   0.579   4.123  17.613 -0.1183 -0.1470  0.3641
  121DPPC   C1B 1424   0.646   4.584  16.267  0.0621  0.2516  0.1704
  121DPPC   C2B 1425   0.720   4.665  16.641 -0.0102  0.0875 -0.1476
  121DPPC   C3B 1426   0.618   4.641  17.084 -0.0641 -0.3982 -0.0328
  121DPPC   C4B 1427   0.672   4.681  17.587 -0.2835  0.0090  0.0745
  122DPPC   NC3 1428   1.707   5.578  16.089  0.2002 -0.0754  0.0436
  122DPPC   PO4 1429   1.969   5.870  16.004 -0.0044 -0.2109  0.0915
  122DPPC   GL1 1430   2.155   5.723  16.346 -0.3724  0.0028 -0.0304
  122DPPC   GL2 1431   1.914   5.668  16.476  0.0294  0.0651  0.0817
  122DPPC   C1A 1432   2.374   5.850  16.643  0.1850 -0.2066 -0.0187
  122DPPC   C2A 1433   2.456   5.867  17.037  0.0327  0.0997 -0.2307
  122DPPC   C3A 1434   2.524   5.884  17.496 -0.2574 -0.1670 -0.1335
  122DPPC   C4A 1435   2.556   5.832  18.023  0.0593 -0.0964 -0.2666
  122DPPC   C1B 1436   1.913   5.783  16.845 -0.2436 -0.0422  0.0930
  122DPPC   C2B 1437   1.982   5.752  17.252 -0.2141 -0.1903 -0.1291
  122DPPC   C3B 1438   2.066   5.766  17.769 -0.0272 -0.4429  0.0864
  122DPPC   C4B 1439   2.080   5.747  18.218  0.2042 -0.3396  0.1087
  123DPPC   NC3 1440   4.291   0.130  15.452  0.1758 -0.0241  0.0251
  123DPPC   PO4 1441   4.115  -0.203  15.580 -0.0841  0.0710 -0.0363
  123DPPC   GL1 1442   4.089  -0.169  15.946 -0.0488 -0.3196 -0.3068
  123DPPC   GL2 1443   3.802  -0.138  15.995  0.1304 -0.2464 -0.0197
  123DPPC   C1A 1444   4.218  -0.039  16.289  0.1530 -0.0596  0.0888
  123DPPC   C2A 1445   4.217   0.064  16.697 -0.3053  0.1205  0.0167
  123DPPC   C3A 1446   4.083   0.139  17.161 -0.1118  0.2044 -0.0825
  123DPPC   C4A 1447   4.095   0.165  17.672  0.0879  0.3150  0.1066
  123DPPC   C1B 1448   3.742  -0.120  16.379  0.2174 -0.3960 -0.2814
  123DPPC   C2B 1449   3.644  -0.009  16.760  0.0803 -0.1787 -0.0114
  123DPPC   C3B 1450   3.605   0.041  17.267 -0.1718  0.2279  0.1316
  123DPPC   C4B 1451   3.651   0.045  17.754  0.3147 -0.0861 -0.1727
  124DPPC   NC3 1452   2.350   4.499  15.677  0.1943  0.1653  0.2178
  124DPPC   PO4 1453   2.665   4.634  15.855  0.0204 -0.0183 -0.1594
  124DPPC   GL1 1454   2.649   4.678  16.197  0.0850 -0.0938  0.1252
  124DPPC   GL2 1455   2.420   4.518  16.289  0.2168 -0.1249 -0.0792
  124DPPC   C1A 1456   2.837   4.657  16.514 -0.1126 -0.1446  0.0135
  124DPPC   C2A 1457   2.973   4.593  16.915 -0.1767  0.0276 -0.2029
  124DPPC   C3A 1458   2.931   4.673  17.407 -0.0623 -0.1701 -0.0325
  124DPPC   C4A 1459   2.989   4.740  17.846  0.0125  0.0680  0.0500
  124DPPC   C1B 1460   2.418   4.603  16.631 -0.2846 -0.3295 -0.2840
  124DPPC   C2B 1461   2.425   4.567  17.052  0.1245 -0.1054  0.1482
  124DPPC   C3B 1462   2.440   4.590  17.486 -0.0806 -0.1193 -0.0940
  124DPPC   C4B 1463   2.488   4.570  17.966 -0.0215  0.0043 -0.4262
  125DPPC   NC3 1464   1.408   4.184  15.656  0.1366 -0.2420 -0.1340
  125DPPC   PO4 1465   1.531   3.876  15.869 -0.1137 -0.0674  0.0514
  125DPPC   GL1 1466   1.397   3.749  16.186 -0.2171  0.0846 -0.0740
  125DPPC   GL2 1467   1.276   3.954  16.292 -0.1597 -0.2985 -0.1613
  125DPPC   C1A 1468   1.507   3.546  16.530  0.2930  0.1733 -0.0117
  125DPPC   C2A 1469   1.646   3.565  16.904  0.1461  0.3258  0.2045
  125DPPC   C3A 1470   1.552   3.536  17.381  0.1760  0.2395  0.0545
  125DPPC   C4A 1471   1.604   3.546  17.887  0.2505  0.2642 -0.1169
  125DPPC   C1B 1472   1.228   3.978  16.665  0.2054 -0.2985  0.0604
  125DPPC   C2B 1473   1.305   3.901  17.109 -0.1051  0.1965  0.0893
  125DPPC   C3B 1474   1.297   3.932  17.613  0.3050  0.1227  0.1236
  125DPPC   C4B 1475   1.347   3.945  18.067  0.0087  0.3773 -0.2722
  126DPPC   NC3 1476   1.155   2.643  14.798 -0.0997  0.0792  0.1571
  126DPPC   PO4 1477   1.353   2.792  15.149 -0.1693  0.0357  0.2808
  126DPPC   GL1 1478   1.091   2.726  15.541  0.0614  0.1030 -0.0749
  126DPPC   GL2 1479   1.292   2.979  15.646  0.2343 -0.1985 -0.1950
  126DPPC   C1A 1480   1.273   2.586  15.849 -0.0399 -0.0579  0.1570
  126DPPC   C2A 1481   1.266   2.533  16.242 -0.0767  0.2746  0.0474
  126DPPC   C3A 1482   1.298   2.568  16.697  0.2549 -0.1203 -0.0601
  126DPPC   C4A 1483   1.362   2.622  17.155 -0.2536  0.3077  0.0418
  126DPPC   C1B 1484   1.479   2.918  15.974  0.1719 -0.0752 -0.0342
  126DPPC   C2B 1485   1.484   3.012  16.383 -0.3129 -0.3848  0.0801
  126DPPC   C3B 1486   1.433   3.037  16.873  0.0929  0.1230  0.3193
  126DPPC   C4B 1487   1.498   3.083  17.328  0.0675  0.1343 -0.1755
  127DPPC   NC3 1488   3.235   3.872  15.640 -0.0244 -0.0816 -0.0342
  127DPPC   PO4 1489   2.884   3.745  15.696 -0.1891 -0.3110  0.0975
  127DPPC   GL1 1490   2.730   3.513  16.028  0.2055 -0.1327 -0.0557
  127DPPC   GL2 1491   2.406   3.610  15.999 -0.2259  0.1239  0.3802
  127DPPC   C1A 1492   2.846   3.361  16.293 -0.1083 -0.1636  0.0296
  127DPPC   C2A 1493   2.975   3.367  16.676  0.3024  0.1838 -0.3889
  127DPPC   C3A 1494   2.993   3.386  17.123  0.0505  0.1408 -0.0580
  127DPPC   C4A 1495   2.924   3.463  17.644  0.0442 -0.1934  0.1168
  127DPPC   C1B 1496   2.223   3.607  16.334  0.0615  0.1584  0.2785
  127DPPC   C2B 1497   2.095   3.642  16.717  0.1379 -0.4915  0.2387
  127DPPC   C3B 1498   2.130   3.611  17.245  0.0172 -0.1260  0.2273
  127DPPC   C4B 1499   2.088   3.552  17.712  0.2717 -0.0123  0.1276
  128DPPC   NC3 1500  26.330   4.339  15.726  0.2786 -0.0636 -0.0805
  128DPPC   PO4 1501  26.588   4.628  15.786 -0.2951 -0.1606 -0.2529
  128DPPC   GL1 1502  26.564   4.751  16.152  0.1609  0.1519  0.0234
  128DPPC   GL2 1503  26.368   4.515  16.177 -0.1804  0.1753 -0.3286
  128DPPC   C1A 1504  26.698   4.893  16.388 -0.0001  0.3693 -0.0420
  128DPPC   C2A 1505  26.742   5.040  16.744  0.0326 -0.1851  0.2424
  128DPPC   C3A 1506  26.723   5.035  17.227 -0.2572  0.1265 -0.1441
  128DPPC   C4A 1507  26.788   5.035  17.758 -0.2042  0.0780 -0.0175
  128DPPC   C1B 1508  26.388   4.439  16.534 -0.1039 -0.1008  0.0126
  128DPPC   C2B 1509  26.624   4.535  16.879 -0.2170 -0.0672 -0.0578
  128DPPC   C3B 1510  26.633   4.543  17.339 -0.1010 -0.1208  0.3109
  128DPPC   C4B 1511  26.732   4.479  17.832 -0.0489 -0.0362  0.1132
  129DPPC   NC3 1512   6.839   6.233  15.538  0.3462 -0.0748 -0.1193
  129DPPC   PO4 1513   6.457   6.356  15.424  0.0580  0.2262 -0.0369
  129DPPC   GL1 1514   6.192   6.218  15.836 -0.0376 -0.0820 -0.0854
  129DPPC   GL2 1515   6.520   6.229  15.851  0.1609  0.1850 -0.1440
  129DPPC   C1A 1516   6.211   6.290  16.223 -0.0280 -0.0149 -0.0386
  129DPPC   C2A 1517   6.207   6.279  16.627 -0.0703 -0.0431 -0.2282
  129DPPC   C3A 1518   6.176   6.260  17.084 -0.1455 -0.1941  0.0333
  129DPPC   C4A 1519   6.126   6.336  17.557  0.3339 -0.1657 -0.1547
  129DPPC   C1B 1520   6.659   6.230  16.185 -0.2096 -0.3112  0.0847
  129DPPC   C2B 1521   6.704   6.291  16.599 -0.0442  0.0712 -0.0738
  129DPPC   C3B 1522   6.735   6.312  17.122  0.0045  0.1902 -0.1028
  129DPPC   C4B 1523   6.657   6.377  17.589 -0.1394  0.2398  0.0266
  130DPPC   NC3 1524   2.982   0.874  15.923 -0.0223  0.1318 -0.0393
  130DPPC   PO4 1525   3.142   1.092  15.660 -0.0440 -0.0837  0.0560
  130DPPC   GL1 1526   3.414   1.352  15.823  0.4144  0.2384 -0.2747
  130DPPC   GL2 1527   3.350   1.161  16.092 -0.0270  0.2085 -0.0818
  130DPPC   C1A 1528   3.320   1.582  16.037  0.0683  0.0007 -0.0955
  130DPPC   C2A 1529   3.163   1.741  16.411  0.2817 -0.0735  0.0364
  130DPPC   C3A 1530   3.239   1.656  16.895  0.3190 -0.0347 -0.0755
  130DPPC   C4A 1531   3.273   1.671  17.409  0.0835 -0.0334 -0.0363
  130DPPC   C1B 1532   3.512   1.272  16.388  0.1658  0.1797 -0.3204
  130DPPC   C2B 1533   3.606   1.296  16.784 -0.1618  0.0504  0.3026
  130DPPC   C3B 1534   3.624   1.359  17.190  0.3684 -0.1794 -0.1892
  130DPPC   C4B 1535   3.680   1.346  17.716  0.1158 -0.1558 -0.2108
  131DPPC   NC3 1536   3.485   0.787  15.383 -0.1189  0.2416  0.1276
  131DPPC   PO4 1537   3.428   0.667  15.750 -0.3299  0.0709 -0.2030
  131DPPC   GL1 1538   3.431   0.704  16.057 -0.0010 -0.0959  0.1502
  131DPPC   GL2 1539   3.264   0.506  16.113  0.2306 -0.1034  0.0671
  131DPPC   C1A 1540   3.434   0.819  16.414 -0.5910 -0.0364  0.0297
  131DPPC   C2A 1541   3.514   0.825  16.801  0.2084  0.0272  0.1509
  131DPPC   C3A 1542   3.466   0.863  17.258 -0.1470  0.2142 -0.2728
  131DPPC   C4A 1543   3.600   0.834  17.762  0.0145 -0.0001  0.0076
  131DPPC   C1B 1544   3.045   0.632  16.336  0.1837  0.0679 -0.0835
  131DPPC   C2B 1545   2.990   0.737  16.753  0.1208 -0.1656  0.0439
  131DPPC   C3B 1546   3.004   0.756  17.222  0.2907  0.1924  0.0046
  131DPPC   C4B 1547   3.030   0.726  17.763 -0.3204 -0.2653  0.0364
  132DPPC   NC3 1548   3.371   4.584  15.798 -0.2337  0.2175 -0.3259
  132DPPC   PO4 1549   3.111   4.325  15.884 -0.1171  0.1341  0.1111
  132DPPC   GL1 1550   3.262   4.420  16.285 -0.2432 -0.3573  0.0688
  132DPPC   GL2 1551   3.560   4.308  16.278  0.1367 -0.2527  0.1115
  132DPPC   C1A 1552   3.186   4.341  16.618 -0.0607 -0.1011 -0.2002
  132DPPC   C2A 1553   3.307   4.238  17.018  0.0293  0.0461  0.2512
  132DPPC   C3A 1554   3.357   4.254  17.546  0.0407  0.1124 -0.0322
  132DPPC   C4A 1555   3.345   4.239  18.016  0.0682  0.1290  0.2258
  132DPPC   C1B 1556   3.711   4.427  16.591  0.1982  0.2514  0.1745
  132DPPC   C2B 1557   3.831   4.419  16.985  0.3067 -0.1033 -0.1875
  132DPPC   C3B 1558   3.766   4.433  17.408 -0.0444 -0.1766 -0.1330
  132DPPC   C4B 1559   3.803   4.401  17.957 -0.0124 -0.1484  0.2409
  133DPPC   NC3 1560   7.025   5.639  15.665  0.0990  0.0558 -0.0639
  133DPPC   PO4 1561   6.650   5.767  15.635 -0.1759 -0.3593 -0.0970
  133DPPC   GL1 1562   6.286   5.802  15.905 -0.3646 -0.0058 -0.0660
  133DPPC   GL2 1563   6.437   5.748  16.138 -0.1093  0.0147  0.0611
  133DPPC   C1A 1564   6.029   5.898  16.109  0.0181 -0.3115  0.2698
  133DPPC   C2A 1565   6.029   5.844  16.503  0.3167 -0.0493  0.0013
  133DPPC   C3A 1566   6.051   5.825  16.981  0.1431 -0.1004  0.1027
  133DPPC   C4A 1567   6.004   5.819  17.493  0.3512  0.0718 -0.0720
  133DPPC   C1B 1568   6.471   5.899  16.484  0.0727  0.1771  0.1873
  133DPPC   C2B 1569   6.533   5.912  16.905 -0.4683 -0.0423  0.1294
  133DPPC   C3B 1570   6.495   5.930  17.323 -0.0357  0.2296 -0.0053
  133DPPC   C4B 1571   6.416   5.947  17.842  0.0622  0.4429  0.0180
  134DPPC   NC3 1572   7.364   4.602  15.152  0.0352  0.1965 -0.0038
  134DPPC   PO4 1573   7.333   4.792  15.493 -0.0414 -0.1331  0.2469
  134DPPC   GL1 1574   6.986   4.878  15.890  0.1534  0.3026  0.1859
  134DPPC   GL2 1575   7.215   4.611  15.895  0.1367  0.1025 -0.0964
  134DPPC   C1A 1576   6.839   4.909  16.227  0.0976 -0.0935 -0.1874
  134DPPC   C2A 1577   6.725   5.002  16.598  0.1287  0.0166  0.0734
  134DPPC   C3A 1578   6.748   5.040  17.031 -0.2909 -0.2417 -0.1295
  134DPPC   C4A 1579   6.736   5.070  17.537  0.3060 -0.2206  0.2485
  134DPPC   C1B 1580   7.400   4.674  16.216  0.0116  0.3345  0.2488
  134DPPC   C2B 1581   7.534   4.887  16.511 -0.0618 -0.1167  0.1727
  134DPPC   C3B 1582   7.571   4.804  16.936 -0.0307  0.1321 -0.1148
  134DPPC   C4B 1583   7.523   4.773  17.463  0.3647 -0.2253 -0.0737
  135DPPC   NC3 1584   4.563   4.965  15.740  0.1493 -0.1207  0.0479
  135DPPC   PO4 1585   4.270   4.798  15.564  0.2609  0.2109  0.4104
  135DPPC   GL1 1586   4.138   4.661  15.917 -0.4249 -0.5453 -0.2853
  135DPPC   GL2 1587   3.792   4.586  15.914 -0.3217  0.1473  0.0261
  135DPPC   C1A 1588   4.119   4.621  16.307  0.0838  0.0410 -0.1463
  135DPPC   C2A 1589   4.211   4.642  16.682  0.1913  0.0074  0.0533
  135DPPC   C3A 1590   4.271   4.526  17.167  0.0340 -0.0048  0.2442
  135DPPC   C4A 1591   4.177   4.535  17.645 -0.1353  0.0856 -0.1044
  135DPPC   C1B 1592   3.552   4.755  16.203  0.1008  0.3633  0.0966
  135DPPC   C2B 1593   3.369   4.788  16.545 -0.0532 -0.0354 -0.2719
  135DPPC   C3B 1594   3.413   4.798  17.043  0.0970 -0.2361 -0.0580
  135DPPC   C4B 1595   3.441   4.799  17.591 -0.0951  0.1229 -0.3260
  136DPPC   NC3 1596   7.479   3.297  15.697 -0.0599  0.2974 -0.1635
  136DPPC   PO4 1597   7.262   3.454  15.411  0.1161 -0.1539  0.0161
  136DPPC   GL1 1598   7.122   3.630  15.743  0.0915  0.0346  0.2456
  136DPPC   GL2 1599   7.025   3.315  15.790 -0.0203 -0.0166  0.1128
  136DPPC   C1A 1600   7.111   3.718  16.113 -0.1410  0.0382 -0.0364
  136DPPC   C2A 1601   7.232   3.786  16.496  0.1061 -0.5893 -0.2428
  136DPPC   C3A 1602   7.273   3.776  16.994  0.4686  0.0721  0.0131
  136DPPC   C4A 1603   7.191   3.788  17.483  0.3421  0.0424  0.0414
  136DPPC   C1B 1604   7.093   3.270  16.208  0.0868 -0.1524 -0.0077
  136DPPC   C2B 1605   7.107   3.307  16.657  0.0000  0.0269  0.2476
  136DPPC   C3B 1606   7.034   3.336  17.157  0.0655  0.1415  0.1059
  136DPPC   C4B 1607   6.945   3.349  17.619 -0.2141 -0.0330  0.0667
  137DPPC   NC3 1608   3.190   2.296  15.620 -0.0776 -0.0382  0.0332
  137DPPC   PO4 1609   3.537   2.233  15.700 -0.0950  0.3834 -0.1839
  137DPPC   GL1 1610   3.672   2.217  16.060 -0.0662 -0.4254 -0.0373
  137DPPC   GL2 1611   3.401   2.170  16.113  0.0805  0.0080 -0.0189
  137DPPC   C1A 1612   3.916   2.277  16.366 -0.3650  0.3585 -0.0173
  137DPPC   C2A 1613   3.911   2.235  16.792 -0.0007 -0.1790 -0.1793
  137DPPC   C3A 1614   3.940   2.268  17.259 -0.0637 -0.1499 -0.3243
  137DPPC   C4A 1615   3.990   2.318  17.743  0.1931  0.0299  0.0046
  137DPPC   C1B 1616   3.352   2.167  16.520  0.0489  0.2602  0.0473
  137DPPC   C2B 1617   3.376   2.136  16.950 -0.0215  0.0492  0.1954
  137DPPC   C3B 1618   3.427   2.194  17.467 -0.1252 -0.2170 -0.0696
  137DPPC   C4B 1619   3.505   2.247  17.951 -0.2198  0.1378 -0.0057
  138DPPC   NC3 1620   5.268   2.665  15.291 -0.0108 -0.4354 -0.0929
  138DPPC   PO4 1621   5.384   2.559  15.679 -0.0732 -0.3736 -0.1873
  138DPPC   GL1 1622   5.729   2.572  15.901 -0.1178  0.1025  0.2689
  138DPPC   GL2 1623   5.729   2.879  15.834 -0.1454 -0.1004  0.0646
  138DPPC   C1A 1624   5.894   2.577  16.221 -0.0973 -0.1687 -0.3731
  138DPPC   C2A 1625   5.883   2.656  16.590  0.1610 -0.4840  0.2878
  138DPPC   C3A 1626   5.912   2.567  17.014 -0.0942 -0.0478  0.0239
  138DPPC   C4A 1627   5.939   2.655  17.473  0.3708  0.0963 -0.0312
  138DPPC   C1B 1628   5.589   2.900  16.150 -0.0131  0.3193 -0.1986
  138DPPC   C2B 1629   5.648   3.097  16.514  0.0653 -0.3738 -0.0196
  138DPPC   C3B 1630   5.723   3.320  16.936 -0.1250 -0.2038  0.0421
  138DPPC   C4B 1631   5.819   3.500  17.414  0.0590  0.1832  0.0905
  139DPPC   NC3 1632   4.017   2.384  15.712  0.1143  0.1802  0.2168
  139DPPC   PO4 1633   4.393   2.373  15.531  0.1411 -0.1613  0.0733
  139DPPC   GL1 1634   4.468   2.216  15.882 -0.3114 -0.1052 -0.2533
  139DPPC   GL2 1635   4.719   2.171  15.905 -0.3912 -0.0095  0.3751
  139DPPC   C1A 1636   4.362   2.286  16.237  0.1091 -0.0451 -0.1318
  139DPPC   C2A 1637   4.375   2.327  16.645 -0.1843  0.1563 -0.2520
  139DPPC   C3A 1638   4.428   2.394  17.113  0.2261 -0.1649 -0.2679
  139DPPC   C4A 1639   4.468   2.381  17.603 -0.0666 -0.0268 -0.1210
  139DPPC   C1B 1640   4.914   2.316  16.183  0.3628 -0.0835 -0.1740
  139DPPC   C2B 1641   4.934   2.486  16.546  0.0261  0.0922 -0.4080
  139DPPC   C3B 1642   4.926   2.463  17.035 -0.1740  0.1063 -0.0705
  139DPPC   C4B 1643   4.952   2.450  17.496 -0.1863 -0.0941  0.0160
  140DPPC   NC3 1644   1.918   0.809  15.454 -0.1928  0.0896 -0.0976
  140DPPC   PO4 1645   2.045   0.555  15.744 -0.0139  0.0682 -0.1445
  140DPPC   GL1 1646   2.267   0.699  16.089 -0.0975 -0.4139 -0.0103
  140DPPC   GL2 1647   2.553   0.629  15.970 -0.0392 -0.4310 -0.3563
  140DPPC   C1A 1648   2.489   0.658  16.404  0.2928  0.0876  0.1701
  140DPPC   C2A 1649   2.463   0.657  16.784  0.1031 -0.0283  0.1226
  140DPPC   C3A 1650   2.434   0.687  17.273 -0.1361 -0.2125 -0.1865
  140DPPC   C4A 1651   2.484   0.726  17.735  0.2783  0.1279  0.2312
  140DPPC   C1B 1652   2.694   0.343  16.153 -0.2787 -0.4636  0.1067
  140DPPC   C2B 1653   2.759   0.232  16.539  0.2511  0.0915  0.1444
  140DPPC   C3B 1654   2.783   0.308  17.023 -0.0341 -0.2849 -0.1726
  140DPPC   C4B 1655   2.751   0.311  17.570 -0.2321 -0.3082  0.1067
  141DPPC   NC3 1656   8.213   4.480  15.430 -0.1118  0.1498 -0.2268
  141DPPC   PO4 1657   8.158   4.742  15.742  0.0276 -0.2254  0.0096
  141DPPC   GL1 1658   8.199   4.647  16.039 -0.0018  0.1846  0.1266
  141DPPC   GL2 1659   8.045   4.839  16.211  0.0007  0.0564  0.4876
  141DPPC   C1A 1660   8.259   4.484  16.338  0.2037  0.1900  0.0006
  141DPPC   C2A 1661   8.380   4.434  16.722  0.2465  0.1987  0.2712
  141DPPC   C3A 1662   8.422   4.439  17.167  0.1415  0.2062 -0.0834
  141DPPC   C4A 1663   8.293   4.378  17.645 -0.1217  0.2551  0.2165
  141DPPC   C1B 1664   8.068   4.833  16.590 -0.0823 -0.3154 -0.1027
  141DPPC   C2B 1665   8.090   4.767  16.967  0.3366  0.0667  0.2992
  141DPPC   C3B 1666   8.031   4.783  17.402 -0.3081 -0.1965  0.0568
  141DPPC   C4B 1667   8.047   4.822  17.882 -0.0962 -0.2169  0.1979
  142DPPC   NC3 1668   1.458   5.020  16.071 -0.1398  0.2240 -0.1651
  142DPPC   PO4 1669   1.784   5.143  15.866  0.1235 -0.0209  0.1076
  142DPPC   GL1 1670   1.890   5.190  16.359  0.3144 -0.1681 -0.1041
  142DPPC   GL2 1671   2.094   5.324  16.230 -0.0651 -0.1371 -0.0626
  142DPPC   C1A 1672   1.775   5.259  16.655 -0.1227 -0.2901 -0.2328
  142DPPC   C2A 1673   1.768   5.313  17.051 -0.1942  0.2628 -0.2254
  142DPPC   C3A 1674   1.856   5.328  17.506 -0.0112  0.0329  0.0520
  142DPPC   C4A 1675   1.836   5.277  18.008 -0.0737 -0.1392 -0.4715
  142DPPC   C1B 1676   2.215   5.317  16.549  0.0910 -0.1237  0.0384
  142DPPC   C2B 1677   2.271   5.384  16.935  0.0332  0.1466 -0.1565
  142DPPC   C3B 1678   2.362   5.414  17.435  0.1207  0.2100  0.0046
  142DPPC   C4B 1679   2.383   5.314  17.916 -0.1091  0.2941 -0.2865
  143DPPC   NC3 1680   1.470   0.988  15.292 -0.0255 -0.2347  0.1841
  143DPPC   PO4 1681   1.691   1.302  15.461 -0.2681 -0.0568 -0.2724
  143DPPC   GL1 1682   1.828   1.368  15.966  0.2470 -0.0976  0.4363
  143DPPC   GL2 1683   1.571   1.515  15.955  0.1886 -0.0145  0.0889
  143DPPC   C1A 1684   1.835   1.392  16.324 -0.1798  0.0740 -0.1454
  143DPPC   C2A 1685   1.720   1.399  16.749  0.1391  0.1016 -0.3175
  143DPPC   C3A 1686   1.747   1.372  17.273  0.0291 -0.0913 -0.2873
  143DPPC   C4A 1687   1.797   1.339  17.757  0.0176  0.1196 -0.1641
  143DPPC   C1B 1688   1.465   1.690  16.306 -0.3111  0.2960 -0.1700
  143DPPC   C2B 1689   1.342   1.701  16.710 -0.0570  0.1765 -0.2754
  143DPPC   C3B 1690   1.415   1.809  17.160  0.0689  0.1638  0.1947
  143DPPC   C4B 1691   1.522   1.745  17.652 -0.4100  0.4045  0.2607
  144DPPC   NC3 1692   4.293   3.920  15.784 -0.0226  0.0084  0.0384
  144DPPC   PO4 1693   4.088   4.241  15.715  0.2321 -0.1586 -0.1032
  144DPPC   GL1 1694   3.987   4.143  16.113  0.0892 -0.0287  0.1494
  144DPPC   GL2 1695   3.923   3.852  16.025 -0.0289 -0.2651 -0.3012
  144DPPC   C1A 1696   4.064   4.131  16.476 -0.1086 -0.1529 -0.0266
  144DPPC   C2A 1697   4.149   4.070  16.864  0.0252 -0.1681 -0.4411
  144DPPC   C3A 1698   4.137   4.040  17.373 -0.0652  0.2069  0.2545
  144DPPC   C4A 1699   4.255   4.025  17.853  0.0571 -0.0424 -0.1111
  144DPPC   C1B 1700   3.728   3.845  16.375 -0.0731  0.0498  0.0538
  144DPPC   C2B 1701   3.668   3.937  16.818  0.0747 -0.0822  0.2016
  144DPPC   C3B 1702   3.677   3.929  17.251  0.0235  0.0918 -0.3397
  144DPPC   C4B 1703   3.749   3.937  17.783  0.0198 -0.0466  0.0096
  145DPPC   NC3 1704   5.101   3.980  15.656  0.0354 -0.1238 -0.0368
  145DPPC   PO4 1705   4.782   3.973  15.825  0.2116 -0.0219  0.1277
  145DPPC   GL1 1706   4.686   4.171  16.124  0.0235  0.0290 -0.3386
  145DPPC   GL2 1707   4.415   4.256  16.272 -0.3576 -0.1395 -0.1744
  145DPPC   C1A 1708   4.914   4.244  16.388 -0.2314  0.0174 -0.3774
  145DPPC   C2A 1709   5.042   4.251  16.814  0.1189 -0.0602  0.3864
  145DPPC   C3A 1710   5.116   4.173  17.240 -0.0828  0.0350 -0.1789
  145DPPC   C4A 1711   5.457   4.091  17.547 -0.1401 -0.3993 -0.3810
  145DPPC   C1B 1712   4.503   4.217  16.653 -0.2601  0.5098 -0.1005
  145DPPC   C2B 1713   4.594   4.166  17.063 -0.0380 -0.1298 -0.0619
  145DPPC   C3B 1714   4.684   4.147  17.538 -0.0562 -0.1418 -0.1386
  145DPPC   C4B 1715   5.026   3.874  17.827 -0.1124  0.3263  0.1248
  146DPPC   NC3 1716   0.922   4.765  15.460  0.1483  0.2806  0.3356
  146DPPC   PO4 1717   1.106   4.595  15.735 -0.0060  0.1935 -0.0974
  146DPPC   GL1 1718   1.080   4.422  16.117  0.0815 -0.1350  0.1016
  146DPPC   GL2 1719   1.388   4.355  16.107  0.1854  0.0344  0.2047
  146DPPC   C1A 1720   0.979   4.323  16.461 -0.0888  0.0273  0.1033
  146DPPC   C2A 1721   0.965   4.251  16.907  0.1597  0.1976 -0.0162
  146DPPC   C3A 1722   0.986   4.299  17.392  0.1190 -0.3019 -0.0248
  146DPPC   C4A 1723   1.032   4.322  17.906  0.1731 -0.1047  0.1164
  146DPPC   C1B 1724   1.379   4.420  16.460 -0.3862 -0.0030  0.0544
  146DPPC   C2B 1725   1.444   4.393  16.889 -0.0681 -0.0764 -0.1271
  146DPPC   C3B 1726   1.503   4.360  17.358 -0.0308  0.0026 -0.0702
  146DPPC   C4B 1727   1.488   4.345  17.876  0.2412  0.0301 -0.0243
  147DPPC   NC3 1728   2.981   3.369  15.261 -0.2432 -0.2268  0.1115
  147DPPC   PO4 1729   2.759   3.151  15.464  0.2112  0.0507  0.1408
  147DPPC   GL1 1730   2.846   2.899  15.707  0.2428 -0.0835 -0.3911
  147DPPC   GL2 1731   2.598   2.717  15.773  0.0065 -0.1103  0.4232
  147DPPC   C1A 1732   3.021   2.965  16.038  0.1003 -0.0183 -0.0662
  147DPPC   C2A 1733   3.176   3.016  16.428 -0.2726 -0.0848 -0.0908
  147DPPC   C3A 1734   3.297   3.030  16.880  0.2666 -0.1998 -0.1074
  147DPPC   C4A 1735   3.323   3.024  17.365  0.3832 -0.2303  0.2193
  147DPPC   C1B 1736   2.621   2.833  16.114 -0.3159 -0.0897  0.0531
  147DPPC   C2B 1737   2.692   2.928  16.519 -0.0631 -0.1587  0.1085
  147DPPC   C3B 1738   2.825   2.907  17.021 -0.1645  0.1066  0.1371
  147DPPC   C4B 1739   2.863   2.961  17.506  0.2162  0.0100  0.0436
  148DPPC   NC3 1740   1.149   5.624  15.546  0.0897  0.2839 -0.0693
  148DPPC   PO4 1741   1.240   5.470  15.920  0.0493  0.3529  0.0589
  148DPPC   GL1 1742   1.210   5.478  16.281 -0.1840 -0.0694  0.2101
  148DPPC   GL2 1743   1.421   5.296  16.421  0.0885  0.2109  0.1923
  148DPPC   C1A 1744   1.025   5.605  16.568  0.1503 -0.1391 -0.1944
  148DPPC   C2A 1745   0.977   5.556  16.988  0.2102 -0.2677 -0.2832
  148DPPC   C3A 1746   1.029   5.593  17.448  0.1702  0.0567  0.0082
  148DPPC   C4A 1747   1.011   5.567  17.971  0.1406 -0.0221 -0.1505
  148DPPC   C1B 1748   1.246   5.227  16.767  0.2262 -0.1824 -0.3365
  148DPPC   C2B 1749   1.246   5.179  17.171  0.0802 -0.0037 -0.0834
  148DPPC   C3B 1750   1.329   5.244  17.650  0.0221 -0.4434 -0.3017
  148DPPC   C4B 1751   1.323   5.219  18.118  0.2019 -0.4185 -0.0211
  149DPPC   NC3 1752   5.054   5.703  15.814  0.1500  0.1871 -0.2074
  149DPPC   PO4 1753   4.930   6.064  15.694  0.0614  0.1282 -0.1493
  149DPPC   GL1 1754   4.887   6.140  16.107  0.3282  0.1636 -0.1000
  149DPPC   GL2 1755   4.630   5.860  16.096 -0.3843 -0.2267 -0.0113
  149DPPC   C1A 1756   4.903   5.994  16.453  0.2490 -0.1337  0.1650
  149DPPC   C2A 1757   4.777   5.967  16.830 -0.2943 -0.2014 -0.0920
  149DPPC   C3A 1758   4.754   5.879  17.290  0.1483 -0.1707  0.0807
  149DPPC   C4A 1759   4.816   5.902  17.763 -0.2952  0.0411  0.0592
  149DPPC   C1B 1760   4.550   5.693  16.426  0.2009  0.4294  0.0897
  149DPPC   C2B 1761   4.578   5.479  16.759  0.1192  0.0046  0.1307
  149DPPC   C3B 1762   4.558   5.413  17.223  0.2692 -0.1018 -0.2643
  149DPPC   C4B 1763   4.602   5.438  17.715  0.3267  0.0391  0.0673
  150DPPC   NC3 1764   1.143   0.402  15.708  0.1182  0.1328  0.2141
  150DPPC   PO4 1765   1.508   0.567  15.670  0.3296  0.1608  0.2666
  150DPPC   GL1 1766   1.712   0.903  15.845  0.0253 -0.0172 -0.2516
  150DPPC   GL2 1767   1.475   1.097  15.893  0.1625  0.1915  0.1775
  150DPPC   C1A 1768   1.880   0.897  16.169 -0.0892  0.2625  0.0915
  150DPPC   C2A 1769   2.039   1.040  16.538 -0.0226  0.0596 -0.0885
  150DPPC   C3A 1770   2.101   1.059  17.026 -0.5204  0.1388  0.3030
  150DPPC   C4A 1771   2.113   1.015  17.525  0.4281 -0.3219  0.2898
  150DPPC   C1B 1772   1.435   1.182  16.232  0.3210 -0.0771 -0.2400
  150DPPC   C2B 1773   1.265   1.233  16.566  0.0776 -0.0196  0.1428
  150DPPC   C3B 1774   1.304   1.259  17.050 -0.0904  0.1067 -0.0124
  150DPPC   C4B 1775   1.346   1.279  17.543 -0.0110  0.2269 -0.0321
  151DPPC   NC3 1776   5.830   0.278  15.466 -0.0057 -0.0120  0.1920
  151DPPC   PO4 1777   5.837  -0.128  15.531  0.1405  0.0553  0.0499
  151DPPC   GL1 1778   5.732  -0.343  15.991  0.0087 -0.3964  0.3225
  151DPPC   GL2 1779   5.887  -0.131  16.034 -0.1161  0.0041  0.0682
  151DPPC   C1A 1780   5.749  -0.491  16.349 -0.4020  0.0882  0.2430
  151DPPC   C2A 1781   5.725  -0.427  16.797  0.0092  0.1067  0.0865
  151DPPC   C3A 1782   5.680  -0.453  17.301 -0.1293  0.1738 -0.1591
  151DPPC   C4A 1783   5.709  -0.440  17.822  0.1888 -0.0503 -0.1031
  151DPPC   C1B 1784   5.846   0.002  16.368 -0.0509 -0.3090  0.0866
  151DPPC   C2B 1785   5.915   0.082  16.796 -0.0854  0.0997  0.0587
  151DPPC   C3B 1786   5.906   0.063  17.232 -0.1830 -0.0021  0.0221
  151DPPC   C4B 1787   5.798   0.092  17.686  0.1487  0.3619 -0.1350
  152DPPC   NC3 1788   4.824   0.833  15.629  0.3220 -0.1676  0.0689
  152DPPC   PO4 1789   5.064   0.555  15.713  0.3780  0.3344  0.0598
  152DPPC   GL1 1790   5.131   0.602  16.034  0.3664  0.1965  0.0640
  152DPPC   GL2 1791   5.372   0.743  16.112  0.1920 -0.0218  0.3310
  152DPPC   C1A 1792   5.085   0.398  16.347 -0.2055 -0.2793 -0.1601
  152DPPC   C2A 1793   5.075   0.316  16.777  0.1665 -0.0191  0.0665
  152DPPC   C3A 1794   5.104   0.316  17.221 -0.1795 -0.1189 -0.3059
  152DPPC   C4A 1795   4.983   0.371  17.735  0.2122 -0.1532  0.1814
  152DPPC   C1B 1796   5.335   0.732  16.488 -0.0925 -0.0246  0.0787
  152DPPC   C2B 1797   5.301   0.750  16.867  0.2722  0.3455  0.4769
  152DPPC   C3B 1798   5.199   0.790  17.303  0.0509  0.1810  0.1121
  152DPPC   C4B 1799   5.274   0.840  17.827  0.3609  0.1931 -0.2560
  153DPPC   NC3 1800   5.953   1.512  15.270 -0.2319  0.0393 -0.1857
  153DPPC   PO4 1801   5.937   1.809  15.489 -0.0671  0.0514 -0.0019
  153DPPC   GL1 1802   5.621   1.884  15.731 -0.0771 -0.1299 -0.0519
  153DPPC   GL2 1803   5.710   2.151  15.885 -0.3261 -0.1254 -0.1244
  153DPPC   C1A 1804   5.485   1.864  16.094  0.2363  0.0192 -0.1877
  153DPPC   C2A 1805   5.524   1.706  16.472  0.1901 -0.0359  0.0457
  153DPPC   C3A 1806   5.579   1.673  16.968  0.2263  0.3820  0.0115
  153DPPC   C4A 1807   5.593   1.756  17.441 -0.0461  0.1475 -0.0314
  153DPPC   C1B 1808   5.557   2.260  16.180 -0.1110  0.2034 -0.0937
  153DPPC   C2B 1809   5.470   2.556  16.402  0.0893 -0.1013 -0.0967
  153DPPC   C3B 1810   5.449   2.499  16.873  0.0900 -0.0765  0.0826
  153DPPC   C4B 1811   5.446   2.522  17.361 -0.1238 -0.2107  0.1392
  154DPPC   NC3 1812   5.663   5.047  15.640 -0.2309 -0.1682  0.0642
  154DPPC   PO4 1813   5.315   5.233  15.567 -0.1671 -0.1508  0.0814
  154DPPC   GL1 1814   5.500   5.550  15.949  0.0386 -0.2096  0.0838
  154DPPC   GL2 1815   5.297   5.368  16.079  0.0499 -0.4036  0.1433
  154DPPC   C1A 1816   5.636   5.649  16.276  0.1129 -0.0737  0.0355
  154DPPC   C2A 1817   5.548   5.716  16.693  0.2465 -0.1585 -0.3265
  154DPPC   C3A 1818   5.611   5.716  17.174  0.1826  0.1310 -0.2023
  154DPPC   C4A 1819   5.448   5.739  17.590  0.2514 -0.3146  0.1065
  154DPPC   C1B 1820   5.331   5.223  16.418 -0.1459 -0.2429 -0.0977
  154DPPC   C2B 1821   5.366   5.143  16.843 -0.0418  0.0310  0.2466
  154DPPC   C3B 1822   5.414   5.152  17.387  0.1255  0.1373  0.5030
  154DPPC   C4B 1823   5.288   4.935  17.889 -0.0417  0.2528 -0.1080
  155DPPC   NC3 1824   4.789   3.025  15.623 -0.0438 -0.0581  0.1879
  155DPPC   PO4 1825   4.441   2.880  15.493  0.0400  0.0606 -0.0386
  155DPPC   GL1 1826   4.225   2.768  15.898  0.0539 -0.0022  0.0558
  155DPPC   GL2 1827   4.485   2.662  15.960  0.2646  0.2513  0.2384
  155DPPC   C1A 1828   4.179   3.006  16.183 -0.0353 -0.1815 -0.0716
  155DPPC   C2A 1829   4.274   3.164  16.530 -0.1690 -0.3987 -0.1224
  155DPPC   C3A 1830   4.275   3.202  17.017  0.2370  0.1669  0.1799
  155DPPC   C4A 1831   4.349   3.186  17.514 -0.0028 -0.0058  0.2422
  155DPPC   C1B 1832   4.571   2.774  16.328 -0.2783 -0.0258  0.0651
  155DPPC   C2B 1833   4.559   2.779  16.774  0.0877 -0.1677  0.0774
  155DPPC   C3B 1834   4.640   2.825  17.232 -0.0612  0.1610  0.2073
  155DPPC   C4B 1835   4.750   2.828  17.752  0.2880  0.1747  0.0925
  156DPPC   NC3 1836   0.364   5.637  15.755 -0.0840  0.2247  0.0685
  156DPPC   PO4 1837   0.686   5.753  15.662  0.2823 -0.1515  0.1269
  156DPPC   GL1 1838   0.976   5.930  15.946 -0.0013 -0.1278  0.3200
  156DPPC   GL2 1839   0.779   6.215  15.864  0.0501  0.0937 -0.2165
  156DPPC   C1A 1840   1.048   6.059  16.291  0.0004 -0.0482  0.1547
  156DPPC   C2A 1841   1.211   6.073  16.673  0.0867 -0.1550  0.3063
  156DPPC   C3A 1842   1.192   6.048  17.201 -0.0759 -0.1633 -0.0054
  156DPPC   C4A 1843   1.258   6.035  17.676 -0.1615  0.5465 -0.3059
  156DPPC   C1B 1844   0.640   6.509  16.037  0.2421 -0.1345  0.0568
  156DPPC   C2B 1845   0.497   6.733  16.325  0.0816 -0.0378 -0.0517
  156DPPC   C3B 1846   0.535   6.844  16.852  0.0770 -0.0678  0.0569
  156DPPC   C4B 1847   0.533   6.854  17.390  0.2951 -0.0138 -0.0078
  157DPPC   NC3 1848   1.606   2.566  15.536  0.2119 -0.1506 -0.3932
  157DPPC   PO4 1849   1.673   2.157  15.479  0.0507 -0.0291 -0.1041
  157DPPC   GL1 1850   1.685   2.034  15.855 -0.0043  0.0532 -0.2161
  157DPPC   GL2 1851   1.463   2.216  15.990  0.1509  0.1346  0.0739
  157DPPC   C1A 1852   1.804   1.835  16.161 -0.2769 -0.0050  0.2484
  157DPPC   C2A 1853   1.925   1.879  16.543 -0.0623  0.2455 -0.1060
  157DPPC   C3A 1854   1.903   1.839  17.006 -0.0245  0.1634  0.1575
  157DPPC   C4A 1855   1.992   1.832  17.467  0.0835 -0.0588  0.0265
  157DPPC   C1B 1856   1.586   2.150  16.308  0.1341 -0.0367  0.1346
  157DPPC   C2B 1857   1.624   2.144  16.755  0.2911  0.1035  0.1331
  157DPPC   C3B 1858   1.688   2.185  17.274  0.1559  0.0212  0.0941
  157DPPC   C4B 1859   1.659   2.196  17.776 -0.1115  0.1726  0.2408
  158DPPC   NC3 1860   0.477   1.568  15.148  0.0497  0.3072 -0.1041
  158DPPC   PO4 1861   0.461   1.386  15.508 -0.1687 -0.1896  0.0366
  158DPPC   GL1 1862   0.808   1.216  15.827  0.0544 -0.1148  0.0233
  158DPPC   GL2 1863   0.659   1.095  15.932 -0.6449 -0.0161  0.0389
  158DPPC   C1A 1864   1.013   1.359  16.104 -0.2304  0.2674 -0.2143
  158DPPC   C2A 1865   0.964   1.649  16.390  0.2738  0.0372 -0.2735
  158DPPC   C3A 1866   0.881   1.685  16.896 -0.2984 -0.0113  0.1287
  158DPPC   C4A 1867   1.002   1.617  17.373  0.2211  0.1416  0.0751
  158DPPC   C1B 1868   0.659   1.188  16.261  0.2793  0.0854 -0.1341
  158DPPC   C2B 1869   0.771   1.150  16.693  0.0855  0.0875  0.0234
  158DPPC   C3B 1870   0.831   1.201  17.159  0.0608  0.0846  0.1692
  158DPPC   C4B 1871   0.863   1.162  17.626  0.1495  0.0412 -0.1643
  159DPPC   NC3 1872   4.138   3.277  15.271  0.1594 -0.3785 -0.2039
  159DPPC   PO4 1873   4.448   3.430  15.486  0.0825 -0.0634 -0.1087
  159DPPC   GL1 1874   4.451   3.536  15.975  0.0161  0.1913  0.1291
  159DPPC   GL2 1875   4.244   3.289  15.884 -0.1346 -0.1883  0.1744
  159DPPC   C1A 1876   4.445   3.571  16.366  0.2374 -0.4229 -0.2555
  159DPPC   C2A 1877   4.414   3.659  16.781  0.0948  0.2521 -0.4815
  159DPPC   C3A 1878   4.479   3.623  17.250  0.2090  0.0634  0.0341
  159DPPC   C4A 1879   4.577   3.656  17.716 -0.1044 -0.1500  0.0838
  159DPPC   C1B 1880   4.018   3.410  16.232  0.0538 -0.1128  0.1814
  159DPPC   C2B 1881   3.946   3.543  16.652 -0.0413 -0.2031  0.2959
  159DPPC   C3B 1882   3.962   3.578  17.110 -0.0886  0.1714 -0.0874
  159DPPC   C4B 1883   4.032   3.553  17.544  0.2277  0.2892 -0.1031
  160DPPC   NC3 1884   1.553   3.348  15.919 -0.2212 -0.1966  0.2060
  160DPPC   PO4 1885   1.188   3.437  15.718 -0.2058  0.0319  0.0308
  160DPPC   GL1 1886   0.899   3.489  15.976  0.0284 -0.4143  0.2044
  160DPPC   GL2 1887   0.659   3.339  15.963  0.1484  0.0320  0.1176
  160DPPC   C1A 1888   1.063   3.413  16.300 -0.0022 -0.3300  0.1383
  160DPPC   C2A 1889   1.095   3.404  16.704 -0.0855  0.1165  0.2132
  160DPPC   C3A 1890   1.153   3.412  17.156 -0.1602 -0.1720 -0.2124
  160DPPC   C4A 1891   1.182   3.376  17.639 -0.3287  0.2279  0.3018
  160DPPC   C1B 1892   0.488   3.324  16.252  0.0200  0.2160  0.1511
  160DPPC   C2B 1893   0.633   3.301  16.596  0.1143  0.2503  0.2029
  160DPPC   C3B 1894   0.656   3.302  17.088 -0.3700  0.0944 -0.4057
  160DPPC   C4B 1895   0.693   3.292  17.548 -0.0817  0.0293  0.0345
  161DPPC   NC3 1896   5.283   4.783  15.759  0.0966 -0.0791  0.4526
  161DPPC   PO4 1897   4.994   5.052  15.965 -0.2796 -0.2042  0.0366
  161DPPC   GL1 1898   4.874   5.189  16.314  0.0335 -0.0479  0.1247
  161DPPC   GL2 1899   4.864   5.465  16.288  0.1737 -0.0230 -0.1233
  161DPPC   C1A 1900   4.865   5.163  16.668  0.1907  0.3488 -0.0692
  161DPPC   C2A 1901   4.919   5.045  17.026  0.1023  0.3472 -0.1769
  161DPPC   C3A 1902   4.901   5.024  17.466  0.2212  0.1391 -0.0095
  161DPPC   C4A 1903   4.849   5.074  17.980 -0.0065  0.0868 -0.0072
  161DPPC   C1B 1904   5.098   5.570  16.560 -0.1993  0.1425  0.3027
  161DPPC   C2B 1905   5.118   5.598  16.957  0.1359  0.0740 -0.4618
  161DPPC   C3B 1906   4.993   5.490  17.439  0.0975 -0.2516  0.3414
  161DPPC   C4B 1907   5.219   5.462  17.932  0.0865 -0.1206 -0.0799
  162DPPC   NC3 1908   3.933   0.677  15.809 -0.0563  0.1713  0.0569
  162DPPC   PO4 1909   3.889   0.490  15.468  0.0838  0.1577  0.1802
  162DPPC   GL1 1910   3.895   0.191  15.716 -0.1692  0.2117 -0.2815
  162DPPC   GL2 1911   3.568   0.231  15.826 -0.1360 -0.0797  0.0514
  162DPPC   C1A 1912   4.096   0.292  15.995 -0.1963  0.1240 -0.0318
  162DPPC   C2A 1913   4.249   0.471  16.296  0.1290 -0.1427 -0.1958
  162DPPC   C3A 1914   4.309   0.561  16.800  0.0749 -0.0820  0.0921
  162DPPC   C4A 1915   4.259   0.671  17.304  0.1099  0.1204 -0.0367
  162DPPC   C1B 1916   3.663   0.370  16.114 -0.0945 -0.0705 -0.1497
  162DPPC   C2B 1917   3.762   0.431  16.532  0.0261  0.2074 -0.1238
  162DPPC   C3B 1918   3.766   0.440  16.974  0.0245 -0.0238 -0.2720
  162DPPC   C4B 1919   3.791   0.509  17.479  0.0440 -0.2091 -0.1645
  163DPPC   NC3 1920   6.986   3.915  15.251  0.0462  0.0106 -0.1252
  163DPPC   PO4 1921   6.757   4.061  15.532 -0.1632 -0.3633 -0.1200
  163DPPC   GL1 1922   6.903   4.099  15.904 -0.2672 -0.0693  0.1067
  163DPPC   GL2 1923   6.787   4.429  15.915 -0.2570  0.2279 -0.1466
  163DPPC   C1A 1924   6.930   4.048  16.303  0.0663 -0.0318  0.3415
  163DPPC   C2A 1925   6.833   4.223  16.653 -0.2737  0.0109 -0.0296
  163DPPC   C3A 1926   6.876   4.209  17.186  0.0228 -0.1614 -0.0134
  163DPPC   C4A 1927   6.857   4.154  17.647  0.0086  0.0694 -0.0429
  163DPPC   C1B 1928   6.898   4.493  16.269  0.1637 -0.0517  0.1667
  163DPPC   C2B 1929   7.074   4.653  16.620  0.2574 -0.0518  0.0387
  163DPPC   C3B 1930   7.079   4.691  17.111 -0.0003 -0.3418  0.2446
  163DPPC   C4B 1931   7.063   4.671  17.593 -0.3268 -0.0533  0.1159
  164DPPC   NC3 1932   5.550   5.634  15.395 -0.0485 -0.0244  0.0614
  164DPPC   PO4 1933   5.844   5.490  15.594  0.1146  0.1482  0.0544
  164DPPC   GL1 1934   5.981   5.245  15.897  0.1988 -0.0029  0.2897
  164DPPC   GL2 1935   5.976   5.439  16.102  0.1561  0.1471 -0.1338
  164DPPC   C1A 1936   5.753   5.065  16.137  0.0090 -0.0374  0.0848
  164DPPC   C2A 1937   5.640   4.870  16.516  0.0406 -0.1324 -0.1232
  164DPPC   C3A 1938   5.718   4.812  16.969  0.1818  0.3094 -0.0282
  164DPPC   C4A 1939   5.702   4.743  17.476  0.0149  0.0340  0.0645
  164DPPC   C1B 1940   5.891   5.318  16.470  0.3945 -0.1319 -0.1957
  164DPPC   C2B 1941   5.887   5.226  16.892 -0.0536  0.0649  0.1700
  164DPPC   C3B 1942   5.907   5.301  17.365 -0.1059 -0.2642  0.0834
  164DPPC   C4B 1943   5.740   5.203  17.760 -0.0829 -0.0676 -0.1752
  165DPPC   NC3 1944   2.977   0.130  15.232  0.1060 -0.4132 -0.3638
  165DPPC   PO4 1945   3.148  -0.138  15.481  0.1042 -0.0808  0.2048
  165DPPC   GL1 1946   3.221  -0.140  15.841 -0.3086 -0.0879 -0.1575
  165DPPC   GL2 1947   3.423  -0.370  15.880  0.0382  0.2318  0.0085
  165DPPC   C1A 1948   3.318   0.064  16.163  0.0154 -0.2890 -0.0576
  165DPPC   C2A 1949   3.296   0.285  16.517  0.1374 -0.0612  0.3447
  165DPPC   C3A 1950   3.263   0.397  16.970  0.2503  0.1563  0.0915
  165DPPC   C4A 1951   3.270   0.379  17.501  0.1602 -0.1650  0.0383
  165DPPC   C1B 1952   3.398  -0.379  16.230 -0.2371  0.0152 -0.1770
  165DPPC   C2B 1953   3.480  -0.473  16.585 -0.3011  0.0951 -0.2677
  165DPPC   C3B 1954   3.428  -0.501  17.074  0.1366 -0.0549 -0.2998
  165DPPC   C4B 1955   3.396  -0.458  17.519 -0.2943  0.2439  0.0302
  166DPPC   NC3 1956   7.661   6.262  15.659  0.1177 -0.1205 -0.0799
  166DPPC   PO4 1957   7.817   6.554  15.435 -0.0330  0.1204  0.0296
  166DPPC   GL1 1958   7.798   6.833  15.742 -0.0589  0.1281  0.1915
  166DPPC   GL2 1959   7.658   7.110  15.692  0.3037 -0.1570  0.2328
  166DPPC   C1A 1960   7.672   6.576  16.018  0.1123  0.1101 -0.0740
  166DPPC   C2A 1961   7.681   6.510  16.378  0.0892  0.0358  0.3283
  166DPPC   C3A 1962   7.696   6.487  16.870  0.2030  0.0662  0.2788
  166DPPC   C4A 1963   7.692   6.596  17.349  0.0532 -0.0054 -0.1623
  166DPPC   C1B 1964   7.399   7.044  15.957  0.3115 -0.2087  0.0163
  166DPPC   C2B 1965   7.302   6.939  16.340 -0.0018  0.1005  0.0057
  166DPPC   C3B 1966   7.371   6.876  16.797 -0.0100  0.0104 -0.0008
  166DPPC   C4B 1967   7.337   6.942  17.263  0.0174  0.0737  0.1099
  167DPPC   NC3 1968   1.949   4.023  15.482 -0.0458  0.1055 -0.1972
  167DPPC   PO4 1969   2.268   3.932  15.664  0.0295 -0.1618 -0.1214
  167DPPC   GL1 1970   2.313   4.149  16.047 -0.1080  0.4282  0.3428
  167DPPC   GL2 1971   2.636   4.180  15.999  0.1044 -0.0544  0.2169
  167DPPC   C1A 1972   2.305   4.166  16.408 -0.0882  0.0832 -0.2577
  167DPPC   C2A 1973   2.304   4.107  16.784 -0.0272  0.1507  0.0161
  167DPPC   C3A 1974   2.273   4.127  17.293  0.0204 -0.0503 -0.0207
  167DPPC   C4A 1975   2.217   4.142  17.802 -0.2198  0.2636  0.0437
  167DPPC   C1B 1976   2.781   4.258  16.307 -0.0752  0.1282  0.2314
  167DPPC   C2B 1977   2.797   4.155  16.732  0.1059 -0.1014  0.1512
  167DPPC   C3B 1978   2.863   4.210  17.266  0.4335 -0.1155  0.2163
  167DPPC   C4B 1979   2.879   4.151  17.764 -0.0748 -0.0673 -0.0434
  168DPPC   NC3 1980   2.285   6.230  15.710  0.0054 -0.1842  0.1517
  168DPPC   PO4 1981   2.184   6.575  15.532  0.0679  0.1930 -0.2292
  168DPPC   GL1 1982   1.997   6.695  15.890 -0.3396 -0.2146  0.0280
  168DPPC   GL2 1983   2.248   6.820  16.035 -0.0949 -0.1459  0.4009
  168DPPC   C1A 1984   1.806   6.617  16.197  0.0348 -0.0076  0.0139
  168DPPC   C2A 1985   1.800   6.557  16.605 -0.0855 -0.0715 -0.1302
  168DPPC   C3A 1986   1.846   6.608  17.079 -0.1702 -0.0696  0.0147
  168DPPC   C4A 1987   1.852   6.679  17.568 -0.2710 -0.0487  0.1965
  168DPPC   C1B 1988   2.292   6.865  16.394  0.2033  0.0178 -0.0381
  168DPPC   C2B 1989   2.248   6.763  16.822 -0.0048 -0.1166  0.3154
  168DPPC   C3B 1990   2.299   6.762  17.330  0.0687 -0.2397 -0.3859
  168DPPC   C4B 1991   2.373   6.778  17.808  0.2087 -0.4649 -0.2735
  169DPPC   NC3 1992   3.000   6.011  15.692 -0.3862  0.0927  0.0697
  169DPPC   PO4 1993   3.262   5.752  15.809  0.0333 -0.0478 -0.2246
  169DPPC   GL1 1994   3.122   5.810  16.231 -0.0610  0.1624 -0.0590
  169DPPC   GL2 1995   2.986   6.082  16.118  0.0798 -0.0386  0.2641
  169DPPC   C1A 1996   3.177   5.672  16.530 -0.3474  0.0689 -0.1339
  169DPPC   C2A 1997   3.257   5.672  16.948 -0.2038  0.2542 -0.0489
  169DPPC   C3A 1998   3.231   5.652  17.417 -0.0104  0.1863  0.1381
  169DPPC   C4A 1999   3.323   5.706  17.923 -0.2530  0.1524 -0.1250
  169DPPC   C1B 2000   3.001   6.347  16.417  0.0416 -0.0671  0.0862
  169DPPC   C2B 2001   3.057   6.487  16.765  0.1665  0.0206  0.0040
  169DPPC   C3B 2002   3.024   6.596  17.242  0.1644  0.0616  0.0149
  169DPPC   C4B 2003   3.123   6.510  17.699 -0.4037 -0.1866  0.2529
  170DPPC   NC3 2004   6.787   0.543  15.423 -0.0126 -0.0941 -0.2924
  170DPPC   PO4 2005   6.380   0.366  15.368  0.1900  0.3024  0.2389
  170DPPC   GL1 2006   6.373   0.182  15.777 -0.0452 -0.1495  0.4546
  170DPPC   GL2 2007   6.095   0.287  15.854  0.0378 -0.0904 -0.2021
  170DPPC   C1A 2008   6.441   0.047  16.105 -0.1061 -0.1187  0.5158
  170DPPC   C2A 2009   6.491   0.107  16.495  0.0478 -0.1901 -0.1712
  170DPPC   C3A 2010   6.415   0.126  16.910  0.0321 -0.2468 -0.1138
  170DPPC   C4A 2011   6.412   0.121  17.356  0.0448 -0.2010  0.0806
  170DPPC   C1B 2012   6.137   0.506  16.125 -0.1144  0.0869 -0.2568
  170DPPC   C2B 2013   6.138   0.547  16.540  0.0802 -0.2359 -0.3423
  170DPPC   C3B 2014   6.116   0.522  17.051  0.0934 -0.0522 -0.0465
  170DPPC   C4B 2015   6.020   0.549  17.517 -0.1273 -0.0637  0.1396
  171DPPC   NC3 2016   2.947   1.498  15.360 -0.1867 -0.1150 -0.1043
  171DPPC   PO4 2017   2.695   1.199  15.400  0.0866  0.0437  0.0710
  171DPPC   GL1 2018   2.653   1.174  15.784 -0.0272  0.1617 -0.1049
  171DPPC   GL2 2019   2.888   1.436  15.832 -0.0236  0.0298 -0.1579
  171DPPC   C1A 2020   2.532   1.141  16.135  0.2491 -0.2039 -0.0260
  171DPPC   C2A 2021   2.566   1.135  16.531  0.0232  0.1897  0.1205
  171DPPC   C3A 2022   2.618   1.130  17.017 -0.0855 -0.2605 -0.1094
  171DPPC   C4A 2023   2.679   1.085  17.433  0.0018  0.2176 -0.0154
  171DPPC   C1B 2024   2.953   1.336  16.187  0.0011  0.1789 -0.1024
  171DPPC   C2B 2025   3.036   1.222  16.553 -0.0728  0.1158  0.0915
  171DPPC   C3B 2026   3.134   1.213  17.017 -0.0515  0.3383  0.2332
  171DPPC   C4B 2027   3.179   1.206  17.500 -0.3421 -0.4413  0.0590
  172DPPC   NC3 2028   5.269   1.603  15.616  0.0946  0.2038  0.2502
  172DPPC   PO4 2029   5.640   1.464  15.656 -0.0199  0.0970  0.0556
  172DPPC   GL1 2030   5.735   1.577  16.025  0.0908  0.0548  0.1473
  172DPPC   GL2 2031   5.579   1.182  16.027 -0.0683  0.0151  0.2196
  172DPPC   C1A 2032   5.945   1.399  16.256  0.0254  0.1199  0.1175
  172DPPC   C2A 2033   5.891   1.404  16.671  0.0052  0.2053 -0.0838
  172DPPC   C3A 2034   6.003   1.321  17.126 -0.3040 -0.5211 -0.3101
  172DPPC   C4A 2035   5.957   1.358  17.633 -0.1251 -0.1237  0.1609
  172DPPC   C1B 2036   5.760   0.884  16.236  0.0516 -0.3573 -0.0212
  172DPPC   C2B 2037   5.754   0.839  16.692  0.1032 -0.2727 -0.0748
  172DPPC   C3B 2038   5.714   0.849  17.206 -0.1752  0.4032  0.0428
  172DPPC   C4B 2039   5.756   0.917  17.719 -0.0935  0.0647 -0.0616
  173DPPC   NC3 2040   1.786   5.068  15.342 -0.2025 -0.0084 -0.0475
  173DPPC   PO4 2041   2.160   4.968  15.534  0.1404  0.4231  0.0120
  173DPPC   GL1 2042   2.335   4.938  15.988 -0.0651  0.0606  0.2061
  173DPPC   GL2 2043   2.128   4.842  16.067 -0.3265 -0.0387  0.2170
  173DPPC   C1A 2044   2.515   5.062  16.263  0.1305 -0.0774  0.0880
  173DPPC   C2A 2045   2.616   5.097  16.675 -0.1209  0.2695 -0.0286
  173DPPC   C3A 2046   2.634   5.013  17.134 -0.1997 -0.1258  0.0852
  173DPPC   C4A 2047   2.642   5.021  17.633 -0.1488 -0.4462  0.1381
  173DPPC   C1B 2048   2.172   4.850  16.425  0.2831 -0.1287  0.1174
  173DPPC   C2B 2049   2.086   4.942  16.808 -0.2242  0.2129  0.1291
  173DPPC   C3B 2050   2.165   4.971  17.236 -0.2926 -0.2501 -0.1191
  173DPPC   C4B 2051   2.057   4.951  17.684  0.1307 -0.2948  0.1507
  174DPPC   NC3 2052   0.572   6.535  15.562  0.1611  0.1547  0.2464
  174DPPC   PO4 2053   0.955   6.599  15.568 -0.2014  0.0554 -0.1569
  174DPPC   GL1 2054   1.097   6.513  15.927  0.2750  0.2268 -0.0467
  174DPPC   GL2 2055   1.319   6.372  16.005  0.0107 -0.3422 -0.0274
  174DPPC   C1A 2056   0.976   6.531  16.284  0.4463 -0.2756 -0.0843
  174DPPC   C2A 2057   0.902   6.441  16.619 -0.0732  0.0500  0.0949
  174DPPC   C3A 2058   0.887   6.495  17.077  0.0110  0.0670  0.2361
  174DPPC   C4A 2059   0.927   6.391  17.516 -0.1866 -0.0103 -0.1367
  174DPPC   C1B 2060   1.384   6.444  16.417 -0.1292 -0.0658 -0.1049
  174DPPC   C2B 2061   1.348   6.593  16.818  0.1453  0.2385 -0.2351
  174DPPC   C3B 2062   1.377   6.555  17.337 -0.1853  0.1283  0.0282
  174DPPC   C4B 2063   1.402   6.544  17.855 -0.0896 -0.1136  0.0324
  175DPPC   NC3 2064   1.163   1.295  15.619  0.0349 -0.2177  0.0258
  175DPPC   PO4 2065   1.127   0.912  15.673  0.1057  0.4940  0.1056
  175DPPC   GL1 2066   1.159   0.737  16.071 -0.0463 -0.0127 -0.0261
  175DPPC   GL2 2067   1.404   0.719  16.133 -0.3896 -0.3102 -0.1365
  175DPPC   C1A 2068   1.068   0.779  16.431 -0.0163 -0.3905 -0.4734
  175DPPC   C2A 2069   1.093   0.839  16.861  0.1804  0.0145  0.0206
  175DPPC   C3A 2070   1.109   0.830  17.352 -0.1564  0.0903 -0.1910
  175DPPC   C4A 2071   1.222   0.782  17.833  0.0855 -0.1590  0.0215
  175DPPC   C1B 2072   1.545   0.793  16.468  0.0464 -0.3524 -0.1538
  175DPPC   C2B 2073   1.665   0.917  16.831 -0.0398 -0.1672 -0.1593
  175DPPC   C3B 2074   1.620   0.921  17.298 -0.2658 -0.0672 -0.1345
  175DPPC   C4B 2075   1.750   0.859  17.791  0.3152 -0.1270  0.1619
  176DPPA   PO4 2076   5.246   3.065  15.678 -0.1102 -0.1923  0.1564
  176DPPA   GL1 2077   5.265   3.116  16.011 -0.2310  0.0605 -0.2459
  176DPPA   GL2 2078   5.408   3.389  16.065  0.2336 -0.0925 -0.0769
  176DPPA   C1A 2079   5.197   2.965  16.397  0.2454  0.2396  0.1163
  176DPPA   C2A 2080   5.084   2.868  16.792 -0.0344 -0.2210  0.0994
  176DPPA   C3A 2081   5.134   2.893  17.293 -0.0976  0.0888 -0.1793
  176DPPA   C4A 2082   5.304   3.029  17.682 -0.0705  0.2885 -0.0679
  176DPPA   C1B 2083   5.073   3.456  16.213 -0.0884  0.0196 -0.2727
  176DPPA   C2B 2084   4.846   3.310  16.555  0.2007 -0.1103  0.1829
  176DPPA   C3B 2085   4.758   3.260  16.954  0.0067  0.1571  0.0086
  176DPPA   C4B 2086   4.809   3.251  17.455 -0.1371 -0.1741  0.0568
  177DPPA   PO4 2087   6.782   3.397  15.317  0.2703  0.2357 -0.0873
  177DPPA   GL1 2088   6.571   3.457  15.634 -0.0735  0.0257 -0.3165
  177DPPA   GL2 2089   6.575   3.129  15.677  0.0311 -0.0633 -0.0508
  177DPPA   C1A 2090   6.716   3.568  15.961  0.0325  0.1018  0.4612
  177DPPA   C2A 2091   6.656   3.633  16.377 -0.0505  0.0540  0.0315
  177DPPA   C3A 2092   6.637   3.803  16.843  0.1163  0.0559  0.1035
  177DPPA   C4A 2093   6.707   3.703  17.292  0.0656 -0.1563  0.0666
  177DPPA   C1B 2094   6.670   3.154  15.973  0.1362 -0.0864 -0.0616
  177DPPA   C2B 2095   6.637   3.140  16.414 -0.0318 -0.1878  0.0363
  177DPPA   C3B 2096   6.631   3.219  16.858  0.0095 -0.0908  0.4238
  177DPPA   C4B 2097   6.558   3.243  17.315 -0.2247 -0.0089 -0.1072
  178DPPA   PO4 2098   3.588   4.152  15.847 -0.0045  0.1546  0.0004
  178DPPA   GL1 2099   3.365   3.958  16.175 -0.0001 -0.1151 -0.0745
  178DPPA   GL2 2100   3.207   3.915  16.102 -0.0799 -0.0165 -0.0028
  178DPPA   C1A 2101   3.306   3.946  16.523  0.0871 -0.1112 -0.0675
  178DPPA   C2A 2102   3.172   3.807  16.817  0.4263  0.1090 -0.1007
  178DPPA   C3A 2103   3.196   3.802  17.315 -0.0988  0.1024 -0.1714
  178DPPA   C4A 2104   3.283   3.741  17.864 -0.1952 -0.2233  0.0982
  178DPPA   C1B 2105   2.922   3.793  16.321  0.3823  0.0940 -0.0639
  178DPPA   C2B 2106   2.637   3.708  16.575  0.0858 -0.0877  0.1602
  178DPPA   C3B 2107   2.598   3.771  17.074  0.1829  0.3042  0.2390
  178DPPA   C4B 2108   2.596   3.800  17.513 -0.0810 -0.2215 -0.2020
  179DPPA   PO4 2109   1.880   4.297  15.893 -0.0008 -0.0674 -0.1256
  179DPPA   GL1 2110   1.902   4.398  16.302 -0.0678  0.1546  0.1525
  179DPPA   GL2 2111   1.773   4.706  16.175  0.3278  0.4714  0.0414
  179DPPA   C1A 2112   1.998   4.398  16.667 -0.0785 -0.2780  0.2794
  179DPPA   C2A 2113   1.928   4.557  17.063 -0.2783  0.0368 -0.1963
  179DPPA   C3A 2114   1.935   4.465  17.539  0.1447  0.1796 -0.1242
  179DPPA   C4A 2115   1.942   4.510  18.042 -0.0273 -0.0119  0.0929
  179DPPA   C1B 2116   1.732   4.836  16.520  0.2635  0.0185 -0.0137
  179DPPA   C2B 2117   1.537   4.892  16.880  0.0406 -0.2796  0.3050
  179DPPA   C3B 2118   1.647   4.845  17.353  0.1627  0.1386  0.1075
  179DPPA   C4B 2119   1.617   4.865  17.872  0.0073 -0.0718  0.3266
  180DPPA   PO4 2120   0.901   4.980  16.015 -0.0939  0.0726  0.0025
  180DPPA   GL1 2121   1.034   5.064  16.367 -0.0314 -0.2219 -0.1047
  180DPPA   GL2 2122   1.283   4.838  16.436 -0.1966 -0.0169 -0.4065
  180DPPA   C1A 2123   0.834   5.123  16.607 -0.0688  0.0835 -0.3477
  180DPPA   C2A 2124   0.787   5.120  17.005  0.0180 -0.0892 -0.1517
  180DPPA   C3A 2125   0.876   5.136  17.469  0.3309 -0.1661 -0.0894
  180DPPA   C4A 2126   0.929   5.065  17.926  0.2728  0.3097  0.0894
  180DPPA   C1B 2127   1.151   4.687  16.738  0.1174 -0.0713  0.0572
  180DPPA   C2B 2128   1.151   4.697  17.163  0.2700  0.1644  0.0280
  180DPPA   C3B 2129   1.163   4.705  17.681 -0.0882  0.0234  0.2286
  180DPPA   C4B 2130   1.199   4.704  18.152 -0.0960 -0.0387 -0.1565
  181DPPA   PO4 2131   4.581   5.454  15.925 -0.0445  0.1023 -0.2188
  181DPPA   GL1 2132   4.324   5.301  16.306 -0.0413 -0.0973 -0.0407
  181DPPA   GL2 2133   4.417   5.022  16.161  0.0898  0.2427 -0.0239
  181DPPA   C1A 2134   4.378   5.105  16.633  0.0636  0.0249 -0.0456
  181DPPA   C2A 2135   4.438   4.983  17.042 -0.0445 -0.3691 -0.0777
  181DPPA   C3A 2136   4.403   4.910  17.489 -0.0704  0.1223  0.2661
  181DPPA   C4A 2137   4.368   4.918  17.938  0.2874  0.2010  0.4892
  181DPPA   C1B 2138   4.566   4.782  16.425  0.1584 -0.1730 -0.0205
  181DPPA   C2B 2139   4.692   4.634  16.757  0.5113  0.2188 -0.1629
  181DPPA   C3B 2140   4.760   4.609  17.250  0.2020  0.2393  0.0647
  181DPPA   C4B 2141   4.733   4.573  17.767  0.3058 -0.1433  0.1129
  182DPPA   PO4 2142   0.641   2.547  15.428 -0.1125 -0.1079 -0.0106
  182DPPA   GL1 2143   0.577   2.619  15.838 -0.2150  0.5306 -0.0446
  182DPPA   GL2 2144   0.896   2.470  15.839 -0.4789  0.1363  0.0573
  182DPPA   C1A 2145   0.410   2.475  16.083  0.1640 -0.3169  0.2673
  182DPPA   C2A 2146   0.320   2.422  16.464  0.1333  0.1837  0.0819
  182DPPA   C3A 2147   0.344   2.398  16.924 -0.1684 -0.0217  0.0862
  182DPPA   C4A 2148   0.387   2.355  17.406 -0.1327 -0.0499 -0.1149
  182DPPA   C1B 2149   0.829   2.519  16.227  0.1601  0.1092  0.0086
  182DPPA   C2B 2150   0.778   2.508  16.632  0.1982  0.2190 -0.0194
  182DPPA   C3B 2151   0.819   2.457  17.153  0.1556  0.0993 -0.1802
  182DPPA   C4B 2152   0.827   2.504  17.642  0.1219 -0.0025 -0.0982
  183DPPA   PO4 2153   5.299   2.126  15.463  0.0528 -0.1490 -0.1957
  183DPPA   GL1 2154   5.135   1.943  15.824  0.2687 -0.4445 -0.5103
  183DPPA   GL2 2155   5.248   2.169  15.966  0.1838 -0.0090 -0.0556
  183DPPA   C1A 2156   5.071   1.689  16.048 -0.2536  0.0014  0.2153
  183DPPA   C2A 2157   5.036   1.597  16.433  0.1273 -0.2895  0.1708
  183DPPA   C3A 2158   5.065   1.575  16.899 -0.2510 -0.0714 -0.1113
  183DPPA   C4A 2159   5.078   1.667  17.364  0.2537 -0.4415 -0.0225
  183DPPA   C1B 2160   5.180   2.019  16.302  0.2353 -0.0188  0.2720
  183DPPA   C2B 2161   5.206   2.059  16.752  0.3499 -0.0113  0.1850
  183DPPA   C3B 2162   5.266   2.085  17.233  0.1327  0.1845  0.0749
  183DPPA   C4B 2163   5.310   2.153  17.695  0.0084 -0.2379  0.3577
  184DPPA   PO4 2164   4.541   6.390  15.928  0.2006  0.0518  0.0758
  184DPPA   GL1 2165   4.480   6.250  16.289 -0.0053 -0.1765 -0.0652
  184DPPA   GL2 2166   4.317   6.029  16.289  0.1435 -0.0325  0.2777
  184DPPA   C1A 2167   4.451   6.302  16.643 -0.1084  0.1658 -0.1682
  184DPPA   C2A 2168   4.417   6.330  17.045 -0.0488 -0.3703 -0.4594
  184DPPA   C3A 2169   4.405   6.339  17.526 -0.1838 -0.1279  0.2429
  184DPPA   C4A 2170   4.418   6.337  18.034 -0.1349  0.0445 -0.2274
  184DPPA   C1B 2171   4.240   5.894  16.631 -0.2609  0.1838 -0.4044
  184DPPA   C2B 2172   4.230   5.865  17.050  0.0010 -0.2083 -0.3378
  184DPPA   C3B 2173   4.315   5.826  17.588  0.0633 -0.0186  0.0889
  184DPPA   C4B 2174   4.324   5.823  18.070  0.2800  0.5134  0.1187
  185DPPA   PO4 2175   2.197   3.094  15.346 -0.2292  0.2632  0.0145
  185DPPA   GL1 2176   2.299   3.063  15.720 -0.0955  0.0933  0.1254
  185DPPA   GL2 2177   2.506   3.175  15.802  0.0649  0.3251  0.5137
  185DPPA   C1A 2178   2.127   2.882  16.011 -0.1605  0.1895  0.1606
  185DPPA   C2A 2179   2.192   2.788  16.394 -0.1354  0.1038  0.0795
  185DPPA   C3A 2180   2.289   2.835  16.819  0.2350  0.3349  0.1731
  185DPPA   C4A 2181   2.358   2.819  17.311 -0.1319 -0.2603 -0.1749
  185DPPA   C1B 2182   2.366   3.216  16.121 -0.0376 -0.1679 -0.1662
  185DPPA   C2B 2183   2.339   3.240  16.506 -0.1175 -0.0095 -0.0545
  185DPPA   C3B 2184   2.503   3.294  16.946  0.0798 -0.0743 -0.4685
  185DPPA   C4B 2185   2.461   3.242  17.480 -0.2950 -0.1518  0.1442
  186DPPA   PO4 2186   5.741   3.299  15.753  0.1404  0.3277  0.1189
  186DPPA   GL1 2187   6.110   3.216  15.956 -0.1777 -0.4354 -0.3364
  186DPPA   GL2 2188   6.082   2.957  16.004  0.0203 -0.0840  0.0092
  186DPPA   C1A 2189   6.194   3.339  16.300  0.3280 -0.0392  0.0094
  186DPPA   C2A 2190   6.270   3.511  16.641  0.1646 -0.1288 -0.0106
  186DPPA   C3A 2191   6.287   3.581  17.090 -0.2648 -0.3172  0.0447
  186DPPA   C4A 2192   6.269   3.694  17.527 -0.1094 -0.3010  0.3296
  186DPPA   C1B 2193   6.119   2.906  16.339  0.1010 -0.0361 -0.1298
  186DPPA   C2B 2194   6.147   3.065  16.744  0.0639  0.4388  0.0163
  186DPPA   C3B 2195   6.067   3.052  17.189 -0.0856 -0.0329  0.2682
  186DPPA   C4B 2196   5.624   3.023  17.361  0.0751  0.5344 -0.2317
  187DPPA   PO4 2197   5.487   4.285  15.696  0.2812 -0.0893  0.3367
  187DPPA   GL1 2198   5.337   4.198  16.092  0.3143  0.2913 -0.0767
  187DPPA   GL2 2199   5.669   4.160  16.189 -0.0996 -0.0293  0.0360
  187DPPA   C1A 2200   5.179   3.920  16.260  0.0950  0.0593  0.0414
  187DPPA   C2A 2201   4.860   3.799  16.469  0.0367 -0.2018  0.4541
  187DPPA   C3A 2202   4.852   3.758  16.921  0.0642  0.0243 -0.0192
  187DPPA   C4A 2203   4.903   3.738  17.371 -0.0963 -0.0293  0.1686
  187DPPA   C1B 2204   5.794   4.084  16.522  0.4255 -0.0033  0.3174
  187DPPA   C2B 2205   5.962   3.883  16.822  0.1278 -0.0680  0.0986
  187DPPA   C3B 2206   5.921   3.989  17.304 -0.3030  0.0876  0.2009
  187DPPA   C4B 2207   5.870   4.056  17.794 -0.0775 -0.0330 -0.1031
  188DPPA   PO4 2208   2.478   5.792  15.600 -0.0784  0.0671 -0.0897
  188DPPA   GL1 2209   2.426   5.755  16.033  0.0814 -0.1227  0.1781
  188DPPA   GL2 2210   2.563   6.006  16.007  0.0500  0.1781  0.0775
  188DPPA   C1A 2211   2.552   5.551  16.329 -0.1642  0.0664 -0.0979
  188DPPA   C2A 2212   2.709   5.549  16.688  0.1169 -0.1973  0.1411
  188DPPA   C3A 2213   2.778   5.543  17.168 -0.2386 -0.0336 -0.4238
  188DPPA   C4A 2214   2.796   5.513  17.707 -0.0123 -0.1590  0.0336
  188DPPA   C1B 2215   2.694   5.972  16.365 -0.0975  0.2099  0.0431
  188DPPA   C2B 2216   2.898   6.010  16.790  0.0052  0.1296 -0.2266
  188DPPA   C3B 2217   2.946   6.052  17.280 -0.2090  0.3186  0.1213
  188DPPA   C4B 2218   2.973   6.043  17.810 -0.0434  0.0675  0.1256
  189DPPA   PO4 2219   6.441   1.680  15.254  0.0016 -0.0319 -0.0879
  189DPPA   GL1 2220   6.580   1.602  15.687 -0.1179  0.1664 -0.1059
  189DPPA   GL2 2221   6.374   1.769  15.750 -0.0959  0.0383 -0.1097
  189DPPA   C1A 2222   6.519   1.447  16.016 -0.1241 -0.3833  0.6179
  189DPPA   C2A 2223   6.438   1.463  16.414  0.0476  0.2359  0.2303
  189DPPA   C3A 2224   6.395   1.406  16.911 -0.1215 -0.3747 -0.1595
  189DPPA   C4A 2225   6.392   1.426  17.412  0.0831  0.0186 -0.1920
  189DPPA   C1B 2226   6.181   1.774  16.051  0.4242 -0.2217 -0.0200
  189DPPA   C2B 2227   6.127   1.813  16.454  0.0467  0.0009 -0.1021
  189DPPA   C3B 2228   6.072   1.771  16.962  0.3214  0.0957 -0.0570
  189DPPA   C4B 2229   6.135   1.817  17.473 -0.0894 -0.1429 -0.1141
  190DPPA   PO4 2230   6.961   2.918  15.569  0.0102 -0.1387 -0.0962
  190DPPA   GL1 2231   6.977   2.858  15.947  0.0450  0.2546  0.0348
  190DPPA   GL2 2232   7.131   2.598  15.929  0.0492 -0.0829 -0.2297
  190DPPA   C1A 2233   6.919   2.837  16.348 -0.1614  0.0688 -0.5724
  190DPPA   C2A 2234   6.948   2.835  16.770 -0.1797  0.0723  0.2511
  190DPPA   C3A 2235   6.855   2.854  17.327 -0.0427 -0.1768  0.1072
  190DPPA   C4A 2236   6.815   2.911  17.793  0.1042 -0.0513 -0.2507
  190DPPA   C1B 2237   7.279   2.563  16.258 -0.0743  0.1274 -0.0719
  190DPPA   C2B 2238   7.178   2.427  16.651 -0.0904 -0.2266  0.1576
  190DPPA   C3B 2239   7.173   2.485  17.124 -0.3869  0.1353 -0.1855
  190DPPA   C4B 2240   7.111   2.492  17.641  0.1678  0.0677 -0.4031
  191DPPA   PO4 2241   2.866   2.016  15.776  0.2628 -0.0753 -0.1443
  191DPPA   GL1 2242   2.942   2.241  16.001 -0.1765  0.0996 -0.1259
  191DPPA   GL2 2243   2.932   2.488  15.974 -0.0337  0.2014  0.4432
  191DPPA   C1A 2244   2.916   2.153  16.299 -0.0593 -0.0464 -0.0348
  191DPPA   C2A 2245   2.882   2.034  16.690 -0.0464  0.1447  0.0856
  191DPPA   C3A 2246   2.940   2.040  17.211 -0.1453 -0.1626  0.0450
  191DPPA   C4A 2247   2.986   2.048  17.683  0.1578 -0.1363  0.3362
  191DPPA   C1B 2248   3.011   2.615  16.287 -0.2631 -0.0611 -0.0615
  191DPPA   C2B 2249   3.095   2.614  16.721 -0.2024  0.1129  0.2338
  191DPPA   C3B 2250   3.147   2.538  17.193  0.0028 -0.0928 -0.0221
  191DPPA   C4B 2251   3.122   2.593  17.642  0.0711 -0.2175  0.0826
  192DPPA   PO4 2252   2.667   6.464  15.883  0.0937  0.1803 -0.0828
  192DPPA   GL1 2253   2.263   6.266  16.154 -0.1827  0.1145  0.1460
  192DPPA   GL2 2254   2.455   6.461  16.324  0.3122 -0.0218  0.1930
  192DPPA   C1A 2255   2.099   6.153  16.462 -0.2296 -0.2030  0.0399
  192DPPA   C2A 2256   2.142   6.204  16.865 -0.1696  0.3964  0.3377
  192DPPA   C3A 2257   2.168   6.223  17.342 -0.1081 -0.0328 -0.0867
  192DPPA   C4A 2258   2.151   6.304  17.805  0.0388  0.1624 -0.1976
  192DPPA   C1B 2259   2.593   6.420  16.661 -0.0635 -0.4066 -0.2324
  192DPPA   C2B 2260   2.594   6.387  17.034 -0.3849 -0.0240 -0.0489
  192DPPA   C3B 2261   2.646   6.383  17.511  0.3471  0.0403  0.0162
  192DPPA   C4B 2262   2.661   6.418  17.986  0.0021 -0.0020  0.2121
  193DPPA   PO4 2263   3.331   2.789  15.533 -0.0159 -0.1178  0.0361
  193DPPA   GL1 2264   3.413   2.663  15.909  0.0267 -0.1013 -0.2662
  193DPPA   GL2 2265   3.700   2.651  15.833  0.4636 -0.1475  0.2159
  193DPPA   C1A 2266   3.472   2.686  16.266 -0.2697 -0.2015 -0.0930
  193DPPA   C2A 2267   3.572   2.630  16.680 -0.2013  0.2089  0.2448
  193DPPA   C3A 2268   3.610   2.690  17.107  0.1170 -0.1250 -0.3478
  193DPPA   C4A 2269   3.634   2.675  17.587 -0.1003  0.1624  0.3416
  193DPPA   C1B 2270   3.928   2.596  16.117  0.1052  0.0182  0.0989
  193DPPA   C2B 2271   4.054   2.660  16.497  0.0423 -0.1721 -0.0938
  193DPPA   C3B 2272   4.067   2.748  16.952  0.0179  0.0021  0.2381
  193DPPA   C4B 2273   4.150   2.720  17.468  0.2739 -0.1506  0.0257
  194DPPA   PO4 2274   3.763   1.793  15.396 -0.4852 -0.0672  0.1444
  194DPPA   GL1 2275   3.893   1.885  15.753 -0.2963 -0.0813  0.3391
  194DPPA   GL2 2276   3.666   1.826  15.878 -0.3129 -0.0546  0.0623
  194DPPA   C1A 2277   4.077   1.947  16.035  0.0935 -0.0198  0.0607
  194DPPA   C2A 2278   4.236   1.863  16.429  0.1931 -0.0474 -0.2354
  194DPPA   C3A 2279   4.277   1.918  16.930  0.0062 -0.0011 -0.1437
  194DPPA   C4A 2280   4.217   1.912  17.431  0.1446 -0.0992 -0.2142
  194DPPA   C1B 2281   3.673   1.795  16.254  0.0300  0.0288 -0.2124
  194DPPA   C2B 2282   3.656   1.848  16.660 -0.0392  0.0761 -0.1053
  194DPPA   C3B 2283   3.731   1.871  17.141  0.1291 -0.1152 -0.0515
  194DPPA   C4B 2284   3.728   1.823  17.594 -0.0422 -0.0891  0.2394
  195DPPA   PO4 2285   5.028   4.452  15.907  0.3266  0.1246  0.1571
  195DPPA   GL1 2286   5.261   4.606  16.174  0.1125 -0.2347 -0.3267
  195DPPA   GL2 2287   5.049   4.744  16.341 -0.0325 -0.3976  0.1732
  195DPPA   C1A 2288   5.425   4.455  16.402 -0.0811 -0.1578  0.2199
  195DPPA   C2A 2289   5.526   4.337  16.735 -0.2689  0.1246 -0.0782
  195DPPA   C3A 2290   5.462   3.866  16.956 -0.1938  0.1290  0.0201
  195DPPA   C4A 2291   5.283   3.428  17.280 -0.1600 -0.0899  0.0509
  195DPPA   C1B 2292   5.198   4.696  16.723  0.0508 -0.1661 -0.1232
  195DPPA   C2B 2293   5.265   4.641  17.122  0.1855  0.1308 -0.2234
  195DPPA   C3B 2294   5.233   4.554  17.579 -0.0514 -0.1809 -0.0654
  195DPPA   C4B 2295   5.495   4.397  17.945  0.3184 -0.0233 -0.0996
  196DPPA   PO4 2296   0.439   2.947  15.197 -0.0663 -0.2488  0.1762
  196DPPA   GL1 2297   0.546   2.994  15.577  0.0397  0.2186  0.0680
  196DPPA   GL2 2298   0.805   2.968  15.673  0.1201  0.5071 -0.1029
  196DPPA   C1A 2299   0.335   2.956  15.926 -0.2211 -0.2698 -0.2019
  196DPPA   C2A 2300   0.468   2.905  16.319 -0.0956 -0.0222  0.1576
  196DPPA   C3A 2301   0.455   2.871  16.749 -0.0762 -0.2726 -0.2253
  196DPPA   C4A 2302   0.534   2.807  17.233  0.0902 -0.0256  0.2970
  196DPPA   C1B 2303   0.911   2.968  16.009  0.0541 -0.0572 -0.0445
  196DPPA   C2B 2304   1.025   2.978  16.392  0.1077  0.1338  0.0232
  196DPPA   C3B 2305   0.928   2.920  16.840 -0.2576  0.1949  0.1598
  196DPPA   C4B 2306   1.007   2.933  17.317 -0.0170 -0.1166 -0.1818
  197DPPA   PO4 2307   0.894   1.703  15.356 -0.1218 -0.1398 -0.2839
  197DPPA   GL1 2308   0.844   1.670  15.750 -0.0856  0.0411  0.0252
  197DPPA   GL2 2309   1.125   1.683  15.838 -0.2183 -0.3048 -0.1045
  197DPPA   C1A 2310   0.626   1.621  16.058 -0.3252 -0.1518  0.0273
  197DPPA   C2A 2311   0.529   1.569  16.471 -0.0132 -0.0067  0.0324
  197DPPA   C3A 2312   0.412   1.498  16.976 -0.1968  0.0295  0.1231
  197DPPA   C4A 2313   0.547   1.550  17.479  0.2658 -0.1545 -0.0186
  197DPPA   C1B 2314   1.138   1.966  16.095 -0.0685 -0.1020 -0.0958
  197DPPA   C2B 2315   1.115   2.139  16.461  0.0425  0.4782  0.1634
  197DPPA   C3B 2316   1.111   2.120  16.927  0.0632 -0.0913 -0.2115
  197DPPA   C4B 2317   1.218   2.215  17.383 -0.1559  0.0287 -0.1670
  198DPPA   PO4 2318   6.098   2.604  15.693 -0.1044  0.0975 -0.1182
  198DPPA   GL1 2319   6.248   2.389  15.997 -0.3798  0.1084  0.2832
  198DPPA   GL2 2320   6.148   2.135  15.876 -0.1551  0.2780  0.0289
  198DPPA   C1A 2321   6.320   2.360  16.343  0.0538 -0.2943  0.0351
  198DPPA   C2A 2322   6.268   2.269  16.724  0.0294 -0.0423  0.0522
  198DPPA   C3A 2323   6.252   2.232  17.186 -0.0462  0.1408 -0.1657
  198DPPA   C4A 2324   6.282   2.312  17.684 -0.2343  0.0187  0.0557
  198DPPA   C1B 2325   5.947   2.176  16.245 -0.0456 -0.0004  0.2900
  198DPPA   C2B 2326   5.737   2.116  16.623  0.0124 -0.0065  0.2449
  198DPPA   C3B 2327   5.761   2.120  17.141 -0.0474 -0.0437  0.2982
  198DPPA   C4B 2328   5.824   2.189  17.612 -0.0531  0.0759  0.0816
  199DPPA   PO4 2329   4.381   0.674  15.513  0.1735  0.1305 -0.2575
  199DPPA   GL1 2330   4.402   0.791  15.860  0.5196 -0.1871 -0.0285
  199DPPA   GL2 2331   4.259   1.001  15.808  0.0524 -0.1158 -0.3083
  199DPPA   C1A 2332   4.671   0.741  16.118 -0.1959 -0.2108  0.0908
  199DPPA   C2A 2333   4.701   0.698  16.508 -0.0629 -0.1162 -0.2270
  199DPPA   C3A 2334   4.779   0.717  17.032  0.1560  0.1581 -0.0809
  199DPPA   C4A 2335   4.743   0.732  17.472 -0.0545 -0.2744 -0.3701
  199DPPA   C1B 2336   4.273   1.100  16.187  0.1274  0.5024  0.1379
  199DPPA   C2B 2337   4.365   1.107  16.583  0.1794  0.0036 -0.0804
  199DPPA   C3B 2338   4.439   1.085  17.059 -0.0587 -0.1000  0.1782
  199DPPA   C4B 2339   4.399   1.047  17.511  0.0391 -0.2376 -0.1068
  200DPPA   PO4 2340   6.260   6.387  20.016  0.1116 -0.0056 -0.1379
  200DPPA   GL1 2341   6.225   6.539  19.742 -0.6324  0.3337 -0.1788
  200DPPA   GL2 2342   5.952   6.571  19.641 -0.2005  0.1387 -0.1648
  200DPPA   C1A 2343   6.492   6.614  19.492  0.0039  0.0533 -0.1123
  200DPPA   C2A 2344   6.692   6.739  19.168  0.0718 -0.0172  0.0480
  200DPPA   C3A 2345   6.697   6.763  18.729 -0.3800 -0.1899 -0.0437
  200DPPA   C4A 2346   6.719   6.808  18.208 -0.2851  0.0320  0.0108
  200DPPA   C1B 2347   6.058   6.622  19.297 -0.0181 -0.0739  0.1280
  200DPPA   C2B 2348   6.231   6.659  18.897  0.1315  0.0585 -0.0847
  200DPPA   C3B 2349   6.238   6.677  18.376 -0.2171  0.0349 -0.0436
  200DPPA   C4B 2350   6.235   6.783  17.862 -0.3225  0.2919 -0.2020
  201W        W 2351  10.962   5.634   2.443 -0.0506 -0.1475 -0.1893
  202W        W 2352  10.313   1.975  14.534  0.1378  0.0500 -0.0437
  203W        W 2353  12.878   6.087  24.017  0.3828 -0.0876  0.0761
  204W        W 2354  11.331   6.120  34.016  0.0662  0.0002 -0.0776
  205W        W 2355   4.232   6.055  25.350 -0.0640 -0.1592 -0.0468
  206W        W 2356  24.393   2.843   7.076  0.2190  0.2859 -0.1911
  207W        W 2357  16.271   6.343  28.885  0.0675  0.2033 -0.1304
  208W        W 2358  19.844   4.906  21.601  0.1618 -0.1461 -0.1796
  209W        W 2359  13.092   4.866  13.008 -0.5057  0.1787  0.0460
  210W        W 2360  20.495   4.049  29.019 -0.1861 -0.0188 -0.0007
  211W        W 2361   8.104   4.775  31.886 -0.2745 -0.2852  0.1818
  212W        W 2362   0.103   1.646  11.267  0.3742  0.0027  0.2476
  213W        W 2363   6.126   5.506  25.333 -0.1303  0.0641 -0.0469
  214W        W 2364   1.671   0.144  10.053 -0.0813 -0.0670  0.2505
  215W        W 2365  24.103   3.140  23.614  0.2382 -0.1236  0.0998
  216W        W 2366   5.237   4.988   2.070 -0.0856  0.1141  0.1284
  217W        W 2367   4.546   1.130  22.704  0.2296 -0.0940  0.0863
  218W        W 2368   1.002   6.136  28.250 -0.1722  0.0786  0.0919
  219W        W 2369   2.699   1.554   0.244  0.4650 -0.0926  0.2355
  220W        W 2370  19.159   5.348  31.243 -0.0878 -0.4219  0.0498
  221W        W 2371   8.785   0.253  23.375 -0.3921 -0.0920 -0.2891
  222W        W 2372   9.708   3.407  24.095 -0.0361 -0.0815 -0.0164
  223W        W 2373  10.883   0.642  31.981 -0.0923  0.1442  0.0926
  224W        W 2374   1.751   4.153  10.604  0.1499 -0.1220 -0.2527
  225W        W 2375  13.797   5.950  32.779 -0.1554 -0.1476  0.0052
  226W        W 2376   6.981   4.529  26.612  0.2110 -0.1186  0.3391
  227W        W 2377  10.837   4.179  13.129  0.1904 -0.4937 -0.0152
  228W        W 2378  11.914   4.621  25.109  0.1467  0.0406 -0.0036
  229W        W 2379   8.437   2.126  11.195 -0.3189  0.1231 -0.0967
  230W        W 2380  17.196   6.465   1.564  0.0343  0.0400  0.2838
  231W        W 2381  25.863   2.411   5.993  0.1355  0.2321  0.1196
  232W        W 2382  24.770   2.096   6.656 -0.1459  0.1586  0.1802
  233W        W 2383  15.381   0.144  27.745 -0.1230 -0.1338 -0.1158
  234W        W 2384  11.200   3.319  10.348  0.1060  0.1056  0.1224
  235W        W 2385   9.741   5.306   5.153  0.3643  0.2130  0.3510
  236W        W 2386   4.680   2.974   2.250  0.1176  0.0154  0.0878
  237W        W 2387  23.247   5.455  20.658 -0.1033  0.1880 -0.0501
  238W        W 2388  18.800   0.121  20.376  0.1199  0.1171  0.0958
  239W        W 2389   4.726   5.853   0.666 -0.0051 -0.1070 -0.1514
  240W        W 2390   8.984   5.471  21.022  0.0311 -0.0074  0.2216
  241W        W 2391   6.413   6.318  14.809  0.0162  0.0128 -0.3110
  242W        W 2392  20.108   6.190   0.474 -0.2777 -0.1463 -0.1214
  243W        W 2393  11.501   2.691  30.754  0.0202  0.0933 -0.2578
  244W        W 2394  25.816   3.806  23.503 -0.3321  0.2651 -0.0598
  245W        W 2395   5.555   0.605  20.700 -0.1248 -0.0061 -0.3123
  246W        W 2396  19.719   4.104  35.218 -0.1805 -0.0809 -0.0922
  247W        W 2397  18.996   0.920  11.160 -0.0042  0.3605  0.1381
  248W        W 2398   2.498   3.782   6.335  0.3325  0.1232 -0.2068
  249W        W 2399  12.553   6.289   7.091  0.0807 -0.0457  0.0136
  250W        W 2400  12.846   3.362   1.280 -0.1265 -0.3025  0.0791
  251W        W 2401   1.524   3.719  30.478 -0.3012 -0.3240 -0.0994
  252W        W 2402  25.327   2.894  28.601 -0.2806  0.0385 -0.2127
  253W        W 2403  16.969   2.390  26.100  0.0551  0.1221 -0.1621
  254W        W 2404   7.122   0.788  27.428 -0.1202 -0.1325 -0.0014
  255W        W 2405   2.372   1.947  27.585  0.1341 -0.1939  0.0359
  256W        W 2406  16.020   1.785   0.869 -0.1259 -0.0781  0.2565
  257W        W 2407  21.689   5.660  31.572 -0.1025  0.0120 -0.1106
  258W        W 2408  24.994   2.641  20.833  0.0401 -0.0469 -0.0292
  259W        W 2409  10.903   6.305  28.713 -0.0079  0.1240  0.1514
  260W        W 2410   8.425   6.137  32.315 -0.0802 -0.0243 -0.4618
  261W        W 2411  19.188   5.840  11.042 -0.1372  0.2050 -0.0173
  262W        W 2412  26.421   2.789   7.020 -0.0858  0.1488 -0.1675
  263W        W 2413  13.196   2.805  15.499 -0.1723  0.0836 -0.0783
  264W        W 2414   7.094   2.325  30.123  0.0384  0.0688 -0.0235
  265W        W 2415  11.213   3.816  33.871  0.0643  0.0548  0.0386
  266W        W 2416  20.641   0.086   9.026  0.2201  0.1192  0.2522
  267W        W 2417   6.776   1.397  12.036 -0.4304 -0.0078 -0.0585
  268W        W 2418  15.969   6.035  14.958  0.1365  0.3432 -0.2075
  269W        W 2419   5.817   4.527  23.777  0.0141  0.2373  0.0643
  270W        W 2420  22.965   2.732  35.724  0.1267 -0.1134 -0.1266
  271W        W 2421  21.159   4.232  15.093  0.0871  0.0036  0.1344
  272W        W 2422  15.674   4.498   1.954 -0.0541 -0.1229  0.0871
  273W        W 2423   7.025   5.469  32.053  0.0697 -0.0465 -0.1010
  274W        W 2424   0.439   0.750  34.349 -0.0420 -0.0780 -0.1917
  275W        W 2425  13.624   5.221  12.454  0.1305  0.0991  0.1079
  276W        W 2426  24.735   1.648   2.137 -0.0458  0.0724 -0.3942
  277W        W 2427   9.029   2.836  28.071 -0.0709 -0.0118  0.0834
  278W        W 2428   8.977   2.061  31.253  0.2610  0.0664 -0.0781
  279W        W 2429  22.114   2.631  27.898 -0.0752 -0.1424 -0.0837
  280W        W 2430   3.618   3.561   2.638  0.3922 -0.1534  0.1733
  281W        W 2431   2.743   5.850   0.530  0.2216  0.1373 -0.0516
  282W        W 2432  11.689   1.801  22.114  0.0456  0.1971 -0.4205
  283W        W 2433   2.876   6.088  35.718 -0.0373  0.0965 -0.0529
  284W        W 2434   7.999   3.853   7.362 -0.2060 -0.1485 -0.0039
  285W        W 2435   2.569   2.153  10.821 -0.1463  0.0906  0.3505
  286W        W 2436  18.021   2.110  31.036  0.0055 -0.1162 -0.0728
  287W        W 2437  19.094   3.482  31.712  0.0216  0.0110  0.0552
  288W        W 2438   9.774   6.337  33.595 -0.2896 -0.2009  0.1867
  289W        W 2439   2.215   3.305  27.086 -0.1548  0.2049 -0.0883
  290W        W 2440   2.117   0.524  33.448  0.1997  0.0624 -0.5087
  291W        W 2441  13.024   0.910   4.809 -0.0641 -0.1032 -0.0675
  292W        W 2442   6.328   4.376  27.648  0.0047  0.2175 -0.0110
  293W        W 2443  13.488   5.771  12.419 -0.1244  0.2783  0.0982
  294W        W 2444  18.307   2.635  10.848 -0.3370  0.2888 -0.0097
  295W        W 2445   1.471   2.953  28.597 -0.0303 -0.1328  0.2753
  296W        W 2446   0.812   5.778  26.985 -0.2441 -0.0565  0.1658
  297W        W 2447   5.080   4.360   8.618 -0.3402  0.1349 -0.0320
  298W        W 2448  20.259   5.388  32.299  0.0107 -0.1293  0.1345
  299W        W 2449  21.905   1.328  28.801  0.0288 -0.0667  0.2788
  300W        W 2450  13.855   1.999  22.472 -0.0388 -0.0679  0.0381
  301W        W 2451  23.595   1.434  24.538 -0.0448 -0.0452  0.3900
  302W        W 2452  21.691   1.209  22.247 -0.3726 -0.0212 -0.1353
  303W        W 2453  12.839   0.466  31.381  0.5207  0.0694  0.0157
  304W        W 2454  10.471   0.202  28.327  0.2044 -0.0295  0.0541
  305W        W 2455   5.775   2.578   2.668  0.2058 -0.0340  0.1752
  306W        W 2456   0.245   1.165   7.860 -0.1293  0.1272  0.1363
  307W        W 2457   5.733   4.034  23.271 -0.2708 -0.1820  0.0493
  308W        W 2458  20.133   2.959  30.083 -0.2070 -0.2096  0.0121
  309W        W 2459   7.319   5.424   3.980  0.3035 -0.2306  0.1928
  310W        W 2460   7.710   1.354   8.837 -0.1736  0.1587  0.0724
  311W        W 2461  10.425   0.020   3.081  0.1718 -0.2867  0.0217
  312W        W 2462   8.858   1.891  26.568 -0.1637  0.2615  0.2795
  313W        W 2463  24.992   0.432  10.880  0.0177  0.0135 -0.3068
  314W        W 2464   7.747   4.305  24.175  0.3655 -0.1784 -0.2035
  315W        W 2465  24.697   2.136  28.692 -0.1879 -0.1515  0.2168
  316W        W 2466   2.922   1.595  35.642 -0.1048  0.2567 -0.1652
  317W        W 2467   3.296   1.858   8.221 -0.0423 -0.1291  0.0474
  318W        W 2468  18.730   2.913  25.939 -0.1426 -0.0752 -0.1217
  319W        W 2469  19.996   5.521  30.949  0.2304 -0.0733 -0.0047
  320W        W 2470  19.987   6.144   1.452  0.0622  0.0296  0.4067
  321W        W 2471  21.993   0.543   3.736 -0.2624 -0.3941 -0.1724
  322W        W 2472  14.015   5.442  11.610 -0.1759 -0.2109 -0.4016
  323W        W 2473  24.174   5.477  10.161  0.0389  0.2829  0.2698
  324W        W 2474   1.702   6.027   2.568 -0.0653  0.3545  0.3831
  325W        W 2475  24.370   0.805  24.547 -0.1019 -0.0133 -0.0390
  326W        W 2476   8.916   2.467   9.666  0.0441  0.1140  0.0198
  327W        W 2477  10.693   4.310   5.690  0.0197 -0.0147  0.1987
  328W        W 2478  22.069   2.721  34.855 -0.0069 -0.0437  0.1143
  329W        W 2479  14.786   5.574  32.469 -0.1667  0.2142  0.1356
  330W        W 2480  23.758   3.909  14.266  0.1490  0.3409 -0.0231
  331W        W 2481  14.579   1.766  28.219 -0.1054 -0.0893 -0.0833
  332W        W 2482  26.414   6.503  12.613 -0.0422 -0.3716 -0.2210
  333W        W 2483  24.802   3.370  27.835  0.1371  0.2364  0.0853
  334W        W 2484  17.809   5.002   9.033  0.0397  0.0987  0.2415
  335W        W 2485   6.549   0.647   1.129 -0.1857  0.1527 -0.1021
  336W        W 2486  21.909   2.439  31.834 -0.1172 -0.2304  0.0072
  337W        W 2487  24.139   1.702  26.109 -0.2201  0.0979  0.0625
  338W        W 2488  19.975   3.986  26.061 -0.1692 -0.1939 -0.1237
  339W        W 2489   0.672   0.030  30.365  0.2202  0.1006 -0.1627
  340W        W 2490  21.083   4.891  10.905 -0.2734  0.0595 -0.3600
  341W        W 2491  22.490   0.456   3.621  0.0839 -0.0018  0.2775
  342W        W 2492  14.555   4.217  29.695 -0.0900  0.2045 -0.0746
  343W        W 2493   2.851   0.511  22.922  0.0377 -0.0907  0.0310
  344W        W 2494  25.676   5.035  29.385 -0.2715 -0.1020  0.1308
  345W        W 2495   2.007   0.727   9.027  0.1195  0.1295  0.0400
  346W        W 2496   3.178   4.563  31.679 -0.3990 -0.2153 -0.1218
  347W        W 2497  13.692   3.203  14.169  0.0221  0.1136 -0.0941
  348W        W 2498  15.414   3.856  27.745 -0.0339  0.1872 -0.0972
  349W        W 2499  23.113   5.597  26.331  0.1756  0.1593  0.1957
  350W        W 2500  15.760   6.121   7.029  0.2084  0.0460  0.2036
  351W        W 2501   2.684   1.678  27.127 -0.3489  0.0791 -0.1022
  352W        W 2502   2.765   2.969  28.073 -0.0870  0.2506  0.2275
  353W        W 2503  12.693   5.583  26.150  0.1275 -0.1390  0.0375
  354W        W 2504   4.541   1.145  20.784 -0.1260 -0.2199  0.0668
  355W        W 2505   8.641   2.976  28.458 -0.1508 -0.0656  0.1534
  356W        W 2506   6.321   5.170  14.995 -0.0030  0.0828 -0.0908
  357W        W 2507  21.025   4.081   7.960 -0.2888 -0.1580 -0.0109
  358W        W 2508  17.665   3.886  30.352 -0.1344 -0.2419 -0.2044
  359W        W 2509  17.570   2.417   1.497 -0.2745  0.1199  0.1568
  360W        W 2510  21.655   3.271  24.941 -0.1547 -0.2857 -0.0950
  361W        W 2511  12.518   5.420   1.604  0.0912  0.2670  0.2900
  362W        W 2512  12.480   4.704  24.909  0.0439  0.2234 -0.0487
  363W        W 2513  14.529   4.861   4.717 -0.0900  0.1839  0.1471
  364W        W 2514  24.682   2.929  35.359  0.2779  0.0629  0.0143
  365W        W 2515   3.817   2.520  14.822 -0.1212 -0.2327  0.0199
  366W        W 2516  17.144   5.592  15.288  0.1952 -0.3435  0.0828
  367W        W 2517  15.702   0.566  14.731  0.4516  0.0348 -0.1703
  368W        W 2518  21.463   6.103   0.240  0.2038  0.1470  0.1025
  369W        W 2519  14.288   4.793   2.775  0.2896  0.2622 -0.1257
  370W        W 2520  10.973   1.605   0.107  0.0882 -0.1294  0.2825
  371W        W 2521  20.794   4.292  34.509 -0.0696  0.1113  0.2632
  372W        W 2522  17.903   3.610   8.243 -0.0007  0.2359  0.1086
  373W        W 2523  23.691   5.434   8.463  0.2336  0.2885  0.0229
  374W        W 2524  16.996   5.280  26.813 -0.1497 -0.2025  0.2164
  375W        W 2525   9.337   5.162   8.369  0.2669  0.2095  0.2109
  376W        W 2526  10.565   4.950  28.825 -0.1175 -0.1125  0.0775
  377W        W 2527  23.205   1.373  10.745  0.0900 -0.0825 -0.2339
  378W        W 2528  24.984   1.369  21.312 -0.1526 -0.1152  0.0116
  379W        W 2529  17.247   6.342   4.303 -0.3385  0.2289 -0.2424
  380W        W 2530  18.082   1.959  24.028  0.1605 -0.1316  0.0178
  381W        W 2531   9.734   5.369   1.938  0.0897 -0.1296  0.2648
  382W        W 2532  21.282   0.928  34.392  0.2877 -0.2206  0.1877
  383W        W 2533   4.606   4.345  14.371  0.4285  0.3507  0.2427
  384W        W 2534  12.024   3.038   0.550 -0.2585 -0.0450  0.1792
  385W        W 2535  21.591   3.796   6.118  0.1019 -0.2393 -0.2872
  386W        W 2536  10.851   5.959  23.663 -0.0823  0.1373 -0.1447
  387W        W 2537   5.356   5.597  35.165 -0.2091 -0.0686 -0.2745
  388W        W 2538  19.201   3.929  10.165 -0.0211 -0.0652 -0.0996
  389W        W 2539   3.469   6.195   1.163 -0.0669 -0.0846  0.2826
  390W        W 2540   7.663   5.128  29.041 -0.1301  0.0563 -0.0812
  391W        W 2541   0.740   2.859  24.509  0.1075  0.0090  0.1506
  392W        W 2542   4.406   0.255  35.511 -0.0998  0.4148 -0.2547
  393W        W 2543  24.368   6.107  34.802  0.1291 -0.0350  0.3038
  394W        W 2544   2.349   3.603   3.144 -0.0247 -0.2022  0.1672
  395W        W 2545   3.750   1.596  31.019 -0.1691  0.2353 -0.1094
  396W        W 2546   9.673   3.389  35.686 -0.1357 -0.2515  0.1452
  397W        W 2547   7.566   6.389  33.457 -0.0373 -0.0740 -0.0159
  398W        W 2548  21.370   5.671  29.719  0.0553  0.1875  0.2652
  399W        W 2549  19.596   2.136  21.772  0.5694 -0.0889 -0.0807
  400W        W 2550  11.120   3.922  11.604 -0.1323 -0.1581  0.0766
  401W        W 2551   2.089   3.590  26.049  0.0672 -0.0680  0.0285
  402W        W 2552  22.838   0.863  29.588  0.1247 -0.1685  0.1668
  403W        W 2553  15.600   4.358   1.044 -0.0227  0.3176 -0.0503
  404W        W 2554   0.115   4.866  21.558  0.2391 -0.0223 -0.1175
  405W        W 2555  23.940   4.331  25.015 -0.1040 -0.1369  0.1316
  406W        W 2556   2.672   4.057  22.978  0.0410 -0.1724  0.1486
  407W        W 2557  10.257   3.431   5.106 -0.1375  0.3699  0.0585
  408W        W 2558   1.299   3.522  11.415 -0.2383  0.1856  0.0937
  409W        W 2559  23.603   4.148  25.345 -0.2300 -0.0805  0.0955
  410W        W 2560  13.452   5.781  22.024 -0.1415  0.2885 -0.0305
  411W        W 2561  15.642   0.420  27.328  0.3127 -0.1469 -0.0428
  412W        W 2562  22.873   0.290  24.468  0.3830  0.1463 -0.0580
  413W        W 2563  11.821   0.549  14.416  0.1078 -0.1337  0.1594
  414W        W 2564   0.532   1.876  14.687 -0.0953  0.0334  0.3441
  415W        W 2565  15.360   0.115  35.160  0.2670 -0.2029  0.0193
  416W        W 2566   3.817   6.113  34.539 -0.0867 -0.3022  0.2408
  417W        W 2567   7.894   1.443  34.661  0.0348 -0.3190 -0.1987
  418W        W 2568   9.127   1.719  10.596 -0.1100 -0.1107  0.2302
  419W        W 2569   2.044   2.597  24.779 -0.2149 -0.0904 -0.3536
  420W        W 2570   1.777   2.718   4.303 -0.0365 -0.2052  0.0718
  421W        W 2571   4.889   0.694  35.628 -0.1484  0.1809 -0.0608
  422W        W 2572   6.893   0.151   0.273  0.2626  0.0037 -0.1330
  423W        W 2573  18.186   4.918  32.541 -0.0864 -0.0106  0.0609
  424W        W 2574   7.386   0.840  26.459 -0.2482 -0.1820 -0.3875
  425W        W 2575  16.074   3.420  30.524 -0.0049 -0.1193 -0.0200
  426W        W 2576   7.946   5.201  32.092 -0.1076 -0.1456 -0.0648
  427W        W 2577   1.231   1.480  12.343 -0.0526  0.0876 -0.1058
  428W        W 2578  10.619   2.387  32.423 -0.1077  0.4637 -0.2207
  429W        W 2579  18.999   3.759  29.133 -0.2174 -0.2140 -0.3726
  430W        W 2580  21.660   5.878  22.418 -0.1347  0.1535  0.3470
  431W        W 2581  26.117   1.780  13.030 -0.0465  0.0848  0.0730
  432W        W 2582  23.206   5.696   0.991 -0.0827  0.1215  0.0635
  433W        W 2583  25.371   0.706   3.406  0.0292 -0.0341  0.0324
  434W        W 2584  17.285   3.650  29.782  0.1038 -0.1304 -0.0925
  435W        W 2585   0.072   4.303   8.626 -0.1234  0.4636 -0.2041
  436W        W 2586   0.209   3.809   2.748  0.0410  0.0295 -0.0368
  437W        W 2587  18.672   2.977  21.003 -0.2038  0.1060  0.2183
  438W        W 2588  20.554   4.964  11.965  0.1499  0.2979 -0.0569
  439W        W 2589   1.565   1.386   9.261  0.0167  0.1552 -0.0349
  440W        W 2590  16.981   2.106  32.482 -0.1910 -0.0867 -0.1320
  441W        W 2591  14.715   1.174  29.214  0.4343 -0.2803  0.2305
  442W        W 2592   1.000   1.889  20.936 -0.0359 -0.2539  0.2501
  443W        W 2593  13.059   6.375   0.844 -0.0996 -0.3527  0.0064
  444W        W 2594   0.830   1.179   5.813  0.1025  0.0683  0.1836
  445W        W 2595  26.010   4.903   7.274 -0.2590 -0.0116 -0.0409
  446W        W 2596   0.956   4.014  26.311  0.5057 -0.2443 -0.3779
  447W        W 2597   9.332   3.212   5.463  0.0816 -0.1973 -0.0062
  448W        W 2598  21.765   3.554  27.046  0.4086 -0.0272  0.0742
  449W        W 2599  11.441   2.202  33.518  0.2568  0.0728  0.4405
  450W        W 2600   7.458   4.707   4.400  0.4253  0.4917 -0.1849
  451W        W 2601  24.331   1.933   6.434 -0.1166  0.1715  0.2840
  452W        W 2602  25.521   3.198  34.034 -0.0641 -0.1262  0.1515
  453W        W 2603  21.742   5.729  20.904  0.0092 -0.1616 -0.0027
  454W        W 2604  25.263   3.135   0.995  0.3628 -0.3340  0.1064
  455W        W 2605  11.519   2.117  33.019 -0.0405 -0.1623 -0.1923
  456W        W 2606   5.791   3.756  14.617 -0.4031  0.1510 -0.0586
  457W        W 2607  24.184   0.171  13.249  0.1754  0.0781  0.1477
  458W        W 2608  20.068   5.749  13.863  0.0615  0.0937  0.1304
  459W        W 2609  25.940   1.439  28.145  0.0294  0.1767  0.2852
  460W        W 2610  12.037   0.535  33.206  0.3037  0.0098 -0.0286
  461W        W 2611   5.649   4.972  26.377  0.0878  0.2762  0.0960
  462W        W 2612   7.718   5.748  12.818 -0.0870  0.3208 -0.3102
  463W        W 2613  14.620   0.087   8.793  0.0571  0.0969 -0.2781
  464W        W 2614  11.353   1.046  10.961  0.0343 -0.0813  0.0772
  465W        W 2615  17.534   6.085  24.562 -0.0319  0.1601 -0.2736
  466W        W 2616  23.973   5.938  30.172  0.2298 -0.1321 -0.1571
  467W        W 2617  16.129   1.369  14.267  0.0604  0.0680  0.0461
  468W        W 2618   8.464   1.522  14.831  0.2114 -0.1207  0.3657
  469W        W 2619  18.690   0.649  12.675 -0.1741 -0.1550 -0.0288
  470W        W 2620  15.692   2.816   6.961  0.1840 -0.1252 -0.2151
  471W        W 2621  24.739   6.165   8.381 -0.0193 -0.0025 -0.1515
  472W        W 2622   0.741   1.000  27.515  0.1045  0.0758  0.0062
  473W        W 2623   9.639   2.964   5.972  0.0249 -0.0448 -0.1054
  474W        W 2624   4.559   1.267  32.129  0.0424 -0.0600  0.1220
  475W        W 2625   8.702   6.447  32.640 -0.0620  0.0327 -0.2594
  476W        W 2626   5.123   0.352  24.597 -0.0212  0.1944  0.1927
  477W        W 2627   0.743   5.977  36.137 -0.0151 -0.0881 -0.0568
  478W        W 2628  14.248   1.904  26.437  0.1010 -0.0780  0.0564
  479W        W 2629   3.126   4.020  11.115 -0.2809 -0.0227  0.0708
  480W        W 2630  15.798   3.056  11.987 -0.2465 -0.0501  0.0734
  481W        W 2631  20.811   4.411  22.271 -0.0836  0.1046  0.3153
  482W        W 2632   5.223   3.003  26.174  0.0804 -0.0121 -0.3672
  483W        W 2633   8.251   3.238   5.707  0.1463  0.0045 -0.2618
  484W        W 2634   5.511   3.896   4.073  0.1405  0.0243 -0.0345
  485W        W 2635   5.476   5.572  28.670  0.0996 -0.2021 -0.1435
  486W        W 2636  26.030   6.092  31.644 -0.0029 -0.0642 -0.3971
  487W        W 2637   6.038   2.467  10.394 -0.0246 -0.1085  0.0426
  488W        W 2638  15.174   3.563   5.434 -0.0073  0.0502  0.1852
  489W        W 2639  26.014   3.915   1.235 -0.2556 -0.1163 -0.0119
  490W        W 2640  11.358   3.465  11.643  0.2048 -0.1554  0.1176
  491W        W 2641  14.167   2.675  27.982  0.2087 -0.2007  0.0021
  492W        W 2642  13.204   0.726  10.081  0.2277  0.1314  0.2631
  493W        W 2643   2.897   2.575   7.025 -0.1497 -0.1840  0.2023
  494W        W 2644  25.242   4.818  25.581  0.1194 -0.1548 -0.0243
  495W        W 2645  19.886   6.172  25.911 -0.0632 -0.0217 -0.0354
  496W        W 2646   1.818   6.035  28.895 -0.2678  0.0306  0.2077
  497W        W 2647  24.028   4.359  11.697  0.0839  0.1343 -0.0847
  498W        W 2648  13.341   2.926  31.800  0.0144 -0.1040 -0.0930
  499W        W 2649   9.078   0.777  32.566 -0.1475  0.1342  0.2311
  500W        W 2650  10.867   4.286  35.272 -0.2632  0.2372 -0.2418
  501W        W 2651  17.876   0.677  34.850  0.1908 -0.0260  0.0647
  502W        W 2652  20.016   4.492  21.744  0.2096  0.1052  0.1649
  503W        W 2653  13.329   1.070  29.531 -0.5398  0.0536  0.0161
  504W        W 2654   0.863   3.621  12.296 -0.1047 -0.1604 -0.0980
  505W        W 2655  18.807   6.329   5.423 -0.1350  0.2168  0.1249
  506W        W 2656   1.192   4.642  25.514 -0.0902 -0.0704 -0.0015
  507W        W 2657   3.444   5.275  14.834 -0.0318 -0.0250  0.1532
  508W        W 2658   0.509   5.936  35.636 -0.1961  0.0017 -0.0864
  509W        W 2659  21.524   1.414   6.204  0.0959 -0.1085  0.0237
  510W        W 2660  11.397   5.427  22.387 -0.2499 -0.0001  0.0264
  511W        W 2661   9.809   1.503  30.541 -0.0490 -0.3283  0.0477
  512W        W 2662  25.387   1.618  29.229 -0.0150 -0.0617  0.1016
  513W        W 2663   3.647   5.488  29.308  0.0967 -0.3116  0.5528
  514W        W 2664  16.205   6.300  32.544  0.2529 -0.0265 -0.1516
  515W        W 2665  11.948   6.413  21.396 -0.1123 -0.1466 -0.2141
  516W        W 2666  21.689   1.300   1.149  0.2899 -0.0039 -0.1181
  517W        W 2667   4.561   4.390  15.615 -0.0594  0.0756  0.2896
  518W        W 2668  14.579   1.147  28.385 -0.1763 -0.0814 -0.1725
  519W        W 2669   5.474   4.629  30.175 -0.1150 -0.0394  0.2729
  520W        W 2670   3.691   5.817   2.510 -0.2296 -0.1843  0.1556
  521W        W 2671   3.105   1.858  11.149 -0.0591 -0.2737  0.0577
  522W        W 2672   5.319   6.032  25.561  0.2053 -0.1718  0.2963
  523W        W 2673  10.925   6.118  22.646  0.0381  0.0284  0.1852
  524W        W 2674  23.706   2.037  29.623  0.0059  0.4433 -0.0054
  525W        W 2675  12.493   5.021  30.865 -0.0578 -0.1694  0.0848
  526W        W 2676  20.186   1.476   9.838 -0.0334  0.2381 -0.1339
  527W        W 2677  24.979   2.422  14.372 -0.2213  0.0342  0.1460
  528W        W 2678   6.215   0.886  33.151  0.0068  0.5500  0.1205
  529W        W 2679  19.709   5.228  31.189  0.3055  0.1837  0.1972
  530W        W 2680  16.000   2.312  34.061 -0.0119 -0.0990 -0.1267
  531W        W 2681  14.193   1.916  27.443  0.1672  0.3256 -0.0154
  532W        W 2682  21.618   3.554  32.308 -0.1949  0.0692 -0.1382
  533W        W 2683   4.987   6.251  31.231  0.0407  0.2755 -0.0068
  534W        W 2684  18.775   2.293  15.221  0.1288 -0.1339  0.0589
  535W        W 2685   9.769   0.983  32.936 -0.2858  0.1502 -0.2812
  536W        W 2686  21.824   0.403  14.308  0.2509  0.0173  0.2964
  537W        W 2687  16.169   5.264   6.271  0.0688  0.1543 -0.1488
  538W        W 2688  17.970   0.898   2.929 -0.2001  0.2539  0.0302
  539W        W 2689  12.852   6.586  27.125  0.2526 -0.0638  0.1884
  540W        W 2690   1.599   0.785  30.649  0.0727 -0.5125  0.0173
  541W        W 2691  15.773   4.351  35.332  0.0641 -0.1945 -0.0665
  542W        W 2692   8.338   0.019   3.236 -0.0641  0.0899  0.0200
  543W        W 2693   3.348   2.351  32.762  0.1411  0.0355  0.1079
  544W        W 2694   9.021   0.262  10.874  0.0262 -0.2643 -0.1308
  545W        W 2695  18.554   0.627   2.899 -0.4937  0.1552 -0.0264
  546W        W 2696  16.340   4.436   5.886 -0.2815  0.4746  0.1042
  547W        W 2697   9.317   3.682  28.679 -0.1184  0.1512  0.0047
  548W        W 2698  15.651   5.097  10.052  0.1474  0.2336  0.0055
  549W        W 2699  14.806   0.614  13.071  0.0735  0.1368  0.0047
  550W        W 2700   4.463   3.732   9.844  0.0840 -0.1896 -0.0293
  551W        W 2701  19.670   1.626  12.559 -0.2439 -0.0906  0.0204
  552W        W 2702  24.983   3.719  28.212  0.2074  0.0511 -0.1108
  553W        W 2703   3.442   5.672  29.893  0.0168 -0.2095  0.2647
  554W        W 2704  22.929   1.537   5.251 -0.1682  0.2025  0.4032
  555W        W 2705   8.224   5.731  33.858 -0.2116 -0.4624 -0.2794
  556W        W 2706  25.016   2.999  33.160  0.1998  0.1476  0.1214
  557W        W 2707  18.839   2.892  30.275 -0.1220 -0.1504  0.0691
  558W        W 2708  14.480   5.901  11.532 -0.1441 -0.1068  0.1083
  559W        W 2709   1.326   5.966   4.437  0.2570  0.3099  0.3886
  560W        W 2710  22.069   0.516  10.900 -0.1933  0.2327  0.1739
  561W        W 2711  15.451   5.491  31.667 -0.2180 -0.0641  0.3145
  562W        W 2712  25.618   3.827  25.194 -0.0689  0.0429 -0.1115
  563W        W 2713   0.916   6.049  12.428 -0.0382 -0.0686 -0.1772
  564W        W 2714   9.095   2.504  25.584  0.0071  0.1838 -0.4005
  565W        W 2715  20.393   5.279  33.542  0.3937 -0.0843 -0.4416
  566W        W 2716   0.309   0.709  14.181 -0.0274 -0.1022 -0.2045
  567W        W 2717   5.201   0.807  15.151 -0.1249 -0.0573  0.0036
  568W        W 2718   6.222   5.736  10.381  0.3358 -0.0017  0.2736
  569W        W 2719   5.734   1.935   7.113 -0.0274  0.2720 -0.1193
  570W        W 2720   1.146   5.540   8.229  0.2329 -0.1235  0.1527
  571W        W 2721   4.052   3.306   2.643  0.0407  0.1204 -0.2463
  572W        W 2722  15.124   3.118  11.414  0.0308  0.0764 -0.0303
  573W        W 2723   6.053   5.349  14.176  0.0118  0.4225 -0.0259
  574W        W 2724   0.425   2.308  32.332  0.1404 -0.3593  0.3902
  575W        W 2725   3.635   3.738  35.477 -0.1164  0.1802  0.2736
  576W        W 2726   8.314   0.359   7.565 -0.0425  0.0480  0.0578
  577W        W 2727  22.613   5.956   9.137 -0.1948  0.2295 -0.0623
  578W        W 2728  22.935   3.206  33.597 -0.2293  0.1314 -0.0718
  579W        W 2729  12.825   0.772  32.853  0.3100 -0.0653  0.0402
  580W        W 2730   4.116   1.784  11.751  0.1537  0.0167 -0.2398
  581W        W 2731   1.464   4.592  34.719 -0.0827 -0.1594 -0.4180
  582W        W 2732  18.381   3.775  30.156 -0.1942 -0.0271  0.2411
  583W        W 2733   4.492   1.638   2.309  0.1077 -0.1694 -0.3625
  584W        W 2734  21.210   6.340  30.420  0.2450 -0.2693  0.3794
  585W        W 2735   0.575   2.504  22.558 -0.0373  0.4596 -0.1742
  586W        W 2736   6.756   4.828   8.650  0.1191 -0.0169 -0.0816
  587W        W 2737   6.755   3.419  10.837  0.2955  0.2307  0.0111
  588W        W 2738   3.594   0.455   4.055 -0.0539  0.0877  0.0115
  589W        W 2739   6.803   1.266  12.766 -0.0366  0.1822 -0.1122
  590W        W 2740   4.450   5.694  32.115  0.1869  0.1845  0.1200
  591W        W 2741   2.077   3.836  21.548  0.2290 -0.1898 -0.0614
  592W        W 2742  22.865   2.979   3.856 -0.2404 -0.2311 -0.3201
  593W        W 2743  17.132   6.049  32.498  0.0339 -0.0633  0.0805
  594W        W 2744  24.833   0.435   2.399  0.1213  0.0786  0.0079
  595W        W 2745  20.017   1.309  34.338  0.3656  0.0965  0.0790
  596W        W 2746   8.884   5.748  28.909  0.0461 -0.1046 -0.2986
  597W        W 2747  17.577   6.122  33.562  0.2767  0.1510  0.2885
  598W        W 2748   6.400   5.275   0.878 -0.0578 -0.1612  0.2080
  599W        W 2749   5.067   1.147  11.008  0.2568 -0.1621 -0.0467
  600W        W 2750  23.334   4.122  32.878 -0.2367  0.0808 -0.3230
  601W        W 2751   2.854   5.859   1.913 -0.0822 -0.2658 -0.0985
  602W        W 2752   7.640   3.090   4.741 -0.0986  0.2261 -0.1886
  603W        W 2753  12.446   1.149  13.525  0.1317  0.0585 -0.4924
  604W        W 2754  22.667   4.184  30.623  0.0430  0.2444 -0.0280
  605W        W 2755  25.017   3.142  20.982 -0.0652  0.0348 -0.2763
  606W        W 2756  12.031   4.517  32.814  0.2702 -0.0029 -0.0455
  607W        W 2757   4.355   6.516  27.408 -0.2470 -0.1542 -0.2348
  608W        W 2758   8.849   1.495   7.036  0.1496  0.0035  0.0707
  609W        W 2759  13.912   4.460  32.647 -0.1222 -0.0538 -0.1382
  610W        W 2760  17.242   3.676  35.785  0.2855 -0.2629  0.3642
  611W        W 2761  16.216   3.129   3.597 -0.1656 -0.0521 -0.0046
  612W        W 2762   1.589   5.289  22.418  0.0535  0.0104 -0.0514
  613W        W 2763   1.053   4.637  31.282  0.0524 -0.0435 -0.0490
  614W        W 2764   5.469   3.890   0.087  0.1951  0.0871 -0.0176
  615W        W 2765  18.193   0.511  12.034  0.3366  0.1116 -0.0139
  616W        W 2766  21.511   1.579  31.603  0.1722 -0.2908 -0.1512
  617W        W 2767   2.561   5.583   7.994 -0.1237  0.2666 -0.2731
  618W        W 2768  16.031   0.167  27.988  0.2584 -0.0050 -0.0801
  619W        W 2769  11.400   2.646  13.780  0.0091  0.2098  0.2313
  620W        W 2770   0.970   2.368  32.284 -0.0353  0.1362  0.0621
  621W        W 2771  20.813   3.695  29.170  0.3238 -0.1165 -0.0993
  622W        W 2772  22.918   2.730   2.729 -0.0296 -0.1347  0.0387
  623W        W 2773   5.728   2.791  14.394 -0.2825 -0.2631  0.0968
  624W        W 2774   9.647   1.733  24.765 -0.0767 -0.2870 -0.2106
  625W        W 2775   3.270   1.761  15.605 -0.2725 -0.1683 -0.0445
  626W        W 2776  11.272   0.427  32.256  0.1129 -0.0671  0.2266
  627W        W 2777  24.546   3.106  12.355 -0.2093  0.0346 -0.0298
  628W        W 2778  20.475   4.146   7.246 -0.0571 -0.0981 -0.0962
  629W        W 2779  11.949   2.789  15.318 -0.2001 -0.4621  0.2095
  630W        W 2780   6.271   4.316   1.851  0.1466  0.2332 -0.1024
  631W        W 2781   6.358   3.428  10.507 -0.5006  0.0697  0.2640
  632W        W 2782  20.870   5.301   4.991 -0.1382 -0.2477  0.0823
  633W        W 2783   4.563   1.470  35.129 -0.4667 -0.2254  0.0652
  634W        W 2784  25.484   2.704  24.778 -0.2832 -0.1206 -0.1466
  635W        W 2785  23.158   2.838   7.729 -0.0822 -0.0862  0.1737
  636W        W 2786  15.616   5.319  22.630  0.2461  0.0043 -0.1841
  637W        W 2787   8.733   0.757  10.989 -0.0518  0.1135  0.0788
  638W        W 2788  24.969   6.325  13.366 -0.3303  0.0391 -0.1563
  639W        W 2789  24.824   5.512  21.164 -0.0202  0.2486  0.1052
  640W        W 2790   9.043   0.138  25.681 -0.0211  0.1614  0.0459
  641W        W 2791   7.030   2.943  14.330 -0.4991 -0.0288 -0.0105
  642W        W 2792  14.526   2.650  22.642  0.0190  0.4505  0.3419
  643W        W 2793  20.269   3.782  32.761  0.2082 -0.2668  0.1442
  644W        W 2794  17.729   4.600  22.854 -0.2075 -0.1279 -0.1343
  645W        W 2795   2.060   3.789  23.365 -0.1072  0.0404  0.0537
  646W        W 2796   7.808   4.765   8.798  0.0009 -0.1110 -0.0905
  647W        W 2797  13.768   3.515   2.472  0.3077 -0.1877 -0.3082
  648W        W 2798  22.345   2.525  34.397  0.1072 -0.4147 -0.1934
  649W        W 2799  23.386   2.920   7.290  0.1115 -0.1706 -0.0238
  650W        W 2800  23.804   4.604  29.120 -0.0554 -0.1575 -0.3398
  651W        W 2801   3.332   2.910   0.487  0.0728  0.1136 -0.3051
  652W        W 2802  25.947   1.439  22.796  0.2517 -0.1471  0.0026
  653W        W 2803  21.508   2.299  27.528  0.1679 -0.1183 -0.1156
  654W        W 2804  15.841   6.366  35.225  0.2365 -0.0367  0.2179
  655W        W 2805  11.124   2.418  14.857 -0.1939  0.1678  0.1561
  656W        W 2806  12.244   1.182  11.407 -0.2125 -0.0219 -0.0934
  657W        W 2807  23.489   4.912  27.001 -0.1449  0.1562 -0.0359
  658W        W 2808  16.833   0.398   6.895  0.0367 -0.1216  0.1869
  659W        W 2809   4.988   3.315   5.613  0.0686  0.2736 -0.1592
  660W        W 2810   0.930   4.811  12.172  0.1270 -0.0355  0.0749
  661W        W 2811  21.240   4.085   5.083 -0.0152  0.1626 -0.1443
  662W        W 2812  13.690   1.717   1.859  0.0927 -0.1188 -0.1986
  663W        W 2813  16.776   2.012  29.660  0.0903  0.0551  0.0427
  664W        W 2814  12.254   0.475  35.547 -0.0133  0.1697 -0.0459
  665W        W 2815  24.663   2.720  34.913 -0.0815  0.1285 -0.0130
  666W        W 2816   2.225   1.962  14.804  0.0213 -0.1442 -0.3967
  667W        W 2817   8.399   3.633   0.193  0.0546  0.0844 -0.3032
  668W        W 2818  22.368   1.900  25.567 -0.3223  0.1092 -0.3047
  669W        W 2819  13.592   2.406  21.459 -0.3698  0.2442 -0.0436
  670W        W 2820  21.653   1.049  22.829 -0.0712  0.3501 -0.3444
  671W        W 2821  17.680   0.043  24.155  0.3584 -0.3329 -0.0004
  672W        W 2822  23.145   2.927  22.941  0.1852 -0.1847  0.1456
  673W        W 2823   9.569   5.795   7.883 -0.1981 -0.3674  0.0219
  674W        W 2824   3.216   3.577  22.045  0.1082 -0.1636 -0.2726
  675W        W 2825   7.365   5.820  32.250  0.0391  0.2218  0.1059
  676W        W 2826   8.165   1.547  32.564  0.2369  0.1289  0.1160
  677W        W 2827  16.660   3.619  12.777  0.1243 -0.0222 -0.0453
  678W        W 2828   8.247   3.990   6.326 -0.5426  0.0747 -0.2097
  679W        W 2829   4.135   6.080  34.957  0.1411 -0.1866 -0.0437
  680W        W 2830  10.054   1.797  28.104 -0.0070  0.1030  0.1190
  681W        W 2831  19.074   0.787  29.283  0.1511  0.2401  0.1429
  682W        W 2832   4.278   1.035  24.564  0.2368 -0.0074 -0.0729
  683W        W 2833  21.555   3.856   7.234  0.2462  0.1978  0.2687
  684W        W 2834   9.262   3.412  13.131  0.0216 -0.1664  0.0291
  685W        W 2835  25.186   3.777   7.050 -0.2075 -0.0260  0.0923
  686W        W 2836   4.739   1.388  31.649  0.5058  0.2470 -0.2283
  687W        W 2837  20.356   1.632   1.129  0.0025 -0.3047  0.0592
  688W        W 2838   1.651   3.709  20.347  0.1028  0.0765  0.0712
  689W        W 2839  12.848   5.054  30.554  0.0960  0.0580  0.2873
  690W        W 2840   5.889   0.467  21.622  0.1499  0.0709 -0.2038
  691W        W 2841  12.649   5.366  25.709 -0.1816  0.1910  0.3812
  692W        W 2842   9.781   5.370   3.488 -0.1411  0.1738  0.2623
  693W        W 2843  11.905   2.833  12.411  0.2051 -0.0558 -0.0420
  694W        W 2844  14.898   1.376   1.122  0.0134  0.2614  0.1016
  695W        W 2845  10.175   3.249  21.676 -0.0443  0.0089 -0.2667
  696W        W 2846  18.299   3.531  34.605 -0.0818 -0.0770  0.4837
  697W        W 2847   0.994   5.772   9.373 -0.0793 -0.1504 -0.0825
  698W        W 2848   8.098   5.779   3.882 -0.2124 -0.3094  0.2451
  699W        W 2849  22.341   5.027  22.030  0.1991 -0.3121  0.1997
  700W        W 2850   6.739   5.462  21.842  0.1229 -0.0754 -0.0820
  701W        W 2851  24.887   2.292   8.004 -0.0835  0.0730  0.0495
  702W        W 2852   1.780   4.912   9.134  0.3712  0.0847  0.1380
  703W        W 2853   0.492   1.483   1.356 -0.1515  0.1907 -0.2809
  704W        W 2854  17.874   4.128  21.856  0.1674  0.1012  0.2472
  705W        W 2855  20.579   5.653   8.114  0.1278 -0.0413 -0.4710
  706W        W 2856   3.685   3.117  21.609 -0.1901  0.0256 -0.0789
  707W        W 2857  26.228   5.336  24.092  0.2875 -0.0480 -0.1214
  708W        W 2858  11.516   3.485   2.706  0.1057  0.1341  0.1258
  709W        W 2859  21.273   1.495  22.089  0.1242 -0.2574  0.2361
  710W        W 2860  22.654   2.066  31.020  0.2145 -0.2561 -0.0217
  711W        W 2861  15.553   4.278  31.517  0.0030 -0.0131  0.0012
  712W        W 2862  24.240   3.279   2.173  0.0355 -0.2553 -0.0681
  713W        W 2863  10.005   4.819   5.017  0.1034  0.0678 -0.3077
  714W        W 2864  15.150   5.629  34.309  0.0267  0.0436 -0.2254
  715W        W 2865   4.816   2.427  15.100 -0.1468  0.0742  0.0551
  716W        W 2866   9.327   0.826   6.805 -0.0023  0.1982  0.3050
  717W        W 2867   9.618   4.795   8.220 -0.2999  0.3597 -0.0092
  718W        W 2868  25.926   1.964  33.128 -0.0838 -0.1323  0.0494
  719W        W 2869  23.575   4.389  21.605  0.1428 -0.0645 -0.0955
  720W        W 2870  20.498   0.575  22.058  0.2126  0.1422  0.1895
  721W        W 2871  24.845   1.971  31.472 -0.3135  0.0695 -0.1639
  722W        W 2872  26.164   2.367  29.930  0.1406  0.1388  0.3283
  723W        W 2873  15.090   6.314  28.417 -0.0498 -0.0424 -0.2716
  724W        W 2874  14.184   2.286  22.702 -0.0228  0.2127 -0.0121
  725W        W 2875  11.196   2.326  23.813  0.0414  0.1514  0.1116
  726W        W 2876   5.267   1.640  30.914  0.1840 -0.1277  0.0424
  727W        W 2877  23.989   2.576   0.290 -0.1759  0.0580  0.2062
  728W        W 2878  18.190   5.378  14.622  0.1827 -0.0562  0.1630
  729W        W 2879  13.045   5.514   9.225 -0.1307 -0.1552 -0.0756
  730W        W 2880  12.803   2.119  24.593  0.1711 -0.0030  0.2733
  731W        W 2881   7.628   4.661   0.886 -0.0391  0.0183  0.0198
  732W        W 2882   6.000   2.707  26.788  0.0841  0.0204 -0.0317
  733W        W 2883   6.018   3.400  11.506 -0.1105 -0.1911 -0.1214
  734W        W 2884  12.221   1.868  22.124  0.1466 -0.2151  0.1712
  735W        W 2885   1.949   4.134   1.403  0.0835  0.2044  0.3472
  736W        W 2886   7.780   0.920  35.297 -0.3505 -0.1298 -0.1261
  737W        W 2887   9.311   4.933   0.225 -0.2263  0.1182  0.0182
  738W        W 2888   2.525   3.241   5.678  0.2333  0.1270 -0.0039
  739W        W 2889  15.322   1.417   2.895  0.2539  0.1900 -0.0360
  740W        W 2890  13.950   0.608  35.012 -0.0284 -0.1694 -0.0855
  741W        W 2891   4.029   1.105  24.138  0.1742  0.4263  0.0853
  742W        W 2892   9.217   0.485  35.354 -0.2572 -0.0240  0.1821
  743W        W 2893   7.136   0.182  24.659  0.0599  0.1355 -0.1737
  744W        W 2894  25.019   6.533   6.965  0.1467  0.3179 -0.3926
  745W        W 2895   8.605   6.020  30.478  0.1417 -0.0136 -0.3091
  746W        W 2896  11.964   0.378   4.965 -0.3034 -0.0921 -0.2725
  747W        W 2897   7.112   3.413   7.026  0.2572 -0.0656  0.3391
  748W        W 2898   7.608   2.964  15.363  0.0106 -0.3035 -0.0876
  749W        W 2899  15.092   3.695  11.375  0.0887 -0.3818 -0.1330
  750W        W 2900  24.408   0.455  14.243 -0.5826  0.0256 -0.0879
  751W        W 2901   0.798   6.022  25.803 -0.1981  0.2047 -0.1272
  752W        W 2902   9.494   5.057  10.494  0.1000  0.1541 -0.4414
  753W        W 2903   3.876   1.505  14.083 -0.1740 -0.1247  0.1876
  754W        W 2904  12.459   3.813  14.081 -0.0410 -0.2323 -0.1968
  755W        W 2905  21.800   4.568  26.694  0.0225 -0.1350  0.3061
  756W        W 2906  25.225   1.402  34.182  0.0393  0.0752 -0.0352
  757W        W 2907  19.190   4.689  12.968  0.1662 -0.2428  0.1517
  758W        W 2908   9.467   0.169  33.750 -0.2562  0.1079 -0.0263
  759W        W 2909  21.574   5.321   2.598 -0.0203  0.1164  0.1377
  760W        W 2910  21.728   4.263   3.175 -0.1116  0.1821  0.1652
  761W        W 2911  13.707   3.790  11.119  0.1539  0.0114  0.0858
  762W        W 2912   1.796   3.989   9.724  0.3972 -0.0226 -0.1412
  763W        W 2913  22.489   1.215  26.169 -0.1468 -0.0626 -0.0089
  764W        W 2914  10.800   1.287   8.442  0.0488 -0.0734  0.1625
  765W        W 2915   2.469   4.253  20.668  0.2426 -0.0169 -0.2698
  766W        W 2916   1.553   3.483  14.437  0.2377 -0.0525 -0.1122
  767W        W 2917   7.687   5.988   6.916 -0.7331 -0.1906  0.0470
  768W        W 2918   2.140   4.627   3.039 -0.2956 -0.1266 -0.1257
  769W        W 2919  13.886   4.181   4.569  0.1494  0.2504  0.1596
  770W        W 2920  24.564   1.845   8.772 -0.3455 -0.2294  0.1210
  771W        W 2921  14.853   5.812  21.648  0.2809  0.0911  0.0485
  772W        W 2922   4.393   0.564   4.216  0.0593 -0.1288 -0.0838
  773W        W 2923   9.036   5.682  23.774  0.0816 -0.2726  0.0407
  774W        W 2924  25.768   3.791  33.224  0.0793 -0.0268 -0.0908
  775W        W 2925  14.819   3.267  30.499 -0.0002 -0.0040 -0.2377
  776W        W 2926   8.285   5.782   7.264  0.2576  0.2435  0.0842
  777W        W 2927   4.846   5.347  29.731 -0.1840  0.0790  0.0672
  778W        W 2928  11.178   2.053   0.350  0.3520  0.0518 -0.2074
  779W        W 2929  25.154   2.283  24.663 -0.1009  0.0301 -0.0365
  780W        W 2930  17.011   1.051  29.319 -0.0176 -0.2032  0.0885
  781W        W 2931  24.616   0.823  12.585  0.1030  0.0846  0.0363
  782W        W 2932  17.945   5.422  29.734 -0.0885  0.0441  0.2595
  783W        W 2933  18.495   3.292  30.889 -0.2033  0.1694  0.1030
  784W        W 2934   9.947   4.844   0.847 -0.0478 -0.0304  0.2354
  785W        W 2935  25.643   5.064   7.577 -0.5462 -0.0192  0.3722
  786W        W 2936  12.336   3.269   0.165  0.2170 -0.1459  0.1622
  787W        W 2937  23.757   3.939  26.500 -0.0551 -0.0873 -0.0241
  788W        W 2938  19.512   5.259   6.618 -0.0796 -0.3540 -0.3223
  789W        W 2939   7.902   6.528  12.472  0.4067 -0.0703 -0.5475
  790W        W 2940  10.058   2.750  10.110 -0.1581  0.0680 -0.2997
  791W        W 2941  17.156   1.821  22.330 -0.0704  0.2949 -0.0161
  792W        W 2942   2.466   2.746  23.297  0.5086  0.1842 -0.1656
  793W        W 2943   5.197   5.737  26.330  0.1153 -0.3069  0.2564
  794W        W 2944  21.725   2.372   2.418  0.3829 -0.0035 -0.0618
  795W        W 2945   0.743   3.061   2.651 -0.0727 -0.0273  0.2992
  796W        W 2946  19.238   3.228   3.396 -0.3374 -0.1452 -0.0396
  797W        W 2947  20.315   0.436   4.328 -0.1420  0.2054 -0.2175
  798W        W 2948   9.052   3.311  24.858  0.1991 -0.0155  0.1061
  799W        W 2949   0.639   4.330   2.120  0.2377 -0.0900  0.0770
  800W        W 2950  18.959   1.169  11.599  0.3242 -0.2677 -0.1722
  801W        W 2951   8.637   4.337  21.150  0.0839 -0.1115 -0.2266
  802W        W 2952  17.395   3.134  12.724 -0.0726 -0.2069 -0.1941
  803W        W 2953   6.096   0.678   5.809  0.1811  0.2985  0.0587
  804W        W 2954  20.400   4.547   9.526  0.0771 -0.2072  0.1978
  805W        W 2955  16.214   2.389  30.410  0.0260 -0.1256  0.1657
  806W        W 2956  17.954   3.954  32.472 -0.0008 -0.0801  0.2792
  807W        W 2957  19.013   5.176  35.962 -0.2569 -0.1213 -0.1529
  808W        W 2958  26.133   1.927   5.866  0.1280  0.0554  0.1402
  809W        W 2959  18.486   6.517  36.068 -0.2058 -0.0326  0.0909
  810W        W 2960   2.187   6.520  24.729 -0.1341  0.0658 -0.1771
  811W        W 2961   0.331   2.782  32.471  0.0077 -0.0846  0.2804
  812W        W 2962  21.401   3.441  35.967  0.0774 -0.2477  0.0149
  813W        W 2963   6.285   3.772   0.772  0.0548  0.3891 -0.2378
  814W        W 2964  23.751   6.523  35.687  0.0789 -0.1851 -0.0040
  815W        W 2965  24.293   4.843   1.822 -0.0804  0.0548  0.2459
  816W        W 2966  10.997   3.211   3.660 -0.1234 -0.2351  0.2651
  817W        W 2967  10.179   3.363   3.116  0.1201  0.2033  0.0301
  818W        W 2968  19.613   5.358   5.485 -0.0782  0.1777 -0.0486
  819W        W 2969  10.157   3.871  33.666  0.2283  0.2136  0.0969
  820W        W 2970   7.770   1.198  25.558 -0.1183 -0.0488  0.0517
  821W        W 2971  14.970   3.359   2.440 -0.0166  0.1736 -0.1179
  822W        W 2972   1.221   4.628  33.505  0.1987  0.0944 -0.0989
  823W        W 2973  25.669   3.137  24.428  0.1526 -0.0655 -0.0080
  824W        W 2974   7.568   1.482   6.316 -0.2275 -0.0093 -0.2476
  825W        W 2975   1.955   1.780  15.272 -0.3872 -0.1987 -0.0539
  826W        W 2976  25.471   1.581  30.611 -0.0652 -0.0279 -0.0324
  827W        W 2977  22.519   1.418  31.547  0.0148 -0.3073 -0.3907
  828W        W 2978   0.939   0.951  26.346 -0.1000 -0.3385 -0.0151
  829W        W 2979   3.835   4.536   0.560 -0.1470 -0.1536 -0.0649
  830W        W 2980  10.595   4.052  27.923  0.2016 -0.3757  0.2965
  831W        W 2981  15.664   6.034  15.357  0.1132 -0.0007 -0.1745
  832W        W 2982  16.915   0.796  23.308 -0.0564 -0.0282 -0.0432
  833W        W 2983  24.371   0.345  12.476 -0.1296  0.2021 -0.0917
  834W        W 2984   0.834   5.644  22.220 -0.1676 -0.1064 -0.1580
  835W        W 2985  21.525   0.970   7.367 -0.1415 -0.0482 -0.0111
  836W        W 2986   5.018   2.448  27.602 -0.1526 -0.0771  0.1532
  837W        W 2987  24.207   3.760  12.390  0.2243  0.1381  0.0357
  838W        W 2988  14.509   2.732  33.500 -0.1041  0.3898 -0.1745
  839W        W 2989   5.807   3.680   3.626 -0.0064 -0.0230 -0.1389
  840W        W 2990  20.544   5.446  24.991  0.3658 -0.3888  0.2979
  841W        W 2991  13.743   3.977   9.548 -0.0498 -0.0258  0.1079
  842W        W 2992   5.301   4.438  31.797  0.4559 -0.1781  0.1891
  843W        W 2993  16.949   5.339  34.732 -0.1824 -0.2107  0.1997
  844W        W 2994   2.688   1.648  33.157  0.0973  0.0415 -0.2269
  845W        W 2995  22.203   2.803  11.269 -0.1598 -0.0329  0.1748
  846W        W 2996  25.347   5.032   5.169 -0.1085 -0.0182  0.0532
  847W        W 2997   4.883   0.338   0.827 -0.1232  0.2024  0.0220
  848W        W 2998  18.922   3.507   1.686 -0.0125 -0.1084 -0.1949
  849W        W 2999  25.922   3.304  29.141 -0.0215  0.0603  0.1905
  850W        W 3000  21.468   3.712   8.779  0.1027  0.3798  0.1792
  851W        W 3001   3.424   2.182  33.729  0.0371  0.1745 -0.0975
  852W        W 3002  20.477   2.016  11.630 -0.1335  0.1614 -0.0542
  853W        W 3003  13.542   6.568  33.853 -0.0989  0.0325  0.0725
  854W        W 3004  10.616   2.136   6.393 -0.3022 -0.0782 -0.2859
  855W        W 3005  21.621   4.343  15.000 -0.6412  0.1911 -0.2771
  856W        W 3006   6.893   4.514  15.354 -0.2174 -0.1975 -0.0697
  857W        W 3007  23.518   4.818   6.332  0.0711 -0.0236 -0.2635
  858W        W 3008   5.886   0.168  14.642 -0.1323  0.0485  0.1032
  859W        W 3009   3.727   2.252  21.375 -0.0495 -0.3705 -0.1723
  860W        W 3010   4.333   0.611   2.798 -0.2208 -0.1827 -0.0901
  861W        W 3011  15.658   3.355  26.975 -0.3316 -0.2261  0.2815
  862W        W 3012  16.539   5.060  21.277  0.0260  0.3462 -0.0713
  863W        W 3013   4.555   2.870  10.639 -0.2374  0.1920  0.0679
  864W        W 3014   1.592   4.591  29.020  0.0278  0.5235  0.2666
  865W        W 3015  19.942   2.519  30.274  0.1895  0.0430 -0.0422
  866W        W 3016  16.531   4.634  15.551 -0.2010  0.0532  0.2701
  867W        W 3017   6.820   6.324  11.680 -0.0377  0.0808  0.2908
  868W        W 3018  18.171   2.398   9.311  0.0706 -0.1187 -0.2196
  869W        W 3019   0.881   4.502  31.957  0.2545  0.2822 -0.3118
  870W        W 3020  24.557   0.806  22.422 -0.0822 -0.1154 -0.1398
  871W        W 3021  12.981   1.378   5.262  0.2216 -0.2805 -0.1337
  872W        W 3022  22.323   0.335  14.371  0.0834 -0.2009 -0.1609
  873W        W 3023  18.874   0.201  15.039 -0.3530  0.1637 -0.0907
  874W        W 3024  14.670   3.609  28.044 -0.0689 -0.0080  0.0058
  875W        W 3025   4.060   5.860  12.608 -0.2459  0.0205  0.1171
  876W        W 3026  24.561   3.032  32.927  0.0180 -0.1183 -0.0134
  877W        W 3027  11.323   1.610  25.754 -0.2443 -0.0092 -0.2233
  878W        W 3028  12.624   4.112  35.634 -0.1786 -0.0565  0.2324
  879W        W 3029  12.551   2.033   0.124  0.0995 -0.3157  0.0500
  880W        W 3030  11.244   2.871  27.757  0.0273 -0.1179 -0.0641
  881W        W 3031  20.378   0.954   0.848 -0.2286 -0.4744 -0.3640
  882W        W 3032  12.230   3.207  14.627  0.1462 -0.4147 -0.4692
  883W        W 3033   0.162   5.508   5.907 -0.1197  0.2539  0.2428
  884W        W 3034   7.907   1.687  11.994  0.0104  0.1614 -0.4197
  885W        W 3035  15.552   6.358   6.658 -0.0196 -0.0977 -0.1681
  886W        W 3036  15.963   2.786   6.575 -0.1231  0.5099  0.2609
  887W        W 3037   9.735   3.986  21.519  0.0694  0.1306 -0.0856
  888W        W 3038  18.838   3.472  34.793 -0.0867  0.2271  0.1639
  889W        W 3039  11.223   4.014   0.702 -0.0211 -0.0381  0.1181
  890W        W 3040  22.021   3.443   9.712 -0.0280  0.1694 -0.0441
  891W        W 3041   1.458   2.308   2.240 -0.0437  0.1901 -0.1017
  892W        W 3042  18.659   1.343  14.297  0.0182  0.1848  0.2261
  893W        W 3043  15.458   3.828  26.327  0.1185  0.0301  0.2754
  894W        W 3044  25.397   0.771  12.436  0.0463  0.2308  0.1011
  895W        W 3045   9.013   4.308  14.220 -0.1212  0.1643 -0.1416
  896W        W 3046   0.107   5.311  13.642  0.0277  0.1352 -0.2488
  897W        W 3047  16.969   3.191  30.133  0.0204  0.0280  0.1837
  898W        W 3048  11.538   0.958  28.821  0.1270  0.0641  0.3722
  899W        W 3049  19.744   4.458  25.741  0.1777  0.0885  0.0279
  900W        W 3050  25.943   2.323  22.576 -0.0379 -0.0979 -0.0821
  901W        W 3051  21.085   2.792  11.104  0.0750  0.0478 -0.2418
  902W        W 3052   6.706   5.312   0.235  0.3086 -0.3358 -0.4101
  903W        W 3053  12.403   3.668   1.188 -0.1142  0.2712  0.1854
  904W        W 3054  13.328   0.529  21.859  0.0632 -0.1107  0.1250
  905W        W 3055   6.702   6.523  24.592 -0.2559  0.2984 -0.0529
  906W        W 3056  20.446   1.956   0.606 -0.0722 -0.1451 -0.1464
  907W        W 3057  17.088   6.232   3.855 -0.0281  0.0025 -0.1957
  908W        W 3058   6.521   1.072   0.823 -0.0207 -0.1943 -0.1923
  909W        W 3059  15.210   0.275  26.724  0.1050 -0.1109 -0.1826
  910W        W 3060   4.811   5.278  31.586  0.2330 -0.0483 -0.2924
  911W        W 3061   1.175   6.125  30.956  0.1728 -0.0657  0.2583
  912W        W 3062  16.558   3.858   5.225 -0.0665 -0.2347 -0.0043
  913W        W 3063  10.740   3.706  11.964 -0.1003 -0.1058 -0.0780
  914W        W 3064  25.572   5.463   2.711 -0.1757  0.1741  0.0476
  915W        W 3065   1.631   4.757   6.905  0.0214 -0.4753 -0.0648
  916W        W 3066  19.847   2.738  28.028  0.1430 -0.2136 -0.1207
  917W        W 3067  17.141   6.312  28.210  0.0663 -0.0667  0.0020
  918W        W 3068  10.481   3.558  24.837 -0.0479  0.1841 -0.2085
  919W        W 3069  18.286   5.120   9.025 -0.2416 -0.0650 -0.2914
  920W        W 3070  23.339   4.871   4.069 -0.1585 -0.1760 -0.0399
  921W        W 3071  17.231   4.275  28.572 -0.0487 -0.1773  0.2822
  922W        W 3072   6.718   4.888   4.159  0.2664  0.1440  0.3167
  923W        W 3073   5.348   4.212  26.052 -0.1132 -0.0933 -0.1517
  924W        W 3074   9.334   5.572   3.495 -0.3776 -0.2110 -0.2455
  925W        W 3075  17.054   5.427   4.826 -0.0278 -0.1206  0.0375
  926W        W 3076  23.851   6.411  13.055 -0.0032 -0.2463  0.3043
  927W        W 3077   6.342   3.218  32.184 -0.1675  0.1789 -0.1311
  928W        W 3078  13.540   5.786   9.411  0.1437 -0.0180 -0.1295
  929W        W 3079  11.093   3.459  35.594 -0.0557 -0.0082  0.1313
  930W        W 3080   1.863   1.070   9.915 -0.0912 -0.0137  0.3747
  931W        W 3081  14.306   3.359   7.952  0.0882 -0.1007 -0.1555
  932W        W 3082  11.317   3.910   1.225  0.1310 -0.0769  0.2762
  933W        W 3083   0.255   1.597  30.471  0.1409  0.0382  0.1117
  934W        W 3084   1.014   2.974  30.875  0.0917  0.0146  0.1219
  935W        W 3085   7.778   3.299   1.384  0.0546  0.2445  0.1681
  936W        W 3086  20.235   6.565  25.143  0.0157  0.0791 -0.1068
  937W        W 3087  23.658   4.362   0.416  0.1996  0.0070 -0.0662
  938W        W 3088   3.421   4.899  35.003 -0.3372 -0.2264 -0.2476
  939W        W 3089   0.587   3.375  30.054  0.1292  0.0041 -0.1414
  940W        W 3090   8.461   4.886   4.247  0.3210  0.2792  0.2090
  941W        W 3091  21.080   0.052  23.580  0.1439  0.2592  0.2082
  942W        W 3092  10.428   0.036  30.047 -0.0843 -0.2417 -0.0359
  943W        W 3093   2.504   1.596   4.834  0.0377 -0.3013 -0.1086
  944W        W 3094  18.690   1.175  25.143  0.0928 -0.0232 -0.3858
  945W        W 3095   9.717   5.601  20.653  0.1188 -0.2114  0.2190
  946W        W 3096  24.905   5.875  11.946 -0.0196  0.1598 -0.1770
  947W        W 3097  22.931   6.163   0.273 -0.1640  0.0787  0.0792
  948W        W 3098  12.835   5.227  21.466  0.0664  0.0727  0.1053
  949W        W 3099  11.360   2.753   9.113  0.1958  0.3895 -0.2748
  950W        W 3100  16.878   5.461   9.172 -0.0724  0.0259 -0.1036
  951W        W 3101  10.055   6.286   5.310  0.0466 -0.0649  0.0786
  952W        W 3102   7.671   5.153  31.529  0.1772  0.0470 -0.0894
  953W        W 3103  10.414   3.138  25.234  0.0862 -0.2794  0.1819
  954W        W 3104  17.949   1.064  27.581  0.2922  0.0073 -0.4398
  955W        W 3105   7.620   5.450  12.420 -0.2125  0.1483 -0.0355
  956W        W 3106  16.371   3.854  23.546 -0.0520 -0.3372 -0.3228
  957W        W 3107   8.983   2.807  32.243 -0.0105  0.0594 -0.3681
  958W        W 3108   5.817   2.638  21.145  0.1712 -0.2702 -0.1231
  959W        W 3109  13.234   3.083  22.981  0.0138  0.2305 -0.1231
  960W        W 3110  22.966   2.200  32.886 -0.0829  0.2777 -0.3424
  961W        W 3111   6.357   5.594  29.389  0.1860  0.0131  0.0348
  962W        W 3112  17.968   0.358   0.028  0.2639  0.1317  0.0152
  963W        W 3113   5.551   5.100  31.980  0.0150 -0.2981 -0.1729
  964W        W 3114  12.920   1.104  14.386 -0.2380 -0.3263 -0.1431
  965W        W 3115   7.125   0.872  21.490  0.0272 -0.3502  0.4090
  966W        W 3116  12.810   6.587  25.663  0.1626  0.0362  0.1662
  967W        W 3117  11.827   1.776   8.843  0.1214 -0.4688  0.0704
  968W        W 3118   8.995   5.869  31.414  0.1987  0.0190 -0.2481
  969W        W 3119  13.231   5.896   8.437 -0.0279  0.2528  0.0586
  970W        W 3120  23.668   4.534  27.811  0.0110 -0.0135  0.0803
  971W        W 3121   2.488   5.958  11.874 -0.3377 -0.3135  0.0549
  972W        W 3122  20.319   6.364  15.513  0.1311 -0.2653 -0.1341
  973W        W 3123  12.165   2.024   5.375 -0.1549  0.0043 -0.0456
  974W        W 3124   4.635   1.160  14.186  0.1293  0.0248 -0.1212
  975W        W 3125   9.254   2.484   3.744 -0.2673 -0.1204  0.1145
  976W        W 3126  13.141   0.729  22.312 -0.1419 -0.0662 -0.0447
  977W        W 3127  14.594   5.834  30.937  0.0480  0.1574  0.0293
  978W        W 3128  21.806   1.547   9.044 -0.0206 -0.0932  0.3308
  979W        W 3129  23.514   2.285  25.518 -0.0553  0.0383  0.0034
  980W        W 3130  11.198   6.408  10.163 -0.0186  0.2478 -0.0241
  981W        W 3131  20.859   4.673  33.807 -0.2587 -0.2063 -0.1402
  982W        W 3132  13.798   3.121  25.712  0.0718 -0.0274 -0.0193
  983W        W 3133  23.066   5.227  35.445 -0.1676  0.1887  0.0619
  984W        W 3134   6.972   4.783   7.272 -0.1058 -0.1457 -0.1919
  985W        W 3135  14.791   3.176  29.614  0.0225  0.1049  0.4731
  986W        W 3136  24.793   0.865   0.993  0.2675 -0.0614 -0.0692
  987W        W 3137  16.758   5.133   6.079  0.0812 -0.1795  0.1629
  988W        W 3138  17.264   2.947  24.870  0.0179 -0.4187  0.2844
  989W        W 3139  13.791   1.071   6.416 -0.1849 -0.1635  0.0567
  990W        W 3140  22.473   0.097  35.025 -0.0171 -0.0321 -0.2443
  991W        W 3141  20.267   4.120  24.798 -0.1189  0.0408  0.0959
  992W        W 3142   9.799   2.765   2.996  0.0065  0.3029  0.2398
  993W        W 3143  12.511   6.515  22.212  0.3004  0.0960 -0.2233
  994W        W 3144   3.226   0.949  28.354 -0.1798 -0.0887  0.0621
  995W        W 3145  24.758   3.479  22.777  0.0567 -0.0748  0.0625
  996W        W 3146  14.375   3.518  31.817  0.0471  0.3737 -0.0721
  997W        W 3147   3.339   3.570   4.585  0.2239  0.1576 -0.1245
  998W        W 3148  20.341   3.780  27.234  0.1720  0.1729 -0.1072
  999W        W 3149   8.315   1.981  12.067  0.1692  0.2134  0.2168
 1000W        W 3150  23.677   6.190   5.004 -0.3086  0.2177  0.0587
 1001W        W 3151  12.595   4.618  27.366  0.1187  0.0716  0.1110
 1002W        W 3152   4.663   2.680  30.779  0.2438  0.0257 -0.0685
 1003W        W 3153  15.112   3.136   1.665 -0.0546  0.1499  0.1255
 1004W        W 3154   7.752   2.366   1.865 -0.1714 -0.5071 -0.3198
 1005W        W 3155  20.096   4.398  31.153 -0.2305 -0.1690  0.2758
 1006W        W 3156  26.337   5.462  27.463 -0.0029  0.2334  0.1914
 1007W        W 3157  23.455   5.230  27.403  0.1713 -0.1908 -0.2566
 1008W        W 3158  12.363   2.430  27.077  0.2266 -0.0858  0.0639
 1009W        W 3159  10.770   5.867  32.487  0.0870 -0.2756  0.0175
 1010W        W 3160  12.024   3.087   2.816 -0.0005 -0.1147  0.4430
 1011W        W 3161  12.069   3.877   1.936 -0.0454  0.0328 -0.3883
 1012W        W 3162  18.927   4.276  35.465 -0.2070 -0.3582  0.1883
 1013W        W 3163  22.104   6.574  33.285 -0.0570  0.1394 -0.1886
 1014W        W 3164   4.280   2.380  24.888  0.2460  0.1552  0.1982
 1015W        W 3165  15.425   0.382  22.669 -0.1708 -0.0174  0.3185
 1016W        W 3166   5.987   5.360  30.620  0.4209 -0.1125  0.1324
 1017W        W 3167  23.721   5.626   4.606 -0.2925 -0.1977 -0.0283
 1018W        W 3168   7.967   5.066  11.413  0.1351  0.0850  0.1063
 1019W        W 3169   2.743   6.538  13.871 -0.0476  0.1584 -0.2360
 1020W        W 3170   2.049   1.774   0.702 -0.0219  0.0948 -0.1504
 1021W        W 3171   8.274   5.453   2.535  0.1063 -0.1320 -0.2495
 1022W        W 3172  11.240   1.209  24.007 -0.0156  0.2020 -0.0207
 1023W        W 3173  17.578   2.166   7.803  0.0804 -0.0632 -0.0302
 1024W        W 3174  18.854   2.250  10.911 -0.1574 -0.0867 -0.0579
 1025W        W 3175   2.830   4.451  21.490 -0.0430 -0.0603 -0.1808
 1026W        W 3176   2.778   3.209  22.551  0.2263 -0.2761  0.2152
 1027W        W 3177  25.488   5.090  26.335 -0.3973 -0.1228 -0.0428
 1028W        W 3178  15.209   5.201  24.623 -0.1764  0.0392  0.2716
 1029W        W 3179   4.136   3.914   4.957  0.0032  0.0896 -0.3559
 1030W        W 3180  23.334   3.097  14.350 -0.0836 -0.2870  0.2543
 1031W        W 3181  22.010   5.765   3.246  0.2438  0.1103  0.2054
 1032W        W 3182   3.180   0.734  12.398  0.0407  0.1334 -0.1467
 1033W        W 3183  22.857   4.834  23.190 -0.3189 -0.1121  0.0820
 1034W        W 3184  12.800   2.173  12.810  0.0907  0.1287 -0.0432
 1035W        W 3185   3.149   2.175   6.042  0.1219  0.2551  0.4305
 1036W        W 3186   1.873   0.840  31.078 -0.0831 -0.0758  0.0158
 1037W        W 3187   8.408   3.511  12.790 -0.2525  0.2384 -0.2024
 1038W        W 3188  11.069   4.718  34.440 -0.0572  0.2656 -0.2364
 1039W        W 3189  15.295   1.568  33.926 -0.0209 -0.3471  0.3188
 1040W        W 3190  15.498   3.111  21.070  0.0096  0.0915 -0.1643
 1041W        W 3191   0.581   4.896   3.614  0.2372 -0.1243 -0.1017
 1042W        W 3192  21.195   3.045  23.436 -0.1156 -0.1827  0.1260
 1043W        W 3193  22.912   6.524  31.479  0.3378 -0.0769  0.1557
 1044W        W 3194  23.005   2.298  13.494  0.0434  0.2474  0.0456
 1045W        W 3195   2.897   2.609  13.352 -0.0265  0.1517 -0.0774
 1046W        W 3196   9.530   1.223  23.210  0.0570 -0.0116 -0.0726
 1047W        W 3197   6.943   1.565  25.011  0.0240 -0.1142  0.1765
 1048W        W 3198  25.230   2.060   4.099 -0.2223  0.3723  0.0614
 1049W        W 3199  25.798   0.286  28.575 -0.0519  0.1316 -0.2627
 1050W        W 3200   5.576   4.170   0.556 -0.1156  0.0941 -0.0127
 1051W        W 3201  15.072   6.074  23.463  0.2125 -0.0099  0.1732
 1052W        W 3202  16.329   0.703  12.199  0.0646  0.0045 -0.2926
 1053W        W 3203  18.276   5.367  34.253 -0.1238 -0.2116 -0.2153
 1054W        W 3204   4.614   4.359  34.687 -0.0904  0.1107  0.2014
 1055W        W 3205  19.674   3.854  21.107 -0.0340 -0.1880 -0.1170
 1056W        W 3206  16.697   0.124  27.402 -0.0139 -0.1655 -0.0076
 1057W        W 3207   8.296   1.995  22.834 -0.0591 -0.3552 -0.5166
 1058W        W 3208   6.584   2.899   6.410  0.3369  0.0278 -0.1723
 1059W        W 3209  26.366   2.279   0.776 -0.2426 -0.0659  0.1237
 1060W        W 3210   3.516   1.710   3.233  0.1563  0.0441 -0.0742
 1061W        W 3211  11.740   0.167  29.759 -0.0657 -0.1981  0.0808
 1062W        W 3212   1.638   1.436   0.406 -0.0542  0.2196  0.0513
 1063W        W 3213   8.396   0.051  27.955 -0.1286  0.0377  0.1838
 1064W        W 3214  20.731   5.599   6.862 -0.2207 -0.0063 -0.0662
 1065W        W 3215   9.864   6.016  33.162  0.1810  0.1939 -0.1587
 1066W        W 3216  17.559   3.205  22.085 -0.1584 -0.0199 -0.2779
 1067W        W 3217  16.633   6.355  34.958  0.1591  0.1007  0.0492
 1068W        W 3218  23.656   0.828  32.744  0.1496 -0.1602  0.0972
 1069W        W 3219  15.539   5.195   4.523 -0.0782 -0.1566  0.0095
 1070W        W 3220  10.513   0.139  21.405  0.0047 -0.0513  0.1767
 1071W        W 3221  15.701   4.248  10.473  0.0878  0.2211  0.1824
 1072W        W 3222  24.450   2.390  13.781  0.2545  0.0752  0.0092
 1073W        W 3223  10.400   5.765  35.413 -0.1744 -0.2449 -0.2963
 1074W        W 3224   7.283   1.309  20.587  0.1920 -0.0579 -0.2291
 1075W        W 3225  23.127   0.298  27.760 -0.3147  0.2601  0.0479
 1076W        W 3226  17.494   4.449   0.562 -0.1300  0.3846  0.0472
 1077W        W 3227   7.942   1.942  27.435  0.1516  0.1718  0.0745
 1078W        W 3228  12.805   2.934  33.996 -0.2516  0.2040  0.0607
 1079W        W 3229  24.778   3.466  31.366  0.0146  0.0956 -0.3570
 1080W        W 3230  20.539   5.587   9.883  0.1420 -0.0703 -0.0981
 1081W        W 3231   5.401   1.121   2.894  0.1601 -0.1575  0.0094
 1082W        W 3232   8.799   2.021  27.612 -0.1748 -0.1776  0.1988
 1083W        W 3233   4.512   5.078  21.252  0.1596  0.1919  0.1100
 1084W        W 3234  12.903   1.402  10.372 -0.4342 -0.3149  0.4506
 1085W        W 3235  13.024   1.818   3.801  0.0802 -0.2259  0.1161
 1086W        W 3236  11.694   3.554  35.555  0.1122 -0.1091  0.0353
 1087W        W 3237  20.648   4.820   0.944 -0.1156  0.0107  0.2612
 1088W        W 3238  20.947   2.649  23.591 -0.3021 -0.1433  0.0551
 1089W        W 3239  14.706   6.443   8.308  0.0324 -0.0908 -0.0096
 1090W        W 3240  12.867   4.206  28.095 -0.0882 -0.1390 -0.0282
 1091W        W 3241   6.810   3.433   8.683 -0.0157  0.0583 -0.2145
 1092W        W 3242  17.263   6.120  13.779  0.0808  0.1033 -0.0070
 1093W        W 3243  24.400   0.927   1.588 -0.0485 -0.0421  0.1667
 1094W        W 3244  23.489   5.640  33.239  0.2272 -0.1083 -0.0728
 1095W        W 3245  15.179   2.233   8.875 -0.0013 -0.2415  0.1378
 1096W        W 3246   3.840   2.110  10.013 -0.0253 -0.0991  0.3510
 1097W        W 3247  22.288   3.489  24.745  0.1347  0.2981 -0.4527
 1098W        W 3248  16.532   5.771   0.131  0.3367 -0.0472  0.2448
 1099W        W 3249  22.151   5.715  14.930 -0.1967 -0.0615  0.3770
 1100W        W 3250  12.010   5.081  27.755 -0.0757 -0.2222  0.0244
 1101W        W 3251   0.210   3.185   0.379 -0.0856  0.0431 -0.0592
 1102W        W 3252  19.490   3.445  29.574  0.0593 -0.2791 -0.1044
 1103W        W 3253   2.324   5.914  25.229 -0.0320 -0.0305 -0.1511
 1104W        W 3254   6.859   2.080  26.723 -0.1924  0.2738 -0.1645
 1105W        W 3255  23.319   2.868   9.506  0.0622 -0.1454 -0.1387
 1106W        W 3256  14.511   2.751  25.859 -0.0112  0.0303 -0.0481
 1107W        W 3257  14.630   4.726  35.149 -0.4532  0.1108 -0.0408
 1108W        W 3258  14.064   1.327  21.791 -0.1815  0.0080  0.0510
 1109W        W 3259  14.369   5.382  13.924  0.1767 -0.0681  0.0513
 1110W        W 3260  18.214   0.455  27.034 -0.1022  0.0405  0.2003
 1111W        W 3261   4.153   3.586  13.588  0.2484 -0.0268  0.1887
 1112W        W 3262   1.035   1.364  21.080  0.0889 -0.1267 -0.3164
 1113W        W 3263   7.965   1.413   8.116  0.0762  0.0567 -0.1884
 1114W        W 3264  20.709   0.578  34.977  0.2628  0.3544 -0.0700
 1115W        W 3265  10.348   1.459  22.868 -0.2725  0.1997  0.1655
 1116W        W 3266  25.766   0.039   1.080  0.0279  0.1126 -0.0355
 1117W        W 3267  11.705   1.204  11.451 -0.0275  0.1914 -0.1141
 1118W        W 3268  25.544   1.510  21.151 -0.2593  0.3508  0.3269
 1119W        W 3269   9.354   3.996   5.965 -0.0506 -0.2129  0.2770
 1120W        W 3270  23.205   5.456  23.542 -0.1002 -0.1419  0.2703
 1121W        W 3271   9.804   2.892  25.660 -0.0957 -0.2349 -0.5312
 1122W        W 3272  22.542   3.449  27.697  0.2892 -0.0732 -0.2302
 1123W        W 3273  24.745   0.602   7.128  0.1171  0.1012 -0.0061
 1124W        W 3274   6.445   3.568   0.353  0.0309 -0.0162  0.0690
 1125W        W 3275   5.502   1.961  11.085  0.0011  0.1620  0.4243
 1126W        W 3276   2.711   2.495   8.921 -0.1827 -0.5155 -0.1611
 1127W        W 3277   0.968   2.816  22.058  0.1067  0.2314 -0.0613
 1128W        W 3278  16.655   5.145  12.959 -0.0223  0.0999  0.1274
 1129W        W 3279   1.215   4.507   5.002  0.1361 -0.2697 -0.2146
 1130W        W 3280   6.738   1.010  31.241  0.0992 -0.1106  0.0253
 1131W        W 3281  24.133   0.738   6.579 -0.0478 -0.2367  0.0185
 1132W        W 3282  12.786   6.238  28.148 -0.0488 -0.0007  0.0180
 1133W        W 3283  16.823   1.929  34.019  0.0294  0.0138  0.2445
 1134W        W 3284  13.566   6.209  26.873  0.0083  0.2818  0.0592
 1135W        W 3285   2.722   0.647  33.042  0.0597  0.0313  0.0259
 1136W        W 3286  20.441   6.076  20.684  0.0664  0.0233  0.1048
 1137W        W 3287   9.934   5.897  11.699  0.0646  0.0693 -0.0310
 1138W        W 3288  12.834   3.879  23.117  0.3621 -0.0785  0.0300
 1139W        W 3289   0.805   1.122  21.975  0.1606  0.3017 -0.2014
 1140W        W 3290  21.925   3.948   2.873 -0.0111  0.0739 -0.0056
 1141W        W 3291  16.051   1.008   6.678  0.4136  0.0345 -0.1515
 1142W        W 3292   2.856   6.074  28.067  0.1815  0.1348  0.1619
 1143W        W 3293  25.638   3.226  26.582 -0.0403  0.0344  0.0144
 1144W        W 3294  14.320   6.173  32.640  0.1885 -0.3088  0.3159
 1145W        W 3295  15.284   6.514  32.902  0.2340 -0.1338 -0.0019
 1146W        W 3296   5.064   5.634   6.028 -0.1716 -0.2096  0.1825
 1147W        W 3297   8.461   4.219  24.797  0.0115 -0.0486  0.1666
 1148W        W 3298   2.433   4.533  28.157 -0.0305 -0.0188  0.0618
 1149W        W 3299  23.767   4.974  35.846 -0.0950 -0.0051  0.4830
 1150W        W 3300   1.962   6.437   9.564 -0.1609 -0.0665  0.2468
 1151W        W 3301   3.276   1.303   5.865  0.0786  0.0030  0.0905
 1152W        W 3302   1.092   2.019  34.500  0.2684 -0.1527  0.0264
 1153W        W 3303   5.409   0.574   2.745 -0.0301 -0.0413  0.1100
 1154W        W 3304  22.988   3.375  27.366  0.1920  0.2228 -0.1850
 1155W        W 3305  18.255   3.363   7.555 -0.3028  0.1031 -0.0033
 1156W        W 3306   3.872   1.289  31.564  0.0325 -0.1291  0.1482
 1157W        W 3307  12.083   4.632  20.756 -0.1527  0.0280 -0.1065
 1158W        W 3308  22.552   6.033  35.358 -0.0910  0.0971 -0.2112
 1159W        W 3309  10.255   4.704  34.533  0.0829  0.1675  0.0526
 1160W        W 3310  18.849   3.669  22.886 -0.3775 -0.0081 -0.0250
 1161W        W 3311  26.312   3.194  34.367  0.1068 -0.2868  0.2231
 1162W        W 3312  14.896   3.562  24.889 -0.3800  0.0781  0.1322
 1163W        W 3313  24.280   1.573  21.683  0.0329 -0.0722 -0.3570
 1164W        W 3314  11.389   5.309   8.281 -0.0036  0.0150  0.2172
 1165W        W 3315  25.987   5.789   1.314 -0.2748  0.0437 -0.1565
 1166W        W 3316  20.558   0.736  36.079  0.0433 -0.0432  0.2837
 1167W        W 3317  12.023   5.366   3.255 -0.0163  0.0959 -0.0596
 1168W        W 3318   4.305   3.198   9.346  0.1520 -0.1663  0.3810
 1169W        W 3319  12.807   5.052   9.448 -0.2682 -0.0516 -0.1240
 1170W        W 3320   3.660   6.303   9.959 -0.1112 -0.0177 -0.0663
 1171W        W 3321   4.778   2.906   0.836 -0.2913 -0.2883 -0.1609
 1172W        W 3322  18.395   5.804  15.786  0.2238 -0.1205 -0.1320
 1173W        W 3323  19.854   2.867  31.246 -0.0040  0.0623  0.2888
 1174W        W 3324  17.617   3.679  14.072 -0.3693  0.1639  0.1354
 1175W        W 3325   1.462   2.265  34.192  0.3119  0.2086  0.0325
 1176W        W 3326  10.473   2.193  22.625 -0.2223  0.0228 -0.0350
 1177W        W 3327   5.106   6.510   7.848 -0.0864 -0.2732 -0.0700
 1178W        W 3328  23.173   4.618  32.017  0.2011  0.1544  0.2380
 1179W        W 3329  11.034   3.225  15.290  0.3047 -0.2038 -0.1946
 1180W        W 3330  17.399   6.592  22.461 -0.3757  0.0423 -0.0622
 1181W        W 3331  23.992   5.524  24.330 -0.1935  0.0150 -0.1988
 1182W        W 3332   0.353   2.636  27.072  0.2230  0.1209  0.0076
 1183W        W 3333   8.366   1.596  22.380 -0.1261  0.1408  0.0802
 1184W        W 3334  16.567   2.693   6.749 -0.1098 -0.0127  0.0474
 1185W        W 3335   3.996   3.055  27.886  0.0030 -0.0567  0.2845
 1186W        W 3336  22.997   0.875  31.852 -0.1380 -0.1971  0.1265
 1187W        W 3337  14.778   3.228   4.094 -0.0282 -0.0532 -0.0742
 1188W        W 3338  10.994   3.582  21.048 -0.1261  0.0097 -0.2330
 1189W        W 3339  23.987   3.943  14.718  0.0896  0.0032  0.0590
 1190W        W 3340   6.806   3.257  24.408 -0.0202  0.2216 -0.0002
 1191W        W 3341  19.115   1.405   5.430  0.1988 -0.5188 -0.0895
 1192W        W 3342  23.750   0.668  29.220  0.1461 -0.0414 -0.0047
 1193W        W 3343  26.007   5.235  30.198  0.1318 -0.1264  0.4715
 1194W        W 3344  16.162   1.225   2.478  0.1250 -0.0512 -0.1106
 1195W        W 3345   4.902   6.498  21.213 -0.1109 -0.1800  0.2259
 1196W        W 3346   4.776   2.967  35.087 -0.1259 -0.2217  0.1773
 1197W        W 3347  21.649   2.921  23.256 -0.1617  0.0184 -0.0422
 1198W        W 3348  17.053   6.570  15.339  0.1601  0.2931  0.0202
 1199W        W 3349  18.340   2.056  30.399 -0.0379  0.0651  0.1126
 1200W        W 3350  17.028   2.300  11.702 -0.4229 -0.0765  0.0913
 1201W        W 3351  25.499   2.268  31.173  0.1803 -0.1304  0.1311
 1202W        W 3352  15.886   3.959  28.013  0.0077 -0.1287 -0.1780
 1203W        W 3353   4.157   6.403  29.490 -0.0387  0.1186  0.2076
 1204W        W 3354  10.572   4.307   4.333 -0.0508  0.0055 -0.1529
 1205W        W 3355  12.729   0.005   3.884 -0.4431 -0.1274  0.1166
 1206W        W 3356   5.312   3.420  28.584 -0.0354 -0.0432 -0.1555
 1207W        W 3357  13.019   2.696  29.003 -0.0208  0.0686  0.1470
 1208W        W 3358  15.476   4.348   5.744 -0.2260 -0.2968 -0.1249
 1209W        W 3359  14.434   0.457  28.138  0.1088 -0.3116 -0.0548
 1210W        W 3360  22.978   1.922  25.800  0.0229  0.2576  0.1538
 1211W        W 3361   8.496   4.703  31.539  0.0543 -0.1029 -0.0346
 1212W        W 3362  14.761   5.688  23.682 -0.0544 -0.1101  0.1005
 1213W        W 3363   3.201   0.350  35.032 -0.1402 -0.1427  0.0760
 1214W        W 3364   0.095   4.815  10.098 -0.0735  0.0711  0.2511
 1215W        W 3365  11.924   5.137  34.646 -0.0553 -0.1537  0.1103
 1216W        W 3366   5.760   5.601   7.359 -0.1186 -0.0614  0.1140
 1217W        W 3367  13.409   6.116  22.999  0.2527 -0.3535 -0.0104
 1218W        W 3368  25.253   3.491  25.017  0.1004  0.3893  0.0530
 1219W        W 3369  19.954   1.904  34.944 -0.1276  0.1906  0.1128
 1220W        W 3370  12.610   0.934   3.562 -0.2865 -0.1804  0.1491
 1221W        W 3371  15.405   5.225   4.999  0.0789 -0.0106 -0.1629
 1222W        W 3372   4.673   3.937  31.506 -0.0557 -0.0957 -0.0012
 1223W        W 3373  23.546   3.894  21.041  0.2578 -0.1301  0.0377
 1224W        W 3374  18.091   5.057  22.020 -0.1505  0.1032 -0.2218
 1225W        W 3375  15.128   3.501  32.560  0.3233  0.1946 -0.2071
 1226W        W 3376  24.714   6.010  28.641 -0.1166 -0.0899  0.2046
 1227W        W 3377   6.863   0.897  29.613 -0.3384 -0.1146 -0.0523
 1228W        W 3378  10.920   0.255  33.054 -0.1434 -0.4389  0.1091
 1229W        W 3379   2.156   1.836   9.641 -0.2996  0.0155  0.0727
 1230W        W 3380  20.742   0.082   4.067 -0.0986  0.4233  0.1305
 1231W        W 3381  13.730   6.233  14.117  0.0281  0.0192 -0.0007
 1232W        W 3382  20.045   2.743   5.141 -0.0272  0.2303  0.1424
 1233W        W 3383  11.098   2.208  24.978  0.1476  0.3786 -0.1940
 1234W        W 3384  11.764   3.793  26.523  0.0419  0.1024 -0.1970
 1235W        W 3385   9.179   2.664  12.924 -0.1105  0.0514 -0.0990
 1236W        W 3386  18.241   4.680   6.594 -0.1954  0.1837  0.0979
 1237W        W 3387  21.431   1.932  21.676  0.2354 -0.2434 -0.0017
 1238W        W 3388  19.414   1.869  26.299  0.1208 -0.0216  0.0911
 1239W        W 3389  12.268   6.018   6.367 -0.3297  0.2576  0.0546
 1240W        W 3390   5.717   6.049   7.599  0.1763 -0.1933 -0.1015
 1241W        W 3391   6.369   3.192  20.372  0.1861  0.4573 -0.0974
 1242W        W 3392  14.923   1.738  10.433  0.2841  0.0035 -0.2993
 1243W        W 3393  10.348   2.319   0.958  0.1271  0.1755  0.2085
 1244W        W 3394  16.097   0.544  33.759  0.0371  0.0901  0.3739
 1245W        W 3395  26.417   5.885  30.228  0.0305 -0.1217  0.0462
 1246W        W 3396  22.417   2.478   6.984 -0.0958 -0.1560  0.0395
 1247W        W 3397   7.693   2.651  13.055  0.3011 -0.2711  0.0982
 1248W        W 3398  19.471   0.714   2.898  0.1721 -0.2875  0.1861
 1249W        W 3399  24.749   4.488   8.993  0.0257 -0.2240  0.1367
 1250W        W 3400  17.626   4.593   9.238 -0.3568 -0.2172 -0.1994
 1251W        W 3401   8.716   5.423   5.859 -0.0808 -0.0914 -0.1368
 1252W        W 3402  13.510   1.816  29.741  0.1823  0.1470  0.1505
 1253W        W 3403   4.728   2.455   3.997  0.0734 -0.0418 -0.1475
 1254W        W 3404   8.744   5.082  26.858 -0.0850 -0.2653  0.2235
 1255W        W 3405   6.494   6.514  22.202 -0.0999  0.1721  0.0939
 1256W        W 3406   9.876   3.257  27.525 -0.0840 -0.0813  0.1427
 1257W        W 3407   0.213   6.353  24.560 -0.0621 -0.1650  0.4055
 1258W        W 3408  16.086   1.556  34.387  0.2214 -0.1979  0.0701
 1259W        W 3409  17.152   3.694  21.620 -0.1497 -0.1349 -0.1236
 1260W        W 3410  25.582   5.321  31.379 -0.2573 -0.6358 -0.0469
 1261W        W 3411  25.733   2.646  29.842 -0.1221  0.2455 -0.0026
 1262W        W 3412  20.199   4.049   6.862 -0.1263  0.1422  0.0742
 1263W        W 3413  15.505   0.378   1.347  0.0055  0.3187  0.2805
 1264W        W 3414  14.447   6.318  14.033  0.2423 -0.0281  0.1522
 1265W        W 3415  23.274   5.290  29.111 -0.0739  0.1028 -0.1512
 1266W        W 3416  13.402   2.047  20.992 -0.1992 -0.1423  0.1209
 1267W        W 3417   5.644   2.702  31.851  0.0950 -0.1387 -0.0268
 1268W        W 3418  25.174   6.442  31.750  0.2109 -0.2840 -0.4121
 1269W        W 3419  23.064   4.459   5.836  0.2328  0.0554  0.1135
 1270W        W 3420  13.408   4.980  31.044  0.1551 -0.1637 -0.1043
 1271W        W 3421   7.787   3.417  30.536 -0.1614  0.2020  0.0189
 1272W        W 3422  14.904   4.787  34.122 -0.1625 -0.2258 -0.1843
 1273W        W 3423  10.997   1.498  25.400  0.0183 -0.3409  0.0788
 1274W        W 3424   2.551   0.001  14.939  0.1060  0.0282 -0.3072
 1275W        W 3425  24.731   2.308  22.807  0.1170  0.1168 -0.2591
 1276W        W 3426  10.523   3.996  23.836  0.4449 -0.1134 -0.2628
 1277W        W 3427  16.648   1.466  31.958  0.4255 -0.1589 -0.0623
 1278W        W 3428  22.973   4.285  34.312  0.4573 -0.0665 -0.0795
 1279W        W 3429  15.157   4.374  10.415 -0.1474 -0.1872 -0.1501
 1280W        W 3430  11.950   2.654  29.095  0.1053  0.3008  0.1952
 1281W        W 3431   6.552   4.179   6.996  0.2082  0.2110 -0.1327
 1282W        W 3432   3.090   4.524   0.818  0.0474 -0.2454  0.0214
 1283W        W 3433  11.570   0.661  21.060 -0.3307 -0.1019  0.1084
 1284W        W 3434  22.071   1.683  11.278  0.1254  0.0045  0.2117
 1285W        W 3435  22.995   1.513   0.929 -0.0396  0.0965 -0.1128
 1286W        W 3436  15.618   3.434  10.341 -0.2900 -0.0052  0.1174
 1287W        W 3437  25.960   1.667  20.885 -0.3265 -0.0625  0.1961
 1288W        W 3438  25.634   1.023  25.297 -0.1187  0.0714 -0.2039
 1289W        W 3439   6.112   5.250   5.924  0.1181 -0.0616  0.0798
 1290W        W 3440   6.026   4.669   5.363  0.0651  0.4713  0.2945
 1291W        W 3441   5.287   5.094  35.289 -0.2308  0.2558 -0.0677
 1292W        W 3442  18.653   5.166  32.891 -0.0884  0.0907  0.1933
 1293W        W 3443  26.207   6.082  24.511 -0.1233 -0.0666 -0.0596
 1294W        W 3444   6.728   4.667  35.098 -0.0560  0.1548 -0.0760
 1295W        W 3445  12.797   0.167  12.415  0.1032 -0.5372 -0.2009
 1296W        W 3446   5.879   5.166   5.513 -0.1932  0.1904 -0.0257
 1297W        W 3447   9.462   0.344   9.814 -0.3561  0.2210 -0.0993
 1298W        W 3448   4.775   2.964  31.545  0.0351  0.2774 -0.0223
 1299W        W 3449   9.400   6.547   4.900  0.1569  0.0512  0.1401
 1300W        W 3450  20.864   3.112  21.624  0.2853  0.0401  0.1951
 1301W        W 3451  11.203   5.673   0.644  0.1891  0.1034 -0.3265
 1302W        W 3452  16.158   5.975   7.529  0.2580  0.2353  0.2023
 1303W        W 3453  22.640   5.789   7.855  0.3128  0.0705 -0.0583
 1304W        W 3454  12.516   2.712   3.800  0.1110 -0.2401  0.1252
 1305W        W 3455   8.703   0.209  35.534  0.1310 -0.0071 -0.0783
 1306W        W 3456   3.942   2.959   7.260 -0.1594 -0.0074 -0.1994
 1307W        W 3457   9.898   5.543  23.868  0.1060 -0.0339 -0.2599
 1308W        W 3458  16.243   6.329   9.261 -0.2019 -0.0469  0.0620
 1309W        W 3459   2.783   2.673  24.625 -0.0317 -0.0253  0.2166
 1310W        W 3460   3.632   2.552  23.135 -0.2342  0.0650  0.1181
 1311W        W 3461  24.575   6.178  35.752 -0.0478  0.0859 -0.0079
 1312W        W 3462   3.624   4.552   1.713 -0.2518  0.2144 -0.2773
 1313W        W 3463   3.953   4.899   1.543 -0.0485 -0.1742  0.0381
 1314W        W 3464  15.676   4.194  24.375 -0.1725 -0.0457  0.0061
 1315W        W 3465   7.519   0.320  33.764 -0.0198 -0.2195  0.0410
 1316W        W 3466  14.577   0.188  11.391  0.1909  0.0492 -0.2723
 1317W        W 3467  22.940   2.832  24.920  0.1316 -0.0932  0.0406
 1318W        W 3468   7.688   0.147  34.809  0.0708  0.1096 -0.0889
 1319W        W 3469   1.856   1.472  35.443  0.0206 -0.1127  0.1238
 1320W        W 3470  22.440   3.595  25.245 -0.0710 -0.2073  0.3295
 1321W        W 3471   7.621   2.128  24.521  0.4178 -0.0277  0.3261
 1322W        W 3472  15.112   6.372  35.584 -0.2515  0.0383  0.3113
 1323W        W 3473   4.964   5.273  13.510  0.2437  0.6153  0.4823
 1324W        W 3474  11.062   5.173  26.264 -0.1627  0.1086 -0.4835
 1325W        W 3475   6.936   2.892  32.471  0.4069  0.0639  0.1200
 1326W        W 3476   1.630   2.933  24.037 -0.1149  0.1370  0.2152
 1327W        W 3477  10.102   3.594  32.367 -0.2832 -0.1114  0.2212
 1328W        W 3478   3.645   3.767  10.612 -0.0609 -0.2224 -0.2561
 1329W        W 3479  16.899   1.137  24.779  0.5205  0.0642 -0.3111
 1330W        W 3480  11.422   4.488  25.077 -0.2094  0.0227 -0.0673
 1331W        W 3481   2.728   3.451  10.108 -0.1542  0.0931 -0.0583
 1332W        W 3482  16.245   2.006  31.229  0.0096 -0.0154  0.0814
 1333W        W 3483   5.350   5.555  14.333 -0.2858 -0.0684 -0.0374
 1334W        W 3484  17.333   3.188  11.085 -0.0845 -0.1911  0.1816
 1335W        W 3485  22.247   0.362   6.682 -0.1161 -0.0497  0.0411
 1336W        W 3486  24.011   4.182   9.804 -0.2171  0.3296 -0.0917
 1337W        W 3487   1.716   0.967   8.112 -0.0215 -0.0579 -0.0217
 1338W        W 3488   0.107   2.781   6.057  0.0835  0.0668  0.0543
 1339W        W 3489   3.126   2.035  12.519  0.0139  0.0490 -0.0160
 1340W        W 3490  13.936   0.971   2.124 -0.2802  0.1015  0.1612
 1341W        W 3491   2.703   6.319   0.375  0.1940 -0.5046 -0.0922
 1342W        W 3492  17.655   0.062  11.134  0.2821 -0.0244  0.4438
 1343W        W 3493   8.102   5.589   5.305 -0.0739  0.0116 -0.2159
 1344W        W 3494  26.010   0.890  26.228  0.2763 -0.1241 -0.2567
 1345W        W 3495   5.274   4.294   1.431  0.0361  0.2459  0.0644
 1346W        W 3496  14.002   4.553  25.213  0.1584 -0.1640 -0.0833
 1347W        W 3497   8.746   4.184   4.674  0.1770 -0.0368 -0.0192
 1348W        W 3498  20.293   4.665   8.336  0.1264  0.0224 -0.0471
 1349W        W 3499   1.101   4.355  11.907  0.1900 -0.1196 -0.1474
 1350W        W 3500   7.945   6.111   0.436 -0.0107  0.2232 -0.1597
 1351W        W 3501  15.156   5.274   1.300  0.0713  0.2305 -0.0223
 1352W        W 3502  24.709   2.666   0.170  0.0028  0.2039  0.0600
 1353W        W 3503   4.380   2.634   5.239 -0.1668  0.2094  0.0879
 1354W        W 3504   1.251   4.555   5.532  0.1522  0.1306 -0.0841
 1355W        W 3505   1.219   1.246  13.353  0.0595  0.2985  0.2835
 1356W        W 3506  24.764   6.466   2.497  0.1832  0.1690  0.0350
 1357W        W 3507  13.900   1.952  34.310  0.2764  0.0056  0.0960
 1358W        W 3508  25.315   2.053   0.027  0.1774 -0.1095 -0.0333
 1359W        W 3509  14.425   3.833  26.532  0.1185 -0.0450 -0.2209
 1360W        W 3510   9.366   6.209  26.334  0.0755  0.1117 -0.1398
 1361W        W 3511  22.435   3.029  35.098 -0.3017  0.2993  0.2111
 1362W        W 3512  23.981   0.752  33.543  0.1144  0.0601  0.3582
 1363W        W 3513   2.151   5.931   6.304  0.1275  0.3367  0.2342
 1364W        W 3514   6.695   4.619  10.460  0.3915  0.1083 -0.0276
 1365W        W 3515   2.017   5.807   5.445 -0.1404 -0.1110  0.0009
 1366W        W 3516   2.530   0.621  10.069  0.0197 -0.2639  0.2097
 1367W        W 3517  24.177   3.375   8.447 -0.2427 -0.1491 -0.3119
 1368W        W 3518  17.718   6.271  28.132  0.1075 -0.1188 -0.0882
 1369W        W 3519  17.089   1.144  12.484  0.0307 -0.1232  0.3858
 1370W        W 3520  15.217   1.175  24.463 -0.2502  0.1528 -0.2183
 1371W        W 3521  19.214   2.798  13.969 -0.0073  0.3180  0.0929
 1372W        W 3522  18.502   5.965  12.963 -0.0969 -0.1304  0.3580
 1373W        W 3523  17.530   4.788  15.753  0.0417 -0.1693 -0.0475
 1374W        W 3524   3.951   0.568  33.145  0.1301  0.1078  0.0617
 1375W        W 3525  11.789   5.455  35.540  0.0591 -0.1162  0.0414
 1376W        W 3526  12.005   1.491  10.666 -0.0117 -0.0181 -0.3704
 1377W        W 3527  19.183   2.761   1.766 -0.1582  0.0822 -0.1270
 1378W        W 3528   7.689   1.130  11.358 -0.0609 -0.0594  0.0577
 1379W        W 3529   0.912   1.996   0.433  0.1559  0.0113 -0.0510
 1380W        W 3530  10.291   0.563  11.161  0.0259  0.3849  0.1322
 1381W        W 3531   5.366   1.619   7.137 -0.0561 -0.3564  0.0027
 1382W        W 3532  19.225   3.458  30.385 -0.1958 -0.3041  0.0546
 1383W        W 3533   0.449   4.669  36.049 -0.0908 -0.1027  0.3805
 1384W        W 3534   9.462   0.761  25.774  0.0931  0.0511  0.0831
 1385W        W 3535   0.921   2.499   6.498 -0.0009  0.1629 -0.0118
 1386W        W 3536  14.968   5.910  14.722 -0.0968  0.0775  0.0092
 1387W        W 3537  17.488   1.156  23.970  0.0192  0.2439 -0.1697
 1388W        W 3538  23.850   1.950  12.447 -0.1982 -0.0513 -0.2457
 1389W        W 3539  25.603   4.536  30.457 -0.3490  0.0008  0.2488
 1390W        W 3540  15.944   6.230  12.509  0.0217 -0.1071  0.1644
 1391W        W 3541  24.584   3.224  23.982 -0.0736  0.1051  0.0242
 1392W        W 3542   7.936   3.195   8.362  0.1213 -0.3626 -0.2333
 1393W        W 3543   4.829   2.489  22.956  0.1232  0.0056 -0.1947
 1394W        W 3544  14.016   3.140  21.775 -0.2822 -0.1922  0.1348
 1395W        W 3545  15.972   6.276   8.090 -0.1362 -0.1504  0.0114
 1396W        W 3546  12.787   6.321   1.227 -0.1801  0.1684  0.0550
 1397W        W 3547  12.263   3.692   6.134  0.0384 -0.0852  0.1150
 1398W        W 3548  21.993   5.220   7.371 -0.0888 -0.0252 -0.0742
 1399W        W 3549   3.953   0.479  30.335 -0.0764 -0.0967  0.0791
 1400W        W 3550  13.568   5.180   4.562 -0.2507 -0.0525  0.0900
 1401W        W 3551   5.084   4.165   9.321  0.0381 -0.0695  0.0793
 1402W        W 3552   2.380   3.025  11.494 -0.2452  0.3903  0.1117
 1403W        W 3553  15.181   6.584  13.896  0.2295 -0.0204  0.0527
 1404W        W 3554  17.908   2.113  26.466  0.1537  0.2520 -0.1438
 1405W        W 3555  23.482   1.717   9.018  0.1026 -0.0112  0.1161
 1406W        W 3556   2.563   2.363   0.071  0.2448 -0.0188 -0.1390
 1407W        W 3557  19.757   4.463  11.207  0.0433  0.2009  0.1855
 1408W        W 3558   2.168   5.105  30.521 -0.0425  0.1653  0.1584
 1409W        W 3559  22.295   2.344  10.833 -0.0277  0.0403 -0.1499
 1410W        W 3560  23.196   6.129   8.780  0.1670 -0.0194 -0.0856
 1411W        W 3561  18.195   2.193  12.806 -0.1935  0.3536  0.0839
 1412W        W 3562  15.797   4.214  11.050  0.2139  0.0215  0.0140
 1413W        W 3563   9.348   5.127  13.877 -0.1273  0.0657 -0.0159
 1414W        W 3564   2.768   3.512  24.846 -0.0923 -0.0800 -0.0306
 1415W        W 3565  19.777   0.845   7.125 -0.0249 -0.0490 -0.0170
 1416W        W 3566   8.936   4.083  13.784  0.1406 -0.4370  0.0255
 1417W        W 3567  25.658   0.142  34.405  0.1007  0.1975  0.1357
 1418W        W 3568  17.373   5.811  29.722 -0.0955 -0.2081  0.1471
 1419W        W 3569  23.674   3.438   8.526  0.1945 -0.3362 -0.1012
 1420W        W 3570  14.292   2.879  14.227  0.1138 -0.1242  0.0352
 1421W        W 3571  18.353   5.694  28.785  0.2360  0.0116 -0.1576
 1422W        W 3572   4.215   1.287  27.652  0.1410 -0.1196 -0.1913
 1423W        W 3573  19.198   3.580  12.259 -0.1772  0.1003 -0.1181
 1424W        W 3574  22.235   3.794  13.513  0.0769 -0.0608  0.0143
 1425W        W 3575   9.324   1.748  23.316 -0.2886 -0.0596  0.1233
 1426W        W 3576   8.840   0.471  11.343  0.0441  0.3855 -0.0297
 1427W        W 3577  13.009   2.867  20.684  0.0997 -0.2373  0.1144
 1428W        W 3578  15.266   4.324  27.848 -0.2987  0.0117 -0.4927
 1429W        W 3579   1.378   6.456  11.380 -0.2348 -0.0821  0.2051
 1430W        W 3580  10.166   0.440   7.091  0.1747 -0.0171  0.0149
 1431W        W 3581  10.319   3.016   2.150  0.0972 -0.0338 -0.3280
 1432W        W 3582  19.640   5.195   3.710  0.0364  0.2404  0.0319
 1433W        W 3583   8.958   4.213   0.697  0.0784 -0.0354  0.0504
 1434W        W 3584   9.142   5.347  28.819 -0.1341 -0.1277 -0.1422
 1435W        W 3585  23.390   2.154  26.974  0.0602  0.0754 -0.2458
 1436W        W 3586   6.438   5.566  32.742 -0.0494  0.1768 -0.0551
 1437W        W 3587   0.732   2.337  11.000 -0.1482  0.1405  0.0546
 1438W        W 3588   1.944   4.570  15.408  0.0275 -0.0070  0.3579
 1439W        W 3589  10.480   1.428  21.980 -0.3685 -0.0384  0.0141
 1440W        W 3590   0.987   0.512  10.286 -0.1607  0.0447 -0.1704
 1441W        W 3591  20.909   4.612  24.052  0.4025  0.1555 -0.3334
 1442W        W 3592   7.516   6.437  21.334 -0.0673  0.1620 -0.0053
 1443W        W 3593  14.947   3.028  34.983 -0.0749 -0.2690 -0.1124
 1444W        W 3594  12.894   6.069  30.213  0.1513 -0.0596  0.3912
 1445W        W 3595  18.458   1.886   9.183  0.1635 -0.3484 -0.1941
 1446W        W 3596  22.089   4.191  27.829 -0.1539  0.0586  0.3853
 1447W        W 3597   8.062   0.950   2.268 -0.0891 -0.0483 -0.1084
 1448W        W 3598  19.210   1.530  14.372  0.1111  0.1100 -0.0987
 1449W        W 3599  17.019   4.380  32.804 -0.0347  0.1216  0.0222
 1450W        W 3600   9.242   5.310  25.255  0.1030  0.0257 -0.0590
 1451W        W 3601   1.424   2.751  31.089 -0.2018  0.0795 -0.1987
 1452W        W 3602  18.192   5.835  26.436 -0.1466 -0.0205 -0.1223
 1453W        W 3603   4.268   1.146   2.372  0.1399 -0.2986  0.0391
 1454W        W 3604  21.779   6.085  33.377  0.0051 -0.2080 -0.0676
 1455W        W 3605   8.461   4.837  34.343  0.0471  0.0363  0.1373
 1456W        W 3606   8.599   3.307  14.492  0.3988 -0.0538 -0.0051
 1457W        W 3607  13.666   0.174  12.563 -0.0173 -0.2410 -0.2760
 1458W        W 3608  19.429   3.851  12.603 -0.2762 -0.1651 -0.0615
 1459W        W 3609   8.632   2.919  13.609 -0.3357 -0.0547  0.0716
 1460W        W 3610   0.064   2.810  29.287 -0.3173 -0.1097  0.0269
 1461W        W 3611  12.644   0.052   2.841  0.1307  0.0317  0.3833
 1462W        W 3612   9.127   1.865  21.889  0.0139 -0.3678  0.1179
 1463W        W 3613   5.228   4.145  30.127  0.0395 -0.2778  0.1190
 1464W        W 3614  23.603   4.168  28.786 -0.0111  0.0286  0.2286
 1465W        W 3615  14.776   0.804   9.232  0.2832  0.1235  0.2709
 1466W        W 3616  18.128   6.231  22.747 -0.0979 -0.0469 -0.0741
 1467W        W 3617   3.503   6.434   5.374  0.0643  0.1295 -0.3280
 1468W        W 3618   4.445   0.305  30.154  0.2071  0.0712 -0.3843
 1469W        W 3619   8.221   3.060  14.164  0.0827  0.0051 -0.1697
 1470W        W 3620   6.137   2.256  13.146  0.0131 -0.4123  0.0344
 1471W        W 3621  12.561   6.425  25.193  0.0417 -0.2432 -0.2071
 1472W        W 3622   6.144   3.048  28.277  0.0833  0.1247 -0.0299
 1473W        W 3623   1.587   2.475   7.001  0.0193  0.0752 -0.3682
 1474W        W 3624   0.693   3.253  10.146 -0.1143  0.1699  0.1122
 1475W        W 3625  22.176   2.580  29.373  0.0921 -0.0566 -0.3332
 1476W        W 3626   6.074   2.664  34.208  0.3477 -0.1232 -0.0047
 1477W        W 3627  22.641   5.688  28.356  0.0077  0.1820  0.1801
 1478W        W 3628  23.025   2.173  20.996 -0.2115  0.1210  0.0237
 1479W        W 3629  13.290   3.620   9.551 -0.1265  0.1192  0.3984
 1480W        W 3630  22.083   1.159   0.851 -0.1299  0.0577  0.0176
 1481W        W 3631  22.807   1.069  34.985  0.0622 -0.2368  0.4065
 1482W        W 3632  14.221   4.254  32.123 -0.2098 -0.0120  0.1080
 1483W        W 3633  21.627   4.829  12.512 -0.0564  0.1703 -0.1339
 1484W        W 3634  24.207   4.431  34.828 -0.2673  0.1686  0.1704
 1485W        W 3635  16.194   4.389  24.644  0.1407 -0.0070  0.0077
 1486W        W 3636   2.859   1.220  12.373  0.0934  0.1362  0.0223
 1487W        W 3637   2.421   0.496   8.695 -0.4074  0.0564 -0.2654
 1488W        W 3638   4.683   2.459  10.854  0.1525  0.0256  0.0486
 1489W        W 3639   3.888   2.050  24.588 -0.0693  0.1117  0.2209
 1490W        W 3640   4.342   5.513   4.882  0.2039  0.0808 -0.3056
 1491W        W 3641  12.249   6.262   5.942 -0.1048 -0.3235  0.0025
 1492W        W 3642  16.962   5.461  25.065 -0.0195 -0.1521  0.1952
 1493W        W 3643  21.550   3.763  20.776 -0.1247 -0.0771  0.1999
 1494W        W 3644  17.391   6.072  24.052 -0.0412 -0.0251  0.0380
 1495W        W 3645  14.122   4.079  25.072  0.0150 -0.0621 -0.1958
 1496W        W 3646   8.980   4.054  25.951 -0.2372 -0.3124 -0.0713
 1497W        W 3647   4.412   1.917   9.094  0.0311 -0.0394 -0.0991
 1498W        W 3648  13.957   2.264  30.866  0.0175 -0.0100 -0.1636
 1499W        W 3649  11.847   5.967  25.235 -0.1313 -0.0489 -0.4844
 1500W        W 3650   9.371   1.534  13.166  0.2354  0.1348  0.0239
 1501W        W 3651   0.587   3.235  12.923  0.0340  0.3405  0.1387
 1502W        W 3652   5.290   0.221  20.933 -0.2689 -0.0149 -0.0458
 1503W        W 3653   4.503   3.677  26.266 -0.0464 -0.1504 -0.1352
 1504W        W 3654  23.187   4.554  23.716  0.0800  0.1378  0.0823
 1505W        W 3655  11.950   1.942   5.818  0.0673 -0.0544 -0.1099
 1506W        W 3656  23.825   1.708  21.477 -0.1195 -0.0701  0.0100
 1507W        W 3657  11.675   3.729   8.695  0.0655  0.0221  0.1244
 1508W        W 3658  25.619   5.630  14.243 -0.0866  0.1822  0.0237
 1509W        W 3659   1.085   5.824  15.011 -0.3499 -0.2041 -0.1590
 1510W        W 3660  25.206   2.859   2.185 -0.1689  0.2332  0.2069
 1511W        W 3661  24.315   6.250   5.993  0.1837 -0.3184  0.0462
 1512W        W 3662   2.745   5.035   0.210  0.2664 -0.0878 -0.0714
 1513W        W 3663   0.291   3.442  30.805 -0.2513 -0.2411 -0.1334
 1514W        W 3664  16.931   5.689  21.232 -0.0007 -0.0483 -0.2747
 1515W        W 3665  15.041   4.784  24.381  0.1163 -0.2143  0.0705
 1516W        W 3666   1.985   5.159  12.411 -0.0262 -0.2277  0.0822
 1517W        W 3667   5.418   2.839  20.474  0.0306 -0.2216  0.0196
 1518W        W 3668  24.556   2.443  21.638  0.0993  0.0438 -0.0844
 1519W        W 3669   9.674   1.341  26.051 -0.2869  0.1911 -0.0620
 1520W        W 3670   2.960   0.042  23.278 -0.0636  0.0173  0.1052
 1521W        W 3671  17.023   4.385  22.178 -0.2254 -0.1752  0.2769
 1522W        W 3672  11.252   3.228  14.334  0.2512  0.1640  0.1339
 1523W        W 3673  25.202   0.721  30.485  0.0848  0.0309  0.0808
 1524W        W 3674   7.037   2.564  25.102 -0.0589  0.0779 -0.0156
 1525W        W 3675   9.716   4.115   8.958  0.0361 -0.0617  0.0934
 1526W        W 3676  16.433   5.861  24.931 -0.0348 -0.2422 -0.0592
 1527W        W 3677  16.254   4.238   8.465 -0.1881  0.0126  0.1085
 1528W        W 3678  24.913   1.876  24.449  0.0544  0.1079 -0.1008
 1529W        W 3679   8.712   1.142  21.480 -0.1919 -0.1512 -0.3231
 1530W        W 3680  20.685   2.365  33.218  0.2106 -0.1391 -0.2853
 1531W        W 3681   6.671   1.089  10.666  0.0094 -0.2963 -0.1512
 1532W        W 3682  10.162   5.515  31.072  0.2173 -0.0623 -0.1629
 1533W        W 3683  15.118   5.363   3.498  0.2531  0.2682  0.0141
 1534W        W 3684  12.784   0.775  12.863  0.2854 -0.1149  0.4488
 1535W        W 3685  22.314   4.377  13.455  0.1019 -0.1172  0.0642
 1536W        W 3686  14.337   1.091   3.996  0.0601  0.0257 -0.0797
 1537W        W 3687   5.640   4.936  25.889 -0.3295 -0.0367  0.2246
 1538W        W 3688  22.982   0.765  23.708 -0.2653  0.2864  0.0068
 1539W        W 3689  24.145   1.796  27.639 -0.0142  0.1319 -0.0068
 1540W        W 3690  10.774   2.756   4.641  0.1703  0.0770  0.1927
 1541W        W 3691  12.853   3.643  16.194  0.1039 -0.0566 -0.1326
 1542W        W 3692   1.423   1.348   8.258  0.0781 -0.0283 -0.0136
 1543W        W 3693  14.292   0.122  29.950  0.1086 -0.2365  0.4666
 1544W        W 3694  16.239   4.524  12.841  0.1397 -0.0862 -0.2022
 1545W        W 3695  20.121   2.066  32.572  0.1378  0.0751  0.2938
 1546W        W 3696  22.195   1.199  11.277 -0.1022 -0.0268 -0.0505
 1547W        W 3697  20.918   1.741  13.542  0.1382  0.1931  0.1413
 1548W        W 3698  15.018   0.304  15.598 -0.1794  0.0616 -0.1197
 1549W        W 3699  19.279   0.642  30.265  0.1724  0.0302  0.1134
 1550W        W 3700   6.369   4.503  30.370  0.1214  0.1092 -0.1181
 1551W        W 3701  15.673   1.185  10.197 -0.3066 -0.0955 -0.1942
 1552W        W 3702   9.199   4.286  10.897 -0.1897 -0.2339 -0.1336
 1553W        W 3703  10.691   5.408  12.287  0.1194  0.1156 -0.0350
 1554W        W 3704  10.025   0.246   6.141  0.1854 -0.2465  0.1769
 1555W        W 3705  16.561   2.101  35.328 -0.1749  0.0007  0.0094
 1556W        W 3706  24.380   6.015  33.487  0.0330 -0.1368 -0.0230
 1557W        W 3707  21.300   4.109   3.947  0.0229 -0.0580 -0.1435
 1558W        W 3708  20.919   3.964  22.020  0.1625 -0.0108  0.2370
 1559W        W 3709  16.518   0.430  12.609 -0.0635 -0.0429 -0.0388
 1560W        W 3710  11.114   0.720   4.611 -0.1343  0.1844  0.1263
 1561W        W 3711   7.768   0.615   4.030  0.1939  0.3401 -0.1681
 1562W        W 3712   9.903   3.838  10.308  0.2372 -0.0221  0.0231
 1563W        W 3713  16.887   5.181  15.389 -0.2914 -0.1112  0.0512
 1564W        W 3714  23.779   4.870  21.140 -0.0711  0.2595 -0.0198
 1565W        W 3715  15.461   5.586  10.201 -0.0320 -0.4110 -0.2545
 1566W        W 3716  11.646   2.334  21.398  0.0928 -0.3007 -0.0596
 1567W        W 3717  16.809   0.178   5.084 -0.1477  0.1086  0.0915
 1568W        W 3718  17.403   1.685  28.850 -0.1875  0.0334 -0.0614
 1569W        W 3719  19.975   1.587  13.273  0.0332  0.2312  0.0605
 1570W        W 3720  13.254   5.759  34.308 -0.2330  0.1060  0.2483
 1571W        W 3721   9.269   2.397  20.337 -0.2673  0.2493  0.1126
 1572W        W 3722  25.902   5.975  25.858  0.0861 -0.1906 -0.1496
 1573W        W 3723   8.472   3.003  33.336 -0.2127  0.4343  0.0723
 1574W        W 3724   3.030   5.987   2.393  0.2923 -0.1557  0.1298
 1575W        W 3725   6.060   6.600  15.086  0.3786 -0.0143 -0.1278
 1576W        W 3726  25.241   3.172  24.653 -0.1520 -0.0160  0.1139
 1577W        W 3727  13.560   2.783   0.985 -0.0017 -0.2638  0.0416
 1578W        W 3728  17.422   6.192  25.012 -0.0247  0.0151  0.0925
 1579W        W 3729  13.746   0.010   5.230  0.3041  0.2060 -0.0606
 1580W        W 3730  17.100   5.184  31.454  0.1118 -0.2103  0.3768
 1581W        W 3731   7.671   5.907  12.265  0.2034  0.0410 -0.2325
 1582W        W 3732  13.303   3.695  34.872 -0.1349  0.1079  0.1847
 1583W        W 3733   5.231   4.667   9.994 -0.1907 -0.0533 -0.0444
 1584W        W 3734  15.625   1.103  25.921 -0.1802 -0.1933 -0.1009
 1585W        W 3735   5.584   1.149  33.663 -0.0725  0.0382  0.0220
 1586W        W 3736  13.413   0.372  33.586 -0.0380  0.0844  0.2970
 1587W        W 3737  12.872   5.471  25.140  0.2001 -0.0101  0.1484
 1588W        W 3738  21.796   0.245   8.321  0.1769  0.1991  0.0092
 1589W        W 3739   5.271   2.414  29.978 -0.0589  0.1684  0.2350
 1590W        W 3740  13.263   4.110  12.112  0.0279 -0.0953 -0.0576
 1591W        W 3741  16.245   5.711  29.441  0.0385 -0.0116 -0.0460
 1592W        W 3742  22.964   0.880  13.403 -0.0969  0.1990  0.0329
 1593W        W 3743   8.819   6.379  30.173 -0.0119  0.2505 -0.1317
 1594W        W 3744   1.406   1.870   0.364  0.0179  0.0886  0.0351
 1595W        W 3745  20.229   1.855  14.669 -0.1311  0.0677  0.1136
 1596W        W 3746  19.893   2.415  31.976 -0.0832  0.0588  0.2564
 1597W        W 3747  19.320   3.250   1.826  0.1189  0.2508 -0.0900
 1598W        W 3748  22.688   2.962  33.230  0.0179  0.1380  0.1317
 1599W        W 3749   6.403   0.041   6.055  0.0802 -0.0705  0.2122
 1600W        W 3750   6.392   5.091  12.053 -0.0804  0.0037  0.2577
 1601W        W 3751  23.453   4.838  23.979  0.2952 -0.0559  0.0309
 1602W        W 3752  19.963   2.326  22.206 -0.0471  0.1024  0.2530
 1603W        W 3753  23.655   2.579  26.945 -0.1746  0.1678 -0.1763
 1604W        W 3754  16.205   4.875  31.616 -0.1918  0.0118 -0.0133
 1605W        W 3755  19.088   5.232   2.096  0.2618  0.2088 -0.1889
 1606W        W 3756  11.888   5.925   6.032  0.0120  0.2765 -0.0123
 1607W        W 3757   6.371   2.990   7.250 -0.0392  0.1602 -0.1902
 1608W        W 3758   7.288   2.202  23.605  0.2447 -0.0805 -0.0035
 1609W        W 3759   8.720   4.557  27.230 -0.0801 -0.0293  0.0802
 1610W        W 3760   0.121   1.381   1.744  0.0964 -0.0301  0.0886
 1611W        W 3761   7.384   2.948  20.912 -0.1709  0.3309  0.3374
 1612W        W 3762  15.325   0.505   3.273 -0.0385 -0.0446  0.0082
 1613W        W 3763  23.895   1.397   9.001 -0.1881 -0.1766 -0.1358
 1614W        W 3764   4.721   2.823  11.221 -0.2199  0.0894 -0.1697
 1615W        W 3765  11.304   5.247   2.579 -0.0649  0.3566  0.1368
 1616W        W 3766   0.478   5.144  34.644  0.1652  0.2917 -0.1655
 1617W        W 3767   8.868   1.994  11.011 -0.5816 -0.0775 -0.2094
 1618W        W 3768   2.752   4.236   1.523 -0.0461  0.4700  0.1751
 1619W        W 3769  17.796   5.345   8.302  0.1343 -0.2221  0.0122
 1620W        W 3770  18.542   4.468  22.990  0.1928  0.0978 -0.1455
 1621W        W 3771  24.016   3.271   4.926 -0.0713  0.1344  0.1347
 1622W        W 3772  22.828   0.554  33.398 -0.0099  0.0652 -0.0083
 1623W        W 3773  18.360   4.484  35.810 -0.0899  0.0199  0.2903
 1624W        W 3774   6.084   6.490  22.971  0.2294 -0.1097  0.2443
 1625W        W 3775  12.350   5.560   6.787 -0.1476 -0.4011 -0.1879
 1626W        W 3776  15.292   0.664  21.222  0.1089 -0.2552  0.0898
 1627W        W 3777  14.963   2.393  23.280  0.1114  0.0683  0.2070
 1628W        W 3778  12.816   0.876  15.205  0.0301 -0.2551 -0.0827
 1629W        W 3779   7.444   2.683   2.336 -0.0054  0.3388  0.1560
 1630W        W 3780   8.316   2.068  22.173 -0.2640 -0.0978 -0.1388
 1631W        W 3781  21.517   0.879   6.224 -0.2890 -0.0109 -0.1762
 1632W        W 3782  25.498   0.904   9.397  0.1230  0.1071  0.2946
 1633W        W 3783  21.944   4.445   0.025 -0.0415 -0.1146 -0.0941
 1634W        W 3784   2.434   6.433   5.393 -0.2058  0.0729  0.0217
 1635W        W 3785  16.255   6.001  26.931 -0.2202  0.0944 -0.1799
 1636W        W 3786  13.735   4.901  32.399 -0.1371  0.0134  0.1607
 1637W        W 3787  19.537   2.142   7.087  0.1798 -0.2440 -0.3180
 1638W        W 3788  22.957   6.342  23.745  0.1712 -0.0764 -0.2590
 1639W        W 3789  22.791   4.282   0.945 -0.2176  0.0664 -0.0253
 1640W        W 3790  14.683   3.148   2.000  0.3989  0.0380 -0.1591
 1641W        W 3791  25.926   3.336   7.485 -0.2582 -0.2958 -0.0847
 1642W        W 3792  13.982   1.543  10.656  0.0387  0.0327 -0.1392
 1643W        W 3793   1.932   4.898  30.101  0.2635  0.2391 -0.0356
 1644W        W 3794   5.605   6.288  26.839 -0.2639  0.0520 -0.1702
 1645W        W 3795  21.373   1.061  21.820  0.0930  0.0727  0.1811
 1646W        W 3796  17.821   2.517   9.675 -0.1484 -0.2691  0.5540
 1647W        W 3797   7.926   6.248  31.639 -0.1981 -0.0458 -0.0404
 1648W        W 3798   1.642   6.526  12.294 -0.1743 -0.0599  0.0403
 1649W        W 3799   6.138   5.898  14.795  0.0881  0.1635 -0.0083
 1650W        W 3800  25.585   2.954   1.704 -0.1897  0.4220  0.2379
 1651W        W 3801  17.765   2.683  25.693 -0.0274 -0.0640  0.0387
 1652W        W 3802   3.787   5.885   6.530 -0.1782 -0.1304  0.0155
 1653W        W 3803  11.083   4.107   1.620 -0.1718  0.1654  0.0018
 1654W        W 3804  24.126   4.152  13.841 -0.0777  0.0052  0.3370
 1655W        W 3805  12.524   4.851  23.657 -0.1233  0.1573 -0.0607
 1656W        W 3806  22.139   0.272  23.284 -0.3036 -0.2211 -0.2562
 1657W        W 3807   1.377   4.111  30.101 -0.0106 -0.1336  0.3684
 1658W        W 3808   4.111   5.376   9.916  0.1570 -0.2204 -0.3064
 1659W        W 3809  25.388   2.278   1.172 -0.1534  0.0570  0.2701
 1660W        W 3810  14.985   4.009   4.447 -0.3963 -0.1256 -0.0137
 1661W        W 3811  12.994   1.436  35.888  0.1895 -0.1513  0.1609
 1662W        W 3812   7.608   3.025  28.055  0.0220 -0.1664  0.0353
 1663W        W 3813   3.820   1.630  13.206  0.4480  0.1767 -0.2185
 1664W        W 3814   4.621   2.597  26.166  0.2205 -0.3428  0.1150
 1665W        W 3815  23.430   3.130  22.536  0.0462 -0.0230 -0.0157
 1666W        W 3816  14.733   5.099  21.088  0.0541 -0.0711  0.0165
 1667W        W 3817   6.554   4.633   2.673  0.0302 -0.0036 -0.1013
 1668W        W 3818  19.113   2.069  14.129  0.2484  0.1686  0.2087
 1669W        W 3819   0.321   6.571  31.074 -0.1311 -0.2768 -0.0802
 1670W        W 3820  18.498   3.634  28.868  0.1396 -0.1024  0.0343
 1671W        W 3821  25.228   1.377  23.595  0.0375 -0.0921  0.0900
 1672W        W 3822   5.347   5.416   6.368  0.4233 -0.0928  0.2433
 1673W        W 3823   5.681   4.490  35.918  0.0925  0.0822 -0.0879
 1674W        W 3824  11.548   0.283  11.948 -0.2262 -0.1060 -0.1609
 1675W        W 3825  26.357   0.241  27.042  0.0515 -0.0691 -0.1768
 1676W        W 3826   5.079   4.927  31.803 -0.1608  0.1247  0.4728
 1677W        W 3827   1.634   6.241  20.088 -0.0208  0.2184 -0.0521
 1678W        W 3828  24.092   5.896  20.929 -0.2959 -0.0532 -0.2350
 1679W        W 3829  11.195   1.128   5.513 -0.0586 -0.1355 -0.0360
 1680W        W 3830   1.073   2.875   2.192 -0.0230 -0.4178 -0.0454
 1681W        W 3831   7.345   5.114  12.219 -0.2252 -0.0566 -0.1522
 1682W        W 3832   5.389   2.465  28.629 -0.1503 -0.0351 -0.1083
 1683W        W 3833  18.967   4.132  15.280 -0.0998 -0.0759  0.3587
 1684W        W 3834  12.918   2.539   6.837  0.2816  0.0416  0.0560
 1685W        W 3835  24.040   2.787   1.923  0.0012  0.1386  0.4612
 1686W        W 3836  22.594   3.005  30.662  0.0664  0.2526 -0.0745
 1687W        W 3837  15.326   3.265  28.625  0.2878  0.0032  0.1446
 1688W        W 3838  25.263   3.968  10.451  0.0449  0.0799  0.0139
 1689W        W 3839  18.791   4.995   9.256 -0.0327 -0.1619  0.1561
 1690W        W 3840  19.424   1.051   5.699 -0.0463 -0.0876  0.1585
 1691W        W 3841   1.933   5.356  31.120  0.2898  0.1622 -0.0900
 1692W        W 3842  17.970   6.261  28.665 -0.1975 -0.0964 -0.0152
 1693W        W 3843   9.208   6.501   5.698  0.1523 -0.2398  0.1998
 1694W        W 3844  21.672   2.856  21.346 -0.1699 -0.2345 -0.0710
 1695W        W 3845  26.301   6.563   4.000 -0.0013  0.1205  0.1333
 1696W        W 3846   2.751   0.065   8.600 -0.0932 -0.2124  0.2848
 1697W        W 3847  14.316   6.172  25.579  0.0248 -0.1541  0.0210
 1698W        W 3848  10.321   1.010   3.125  0.0087 -0.0347  0.1516
 1699W        W 3849  10.827   5.152   2.705  0.2092  0.1141  0.4608
 1700W        W 3850  16.028   3.461  23.539 -0.1811 -0.0220  0.1409
 1701W        W 3851   1.444   5.056  21.882  0.5083  0.2342 -0.2221
 1702W        W 3852   0.527   1.038  32.503 -0.2585 -0.2125  0.0174
 1703W        W 3853  11.691   0.301  30.223 -0.2710 -0.0668  0.0669
 1704W        W 3854  20.736   1.905  12.075  0.1456 -0.1669  0.3578
 1705W        W 3855  20.071   4.306  29.009 -0.0650  0.2777  0.3701
 1706W        W 3856  10.777   1.977  25.243  0.1858  0.1795  0.2638
 1707W        W 3857  11.871   5.519   6.834 -0.1191 -0.0888 -0.0891
 1708W        W 3858  13.525   5.028   6.406  0.0405  0.0072  0.0006
 1709W        W 3859   5.102   0.849  20.893  0.0289  0.0660 -0.2163
 1710W        W 3860  16.456   2.078   6.886  0.1253 -0.0589 -0.0077
 1711W        W 3861  25.648   5.327  14.957 -0.1587 -0.0324  0.1279
 1712W        W 3862   6.097   4.680   3.690  0.0714  0.2342  0.1202
 1713W        W 3863  20.171   0.763   3.946  0.2521 -0.0199  0.1944
 1714W        W 3864   4.261   3.508  23.673  0.0373  0.0575  0.2393
 1715W        W 3865   8.875   5.068   8.134 -0.0358  0.2793 -0.2324
 1716W        W 3866   0.286   1.046  27.858  0.2914  0.0788  0.0998
 1717W        W 3867  11.601   3.337  26.287  0.0632 -0.1952 -0.5685
 1718W        W 3868   5.434   6.149  27.788  0.0218  0.1216 -0.1268
 1719W        W 3869   9.412   1.471   9.413  0.0322  0.1605 -0.0165
 1720W        W 3870   5.457   1.026  14.783  0.0548 -0.0806 -0.0339
 1721W        W 3871  17.176   2.746  30.074  0.3510 -0.1396 -0.1724
 1722W        W 3872  10.521   1.514  35.261  0.2623  0.3028 -0.0137
 1723W        W 3873  10.768   5.829  30.056  0.3394 -0.0619  0.0862
 1724W        W 3874  10.660   0.867  34.973  0.1635  0.3506 -0.0711
 1725W        W 3875   8.119   3.855  33.150  0.3331  0.2402 -0.1129
 1726W        W 3876  18.690   1.900  33.809  0.1688  0.2155  0.1709
 1727W        W 3877   1.703   3.872  26.452 -0.1635  0.3042  0.0543
 1728W        W 3878   2.399   2.282   6.389 -0.0538 -0.2393  0.1195
 1729W        W 3879  16.534   4.251  31.495 -0.1181 -0.0028  0.0359
 1730W        W 3880   0.950   3.012  28.866  0.1103  0.0122  0.1544
 1731W        W 3881  25.764   6.045   7.355  0.1194  0.0512 -0.3021
 1732W        W 3882  12.150   2.184  30.545 -0.2141  0.0467  0.1992
 1733W        W 3883  17.388   3.182  21.632  0.0082  0.0096  0.0363
 1734W        W 3884  22.237   0.672  15.154 -0.0915 -0.3346  0.1461
 1735W        W 3885  25.813   5.717  13.678  0.4179  0.0417 -0.4432
 1736W        W 3886   3.452   1.595   4.113  0.0100  0.1034  0.0387
 1737W        W 3887  17.663   3.413  12.392  0.2059  0.0468  0.2248
 1738W        W 3888  13.137   3.449   4.114 -0.0644  0.1180  0.0397
 1739W        W 3889   4.539   4.286  35.209 -0.0751 -0.0569 -0.1299
 1740W        W 3890   8.490   1.948  35.221  0.0659 -0.1780 -0.1273
 1741W        W 3891  24.935   5.999  28.178 -0.0381  0.0071  0.1205
 1742W        W 3892   2.551   4.498  13.041 -0.2896  0.4353 -0.0781
 1743W        W 3893  15.749   1.353   7.515  0.0991 -0.1636  0.2720
 1744W        W 3894  13.016   4.016  22.033 -0.3731 -0.2216  0.0662
 1745W        W 3895  25.514   3.641  24.595  0.3020  0.2791 -0.0140
 1746W        W 3896  19.417   3.793  30.017 -0.0949 -0.1137  0.0223
 1747W        W 3897  12.309   6.087  28.331 -0.2414 -0.2736 -0.3083
 1748W        W 3898  21.076   3.189   2.380 -0.0127 -0.2504  0.1979
 1749W        W 3899  12.257   3.199   9.878  0.2038  0.2408 -0.1467
 1750W        W 3900   4.682   2.227  14.586  0.1259  0.0535 -0.1242
 1751W        W 3901  26.025   4.409  30.723  0.0794 -0.0092  0.0586
 1752W        W 3902   2.980   2.164  14.379  0.1111 -0.0399  0.0863
 1753W        W 3903   3.928   3.342   0.583 -0.1156 -0.1496  0.0555
 1754W        W 3904  10.240   2.047   0.530  0.0617 -0.0927  0.0854
 1755W        W 3905  22.257   6.287   8.904  0.0508  0.1041 -0.4120
 1756W        W 3906  25.734   3.465   2.486  0.3374  0.2127 -0.0900
 1757W        W 3907   8.285   1.176  13.894  0.0571  0.0134  0.0980
 1758W        W 3908   3.527   5.327   9.884  0.1677  0.1695  0.0671
 1759W        W 3909  26.166   5.530  24.939 -0.1615 -0.2083 -0.0359
 1760W        W 3910  14.546   0.040  14.393 -0.1560 -0.2826 -0.2070
 1761W        W 3911   9.996   5.525  31.579  0.0720  0.2772  0.1533
 1762W        W 3912   2.320   0.841   1.546  0.0766  0.1171 -0.2645
 1763W        W 3913   0.566   0.235  33.544  0.0167  0.1172 -0.2956
 1764W        W 3914  13.659   1.578  21.068  0.1275 -0.1930 -0.1042
 1765W        W 3915  14.862   6.169  14.269  0.0774 -0.2559 -0.0064
 1766W        W 3916   7.949   2.871  31.431 -0.0733 -0.0975 -0.2111
 1767W        W 3917  10.017   0.404   8.955 -0.0771  0.1575 -0.2020
 1768W        W 3918  21.757   3.862   2.416 -0.4247 -0.2057  0.1518
 1769W        W 3919  22.160   5.843  11.589 -0.1238 -0.0596 -0.4264
 1770W        W 3920   8.840   2.362  35.485 -0.2084  0.0649  0.0015
 1771W        W 3921   6.783   5.043  28.431  0.0820 -0.3304 -0.1478
 1772W        W 3922  25.471   0.428  22.685  0.1514 -0.0014  0.2651
 1773W        W 3923   9.907   5.891  29.414 -0.2468  0.0029  0.2182
 1774W        W 3924   1.125   5.659  11.541 -0.0487  0.0446 -0.2925
 1775W        W 3925   5.870   0.956  20.853  0.2264 -0.3157  0.0735
 1776W        W 3926   3.999   0.676  25.397 -0.1803 -0.0222 -0.3533
 1777W        W 3927  12.219   5.785   8.795 -0.4829 -0.1311 -0.0349
 1778W        W 3928   7.895   6.175  21.641 -0.0096  0.1405 -0.0368
 1779W        W 3929   1.720   3.873  11.989  0.1231  0.3685 -0.2037
 1780W        W 3930   7.547   5.553  25.351  0.1288  0.1623 -0.0440
 1781W        W 3931   1.796   5.783  28.359 -0.1255  0.2013 -0.1582
 1782W        W 3932  10.903   1.517  29.783 -0.3104 -0.0297 -0.0742
 1783W        W 3933   5.210   5.767  34.179  0.1465  0.2305  0.4002
 1784W        W 3934  15.097   3.572  31.319  0.2814  0.0340  0.1295
 1785W        W 3935  23.200   6.195  22.848 -0.2897  0.2801 -0.2358
 1786W        W 3936  26.067   4.895  10.361  0.2855 -0.0433 -0.0471
 1787W        W 3937  13.573   4.746  24.102  0.0771  0.1533  0.0415
 1788W        W 3938  15.854   6.065   6.318 -0.1480 -0.3077  0.0607
 1789W        W 3939   6.765   0.603  13.255  0.1686 -0.1693  0.0837
 1790W        W 3940   2.995   1.035  23.556 -0.0141  0.1319 -0.1625
 1791W        W 3941  17.599   4.548  26.213  0.3164 -0.2677  0.2099
 1792W        W 3942  17.971   6.004  29.504 -0.4767 -0.2322  0.1843
 1793W        W 3943  18.768   5.518  28.713 -0.4190 -0.4031 -0.0924
 1794W        W 3944  14.947   2.614   5.722  0.0255 -0.0067 -0.1163
 1795W        W 3945   7.511   4.404  35.525 -0.0559 -0.1625  0.0499
 1796W        W 3946  22.767   4.923   0.350 -0.4038  0.1171 -0.2370
 1797W        W 3947   4.379   0.819   5.263 -0.0570  0.0788  0.0779
 1798W        W 3948   3.295   5.896  13.983  0.2792  0.1830  0.0831
 1799W        W 3949  17.932   5.017  15.569 -0.0042 -0.1390 -0.2126
 1800W        W 3950   5.831   3.600   8.243 -0.1249 -0.0874 -0.0450
 1801W        W 3951  15.136   4.391  33.210  0.1503  0.2654  0.0744
 1802W        W 3952  20.846   0.133  32.409  0.0840  0.1120  0.1670
 1803W        W 3953  10.756   2.260   4.598  0.1624 -0.1037 -0.0766
 1804W        W 3954  12.955   5.697  34.924 -0.0008  0.0630 -0.3210
 1805W        W 3955  21.652   3.618  27.568  0.0044  0.1865 -0.0643
 1806W        W 3956  25.726   1.909  35.794  0.2685 -0.0815  0.0168
 1807W        W 3957  24.471   3.113  23.266 -0.0702 -0.1230  0.1635
 1808W        W 3958  21.800   1.412  14.515  0.2286  0.0305  0.1492
 1809W        W 3959   5.167   5.535  34.729 -0.1459 -0.0692  0.1002
 1810W        W 3960  11.482   6.159  21.451 -0.1865 -0.2047  0.2643
 1811W        W 3961  24.397   3.096  12.891 -0.3274  0.0984 -0.3425
 1812W        W 3962  23.120   6.110  10.452  0.2429 -0.2697 -0.0705
 1813W        W 3963  20.304   4.820  13.814  0.1383 -0.2836  0.0281
 1814W        W 3964  15.292   0.201  25.745  0.3710  0.0715  0.0445
 1815W        W 3965  14.865   1.304   0.133  0.1887  0.1367  0.2228
 1816W        W 3966  24.321   3.391  30.341  0.0466 -0.1536 -0.0358
 1817W        W 3967   9.805   0.841  15.247  0.4201 -0.1271  0.0595
 1818W        W 3968   4.613   4.908   7.028  0.1247  0.1041 -0.1257
 1819W        W 3969   7.310   5.892  30.791  0.1475  0.2023 -0.1540
 1820W        W 3970   7.378   4.373  31.897 -0.1060  0.2125 -0.0806
 1821W        W 3971   4.763   3.526  34.130 -0.0620 -0.2606  0.1391
 1822W        W 3972  14.349   5.184  24.374  0.0798  0.0767 -0.0514
 1823W        W 3973  14.865   0.333   4.604  0.0459  0.0201  0.0726
 1824W        W 3974   2.525   6.196  13.604  0.4737 -0.1785  0.0689
 1825W        W 3975   9.065   1.119  30.317  0.0492  0.1800 -0.3941
 1826W        W 3976  17.639   3.004  30.923  0.1415  0.4410 -0.1155
 1827W        W 3977  21.502   4.995   6.535 -0.2736 -0.0495 -0.0032
 1828W        W 3978   5.170   2.270  35.013 -0.1105 -0.0726 -0.0594
 1829W        W 3979  22.144   2.131   3.946 -0.3896 -0.1301  0.1862
 1830W        W 3980  12.975   3.370   0.480  0.2550  0.0946  0.0094
 1831W        W 3981  26.009   5.796  24.045 -0.2543 -0.0168 -0.0074
 1832W        W 3982  21.081   4.077   2.164 -0.0353  0.2615 -0.0667
 1833W        W 3983  15.262   2.708  10.567  0.0126  0.1115 -0.0374
 1834W        W 3984  26.246   6.591  30.889  0.3829 -0.1436 -0.1288
 1835W        W 3985   1.118   3.512  29.217  0.0514 -0.1719  0.1304
 1836W        W 3986   0.168   0.039   5.861 -0.0740 -0.2437  0.3638
 1837W        W 3987  25.553   1.247   6.923 -0.2755 -0.0186  0.0918
 1838W        W 3988   6.365   3.273  26.398  0.2750 -0.4604 -0.1143
 1839W        W 3989   1.841   0.550  24.931 -0.3808 -0.0611 -0.2482
 1840W        W 3990  25.644   5.155   1.921  0.2243  0.0559  0.2670
 1841W        W 3991  11.402   4.526   4.318  0.0429  0.2890  0.0223
 1842W        W 3992  21.025   2.403   7.686  0.0425 -0.2135  0.1445
 1843W        W 3993  23.197   5.261  15.491  0.0394  0.1058  0.0789
 1844W        W 3994  16.375   0.419   4.821 -0.0865  0.2922 -0.0505
 1845W        W 3995  11.511   1.719   9.684 -0.0872  0.1668  0.1353
 1846W        W 3996  20.495   6.603   2.801  0.1871  0.1248 -0.2997
 1847W        W 3997  12.738   2.096  11.624 -0.1048 -0.0945 -0.0522
 1848W        W 3998  11.390   2.600   9.703  0.2632  0.1540 -0.1590
 1849W        W 3999   1.629   6.165  31.924  0.0797  0.4065 -0.2159
 1850W        W 4000   6.733   5.869  33.564  0.0397  0.2124  0.0963
 1851W        W 4001  15.168   5.166   3.989 -0.0413  0.0626  0.0936
 1852W        W 4002  10.361   1.825  28.473  0.3224  0.0680 -0.0301
 1853W        W 4003  24.337   0.691  25.043 -0.0910 -0.0344 -0.1943
 1854W        W 4004  10.790   3.896   0.186  0.0095 -0.0291 -0.1404
 1855W        W 4005  17.222   2.040   3.185  0.3821 -0.0677  0.1229
 1856W        W 4006   0.465   4.878  26.183  0.1266  0.2441 -0.3718
 1857W        W 4007  25.161   1.438   2.872  0.1961  0.1474 -0.0930
 1858W        W 4008   4.096   3.404  33.034 -0.0837  0.2525 -0.1862
 1859W        W 4009   3.039   2.285   8.623  0.1137 -0.1149  0.0989
 1860W        W 4010  12.669   1.132  10.010 -0.1527 -0.2602  0.0710
 1861W        W 4011   9.163   2.597  24.731  0.0496  0.0812  0.2559
 1862W        W 4012   2.310   6.081  25.758  0.0887 -0.2406  0.1950
 1863W        W 4013   3.616   1.699  21.267  0.1715 -0.1273 -0.0791
 1864W        W 4014  12.794   1.818  33.569 -0.1618  0.1934  0.1257
 1865W        W 4015   6.466   3.932  13.887  0.0223 -0.1305  0.1324
 1866W        W 4016  19.329   5.125  35.499 -0.1798  0.3332 -0.0676
 1867W        W 4017  17.118   5.278  22.860  0.2104  0.1073 -0.0768
 1868W        W 4018  16.730   1.140  27.199 -0.4413  0.0485 -0.0270
 1869W        W 4019   4.301   6.425  12.283 -0.0032 -0.0241  0.2587
 1870W        W 4020  16.638   2.300  34.266  0.2084 -0.1057 -0.2935
 1871W        W 4021  21.172   0.057   5.909 -0.3582  0.3340 -0.1907
 1872W        W 4022  13.588   5.834   4.870 -0.0037 -0.2587  0.0557
 1873W        W 4023  26.352   1.022   5.583 -0.2117  0.1186  0.1691
 1874W        W 4024  24.000   5.269  25.652  0.0254  0.2536  0.2602
 1875W        W 4025   4.673   4.350  23.858 -0.1903  0.1818 -0.0324
 1876W        W 4026  18.750   3.695   4.743  0.0479 -0.2134  0.0083
 1877W        W 4027  16.141   2.528   0.567  0.0319  0.3122 -0.1719
 1878W        W 4028  18.247   2.374  15.725 -0.1859 -0.1478  0.2319
 1879W        W 4029  20.075   2.618   0.646  0.2650  0.2589  0.0368
 1880W        W 4030  11.596   5.504  29.940  0.2695 -0.0528  0.0268
 1881W        W 4031   3.272   2.122  23.134  0.0406 -0.0243 -0.0771
 1882W        W 4032  25.028   6.138  34.162  0.0714 -0.0609 -0.0068
 1883W        W 4033   5.235   1.140   5.802 -0.3571  0.2275  0.1381
 1884W        W 4034   7.301   4.948  10.166 -0.4448  0.1563 -0.1415
 1885W        W 4035  23.168   6.513  28.196 -0.0697 -0.1760  0.2531
 1886W        W 4036  20.522   5.076  10.651 -0.3384 -0.1937 -0.0221
 1887W        W 4037  16.659   3.894  34.742  0.1245  0.1339  0.0538
 1888W        W 4038   3.174   6.042   4.700 -0.1204 -0.1681 -0.2316
 1889W        W 4039   9.263   2.283  29.383  0.0465 -0.2156 -0.0559
 1890W        W 4040   0.547   6.352  28.359  0.0855 -0.1788 -0.3390
 1891W        W 4041  14.673   1.134  25.928  0.1193  0.1705  0.0564
 1892W        W 4042  22.112   0.017   8.032  0.0493 -0.2359 -0.2501
 1893W        W 4043  13.554   4.677   9.250  0.1174 -0.2383 -0.0295
 1894W        W 4044   2.928   3.752  14.168 -0.0567  0.2271  0.3386
 1895W        W 4045   1.570   2.125  34.660  0.2984  0.0910 -0.0476
 1896W        W 4046  13.084   6.512  23.169 -0.0311 -0.0740  0.1309
 1897W        W 4047  13.676   2.335   0.745 -0.0118 -0.0179  0.0852
 1898W        W 4048   0.178   4.534  28.887  0.2982 -0.2061 -0.4310
 1899W        W 4049  17.487   4.679  10.318  0.1704  0.2046 -0.4039
 1900W        W 4050  19.144   3.354   7.514 -0.0032 -0.1034 -0.1738
 1901W        W 4051   7.017   4.074  23.221 -0.0505 -0.2822 -0.1442
 1902W        W 4052   7.610   5.813   3.829 -0.2438 -0.0029  0.1121
 1903W        W 4053   8.060   5.472   9.643 -0.0822 -0.1513 -0.3273
 1904W        W 4054  14.082   6.241  12.387 -0.2023  0.0069 -0.0478
 1905W        W 4055   1.776   4.218  32.445  0.1040 -0.4714  0.0739
 1906W        W 4056   4.756   1.474  21.813  0.1400 -0.1868 -0.1396
 1907W        W 4057   3.550   4.443  28.816  0.2620 -0.1028  0.0880
 1908W        W 4058   9.597   1.841  30.835 -0.2611  0.2963 -0.2082
 1909W        W 4059   9.823   2.825  15.326 -0.1052 -0.2340  0.1077
 1910W        W 4060  14.276   5.196   4.914 -0.2214  0.1557  0.1590
 1911W        W 4061  19.354   4.279  13.747 -0.1527  0.1031 -0.2241
 1912W        W 4062  16.315   2.323  24.876 -0.0306  0.0632  0.1071
 1913W        W 4063   1.238   2.514   7.435 -0.2448 -0.1752  0.1249
 1914W        W 4064  16.893   1.397   5.697 -0.2972 -0.1281 -0.0892
 1915W        W 4065  18.181   1.709   4.958  0.0254 -0.1010 -0.1440
 1916W        W 4066  11.556   4.695  22.599 -0.1924 -0.0342  0.0573
 1917W        W 4067  26.429   3.308  20.604  0.1328 -0.0333 -0.0452
 1918W        W 4068  23.479   5.953  28.437 -0.1750  0.0439 -0.0373
 1919W        W 4069  17.967   0.802  33.534 -0.1382  0.0557  0.0543
 1920W        W 4070   4.469   0.969  26.403 -0.1385  0.0472  0.0555
 1921W        W 4071  20.360   2.166  34.038  0.4492 -0.1635  0.3818
 1922W        W 4072   0.558   2.293   1.967  0.0622 -0.1755 -0.0312
 1923W        W 4073   4.210   1.563   2.747  0.0830  0.1257 -0.2658
 1924W        W 4074  24.971   3.731  13.717 -0.1735  0.3317 -0.0611
 1925W        W 4075  22.433   0.578  35.157 -0.0623  0.2597  0.1493
 1926W        W 4076   2.821   5.967  31.047  0.0495  0.0724 -0.2516
 1927W        W 4077  19.371   2.228   3.397  0.0472  0.2235  0.0615
 1928W        W 4078  25.338   4.404  24.151 -0.0882 -0.1132  0.2125
 1929W        W 4079  13.501   4.318  23.851 -0.5644  0.2272 -0.1790
 1930W        W 4080  14.741   2.885   4.462 -0.3116 -0.0343  0.1766
 1931W        W 4081   4.245   2.143  29.729 -0.1292 -0.0501 -0.1070
 1932W        W 4082   4.402   4.582   2.397  0.0150 -0.3341 -0.1988
 1933W        W 4083   2.341   1.384  32.890 -0.0339 -0.2136 -0.0272
 1934W        W 4084  14.940   4.365  35.389  0.1259  0.0196  0.1498
 1935W        W 4085  25.610   3.355  15.558 -0.0134 -0.0389 -0.1574
 1936W        W 4086   0.472   5.879   8.620  0.0019  0.0094  0.2286
 1937W        W 4087   5.157   4.892  21.521  0.1849 -0.0818 -0.1122
 1938W        W 4088   7.106   1.907  33.606  0.1190  0.0936 -0.0335
 1939W        W 4089  15.159   0.077  11.558  0.1669  0.1727 -0.1947
 1940W        W 4090  22.880   3.547  13.204  0.1569  0.6588 -0.1642
 1941W        W 4091  22.214   0.105  25.207  0.0101  0.1492 -0.0059
 1942W        W 4092  14.162   5.575  22.356  0.0466 -0.0744  0.1658
 1943W        W 4093   7.883   1.581   9.271 -0.2962 -0.0499 -0.0009
 1944W        W 4094   5.023   3.575   3.170 -0.0561 -0.1236  0.0195
 1945W        W 4095  20.366   3.116   0.925 -0.0118 -0.1659 -0.2192
 1946W        W 4096   0.895   0.765   3.409  0.2630  0.1882  0.3392
 1947W        W 4097  23.035   2.070  12.240  0.0579  0.0125 -0.0016
 1948W        W 4098  24.753   0.168   1.518  0.0792 -0.0432 -0.0977
 1949W        W 4099  13.632   5.573   8.235  0.0662  0.2170 -0.3607
 1950W        W 4100  11.292   5.075   9.614  0.0362 -0.0099  0.0397
 1951W        W 4101  14.495   1.588   6.535 -0.1787 -0.0014 -0.1342
 1952W        W 4102  12.297   5.789   7.229 -0.0632 -0.1531  0.0088
 1953W        W 4103   9.478   4.579  21.418 -0.0120  0.1221  0.0130
 1954W        W 4104   5.216   6.177   2.767 -0.2173  0.0953 -0.1077
 1955W        W 4105  10.274   5.899  29.801 -0.0681 -0.0172  0.2561
 1956W        W 4106   9.200   5.373   4.260 -0.0510  0.0729 -0.1352
 1957W        W 4107  16.558   0.678  24.835 -0.1752  0.1164 -0.5477
 1958W        W 4108  16.682   6.333  33.698 -0.4169 -0.0160  0.1398
 1959W        W 4109  24.146   4.787  14.470  0.0097  0.1306 -0.1347
 1960W        W 4110  25.528   1.171  14.664  0.0733  0.1120  0.0803
 1961W        W 4111  24.050   6.523  24.231  0.0814  0.1739 -0.2198
 1962W        W 4112   2.096   3.108   5.319  0.3331 -0.0196  0.2518
 1963W        W 4113  11.093   3.747  10.071 -0.0609 -0.0968 -0.3935
 1964W        W 4114  16.249   6.534  15.728 -0.1218  0.1211  0.1555
 1965W        W 4115  11.577   1.577  24.632  0.1756  0.0779 -0.4312
 1966W        W 4116  10.562   5.644   9.904  0.0701  0.0364  0.1484
 1967W        W 4117  22.987   5.821  34.686 -0.1161  0.0660  0.0200
 1968W        W 4118  10.656   0.700   7.245  0.1721 -0.0537  0.2296
 1969W        W 4119  24.844   0.021  24.779  0.1955 -0.0427 -0.0063
 1970W        W 4120   9.197   5.661  13.118  0.0451 -0.0720 -0.3214
 1971W        W 4121  22.410   1.614   2.248  0.0833  0.1202  0.2989
 1972W        W 4122  25.217   1.392  31.840  0.2913 -0.1478  0.1568
 1973W        W 4123  24.028   6.383   7.777 -0.1967 -0.2476  0.1149
 1974W        W 4124   5.448   4.835  21.105 -0.1736 -0.0276 -0.0817
 1975W        W 4125   6.098   4.374  23.415 -0.3657 -0.1195 -0.0779
 1976W        W 4126   1.789   3.171   0.316 -0.0050 -0.2460 -0.1255
 1977W        W 4127  10.516   1.207   0.982 -0.1097  0.1591  0.1083
 1978W        W 4128  10.978   4.112  12.211  0.3502  0.0955  0.2013
 1979W        W 4129  25.611   0.340   5.565 -0.0358  0.2840  0.2563
 1980W        W 4130  20.403   2.500  32.776 -0.1686 -0.2187 -0.1705
 1981W        W 4131   3.901   1.387  28.551  0.1985 -0.0644  0.2493
 1982W        W 4132  23.292   5.629  32.784 -0.1893 -0.0342  0.2345
 1983W        W 4133   4.306   6.285  30.746  0.0070 -0.0559 -0.0456
 1984W        W 4134   6.769   5.755   5.648 -0.3019  0.0564 -0.2581
 1985W        W 4135  10.744   0.748   3.177 -0.2152 -0.3274 -0.2226
 1986W        W 4136  10.748   2.118   0.642  0.3610  0.0687 -0.2168
 1987W        W 4137   3.131   4.734   0.006 -0.0837  0.2538 -0.1409
 1988W        W 4138  22.351   6.058  31.970  0.2914  0.0122  0.0308
 1989W        W 4139   1.204   0.370   1.195 -0.0214  0.1023 -0.0166
 1990W        W 4140  22.732   3.874  23.472 -0.2750  0.1477  0.2551
 1991W        W 4141  25.057   1.640   3.866 -0.3099  0.1392  0.3631
 1992W        W 4142  22.704   6.285  11.150  0.0708 -0.2496  0.0213
 1993W        W 4143  24.343   4.745  27.366  0.1460  0.5270  0.0218
 1994W        W 4144  21.696   3.124   3.041  0.0926 -0.1834 -0.0179
 1995W        W 4145   0.077   1.069  14.566 -0.1181 -0.2356 -0.1505
 1996W        W 4146  23.111   4.103  24.724  0.2572  0.0027  0.1801
 1997W        W 4147  11.926   1.081  16.008 -0.1383  0.0843  0.0041
 1998W        W 4148  23.690   5.486  10.348  0.1384 -0.0383 -0.0386
 1999W        W 4149  13.389   3.358  33.249  0.0550  0.3426  0.0913
 2000W        W 4150  20.352   1.515   5.768 -0.1196 -0.2672  0.2467
 2001W        W 4151  10.127   1.823  33.910  0.1302 -0.3163  0.0673
 2002W        W 4152   4.767   1.883  35.959 -0.0059  0.3084  0.1787
 2003W        W 4153  17.571   0.754  11.678  0.1034  0.1760  0.0146
 2004W        W 4154  24.440   2.476   5.002  0.2339  0.0398 -0.3631
 2005W        W 4155   0.808   2.991  34.541  0.1666  0.5026 -0.1034
 2006W        W 4156  20.863   6.517   3.582 -0.0744 -0.2880  0.1999
 2007W        W 4157  21.780   4.060  26.760  0.0948  0.0898 -0.2538
 2008W        W 4158  13.279   0.186   5.521 -0.0275 -0.0641  0.0048
 2009W        W 4159   6.995   2.486   0.109  0.0261 -0.1652 -0.0153
 2010W        W 4160  24.083   3.576  11.086  0.0080  0.0845  0.1892
 2011W        W 4161   3.400   1.175   2.130  0.1623 -0.1806  0.1946
 2012W        W 4162  15.414   2.564  29.329  0.2667 -0.0619  0.0220
 2013W        W 4163  22.744   3.072  13.897 -0.0870  0.1406  0.0539
 2014W        W 4164   8.679   3.854   9.489 -0.2917 -0.0526  0.0234
 2015W        W 4165  10.646   4.758  26.182  0.2073 -0.1937  0.0450
 2016W        W 4166  12.351   1.808  32.870  0.1029  0.0035  0.0060
 2017W        W 4167  25.950   6.070   0.316  0.2096  0.0398 -0.1061
 2018W        W 4168  11.818   2.196   7.809  0.1588  0.0163 -0.1369
 2019W        W 4169  21.769   4.357  13.650 -0.2404 -0.0301  0.1934
 2020W        W 4170  14.058   6.018   0.287  0.1489 -0.0785 -0.0682
 2021W        W 4171   4.925   1.825   1.453  0.0288  0.1596 -0.0467
 2022W        W 4172  19.875   3.051  24.659 -0.1138 -0.3704 -0.1729
 2023W        W 4173   2.094   0.627  29.480  0.0646 -0.0632 -0.0907
 2024W        W 4174   6.221   2.828  10.701  0.1587  0.4127 -0.2383
 2025W        W 4175   3.931   3.389  29.723 -0.0959 -0.0661  0.2637
 2026W        W 4176  24.022   5.041  20.750  0.0698  0.1725  0.4514
 2027W        W 4177  18.310   3.497   9.101  0.0588  0.1707  0.1062
 2028W        W 4178  22.481   0.033  24.723 -0.0438 -0.1138 -0.0237
 2029W        W 4179  20.485   0.485  32.176 -0.0088 -0.1402 -0.1092
 2030W        W 4180  12.736   4.211  24.905 -0.2343  0.0975 -0.2973
 2031W        W 4181  10.048   0.883   0.913  0.3030  0.2567  0.1366
 2032W        W 4182  20.612   4.791  14.650  0.5671 -0.0628 -0.2749
 2033W        W 4183  12.958   0.557  26.363  0.0417 -0.0335  0.0862
 2034W        W 4184  12.232   4.539   7.245 -0.0454 -0.0438  0.2834
 2035W        W 4185   8.863   4.894  29.629 -0.2999 -0.0729  0.0517
 2036W        W 4186   1.875   1.706  34.317 -0.2765 -0.0699 -0.1344
 2037W        W 4187  18.248   1.712   2.539  0.1439  0.0807  0.0226
 2038W        W 4188  14.196   5.606  10.202  0.0570  0.2217  0.2004
 2039W        W 4189  14.123   5.743   2.944 -0.0740  0.1096 -0.2534
 2040W        W 4190  21.188   0.259  22.273 -0.0697  0.0217 -0.4111
 2041W        W 4191   6.332   1.752  28.003 -0.1832 -0.1329 -0.0891
 2042W        W 4192   6.952   4.452  23.916  0.0122  0.1156 -0.0418
 2043W        W 4193   6.364   5.535  35.533  0.0166  0.0368  0.0536
 2044W        W 4194  13.632   2.407  33.516 -0.0320 -0.2461  0.0585
 2045W        W 4195   5.306   3.090  21.697  0.3815  0.0649  0.1872
 2046W        W 4196  21.639   1.469  32.848 -0.2674  0.0185  0.1817
 2047W        W 4197  20.850   5.031  30.880 -0.0639  0.3076  0.0463
 2048W        W 4198   5.887   3.206  10.667  0.2525 -0.3563  0.1970
 2049W        W 4199  20.071   3.181  10.633  0.0487 -0.2223 -0.4264
 2050W        W 4200  17.652   5.296   5.769  0.1907  0.0603  0.3001
 2051W        W 4201   8.849   3.292   5.700  0.0288  0.1675 -0.2148
 2052W        W 4202  10.446   1.263  27.396 -0.0094 -0.3543  0.2446
 2053W        W 4203   6.924   6.149  30.962  0.0251 -0.0633  0.0794
 2054W        W 4204  23.439   3.574  24.437  0.0433  0.0768  0.0557
 2055W        W 4205  22.983   3.369   5.762 -0.2042  0.0160 -0.1928
 2056W        W 4206   1.472   3.569  22.791 -0.2011 -0.0971 -0.3183
 2057W        W 4207   7.475   6.389  32.461  0.1186  0.1887  0.4436
 2058W        W 4208   4.788   6.136   3.044 -0.4136  0.3462 -0.1667
 2059W        W 4209  13.445   3.411   6.364 -0.0106 -0.1579  0.0079
 2060W        W 4210   3.062   0.641  29.586 -0.1395 -0.2887  0.1228
 2061W        W 4211  18.566   1.563   1.572  0.1485  0.2167  0.0733
 2062W        W 4212   8.638   5.530  23.007 -0.0129 -0.1218 -0.1311
 2063W        W 4213   3.006   0.796  32.572  0.0390  0.0586 -0.0196
 2064W        W 4214  25.743   0.764   7.851  0.0095 -0.0816 -0.0193
 2065W        W 4215   6.807   1.381   3.500  0.1469 -0.1278 -0.2219
 2066W        W 4216  13.148   5.939   0.600  0.0683 -0.2596  0.2659
 2067W        W 4217   9.306   1.116  21.393  0.2250  0.3582 -0.0087
 2068W        W 4218  10.744   2.809  13.966 -0.0199  0.1493 -0.0708
 2069W        W 4219  11.174   0.614  29.002 -0.0010 -0.3540 -0.0616
 2070W        W 4220   6.424   5.645   3.806  0.2290  0.2420 -0.0317
 2071W        W 4221   4.992   3.784   0.658 -0.2762 -0.0618 -0.0802
 2072W        W 4222   3.783   2.392  29.764 -0.2227  0.0380  0.1004
 2073W        W 4223  25.523   1.253   6.113 -0.0844 -0.2787  0.1065
 2074W        W 4224   7.582   3.608   0.535  0.0712  0.0541  0.2343
 2075W        W 4225   4.384   3.839  11.877  0.0248  0.1346 -0.1635
 2076W        W 4226  14.473   5.604  33.957 -0.1973 -0.2186  0.3677
 2077W        W 4227   0.281   1.619  32.070 -0.0082  0.1059 -0.0261
 2078W        W 4228   9.568   3.578  14.850 -0.1437 -0.4030 -0.0156
 2079W        W 4229  18.397   1.647  29.286  0.0053  0.0895  0.3562
 2080W        W 4230   3.713   0.876  23.078 -0.2436 -0.0125  0.1200
 2081W        W 4231  20.662   0.424  29.927 -0.0075  0.0967 -0.1088
 2082W        W 4232  16.760   0.256  14.897 -0.1271  0.0770 -0.0243
 2083W        W 4233  19.111   2.534   6.974 -0.2383 -0.0351  0.4046
 2084W        W 4234   7.911   0.086   0.622  0.2541 -0.0196 -0.3764
 2085W        W 4235   8.932   3.950  24.565  0.0670  0.1295 -0.0147
 2086W        W 4236  21.503   3.418  13.436 -0.0018  0.0573 -0.0623
 2087W        W 4237  12.874   1.399  15.123 -0.2780  0.0166 -0.1485
 2088W        W 4238  14.467   5.892   6.029  0.1537  0.0571 -0.2125
 2089W        W 4239  21.638   1.856  27.816 -0.0063  0.0717 -0.0259
 2090W        W 4240  19.535   4.243   0.799  0.2115 -0.0102 -0.0043
 2091W        W 4241   7.057   1.630   6.345 -0.2215  0.1174 -0.1105
 2092W        W 4242  16.702   5.612  26.496 -0.0495  0.2475 -0.1043
 2093W        W 4243  15.896   2.875  12.432  0.1630 -0.3430  0.0034
 2094W        W 4244  15.625   4.163  14.632  0.1684 -0.1480  0.0082
 2095W        W 4245  21.131   5.105   2.628 -0.1461  0.0946  0.3916
 2096W        W 4246  14.545   1.717  34.894  0.4443  0.0939  0.2153
 2097W        W 4247   9.178   3.201  28.446  0.0713 -0.0524 -0.0345
 2098W        W 4248  18.426   5.269  29.080 -0.0315 -0.2300  0.0895
 2099W        W 4249  16.704   6.538   9.052 -0.2907 -0.0052 -0.0058
 2100W        W 4250  15.163   6.347  30.070  0.1212 -0.1731 -0.1410
 2101W        W 4251  17.720   4.806  32.256 -0.0117 -0.3108  0.0654
 2102W        W 4252   1.694   1.051   2.258 -0.3241 -0.0398  0.1140
 2103W        W 4253  22.724   5.260   3.038 -0.1854 -0.0405  0.0932
 2104W        W 4254  24.161   4.661  10.749 -0.0641  0.1963  0.0642
 2105W        W 4255   9.237   5.468   5.826 -0.1585  0.0158 -0.2360
 2106W        W 4256   1.264   2.463  11.086  0.0895 -0.2234  0.1462
 2107W        W 4257   0.864   6.153   7.664  0.1728 -0.0391 -0.2914
 2108W        W 4258   0.172   0.367  10.558 -0.1534 -0.1853 -0.1512
 2109W        W 4259  20.806   6.601  30.471 -0.0862 -0.1179 -0.1483
 2110W        W 4260  21.327   0.443   8.169  0.1190  0.0880  0.1494
 2111W        W 4261  11.271   4.753  22.216  0.0059  0.1006  0.1340
 2112W        W 4262  23.603   3.614   1.944 -0.1536  0.1269 -0.1377
 2113W        W 4263  22.563   4.244  24.853 -0.1126 -0.0881  0.2047
 2114W        W 4264  17.650   2.829  29.474  0.1809  0.2372  0.1158
 2115W        W 4265   0.794   3.558   5.485  0.3230 -0.1046 -0.1844
 2116W        W 4266  19.422   0.450  22.037 -0.1121 -0.1185 -0.0731
 2117W        W 4267   2.984   3.243  29.727 -0.3356  0.1502 -0.1519
 2118W        W 4268  19.585   6.230   3.460  0.1364 -0.2088  0.1544
 2119W        W 4269  19.542   4.512  22.696  0.0328 -0.3431  0.2668
 2120W        W 4270  19.429   2.705  29.362  0.1180  0.0714  0.1331
 2121W        W 4271  10.775   2.070  22.096  0.0721 -0.0067 -0.2569
 2122W        W 4272   5.209   3.654   3.685 -0.2290  0.0373  0.0132
 2123W        W 4273  24.671   4.033  22.394  0.1991  0.0397 -0.2607
 2124W        W 4274   6.129   5.088   3.344  0.2563  0.1953  0.2578
 2125W        W 4275   1.220   1.650  10.810 -0.0750  0.2569 -0.3123
 2126W        W 4276  14.768   0.205  25.728 -0.0912 -0.2576  0.1847
 2127W        W 4277  16.845   1.602  29.950  0.0057  0.3825 -0.1937
 2128W        W 4278   7.561   2.074   8.737  0.0960  0.2492  0.0584
 2129W        W 4279  13.307   5.379  35.441 -0.0307 -0.0521  0.1613
 2130W        W 4280   6.776   4.491   5.660  0.2955  0.3500 -0.1890
 2131W        W 4281  17.957   3.799  30.771 -0.2629  0.1601 -0.1834
 2132W        W 4282  24.616   4.433   5.515 -0.0345  0.2837 -0.0603
 2133W        W 4283  25.359   4.702   6.024 -0.1714 -0.2465  0.2648
 2134W        W 4284   7.146   2.904  31.965 -0.1779  0.0103  0.0672
 2135W        W 4285  15.778   3.894   5.026  0.1660 -0.0432 -0.1227
 2136W        W 4286  24.814   0.389  33.994  0.1454  0.1715 -0.0442
 2137W        W 4287  17.737   6.144   0.160 -0.2571 -0.0679  0.3478
 2138W        W 4288   1.043   0.104  14.589  0.0920  0.1873  0.0520
 2139W        W 4289  13.091   1.613  11.339  0.0007 -0.0104  0.0779
 2140W        W 4290   1.924   0.854  22.729 -0.0686  0.0112 -0.2644
 2141W        W 4291   7.894   5.560  13.534 -0.0037 -0.1517 -0.1763
 2142W        W 4292  18.594   6.455  22.889 -0.2728 -0.0304 -0.2734
 2143W        W 4293  20.259   5.537  25.457 -0.0141 -0.0011 -0.0933
 2144W        W 4294  18.914   3.898  11.879 -0.0786  0.1211 -0.2453
 2145W        W 4295  20.574   3.119  12.922 -0.2009  0.1007  0.0711
 2146W        W 4296  21.297   5.550  20.898 -0.1570  0.0247 -0.0619
 2147W        W 4297  14.510   1.465  32.370 -0.1723 -0.0658  0.3200
 2148W        W 4298  22.599   0.927  30.671 -0.1488 -0.1384 -0.0821
 2149W        W 4299  23.032   0.154  33.668 -0.0478  0.1618 -0.1631
 2150W        W 4300   4.029   6.341  21.629 -0.1073 -0.2617  0.5020
 2151W        W 4301  16.632   4.155  25.285  0.1964  0.0524 -0.1769
 2152W        W 4302  26.120   0.950   8.611 -0.1022  0.1219 -0.1015
 2153W        W 4303  21.321   3.099  11.595 -0.1880 -0.2189 -0.0832
 2154W        W 4304   0.773   2.962  22.904  0.0144  0.3508  0.0761
 2155W        W 4305  12.271   1.956  15.176  0.2737 -0.2195 -0.1383
 2156W        W 4306   7.576   4.131  35.079 -0.0531  0.0891 -0.1372
 2157W        W 4307  22.882   1.902  27.287 -0.2588  0.0021  0.1517
 2158W        W 4308  23.998   0.586  31.189 -0.1209  0.0788  0.0465
 2159W        W 4309  15.960   6.599  13.259  0.1202 -0.0294  0.3484
 2160W        W 4310   2.331   3.533  32.094  0.1511  0.0792 -0.0758
 2161W        W 4311  17.248   1.043  32.528 -0.3387 -0.0853 -0.0856
 2162W        W 4312   8.665   5.596  33.524  0.0984 -0.0626  0.0376
 2163W        W 4313  11.060   0.387   2.426  0.2178 -0.2840  0.1721
 2164W        W 4314   9.935   2.438   4.420 -0.0770 -0.0911 -0.1180
 2165W        W 4315   0.539   5.485  24.586  0.1426  0.0033 -0.4471
 2166W        W 4316  22.210   0.482   1.619 -0.2563  0.2714 -0.0086
 2167W        W 4317  22.226   3.541  15.014  0.2246  0.1070  0.4071
 2168W        W 4318  23.329   4.805  21.307 -0.0689  0.2208 -0.0373
 2169W        W 4319  21.953   4.165  30.149  0.1192  0.0653 -0.1072
 2170W        W 4320  13.048   0.818   3.314  0.1648 -0.0038  0.0266
 2171W        W 4321   5.661   3.434   1.346 -0.0292 -0.0710  0.0921
 2172W        W 4322  14.492   2.580   6.042  0.0525  0.2154 -0.1238
 2173W        W 4323  19.312   4.563  30.570 -0.0995 -0.0475  0.0710
 2174W        W 4324   3.939   1.589  12.264  0.1349  0.0089  0.1818
 2175W        W 4325   3.175   0.485  27.033  0.3505  0.1783  0.0363
 2176W        W 4326   0.490   0.024   9.025  0.0896 -0.0191 -0.1801
 2177W        W 4327  19.459   0.399  11.201  0.3076  0.1852  0.0980
 2178W        W 4328   9.123   1.481  25.370  0.0554 -0.1216  0.0469
 2179W        W 4329   3.887   0.596  13.835 -0.1462 -0.0409  0.0812
 2180W        W 4330  26.239   1.505  30.002 -0.1399 -0.1597  0.0414
 2181W        W 4331  17.357   5.238  15.614  0.1831  0.0952  0.1139
 2182W        W 4332  14.326   4.674  27.170  0.2358 -0.3096 -0.0080
 2183W        W 4333  17.427   5.801  27.521 -0.1340  0.0428 -0.2059
 2184W        W 4334   0.336   0.703   6.967  0.1218 -0.1233 -0.2504
 2185W        W 4335   4.263   1.495  26.436  0.0659  0.1702 -0.0400
 2186W        W 4336   4.882   2.778   7.613 -0.0483  0.1462  0.0078
 2187W        W 4337  24.837   4.700  13.855 -0.1452  0.0816  0.0044
 2188W        W 4338  23.751   0.956  12.631 -0.0344 -0.3804 -0.0421
 2189W        W 4339  16.963   3.898  24.398 -0.1513 -0.0651  0.3515
 2190W        W 4340  17.168   0.969  26.366  0.0352 -0.1330  0.4370
 2191W        W 4341  11.993   6.418  11.853  0.0412  0.1308 -0.1220
 2192W        W 4342  23.230   1.736  29.944 -0.0966 -0.2614  0.0365
 2193W        W 4343  12.508   4.146   0.655  0.2842  0.2751  0.3040
 2194W        W 4344   3.809   1.849  25.550  0.0212 -0.1105  0.3025
 2195W        W 4345  14.471   1.596  31.273 -0.0277 -0.3975 -0.0023
 2196W        W 4346  20.230   4.320  11.009 -0.2076  0.0226  0.0983
 2197W        W 4347  13.053   0.474   5.150 -0.0890 -0.0452 -0.0484
 2198W        W 4348   9.919   4.925  11.568 -0.0562 -0.0906 -0.0703
 2199W        W 4349   3.351   6.429  13.788  0.3468  0.0333  0.2059
 2200W        W 4350   0.316   0.236  35.932 -0.2902 -0.3165  0.0981
 2201W        W 4351   9.542   3.075  21.769 -0.1558 -0.2119 -0.1423
 2202W        W 4352   0.411   0.099  12.916  0.3293  0.2465  0.1608
 2203W        W 4353  11.362   0.231   3.618  0.0133 -0.1650 -0.2329
 2204W        W 4354  23.510   3.092  33.658 -0.3345  0.1425 -0.0288
 2205W        W 4355   7.745   5.589   2.562  0.2083  0.2157 -0.0695
 2206W        W 4356   6.682   1.841   8.537  0.0503 -0.1619  0.0995
 2207W        W 4357   0.755   1.181   1.918 -0.1680  0.3017 -0.0313
 2208W        W 4358  20.737   4.334   1.771 -0.0856  0.0111 -0.2115
 2209W        W 4359   5.361   5.107  10.725  0.1718  0.1766 -0.2427
 2210W        W 4360  23.322   1.396   3.518 -0.2946  0.2924 -0.0947
 2211W        W 4361  26.019   5.163  36.154 -0.2708 -0.2538  0.2180
 2212W        W 4362  23.141   0.415  11.578  0.0135 -0.2023 -0.1578
 2213W        W 4363   6.035   1.449  11.608  0.0715 -0.0485 -0.2003
 2214W        W 4364  21.700   1.937  34.958  0.0202 -0.1459  0.3056
 2215W        W 4365  24.566   6.527  26.937 -0.2032  0.1120 -0.1051
 2216W        W 4366   8.382   2.961  31.747 -0.1184 -0.2701  0.1853
 2217W        W 4367  13.903   3.563   6.452  0.0087 -0.0669  0.2264
 2218W        W 4368   4.576   0.633  29.220  0.2935  0.3905  0.0936
 2219W        W 4369   0.296   3.679  35.098  0.2756 -0.1864  0.2836
 2220W        W 4370   1.848   0.827  33.146 -0.0455  0.0295  0.1981
 2221W        W 4371  25.610   2.212  32.776 -0.0771 -0.2197  0.2078
 2222W        W 4372  21.757   4.144  14.551  0.0390  0.2368  0.0354
 2223W        W 4373   9.593   2.071  23.672  0.1493 -0.0326 -0.1887
 2224W        W 4374   4.075   2.098  31.345 -0.0692  0.0366  0.2168
 2225W        W 4375  24.177   6.209  31.834 -0.2085  0.3099  0.0313
 2226W        W 4376   6.245   1.008  12.453 -0.3649 -0.0695 -0.2957
 2227W        W 4377  19.346   5.007  20.851  0.1820  0.4653  0.2632
 2228W        W 4378  20.276   3.977   4.926 -0.1095  0.1793 -0.0703
 2229W        W 4379   7.732   3.234  28.473  0.0459 -0.0682 -0.2284
 2230W        W 4380   3.359   0.138  27.393 -0.1393 -0.1602  0.2198
 2231W        W 4381   1.410   3.500  11.907 -0.1427  0.0448 -0.3331
 2232W        W 4382   2.436   6.512  22.968 -0.0234 -0.0806  0.0170
 2233W        W 4383  18.937   5.968  28.511  0.0998 -0.0612 -0.0199
 2234W        W 4384   8.839   3.181  30.285 -0.0167 -0.1201 -0.4586
 2235W        W 4385  18.077   6.385  29.870  0.3063  0.1961 -0.1754
 2236W        W 4386   6.113   1.696  20.108  0.0836 -0.3144  0.0631
 2237W        W 4387   5.869   3.349  13.744  0.0307  0.0845 -0.0130
 2238W        W 4388  15.736   2.614  30.577  0.2104  0.1215  0.0285
 2239W        W 4389   1.571   0.542   5.658  0.1173 -0.0487  0.0609
 2240W        W 4390   6.099   0.472  23.349  0.0215 -0.1617 -0.2588
 2241W        W 4391  22.121   4.302   4.125  0.0504 -0.0031 -0.1172
 2242W        W 4392  18.812   1.428   8.922 -0.2338  0.1192  0.1787
 2243W        W 4393  24.048   2.375   9.795  0.0141 -0.0916 -0.2306
 2244W        W 4394  19.982   6.582  12.903  0.0931 -0.3617 -0.2012
 2245W        W 4395  21.802   4.208  25.116 -0.1358  0.0316  0.1667
 2246W        W 4396   5.042   3.077   6.817 -0.0741  0.0708 -0.0159
 2247W        W 4397  26.020   6.226  29.971 -0.0068  0.1447 -0.0042
 2248W        W 4398  16.055   5.139   7.536  0.1336  0.2209  0.5700
 2249W        W 4399   7.014   3.185  30.032 -0.0923  0.1146  0.0985
 2250W        W 4400  10.843   1.960  26.732 -0.1977 -0.2438  0.2336
 2251W        W 4401   7.943   5.190  23.553  0.0060 -0.0859 -0.2018
 2252W        W 4402  10.085   0.055  13.440 -0.3220 -0.0094  0.0611
 2253W        W 4403  26.043   5.767  35.228  0.0290 -0.0708  0.0448
 2254W        W 4404  21.987   3.749  29.666  0.2431 -0.1410  0.3099
 2255W        W 4405   8.606   4.639  10.936  0.1850 -0.4384 -0.0513
 2256W        W 4406  14.853   0.087  13.153 -0.1354  0.1081  0.0238
 2257W        W 4407   0.105   2.137   8.881 -0.2216 -0.1288 -0.1176
 2258W        W 4408  15.550   0.641   4.528  0.0098  0.1295 -0.1175
 2259W        W 4409   9.577   6.209  11.470  0.2318 -0.1490 -0.1938
 2260W        W 4410   1.984   2.712  33.266  0.1306 -0.2352 -0.0805
 2261W        W 4411   0.238   1.955   2.962 -0.1502  0.1120 -0.2247
 2262W        W 4412   2.367   1.755  33.921  0.1053 -0.2928 -0.0873
 2263W        W 4413   5.660   1.505  35.087  0.0522 -0.3029 -0.2712
 2264W        W 4414  18.131   1.732  10.844 -0.1760 -0.0103 -0.3672
 2265W        W 4415  21.431   4.824  25.774 -0.2677 -0.1539 -0.0920
 2266W        W 4416  20.346   2.492  35.843  0.0753  0.2825 -0.0326
 2267W        W 4417  14.137   4.064  12.177 -0.2496 -0.1785  0.0049
 2268W        W 4418  20.005   4.317  12.035 -0.1224 -0.0743  0.0773
 2269W        W 4419  22.060   3.231  26.466  0.2714 -0.1357 -0.1435
 2270W        W 4420   0.574   2.691  26.463 -0.0404  0.0295  0.0399
 2271W        W 4421  13.048   3.355  20.464 -0.1656 -0.3258 -0.0016
 2272W        W 4422  13.894   1.162  33.081 -0.2095 -0.0818  0.2008
 2273W        W 4423  21.314   0.361  11.672 -0.1115  0.1507 -0.2653
 2274W        W 4424   0.477   3.441   6.311 -0.1654  0.1526  0.2253
 2275W        W 4425  10.521   2.931   7.700 -0.1715  0.0733  0.2249
 2276W        W 4426  15.964   6.066  13.479  0.1457  0.1766  0.1082
 2277W        W 4427   5.569   6.220  25.108  0.3433  0.2994 -0.2295
 2278W        W 4428  24.880   5.535   2.030  0.1347  0.0229  0.0929
 2279W        W 4429  12.829   0.354  23.120 -0.0026  0.2323  0.1624
 2280W        W 4430   3.450   3.984  11.707  0.0773  0.1698 -0.3806
 2281W        W 4431  25.470   5.682  33.145  0.0728  0.3300 -0.3111
 2282W        W 4432  15.688   2.798  29.732  0.0416 -0.1114  0.2165
 2283W        W 4433   3.033   0.989  36.152  0.0617 -0.0907 -0.0312
 2284W        W 4434  15.085   4.228   3.929 -0.0404 -0.1068  0.0353
 2285W        W 4435  10.396   0.396  22.100  0.2205  0.2744 -0.2168
 2286W        W 4436   7.272   1.818  34.060 -0.0495 -0.1635  0.1491
 2287W        W 4437  11.852   6.321  24.312  0.0893 -0.2323 -0.1151
 2288W        W 4438  17.061   3.385  30.704 -0.1448  0.4023  0.2606
 2289W        W 4439  20.459   0.503   6.452 -0.1013  0.1279  0.0379
 2290W        W 4440   1.218   6.229  35.278 -0.1838 -0.0954 -0.1348
 2291W        W 4441  17.076   0.964   7.121 -0.1406  0.1324 -0.1799
 2292W        W 4442  21.249   1.725   3.118 -0.2673 -0.0466  0.1690
 2293W        W 4443  13.377   0.196  12.184  0.0325  0.0581  0.0435
 2294W        W 4444  15.811   1.821  12.645  0.1859 -0.0154  0.1165
 2295W        W 4445  16.708   2.704  35.220  0.0426 -0.0871 -0.1319
 2296W        W 4446  20.737   1.487  27.365  0.2405  0.1142  0.3137
 2297W        W 4447  15.880   4.431  28.189 -0.0901 -0.0628 -0.1370
 2298W        W 4448   8.763   1.874   3.191  0.0154 -0.1079 -0.1526
 2299W        W 4449  21.579   2.850   6.664  0.2997  0.2926  0.3497
 2300W        W 4450  12.977   5.785  25.786  0.1362 -0.1949 -0.1581
 2301W        W 4451  20.397   3.412  34.322  0.1028 -0.1496  0.0949
 2302W        W 4452  24.232   5.105   9.681  0.0978  0.0170  0.2780
 2303W        W 4453  18.740   5.806   3.299 -0.1634  0.1391  0.0427
 2304W        W 4454   0.389   1.905  27.814 -0.1550 -0.0204 -0.2604
 2305W        W 4455  17.895   5.826  35.046  0.0052 -0.1240 -0.0543
 2306W        W 4456  25.239   4.124  29.605  0.0803  0.1878 -0.3570
 2307W        W 4457  10.301   3.576   5.561 -0.1699  0.0479  0.2396
 2308W        W 4458  20.233   2.582  31.142 -0.1129  0.3898  0.0290
 2309W        W 4459   2.342   0.715   4.345 -0.0976  0.2019  0.1948
 2310W        W 4460   6.299   5.660  13.903  0.2330  0.0995 -0.0026
 2311W        W 4461  20.931   5.925   5.964  0.0282 -0.1186 -0.2690
 2312W        W 4462  24.899   5.228  10.923  0.0875 -0.0794  0.1527
 2313W        W 4463   8.247   5.872  11.672 -0.1797 -0.2416  0.1079
 2314W        W 4464  18.367   0.409   2.040  0.0078  0.0656 -0.1223
 2315W        W 4465   5.913   0.378  14.100  0.0361  0.0254  0.0615
 2316W        W 4466   3.056   3.948  26.443 -0.2868 -0.2391  0.0850
 2317W        W 4467  17.389   5.258  23.871  0.1305 -0.1590 -0.1043
 2318W        W 4468  20.147   2.650  24.323  0.1236  0.1038  0.0659
 2319W        W 4469   0.117   0.207  27.789  0.0736 -0.1745  0.2084
 2320W        W 4470   7.233   3.677  29.651  0.0919 -0.2409  0.0725
 2321W        W 4471  21.057   4.200  27.491  0.1461  0.1778 -0.0980
 2322W        W 4472   6.449   1.748   9.016  0.0824  0.0963 -0.2469
 2323W        W 4473  17.490   6.079  26.106 -0.1397 -0.1143 -0.2631
 2324W        W 4474  25.838   6.438  25.626  0.0937 -0.2805 -0.0392
 2325W        W 4475  18.430   5.614  11.747 -0.0040 -0.0652  0.2651
 2326W        W 4476  17.415   1.963   7.303 -0.1230 -0.0435 -0.0173
 2327W        W 4477  14.598   3.796   4.839 -0.0443 -0.0220 -0.2502
 2328W        W 4478   7.332   6.389  31.363 -0.0717  0.3494 -0.2591
 2329W        W 4479   9.649   0.481  30.002  0.0202 -0.0595 -0.1699
 2330W        W 4480   7.673   5.695  21.678  0.0111 -0.1136  0.2112
 2331W        W 4481  14.141   1.761  27.901 -0.3876  0.1879  0.3749
 2332W        W 4482  14.494   1.663   0.938  0.2763 -0.0655  0.4048
 2333W        W 4483  10.740   5.798   7.489  0.1443 -0.0963  0.1121
 2334W        W 4484  23.581   4.505  22.118  0.3543  0.3567 -0.2396
 2335W        W 4485  25.620   2.227  24.452 -0.0540  0.0849 -0.0882
 2336W        W 4486  24.037   2.314   4.700  0.0447 -0.2483 -0.0140
 2337W        W 4487   0.252   4.840  27.139 -0.2724 -0.0760 -0.0891
 2338W        W 4488   1.497   2.420   4.607  0.1318  0.2748 -0.1214
 2339W        W 4489  18.213   4.379  10.089  0.0522  0.0310  0.1398
 2340W        W 4490   5.054   2.221  28.914  0.0147  0.2722 -0.3395
 2341W        W 4491   1.222   0.640  27.732  0.0169  0.0187  0.2968
 2342W        W 4492  15.709   5.077  34.617 -0.1181  0.1277 -0.1247
 2343W        W 4493  18.869   5.594  31.541 -0.2185 -0.1839  0.0841
 2344W        W 4494   4.527   5.771  10.031  0.1286 -0.0466  0.1053
 2345W        W 4495  20.967   3.761   9.994 -0.0538  0.0549 -0.2512
 2346W        W 4496  10.192   5.932  28.743 -0.1270  0.1643  0.2313
 2347W        W 4497   0.119   6.299  35.745 -0.2497  0.0657 -0.1896
 2348W        W 4498   6.038   1.619  30.347 -0.2144 -0.1516 -0.3761
 2349W        W 4499   6.061   2.736  21.920  0.1718 -0.5209  0.0105
 2350W        W 4500  19.555   4.804  24.735 -0.0067 -0.1021  0.1079
 2351W        W 4501  25.269   5.092   2.341  0.2194  0.1094  0.0602
 2352W        W 4502  16.763   4.184  28.416  0.0589 -0.0047  0.1376
 2353W        W 4503  22.052   3.600   0.527  0.0027 -0.1238 -0.0856
 2354W        W 4504  21.071   2.778   3.861  0.0019 -0.1137  0.1815
 2355W        W 4505  11.215   5.853  14.883  0.1161  0.0387 -0.0145
 2356W        W 4506  24.995   5.046   5.856 -0.2020  0.0659  0.0100
 2357W        W 4507  13.574   0.972   8.090 -0.1220 -0.0311 -0.1994
 2358W        W 4508   9.153   0.488  25.087  0.2454  0.0225 -0.0299
 2359W        W 4509   2.527   1.570   3.090 -0.0344  0.0800  0.0819
 2360W        W 4510   2.191   0.763  24.466  0.1045  0.3017 -0.1998
 2361W        W 4511   2.248   5.092  21.641 -0.4191 -0.2621 -0.0941
 2362W        W 4512  17.077   0.058  13.874  0.2537 -0.0403  0.1334
 2363W        W 4513   4.320   1.067  23.637 -0.4052 -0.0516  0.0285
 2364W        W 4514   2.922   3.307   3.940 -0.0193 -0.1592  0.3250
 2365W        W 4515  13.287   3.674   2.207 -0.1179  0.1340  0.0102
 2366W        W 4516  15.672   3.232  13.716  0.0351  0.4927 -0.2974
 2367W        W 4517  20.369   2.271  10.509 -0.2169 -0.4322 -0.2221
 2368W        W 4518  15.954   4.469   7.582  0.0476  0.1362 -0.0398
 2369W        W 4519   6.606   0.388  31.844 -0.0535 -0.1804 -0.1478
 2370W        W 4520  14.607   5.133  32.213  0.0117  0.1568  0.2110
 2371W        W 4521  14.651   5.991  32.276  0.0082 -0.2193  0.0029
 2372W        W 4522  23.819   1.010  31.529 -0.2851 -0.2094  0.1750
 2373W        W 4523  17.989   1.650   3.620  0.0475 -0.0457  0.1405
 2374W        W 4524   7.044   0.574  32.038 -0.0175 -0.0284 -0.1486
 2375W        W 4525   6.519   0.988  27.259  0.0086 -0.1205  0.1605
 2376W        W 4526  10.638   2.903   1.327  0.2468 -0.3233  0.1970
 2377W        W 4527  21.635   2.303   7.465 -0.0249  0.1011 -0.0859
 2378W        W 4528  26.371   4.640  10.739  0.0934 -0.0635 -0.2155
 2379W        W 4529   2.605   3.455  34.499  0.0313  0.0366  0.0074
 2380W        W 4530   4.925   2.703   3.134 -0.0236  0.0223 -0.1093
 2381W        W 4531  11.115   5.093   6.004  0.1445  0.2409 -0.0332
 2382W        W 4532   9.179   2.878  26.731  0.2337 -0.2411  0.0846
 2383W        W 4533  18.520   1.525  30.467 -0.0584 -0.1305  0.2382
 2384W        W 4534  22.894   3.005  15.339  0.2725 -0.0249 -0.0849
 2385W        W 4535  13.520   6.277  21.978  0.2117 -0.0436 -0.1213
 2386W        W 4536   6.295   1.351  11.120  0.0260 -0.0049 -0.1371
 2387W        W 4537   6.185   4.505   8.458  0.1298  0.1092  0.0794
 2388W        W 4538   5.968   5.213  28.337 -0.2208 -0.0265  0.3053
 2389W        W 4539  22.956   3.993   1.280 -0.0613 -0.1503 -0.1255
 2390W        W 4540  16.988   1.822  11.018  0.0703 -0.5003  0.1140
 2391W        W 4541  15.888   5.471  24.675  0.0741 -0.1034  0.0862
 2392W        W 4542   8.027   4.021  14.657  0.1608  0.2711  0.1221
 2393W        W 4543   0.540   1.488   9.107  0.1865  0.2574 -0.0327
 2394W        W 4544   4.432   1.986  26.254 -0.0342  0.1023  0.0039
 2395W        W 4545   1.717   1.586  24.966 -0.0628 -0.0574  0.0282
 2396W        W 4546  18.526   4.604   7.440 -0.1262 -0.0252 -0.0627
 2397W        W 4547  24.731   0.902  32.521  0.2191  0.1298  0.1106
 2398W        W 4548  20.476   4.470  11.879 -0.0191  0.0367 -0.1084
 2399W        W 4549  20.621   5.039  23.308  0.0423 -0.1739  0.0144
 2400W        W 4550  20.027   6.501  28.254 -0.0181 -0.4041 -0.0290
 2401W        W 4551  12.634   3.020  33.492  0.0632  0.0029 -0.2331
 2402W        W 4552  13.057   2.750  26.690 -0.1685  0.0164  0.2846
 2403W        W 4553   5.196   1.926   5.431 -0.0502  0.0192 -0.2158
 2404W        W 4554  10.110   2.972  26.310  0.1340  0.0862  0.0172
 2405W        W 4555   8.785   2.602  30.379 -0.0189 -0.2091  0.1714
 2406W        W 4556  22.989   1.919  35.387  0.1523  0.0979 -0.0428
 2407W        W 4557  14.124   4.634   1.683 -0.0140  0.0155 -0.1867
 2408W        W 4558  15.833   4.788  11.942 -0.2021 -0.0925  0.4106
 2409W        W 4559   5.547   0.527  10.561  0.0009  0.0718 -0.0206
 2410W        W 4560  11.895   5.006   2.779  0.0222 -0.1069 -0.1138
 2411W        W 4561   0.742   5.278  25.994  0.0846  0.1018  0.1204
 2412W        W 4562  13.672   2.828  11.015  0.3106  0.1225 -0.0091
 2413W        W 4563  15.474   5.641  27.971  0.1420 -0.2505 -0.0700
 2414W        W 4564   0.494   1.380  20.995 -0.1321  0.0069 -0.0848
 2415W        W 4565  20.314   6.248  13.478 -0.0273 -0.0774 -0.1823
 2416W        W 4566  14.557   1.613  14.498  0.0017 -0.2335  0.0641
 2417W        W 4567  13.251   5.501   3.256 -0.0589  0.0681  0.0184
 2418W        W 4568  12.123   6.203  33.132 -0.1458 -0.1154  0.0502
 2419W        W 4569  16.719   5.542   0.713 -0.0936 -0.2667 -0.0220
 2420W        W 4570   6.246   2.067   8.664 -0.0658  0.0193  0.3597
 2421W        W 4571   4.743   2.394  29.884  0.1115  0.1170  0.3065
 2422W        W 4572  14.531   0.686  21.576  0.0661  0.0330  0.1777
 2423W        W 4573   2.358   0.102  34.487 -0.1389 -0.0722 -0.1940
 2424W        W 4574  14.657   1.761   3.305 -0.2282 -0.0839 -0.0492
 2425W        W 4575  15.262   3.775   1.526 -0.0479  0.2588  0.0663
 2426W        W 4576   5.684   4.778   4.501  0.2297  0.1324 -0.1462
 2427W        W 4577   4.422   3.550   8.513 -0.0837  0.1231  0.3125
 2428W        W 4578   8.277   5.561  23.948 -0.0490 -0.0604 -0.2458
 2429W        W 4579  17.536   3.654  20.784 -0.1926  0.0518  0.0401
 2430W        W 4580  15.272   0.596   2.672  0.0168  0.1489  0.1847
 2431W        W 4581   2.702   2.752  35.265 -0.2392  0.1092  0.2358
 2432W        W 4582   9.882   2.766  27.844  0.0211  0.3061  0.0721
 2433W        W 4583  19.281   1.767  20.948 -0.3023 -0.1221  0.1740
 2434W        W 4584  13.616   5.528  15.349 -0.2075 -0.1777  0.2644
 2435W        W 4585  26.237   1.849   4.102 -0.1000  0.1949  0.2405
 2436W        W 4586  14.581   4.575  22.692  0.3117 -0.3266 -0.1650
 2437W        W 4587  10.618   5.702   2.069  0.0171  0.2556 -0.3426
 2438W        W 4588   7.570   3.039   8.792  0.3990  0.2227 -0.0735
 2439W        W 4589  15.499   5.667   0.675  0.2105  0.0618 -0.0608
 2440W        W 4590   8.382   1.148  28.624  0.0665 -0.0250 -0.2435
 2441W        W 4591   9.496   5.771  24.056 -0.0321  0.2059  0.2226
 2442W        W 4592   7.816   2.129   3.769  0.0038 -0.0977 -0.3286
 2443W        W 4593  12.382   5.967  12.677  0.1959  0.4535 -0.2551
 2444W        W 4594  17.179   5.137  14.989  0.3645  0.2641  0.1278
 2445W        W 4595   5.334   6.184  11.983  0.0800  0.1274 -0.0268
 2446W        W 4596  24.938   3.008  31.489 -0.0151  0.1080  0.1475
 2447W        W 4597  22.265   6.259  11.345 -0.0299  0.0577  0.0152
 2448W        W 4598   1.813   1.789  21.506 -0.2213  0.2231  0.0447
 2449W        W 4599  20.062   2.734   1.146 -0.1504  0.2423 -0.1240
 2450W        W 4600   0.512   2.054  11.366 -0.1584 -0.1619  0.2370
 2451W        W 4601  10.211   0.732  20.788  0.0951  0.0713 -0.1614
 2452W        W 4602   4.732   6.091   2.454 -0.4054 -0.0030 -0.0718
 2453W        W 4603   3.728   5.549  35.868  0.1843  0.0189 -0.1862
 2454W        W 4604   7.171   1.016   3.351 -0.0701 -0.1067  0.2084
 2455W        W 4605  23.859   0.949  24.457  0.2920 -0.3515  0.4159
 2456W        W 4606  10.540   5.946   2.629 -0.1004  0.2202  0.2114
 2457W        W 4607   1.161   6.435  23.307  0.1956  0.3806 -0.0538
 2458W        W 4608  17.437   5.258  29.775  0.0296 -0.0171  0.2482
 2459W        W 4609  19.056   4.330   1.805 -0.2642  0.2545 -0.0049
 2460W        W 4610  12.188   5.895  24.536  0.2700  0.0249  0.0551
 2461W        W 4611   9.424   0.183  32.430 -0.0741 -0.1667 -0.1064
 2462W        W 4612  17.106   4.872  30.777 -0.1202  0.0208 -0.2689
 2463W        W 4613  23.130   0.609  16.009 -0.3012 -0.2556 -0.0581
 2464W        W 4614  19.128   4.140  22.731  0.1125  0.0275 -0.2506
 2465W        W 4615  24.800   0.508   7.846 -0.1575  0.0342 -0.1118
 2466W        W 4616  21.285   3.388  29.152 -0.0115  0.3816  0.3556
 2467W        W 4617  24.304   3.499   5.525 -0.0371  0.2036  0.0703
 2468W        W 4618  23.213   1.643  28.383 -0.1228  0.1943 -0.1812
 2469W        W 4619  24.728   4.031  30.842  0.0174 -0.2096  0.1919
 2470W        W 4620   6.142   2.198  25.940 -0.0062  0.0244 -0.2431
 2471W        W 4621  20.977   2.250  24.807  0.0143 -0.1434 -0.0806
 2472W        W 4622  11.355   2.152  13.678 -0.1324  0.2162 -0.0559
 2473W        W 4623   9.585   4.511  25.556  0.0024  0.1040 -0.0210
 2474W        W 4624   3.017   6.327  24.224  0.0402 -0.2126 -0.0974
 2475W        W 4625  14.471   3.333  11.617  0.1826  0.0421 -0.0453
 2476W        W 4626   8.557   2.508   3.585 -0.0886  0.2024  0.1923
 2477W        W 4627   0.767   4.271   5.294 -0.1366  0.2203  0.2027
 2478W        W 4628  24.210   2.037  12.013 -0.1465 -0.1032  0.2886
 2479W        W 4629   5.089   3.876   5.306  0.0513 -0.2150  0.0347
 2480W        W 4630   7.421   0.238  23.184  0.0303  0.1852  0.0311
 2481W        W 4631   5.700   3.886  31.754  0.0048 -0.2778  0.0055
 2482W        W 4632   6.699   5.957  14.014 -0.1048  0.2919  0.0760
 2483W        W 4633  15.755   0.341  26.861 -0.0158 -0.0331 -0.2819
 2484W        W 4634   2.182   4.271   9.912 -0.1003 -0.1835  0.0413
 2485W        W 4635   2.038   2.363   0.230  0.3161  0.0003 -0.1482
 2486W        W 4636  22.303   3.091   7.789  0.1611 -0.0644 -0.1596
 2487W        W 4637   5.461   3.060  35.659 -0.0747  0.0605 -0.2713
 2488W        W 4638   0.852   6.457  33.687  0.0393  0.0887 -0.0176
 2489W        W 4639  16.491   2.073   2.730  0.1751  0.1142  0.2157
 2490W        W 4640   1.214   2.122   9.556  0.0601 -0.1865 -0.2097
 2491W        W 4641  15.006   0.485   6.195 -0.1644  0.3705 -0.0776
 2492W        W 4642  23.884   2.848  15.303 -0.0406  0.0983 -0.0632
 2493W        W 4643   0.603   3.287   3.116 -0.1973 -0.1716  0.3848
 2494W        W 4644  20.340   0.726  33.718 -0.1314 -0.1645 -0.0858
 2495W        W 4645  16.002   1.136  23.741 -0.0363  0.0128 -0.0895
 2496W        W 4646  24.478   6.559   6.840 -0.2832  0.0279  0.1088
 2497W        W 4647  19.951   6.391  35.876 -0.1190  0.0259 -0.1974
 2498W        W 4648   7.102   5.389  22.292 -0.1922  0.0936  0.0849
 2499W        W 4649   7.597   3.667  35.800 -0.0129 -0.1367 -0.0973
 2500W        W 4650   3.134   6.542   8.901 -0.3570  0.0499 -0.3732
 2501W        W 4651  22.808   3.979  13.880  0.0141 -0.3145  0.1421
 2502W        W 4652   9.232   0.193   0.773  0.2726  0.0565 -0.2290
 2503W        W 4653  15.845   5.303   7.965 -0.0650  0.2946 -0.0365
 2504W        W 4654  18.625   0.776   1.361 -0.0283 -0.1962  0.1132
 2505W        W 4655  10.978   2.363  22.504  0.0771  0.1964  0.0680
 2506W        W 4656  15.786   3.198   8.802  0.1615 -0.2079  0.0678
 2507W        W 4657   5.428   0.313  14.331 -0.2702  0.0324  0.2527
 2508W        W 4658   9.441   3.698   8.988  0.0195 -0.2034 -0.2137
 2509W        W 4659   2.720   5.315  10.060  0.1390  0.0381 -0.0154
 2510W        W 4660  20.719   4.629  28.923 -0.0814 -0.0604 -0.1066
 2511W        W 4661   2.396   1.364   8.289  0.1046  0.1814 -0.2907
 2512W        W 4662   1.868   0.245   0.047  0.0822  0.1004 -0.2145
 2513W        W 4663  21.071   1.839  24.062  0.2022 -0.0731  0.2156
 2514W        W 4664  23.966   1.899   0.230 -0.3314 -0.2024 -0.3785
 2515W        W 4665  15.812   5.528  25.672 -0.4232  0.2152 -0.2478
 2516W        W 4666  25.337   4.117   6.467  0.1744  0.1587  0.0822
 2517W        W 4667   8.226   0.667   5.334 -0.1144 -0.0876  0.2721
 2518W        W 4668  15.993   4.402  14.822 -0.5121  0.3026  0.0482
 2519W        W 4669  12.436   0.507  23.568  0.3011  0.1011 -0.1632
 2520W        W 4670  13.824   3.942   5.428 -0.0979  0.0385  0.3713
 2521W        W 4671   3.512   4.265  26.059  0.0640 -0.2332 -0.1929
 2522W        W 4672   9.023   6.436  28.709 -0.1225  0.1561 -0.0476
 2523W        W 4673   5.161   4.291  29.104 -0.0489  0.0361 -0.0706
 2524W        W 4674   2.442   2.587  25.068  0.2361  0.2181 -0.1520
 2525W        W 4675  12.011   5.511   5.216  0.1895  0.0853 -0.0279
 2526W        W 4676  24.289   3.248   2.736  0.3671 -0.2008  0.0101
 2527W        W 4677  12.984   5.765  26.971  0.0833 -0.1225  0.2574
 2528W        W 4678  15.898   4.527  24.110  0.0912  0.2880  0.2671
 2529W        W 4679  25.923   0.248  22.365 -0.0412 -0.0551 -0.1757
 2530W        W 4680  12.072   5.641  23.147  0.2636  0.2777 -0.0974
 2531W        W 4681  15.786   1.560  30.602  0.0902  0.3003 -0.1064
 2532W        W 4682  19.155   1.196  22.950 -0.0034  0.1040  0.1338
 2533W        W 4683  10.352   1.807  34.866  0.3054 -0.0658 -0.0369
 2534W        W 4684  20.722   5.671  15.211 -0.0853 -0.1485 -0.1055
 2535W        W 4685   5.697   6.417  22.265 -0.1496 -0.2048  0.1888
 2536W        W 4686   2.731   0.877  30.786 -0.3086 -0.1339  0.2110
 2537W        W 4687  11.560   2.692  11.846 -0.1460 -0.0250 -0.1163
 2538W        W 4688  13.033   2.915  31.254 -0.2516  0.1133 -0.6292
 2539W        W 4689  12.994   2.556  31.889 -0.1670 -0.1240 -0.1255
 2540W        W 4690  25.975   2.272  24.047  0.0986 -0.3509  0.0464
 2541W        W 4691  25.341   2.413  22.228  0.0859  0.1769  0.2032
 2542W        W 4692   3.160   4.116  22.251  0.0702  0.1020 -0.0459
 2543W        W 4693  20.821   4.120   4.094 -0.0826  0.1529 -0.0704
 2544W        W 4694   9.069   2.117  11.543  0.0416 -0.1064 -0.0179
 2545W        W 4695  11.942   3.157  22.513 -0.1530  0.2526 -0.0082
 2546W        W 4696   8.497   1.903   2.162 -0.0171  0.0974 -0.1639
 2547W        W 4697  17.842   0.762  10.176  0.0629 -0.0794 -0.1316
 2548W        W 4698  12.765   5.989  27.393 -0.1013  0.0573 -0.0417
 2549W        W 4699  15.286   4.565  12.742 -0.4625 -0.2750 -0.0311
 2550W        W 4700  15.160   5.709   3.896  0.0557  0.1470 -0.0327
 2551W        W 4701   8.610   4.761  14.563  0.1307  0.1666 -0.1463
 2552W        W 4702  14.585   6.396  11.733  0.0198 -0.2985 -0.1314
 2553W        W 4703   0.352   2.609  29.627 -0.0437 -0.1127  0.1627
 2554W        W 4704   1.303   2.305  27.576  0.0498 -0.1194  0.1885
 2555W        W 4705  16.401   4.414   6.627  0.0205 -0.0111  0.0321
 2556W        W 4706   4.226   5.533   2.876 -0.1790  0.1077  0.2743
 2557W        W 4707  15.040   3.103  21.304  0.2408 -0.2738 -0.0429
 2558W        W 4708   8.349   4.177  20.724  0.0466 -0.0649  0.0953
 2559W        W 4709  12.252   3.219  14.098  0.1395  0.0489  0.0864
 2560W        W 4710  12.315   2.652   0.714 -0.1175 -0.1647  0.0549
 2561W        W 4711   7.641   3.379   9.145 -0.1800  0.1592  0.3197
 2562W        W 4712  13.036   4.066  33.292 -0.1511 -0.2216 -0.2945
 2563W        W 4713   8.867   2.848  15.127 -0.2189 -0.2384 -0.0522
 2564W        W 4714  11.419   4.508  13.615 -0.0706 -0.0755 -0.1982
 2565W        W 4715   1.547   5.319  24.962  0.3266  0.4272  0.1268
 2566W        W 4716  10.859   1.931  27.840  0.2654 -0.0679  0.0608
 2567W        W 4717   5.529   0.273   6.614  0.1816 -0.2532 -0.2363
 2568W        W 4718  26.239   5.955   8.739 -0.0620  0.2107 -0.1262
 2569W        W 4719  24.419   3.646   9.783 -0.3165 -0.0615  0.0418
 2570W        W 4720  23.759   6.454   6.530 -0.0436 -0.0289  0.1134
 2571W        W 4721   7.871   0.664  25.653 -0.2334  0.0014  0.1650
 2572W        W 4722  22.745   5.394  11.088 -0.2163 -0.1521 -0.1036
 2573W        W 4723   0.316   0.590  32.609 -0.1000  0.0408 -0.1540
 2574W        W 4724  11.923   1.627   3.448  0.0909 -0.0512 -0.2428
 2575W        W 4725  16.310   4.858   3.986  0.1932  0.0225 -0.2141
 2576W        W 4726  26.413   2.035  24.058  0.3810 -0.0606  0.1289
 2577W        W 4727  21.966   2.278   0.945 -0.1479 -0.0262 -0.0981
 2578W        W 4728   5.842   0.700  33.406 -0.3360  0.0471 -0.2504
 2579W        W 4729  10.296   0.844   1.839 -0.1286  0.2906  0.1374
 2580W        W 4730   8.543   4.825   3.262  0.1573  0.0514  0.4194
 2581W        W 4731  18.567   4.452   3.034  0.3885 -0.0370  0.0034
 2582W        W 4732   2.769   3.667  35.236 -0.0909 -0.0331 -0.0275
 2583W        W 4733  15.801   4.521  10.067 -0.1233  0.0735 -0.0497
 2584W        W 4734  22.390   2.805   8.545  0.2130 -0.1553 -0.0911
 2585W        W 4735  24.052   2.360  25.580 -0.0050 -0.2577  0.0792
 2586W        W 4736   5.606   5.846   2.853 -0.0293  0.0860  0.1198
 2587W        W 4737  11.029   2.278  11.582  0.1607  0.3036  0.2984
 2588W        W 4738   5.130   5.708   8.592  0.3414 -0.0813 -0.0121
 2589W        W 4739  18.083   0.150  22.975  0.0161 -0.1494 -0.2730
 2590W        W 4740   0.470   3.758  34.657 -0.0867  0.0441 -0.0529
 2591W        W 4741  24.069   5.232  14.173  0.2561  0.0539  0.1810
 2592W        W 4742   3.352   3.133  31.797 -0.0164 -0.0248 -0.0020
 2593W        W 4743  15.907   1.270  22.496 -0.1677  0.0132  0.3494
 2594W        W 4744  16.018   5.379  15.089 -0.0733 -0.1180  0.0841
 2595W        W 4745  21.305   2.074  10.482 -0.0620 -0.0833 -0.2250
 2596W        W 4746  17.817   2.179  14.292  0.3094 -0.0284 -0.1640
 2597W        W 4747   8.263   2.119  33.808  0.1495  0.0489  0.2403
 2598W        W 4748   3.249   2.450   9.010 -0.0158  0.0726 -0.0618
 2599W        W 4749   4.158   2.711   6.508  0.2336 -0.0850 -0.2701
 2600W        W 4750  14.465   6.085  26.062 -0.1082 -0.0898 -0.1527
 2601W        W 4751   9.622   0.102  35.648 -0.1571  0.0923 -0.3469
 2602W        W 4752   6.165   3.810   7.156  0.0408 -0.0051 -0.0731
 2603W        W 4753  25.241   1.169  20.916 -0.0255 -0.0058  0.0981
 2604W        W 4754   1.550   2.553  13.447  0.2206  0.0992 -0.0007
 2605W        W 4755  12.586   3.592  34.564  0.2200  0.1209  0.0656
 2606W        W 4756  25.929   4.788  35.262 -0.1105 -0.0334  0.0934
 2607W        W 4757  25.315   6.576  25.538  0.3003 -0.0536 -0.0951
 2608W        W 4758   4.048   6.510   1.009  0.1490  0.0581  0.4112
 2609W        W 4759  12.802   2.346  26.748  0.0851 -0.0255  0.1021
 2610W        W 4760  11.541   2.446  23.453 -0.3670 -0.0529  0.0290
 2611W        W 4761  11.186   1.241   9.627 -0.0946  0.0250  0.1380
 2612W        W 4762   8.369   5.402   9.244  0.3964 -0.0203 -0.1973
 2613W        W 4763  14.020   4.661  23.845  0.3159 -0.1099  0.1656
 2614W        W 4764  22.543   6.495   4.190  0.0211  0.1400  0.2153
 2615W        W 4765   1.772   3.288  25.218  0.1837  0.0082  0.2237
 2616W        W 4766   5.108   3.783  33.094  0.1487  0.1464 -0.0167
 2617W        W 4767  17.507   1.221  26.157 -0.1149  0.0069 -0.0963
 2618W        W 4768  21.209   0.423   4.191  0.1245  0.2844  0.2174
 2619W        W 4769   5.559   0.052  27.832  0.1768 -0.2065 -0.3559
 2620W        W 4770  18.040   4.672  35.418  0.0586 -0.0488  0.3277
 2621W        W 4771  21.432   0.186   6.587 -0.0345  0.1841  0.2737
 2622W        W 4772  12.138   0.036   0.663  0.1492 -0.0164 -0.0034
 2623W        W 4773  13.747   3.130   1.755  0.2003 -0.1401  0.1740
 2624W        W 4774  22.172   4.051   9.307 -0.0993 -0.3116  0.0830
 2625W        W 4775  25.638   2.059   5.609  0.0794  0.0755 -0.0575
 2626W        W 4776  25.516   1.212  13.227 -0.0167 -0.1389  0.0835
 2627W        W 4777   7.956   5.422   8.129  0.1813 -0.0098  0.0414
 2628W        W 4778   4.261   5.119   1.130 -0.0358  0.1673  0.0839
 2629W        W 4779  17.919   1.624   0.273 -0.3736 -0.0257 -0.1245
 2630W        W 4780  18.140   3.479  35.915 -0.0814  0.2403  0.0875
 2631W        W 4781   5.885   1.199   0.180 -0.0772  0.1061  0.4884
 2632W        W 4782   0.463   2.938  33.481  0.2245  0.0538 -0.1580
 2633W        W 4783   1.364   4.676  10.099  0.1698  0.0380  0.4234
 2634W        W 4784  14.426   2.926   7.698 -0.2247  0.0366  0.1388
 2635W        W 4785  21.834   2.268  10.547  0.0735  0.1994  0.1277
 2636W        W 4786   5.436   6.367  23.375  0.2921 -0.1135 -0.2177
 2637W        W 4787  19.758   5.349  10.342 -0.2348  0.0315  0.4397
 2638W        W 4788  20.095   1.498   2.334  0.0759  0.0350 -0.0358
 2639W        W 4789  24.842   4.550   6.035 -0.2366  0.1238  0.0376
 2640W        W 4790  20.967   1.182  28.848 -0.1061 -0.1050 -0.1496
 2641W        W 4791   3.753   4.472  36.012  0.0478 -0.3478  0.0002
 2642W        W 4792   0.629   3.657  13.292 -0.0895 -0.0244  0.6009
 2643W        W 4793   6.645   5.764  23.041 -0.2477  0.1224 -0.2067
 2644W        W 4794   5.759   0.154  34.942 -0.0169  0.1423 -0.1029
 2645W        W 4795   0.437   2.053  22.862  0.1343 -0.1201  0.1183
 2646W        W 4796  23.707   4.089  12.810 -0.0464  0.0377  0.0752
 2647W        W 4797  15.393   0.851  15.443  0.1146 -0.1639 -0.1214
 2648W        W 4798   9.209   0.260  12.822  0.3076  0.0386 -0.3362
 2649W        W 4799  20.273   3.276  15.238 -0.0410  0.0526  0.2104
 2650W        W 4800   3.061   5.079  22.073  0.0080 -0.1223 -0.3238
 2651W        W 4801  24.728   4.897  29.005 -0.1143  0.0999  0.0809
 2652W        W 4802  19.239   1.086   6.480  0.2700  0.0993  0.0933
 2653W        W 4803   0.203   2.087   3.476  0.0157 -0.0592  0.0384
 2654W        W 4804  19.160   1.566   8.056  0.0131 -0.1335 -0.0034
 2655W        W 4805  23.861   0.446   4.581 -0.0878 -0.0589 -0.0849
 2656W        W 4806   8.852   6.577  26.139 -0.3575  0.1327 -0.1744
 2657W        W 4807  16.912   0.096   4.190  0.2414 -0.0438 -0.0083
 2658W        W 4808   7.549   2.843   1.616 -0.1986  0.1157  0.1820
 2659W        W 4809  22.922   4.268  29.982  0.0683  0.0623 -0.0031
 2660W        W 4810   8.412   1.312  23.349  0.0765 -0.2425  0.0303
 2661W        W 4811  15.651   1.958   8.775 -0.1951 -0.0010  0.0163
 2662W        W 4812   2.214   2.281   9.962 -0.1633  0.1154 -0.0521
 2663W        W 4813  10.137   2.491   3.571 -0.0185 -0.4842  0.0973
 2664W        W 4814  12.206   0.986   0.105 -0.1151 -0.0286 -0.0130
 2665W        W 4815  11.636   5.656  28.505 -0.1521  0.4059  0.1670
 2666W        W 4816  17.429   5.635   1.385 -0.0100  0.1927 -0.4041
 2667W        W 4817  23.380   2.715  10.446 -0.0985  0.1970  0.1782
 2668W        W 4818  14.559   0.374   8.336  0.1499 -0.4415  0.0450
 2669W        W 4819   9.816   4.582  20.643 -0.0933  0.1006  0.0924
 2670W        W 4820   6.671   1.906  11.583  0.1575  0.0859 -0.0703
 2671W        W 4821   0.585   2.030   7.963 -0.3691 -0.2488  0.1609
 2672W        W 4822  12.819   3.123  27.654 -0.0256  0.0430  0.2800
 2673W        W 4823  20.965   3.108  29.855  0.3336  0.0516 -0.3577
 2674W        W 4824  15.039   3.202   9.813  0.2334  0.0260  0.2078
 2675W        W 4825  24.456   6.587  35.083  0.5712  0.0054 -0.2104
 2676W        W 4826  18.926   2.963  12.603 -0.1740  0.0296 -0.0606
 2677W        W 4827  18.013   3.364  31.046  0.3290  0.1560 -0.1706
 2678W        W 4828  25.566   3.049   5.558  0.0084  0.0561 -0.0626
 2679W        W 4829  15.062   5.852   8.881  0.3191 -0.3310  0.0985
 2680W        W 4830   5.677   0.998   0.595 -0.2039  0.2122  0.3740
 2681W        W 4831  16.425   5.622  30.628 -0.0356  0.0454  0.0182
 2682W        W 4832  15.549   0.069  23.183  0.0106 -0.4193  0.1940
 2683W        W 4833  10.369   0.982   8.430  0.1914 -0.1722  0.0572
 2684W        W 4834  22.507   0.991  13.668  0.2675  0.0623  0.0891
 2685W        W 4835  20.874   0.721  34.540 -0.0500  0.0515 -0.2733
 2686W        W 4836  11.258   6.238  12.476 -0.0437 -0.1601 -0.2297
 2687W        W 4837  20.789   3.599   8.676  0.1338 -0.1053  0.0780
 2688W        W 4838  25.128   4.527   2.672  0.3471 -0.0122 -0.0746
 2689W        W 4839  11.771   5.207  12.287 -0.5791 -0.2508 -0.0109
 2690W        W 4840  11.824   4.023  34.391  0.0852 -0.0557  0.2360
 2691W        W 4841   4.135   3.470   5.277 -0.3885 -0.2879 -0.1526
 2692W        W 4842   4.393   4.447   9.799 -0.1983 -0.0831  0.1451
 2693W        W 4843  17.667   2.646  10.109 -0.2043  0.0450  0.0314
 2694W        W 4844  26.221   1.904   0.430  0.1778  0.0484  0.3220
 2695W        W 4845   4.040   3.195  22.860 -0.3413 -0.2655 -0.0366
 2696W        W 4846  19.794   6.174  10.642  0.2095  0.1307 -0.0170
 2697W        W 4847  26.067   0.983  31.647 -0.2232  0.1647  0.0539
 2698W        W 4848  25.048   4.785   8.186 -0.2664 -0.2244  0.1470
 2699W        W 4849   6.166   2.175  28.255 -0.0608 -0.3374  0.0320
 2700W        W 4850  12.640   4.004  26.528  0.0944  0.1360 -0.1347
 2701W        W 4851   6.288   1.085  11.950 -0.3781 -0.2883  0.0845
 2702W        W 4852  17.465   6.250   4.818 -0.1138  0.2036  0.1773
 2703W        W 4853  18.569   4.209  29.956 -0.0354 -0.1070 -0.3361
 2704W        W 4854  12.451   4.486  21.968  0.2002 -0.1475 -0.0397
 2705W        W 4855  24.344   0.857  23.649  0.0942 -0.0739 -0.2249
 2706W        W 4856   4.856   4.323  33.794 -0.3266 -0.2161  0.1535
 2707W        W 4857  25.766   2.276   7.641  0.0972 -0.0473  0.0682
 2708W        W 4858  15.003   6.400  14.760  0.2821 -0.0440  0.0370
 2709W        W 4859   7.785   1.465   2.183 -0.2238  0.0607 -0.1947
 2710W        W 4860   0.591   5.643   1.632  0.0923  0.0064  0.2036
 2711W        W 4861  23.839   0.212  22.324 -0.0071  0.0432  0.0546
 2712W        W 4862  12.145   5.712   8.271 -0.3690  0.0064  0.0355
 2713W        W 4863   1.947   5.776  25.887 -0.0699 -0.0685 -0.1497
 2714W        W 4864   4.982   5.543  12.420 -0.1093  0.1719 -0.0448
 2715W        W 4865  25.698   5.269  22.943  0.1220  0.0760 -0.2100
 2716W        W 4866  12.169   0.542  30.307  0.0148 -0.0073 -0.1757
 2717W        W 4867  16.144   3.782   5.422 -0.1381 -0.4273 -0.3038
 2718W        W 4868   2.604   6.224   6.407  0.1593  0.2302 -0.2792
 2719W        W 4869  14.079   5.568  24.231 -0.3395 -0.0270  0.3104
 2720W        W 4870  16.591   5.858   7.822 -0.1524  0.1583  0.3120
 2721W        W 4871  26.219   3.841  23.139  0.0977  0.1775 -0.1826
 2722W        W 4872  22.183   4.274  14.679  0.1982 -0.0112 -0.0582
 2723W        W 4873   7.457   0.818  24.545 -0.0217  0.2324 -0.1243
 2724W        W 4874  22.155   5.739  12.944 -0.1405  0.0241 -0.1305
 2725W        W 4875  25.509   2.470  30.228 -0.1333 -0.0910  0.0390
 2726W        W 4876  18.756   3.352  13.368  0.1824 -0.2089  0.1790
 2727W        W 4877  15.108   2.417  22.310  0.2144  0.2540 -0.0779
 2728W        W 4878   9.498   2.900  35.375 -0.1031 -0.0671 -0.1986
 2729W        W 4879  14.555   2.299  27.230  0.1742 -0.1823 -0.1114
 2730W        W 4880   6.638   4.161   7.997 -0.1201 -0.0909 -0.1108
 2731W        W 4881  13.230   0.531   6.238 -0.1305  0.0202 -0.3078
 2732W        W 4882   9.889   3.719  11.452 -0.0911 -0.3879  0.0833
 2733W        W 4883  16.224   3.843   3.082 -0.1777 -0.3289  0.2552
 2734W        W 4884  17.542   5.293  20.756  0.2460 -0.0457  0.1754
 2735W        W 4885   3.969   0.608  30.819  0.0723 -0.0343 -0.0678
 2736W        W 4886   2.490   1.566  13.540 -0.1218  0.1698  0.2955
 2737W        W 4887  10.803   2.932   4.095 -0.4531 -0.3214  0.3108
 2738W        W 4888   9.975   3.200   7.698  0.1275 -0.2696  0.1799
 2739W        W 4889   5.310   1.962  14.304 -0.2130 -0.2842 -0.0708
 2740W        W 4890   6.162   3.940   9.306  0.1460  0.1173  0.2602
 2741W        W 4891  21.389   1.650   6.634 -0.0394  0.2803 -0.0602
 2742W        W 4892  22.210   4.715  22.427 -0.1542  0.3670  0.1741
 2743W        W 4893  15.734   3.547  15.242 -0.0995  0.2005 -0.1570
 2744W        W 4894   9.326   2.217  36.091  0.0506  0.0028 -0.0417
 2745W        W 4895   6.261   6.586  14.422 -0.1127  0.0807  0.2035
 2746W        W 4896   8.557   1.248  21.035  0.2779  0.0075  0.0161
 2747W        W 4897  22.242   0.354  10.372 -0.0115  0.0309  0.3592
 2748W        W 4898   8.056   5.550  29.785 -0.0373 -0.3449  0.1347
 2749W        W 4899   7.150   0.612  11.521 -0.3867 -0.0276 -0.1279
 2750W        W 4900  19.365   2.442   2.958  0.3541  0.3317  0.0424
 2751W        W 4901  19.770   5.894  28.646  0.0192 -0.0559 -0.0149
 2752W        W 4902  14.693   3.679   3.766 -0.0870  0.0416 -0.0556
 2753W        W 4903  13.028   1.097  12.041 -0.1317 -0.1748 -0.4919
 2754W        W 4904  24.916   2.379  24.248 -0.0396 -0.0824 -0.2732
 2755W        W 4905  10.766   0.310  12.281 -0.4439  0.1082 -0.0069
 2756W        W 4906   0.372   4.078  13.230 -0.0691 -0.0539  0.0995
 2757W        W 4907  20.398   6.605   5.205  0.1084  0.2818 -0.0313
 2758W        W 4908  19.313   1.634   1.025  0.1205  0.0217 -0.1553
 2759W        W 4909  26.387   4.930  31.210 -0.2256  0.0359 -0.0423
 2760W        W 4910   2.047   1.778  23.506 -0.3481 -0.1152  0.2272
 2761W        W 4911  19.545   6.466   6.713  0.0901  0.0343  0.1686
 2762W        W 4912  13.493   4.202   7.909 -0.0790 -0.0855  0.4273
 2763W        W 4913  19.032   0.710  32.626 -0.0236 -0.0490  0.0932
 2764W        W 4914  10.803   2.508  33.528 -0.0300  0.3076 -0.2669
 2765W        W 4915   2.161   5.286  29.931  0.0692 -0.0958  0.2626
 2766W        W 4916  10.421   0.733  25.128  0.0544 -0.2685  0.3996
 2767W        W 4917  23.535   2.015  31.866  0.0195 -0.2538 -0.0398
 2768W        W 4918   9.972   5.115  22.759  0.1188  0.1146 -0.1949
 2769W        W 4919  12.416   1.052  23.779 -0.3964  0.0408 -0.0734
 2770W        W 4920  16.545   3.567  24.581 -0.0936 -0.2956  0.0289
 2771W        W 4921  12.077   6.461   1.586  0.1477  0.0015  0.2023
 2772W        W 4922  14.826   1.563   9.886 -0.1714  0.1105 -0.0753
 2773W        W 4923   5.190   3.194  29.111  0.0132  0.0258 -0.0004
 2774W        W 4924   1.118   2.144  10.686  0.2088  0.0363 -0.2116
 2775W        W 4925  25.853   6.378  30.441  0.3049 -0.1785 -0.2888
 2776W        W 4926   6.356   4.761  14.096  0.3413  0.0958 -0.2481
 2777W        W 4927  23.321   1.056  12.998  0.0078  0.0298 -0.1259
 2778W        W 4928   3.816   4.509  24.207  0.0531 -0.0601 -0.2752
 2779W        W 4929   3.383   1.781   8.708 -0.0562 -0.1836  0.1446
 2780W        W 4930  17.619   6.064   7.168 -0.2269 -0.1840  0.1540
 2781W        W 4931   1.297   4.604  26.796 -0.0559 -0.0289  0.0012
 2782W        W 4932   0.391   4.837  25.081 -0.0245  0.0059  0.0801
 2783W        W 4933   6.035   4.854  27.426  0.3257  0.0375 -0.0726
 2784W        W 4934   4.284   5.847   4.320  0.2204  0.0298  0.0644
 2785W        W 4935   0.218   0.537  28.656  0.1988  0.0073 -0.0205
 2786W        W 4936   1.378   4.232  26.468 -0.0343  0.0354  0.1851
 2787W        W 4937  16.915   1.026  10.616 -0.0833  0.2172  0.0530
 2788W        W 4938  18.506   6.428   9.212 -0.0160  0.0156  0.2123
 2789W        W 4939  26.232   4.885   0.938 -0.2266 -0.0349  0.0180
 2790W        W 4940  20.191   4.196  28.004 -0.0267  0.1484  0.0510
 2791W        W 4941   0.823   4.390  35.731  0.3084  0.3240  0.3946
 2792W        W 4942  10.717   6.283  13.266 -0.1371  0.0125 -0.0403
 2793W        W 4943   5.149   1.825  29.319  0.0927 -0.0274  0.0920
 2794W        W 4944  21.801   5.565  29.484 -0.1921 -0.1188  0.1128
 2795W        W 4945   5.570   1.312  27.857 -0.0418 -0.2590  0.1017
 2796W        W 4946  19.310   3.116  25.233  0.1378 -0.0205 -0.0673
 2797W        W 4947  19.899   3.590  15.333  0.1294 -0.1604 -0.4121
 2798W        W 4948   6.051   0.851  20.086 -0.1646 -0.1436  0.2918
 2799W        W 4949  16.406   5.221  21.748  0.0052 -0.3171  0.1317
 2800W        W 4950  21.980   1.073  14.872  0.1567  0.0271 -0.2031
 2801W        W 4951  24.236   6.506  33.552  0.2371  0.3098  0.0482
 2802W        W 4952   1.434   0.741  31.263 -0.2342 -0.0216  0.3212
 2803W        W 4953  14.366   6.153  34.986  0.0609 -0.1170 -0.0991
 2804W        W 4954   2.668   2.870   3.690  0.1950  0.1788  0.2479
 2805W        W 4955  16.174   2.498   0.054  0.0097  0.1451  0.0170
 2806W        W 4956  26.103   2.812   6.278  0.1847  0.0486  0.1461
 2807W        W 4957  20.344   4.738   6.265  0.2040  0.0053  0.0669
 2808W        W 4958  17.198   4.225  33.309  0.1911  0.1741  0.1411
 2809W        W 4959  21.977   1.708   3.810  0.1759  0.0745 -0.1861
 2810W        W 4960  26.314   1.221  10.494  0.0442  0.2380  0.0399
 2811W        W 4961  15.147   4.760   7.676  0.0056  0.1165 -0.0089
 2812W        W 4962   6.189   4.144  34.548  0.1964  0.2692 -0.0334
 2813W        W 4963  25.044   2.269  11.434 -0.3208  0.1832 -0.2982
 2814W        W 4964  22.001   4.238  35.737 -0.2134  0.3370 -0.1672
 2815W        W 4965  22.534   3.478  28.335  0.0795 -0.0869  0.3710
 2816W        W 4966   6.858   1.972  23.863 -0.2853  0.3564  0.1284
 2817W        W 4967   5.480   6.164  29.109  0.0271  0.1276 -0.0871
 2818W        W 4968   4.229   3.635  35.688 -0.0252  0.1611  0.0882
 2819W        W 4969   9.835   6.383  27.872  0.0032  0.0290 -0.0377
 2820W        W 4970   2.611   2.180  21.552 -0.2894 -0.1767 -0.1139
 2821W        W 4971  11.600   4.475   7.861 -0.2821  0.0409  0.0657
 2822W        W 4972   9.060   1.548  32.491 -0.0119 -0.1086  0.1170
 2823W        W 4973  12.428   3.000  12.223  0.1552  0.1200 -0.0170
 2824W        W 4974  13.914   3.396  29.997  0.0921  0.0697 -0.1689
 2825W        W 4975   9.681   1.081  32.387  0.1866 -0.0228  0.0832
 2826W        W 4976   8.064   0.648  13.946 -0.2019 -0.2248  0.3733
 2827W        W 4977  14.458   1.786   5.506 -0.3984  0.1969 -0.1385
 2828W        W 4978   0.868   4.226  11.015  0.1093  0.0227 -0.0940
 2829W        W 4979   2.747   2.369  26.441  0.2402  0.0834 -0.1839
 2830W        W 4980  25.752   6.582   6.282 -0.3702  0.2861 -0.0709
 2831W        W 4981   6.340   4.344  28.690 -0.1037 -0.1197 -0.1686
 2832W        W 4982   3.336   2.904   2.436 -0.2352  0.0390  0.1540
 2833W        W 4983  16.296   5.892  20.986 -0.0235  0.0556 -0.3080
 2834W        W 4984  11.142   6.179  35.042  0.2300  0.1397 -0.2568
 2835W        W 4985  13.851   3.199  10.443 -0.0924 -0.0121  0.2564
 2836W        W 4986  17.184   2.459   7.922  0.0334 -0.1518 -0.1986
 2837W        W 4987  21.275   4.678   3.814 -0.2951 -0.0729 -0.1972
 2838W        W 4988  22.143   4.592   1.452 -0.1512 -0.2040 -0.1848
 2839W        W 4989  20.324   2.278  24.663  0.3049  0.1677 -0.0635
 2840W        W 4990  22.873   4.365  32.918 -0.1154 -0.1234  0.1856
 2841W        W 4991   4.600   1.245   5.989  0.2426  0.3706  0.0431
 2842W        W 4992  11.481   1.279  13.348 -0.2036 -0.0030 -0.3648
 2843W        W 4993   2.737   1.351  26.791 -0.2555  0.3883 -0.0479
 2844W        W 4994   7.862   4.519   2.182  0.2768 -0.2703  0.1198
 2845W        W 4995   5.749   4.796  11.518  0.1086  0.1018  0.1112
 2846W        W 4996   4.104   4.129  31.194  0.2655 -0.0958 -0.0892
 2847W        W 4997  15.625   5.045  14.315  0.0424  0.0405 -0.0724
 2848W        W 4998  16.284   6.583  30.978  0.0076 -0.0759  0.0589
 2849W        W 4999  18.884   3.885  31.931  0.0457 -0.1732  0.0241
 2850W        W 5000  19.865   1.174  22.249  0.0933 -0.0495  0.2398
 2851W        W 5001  20.658   5.462   7.377  0.0182  0.0963  0.0755
 2852W        W 5002  24.875   2.195   8.987  0.0363  0.0660  0.4706
 2853W        W 5003   1.104   0.696   0.229 -0.0998 -0.2538  0.0320
 2854W        W 5004  20.388   4.506   1.265 -0.1645  0.4088  0.0326
 2855W        W 5005  12.692   2.098  27.245 -0.1028  0.1031 -0.3338
 2856W        W 5006   0.778   0.189  35.702  0.1923 -0.1052  0.0158
 2857W        W 5007  22.221   0.578  31.283  0.1170 -0.0124  0.3012
 2858W        W 5008   7.569   0.394  22.131  0.2310  0.1908  0.0694
 2859W        W 5009  22.635   2.567  21.610 -0.2708 -0.1677  0.1660
 2860W        W 5010  23.195   6.456  10.065 -0.0216  0.0948  0.1750
 2861W        W 5011  11.762   5.488   8.611 -0.4032 -0.0025 -0.0654
 2862W        W 5012   9.419   1.300   7.091 -0.0852  0.0419  0.3117
 2863W        W 5013   8.272   4.312  11.195  0.0252  0.0204 -0.1105
 2864W        W 5014  18.811   0.386  29.054 -0.0078 -0.0297  0.2209
 2865W        W 5015  16.089   3.855  31.252 -0.1181 -0.0302 -0.0983
 2866W        W 5016  15.771   5.630  30.045  0.0420 -0.0037 -0.0924
 2867W        W 5017  11.976   3.700  22.563 -0.0260 -0.2398  0.1406
 2868W        W 5018  16.520   2.706  30.710 -0.2305  0.0642  0.1911
 2869W        W 5019  21.194   4.807  25.297 -0.0242  0.0514  0.1408
 2870W        W 5020   5.531   1.425   6.217 -0.1059 -0.2579  0.4349
 2871W        W 5021  20.467   1.575  25.285  0.2853 -0.0055  0.1028
 2872W        W 5022  14.780   4.299  10.054 -0.1540 -0.0714  0.2994
 2873W        W 5023   6.425   1.991  21.363  0.3691 -0.2026  0.1851
 2874W        W 5024   1.229   0.747  35.080 -0.0019 -0.1222  0.0668
 2875W        W 5025  12.690   1.833  15.009 -0.0193 -0.0192  0.2854
 2876W        W 5026   7.919   3.529  13.927 -0.1125 -0.1428  0.1273
 2877W        W 5027  22.825   4.954  25.774 -0.0479 -0.1208  0.1297
 2878W        W 5028   9.444   2.413  15.339 -0.0923  0.3042  0.1076
 2879W        W 5029  19.742   4.406   5.053 -0.0634 -0.4342 -0.0521
 2880W        W 5030  10.771   1.700   8.882 -0.0347  0.4200 -0.1444
 2881W        W 5031  15.419   3.740   4.591  0.2086  0.1091 -0.1356
 2882W        W 5032   9.883   4.675  30.130 -0.1169 -0.1747  0.0792
 2883W        W 5033   6.166   6.334  34.302  0.1722  0.0109 -0.0561
 2884W        W 5034  20.125   1.333  28.502  0.1578  0.2525 -0.4223
 2885W        W 5035  25.271   2.269  29.790  0.0389 -0.3133  0.0216
 2886W        W 5036  12.196   5.098   6.616  0.1322  0.2017 -0.2091
 2887W        W 5037  24.143   1.827   9.076  0.0130 -0.1882 -0.0374
 2888W        W 5038  11.599   4.232   3.503  0.2850 -0.1736 -0.1239
 2889W        W 5039  25.421   1.848  23.687  0.1392 -0.4095  0.0798
 2890W        W 5040  19.900   0.226   2.109 -0.2252 -0.2362 -0.0572
 2891W        W 5041  13.874   2.574   6.375 -0.0414  0.2176  0.1105
 2892W        W 5042  24.925   6.285  10.278  0.2968 -0.2098  0.1062
 2893W        W 5043  20.919   5.583  13.598  0.0160 -0.2094 -0.0624
 2894W        W 5044  19.584   3.619  21.942  0.1991  0.1524  0.2805
 2895W        W 5045  12.244   4.274  10.616  0.1491  0.3461  0.0095
 2896W        W 5046  11.361   2.627  33.685 -0.1332 -0.2534 -0.0961
 2897W        W 5047   3.204   2.150  11.937  0.2805 -0.0364  0.1627
 2898W        W 5048  14.232   1.366  33.390  0.1635  0.0300  0.2778
 2899W        W 5049  11.451   5.545   5.935 -0.1523 -0.0450  0.1865
 2900W        W 5050  19.141   4.491  27.041 -0.2818 -0.0395 -0.2651
 2901W        W 5051  17.380   5.002   9.358 -0.2968 -0.2790  0.3137
 2902W        W 5052   7.439   4.552  28.397  0.1159  0.2785 -0.1343
 2903W        W 5053   6.328   0.472   6.234  0.2299  0.2439 -0.1101
 2904W        W 5054  15.007   6.264  24.499 -0.1498 -0.2606  0.2789
 2905W        W 5055   4.432   6.401  25.618  0.1624 -0.0562 -0.2939
 2906W        W 5056  22.260   0.856  10.328  0.0263  0.0271 -0.1273
 2907W        W 5057   3.981   0.346   8.632  0.0225  0.1182  0.0503
 2908W        W 5058  15.793   4.316  12.063 -0.0465  0.0620 -0.2562
 2909W        W 5059   7.897   2.892  30.460  0.3186  0.1426  0.1138
 2910W        W 5060  25.134   2.397  28.605 -0.1439 -0.0322  0.1139
 2911W        W 5061   3.536   4.742   2.763  0.0097 -0.3534 -0.0616
 2912W        W 5062  18.369   1.664  22.397  0.3849  0.2838  0.3810
 2913W        W 5063   1.812   2.689   5.370 -0.1791 -0.2038 -0.4485
 2914W        W 5064  23.923   4.220   5.822 -0.1546 -0.2786 -0.2283
 2915W        W 5065  11.644   4.129   8.301  0.1731  0.2723  0.1997
 2916W        W 5066  23.982   4.110  21.045 -0.2643 -0.0597  0.0052
 2917W        W 5067   3.013   6.580  22.149 -0.4105  0.2927  0.0276
 2918W        W 5068  16.407   1.744   1.221  0.0014 -0.1341 -0.0329
 2919W        W 5069  24.333   3.057  30.721 -0.1240  0.0145  0.2189
 2920W        W 5070  16.225   2.848  24.961 -0.1403  0.0653 -0.1228
 2921W        W 5071  16.129   2.727  25.653  0.1638 -0.0917  0.1008
 2922W        W 5072   9.309   5.499  29.961  0.1233 -0.1097 -0.1141
 2923W        W 5073   2.663   4.506   0.367 -0.1197  0.0836  0.1006
 2924W        W 5074  17.628   3.202   6.315  0.1317 -0.0985 -0.1988
 2925W        W 5075  14.589   1.634  30.672  0.3073  0.2874 -0.0500
 2926W        W 5076  17.988   3.622  27.331 -0.1941 -0.0342 -0.0254
 2927W        W 5077   7.363   5.913  29.111 -0.0435 -0.2098 -0.1260
 2928W        W 5078  25.109   0.917  34.519  0.0692 -0.3420 -0.3502
 2929W        W 5079   2.219   5.190  33.286 -0.2086  0.0820 -0.2065
 2930W        W 5080   1.471   4.672  20.940 -0.2581 -0.0869 -0.1924
 2931W        W 5081   1.067   5.842  32.511 -0.2267 -0.1845  0.3027
 2932W        W 5082   2.254   2.865  28.132 -0.1584 -0.0295  0.1440
 2933W        W 5083  25.946   4.909  13.168  0.3004  0.1286 -0.0628
 2934W        W 5084  23.101   2.587  13.035 -0.0043 -0.0830  0.1587
 2935W        W 5085   1.501   5.992  12.455  0.0633  0.0567 -0.2786
 2936W        W 5086   0.961   1.598  30.449 -0.2484  0.0933  0.0022
 2937W        W 5087  10.722   5.669  12.703  0.0883  0.1777 -0.0068
 2938W        W 5088  26.036   2.955  21.942 -0.1935 -0.1820  0.2377
 2939W        W 5089  23.205   3.516  14.574 -0.2527 -0.1307  0.0631
 2940W        W 5090  12.384   4.724  13.489 -0.3104 -0.0218 -0.2119
 2941W        W 5091  14.273   1.875  23.020 -0.1314  0.0546 -0.1505
 2942W        W 5092   5.177   2.016  11.547 -0.3184 -0.2146  0.1430
 2943W        W 5093  25.771   3.107  22.762  0.0317  0.0075  0.0055
 2944W        W 5094  13.781   1.268   2.899  0.0609 -0.1461 -0.0531
 2945W        W 5095  23.600   5.940  14.624 -0.3696  0.0346 -0.0554
 2946W        W 5096  19.248   0.065   8.478 -0.0740 -0.1127  0.1190
 2947W        W 5097  12.123   3.441  34.442  0.0716  0.1306  0.0791
 2948W        W 5098  19.848   1.487   5.707 -0.1729  0.0799 -0.0481
 2949W        W 5099  10.170   6.031   3.770 -0.1598 -0.1394  0.3705
 2950W        W 5100  10.473   6.514   1.741 -0.3634  0.0103  0.1060
 2951W        W 5101  25.509   0.932  21.913 -0.2111 -0.0643 -0.0668
 2952W        W 5102   3.344   6.496  10.311 -0.1010 -0.0339  0.0077
 2953W        W 5103   6.881   3.469   9.646 -0.2393  0.0830 -0.1343
 2954W        W 5104  12.908   2.086  23.557  0.1655 -0.0216  0.1322
 2955W        W 5105  25.347   5.337  22.551 -0.2302  0.0838 -0.1837
 2956W        W 5106  20.798   4.519  21.263 -0.0975  0.4686 -0.0526
 2957W        W 5107  13.973   0.133  15.051 -0.0552 -0.1677 -0.0361
 2958W        W 5108   0.968   5.979  33.685  0.0484  0.2260 -0.0383
 2959W        W 5109   5.187   0.540  13.209  0.0486 -0.0365  0.0559
 2960W        W 5110  14.148   5.858  35.516  0.1105 -0.0213 -0.0517
 2961W        W 5111  18.922   2.800  29.371 -0.1180  0.0483  0.0318
 2962W        W 5112  16.432   0.558  35.062 -0.1363 -0.0842  0.0890
 2963W        W 5113   1.444   5.304   2.571  0.0521  0.0156 -0.0742
 2964W        W 5114  15.736   3.764  10.735 -0.1312 -0.1696 -0.0966
 2965W        W 5115   4.683   6.199   6.970 -0.3751 -0.0877  0.0593
 2966W        W 5116  13.821   6.100  26.347  0.0758  0.1918  0.1784
 2967W        W 5117  19.857   2.837  28.501 -0.1903 -0.1927 -0.1805
 2968W        W 5118  22.060   6.476   0.798  0.0409 -0.0957 -0.0657
 2969W        W 5119   2.592   4.740  20.714 -0.1291 -0.1580 -0.0819
 2970W        W 5120  14.704   5.117   3.767  0.2865 -0.0473 -0.0198
 2971W        W 5121  13.319   4.724  34.684  0.4877 -0.2879 -0.0031
 2972W        W 5122  25.256   4.901   6.830 -0.0375 -0.0267  0.0511
 2973W        W 5123   5.992   4.822   0.085 -0.0055 -0.0255  0.2237
 2974W        W 5124  20.513   4.116   9.892  0.1107  0.0574  0.2923
 2975W        W 5125   1.833   0.204  25.839  0.1267  0.0614  0.0268
 2976W        W 5126  18.360   1.323  12.170 -0.0400 -0.0200 -0.0984
 2977W        W 5127   1.512   6.263  27.457  0.2370  0.0499 -0.0405
 2978W        W 5128  23.028   3.989   5.575 -0.1891 -0.0473 -0.2495
 2979W        W 5129   0.259   5.388   7.368 -0.2927  0.0622 -0.1943
 2980W        W 5130   3.551   4.446  27.333 -0.1761  0.1266  0.1990
 2981W        W 5131  17.668   2.711   8.037 -0.0694  0.1779  0.2153
 2982W        W 5132  19.494   2.333  26.434  0.0581  0.2046  0.0487
 2983W        W 5133  22.294   3.541   3.567  0.1055 -0.3559  0.2311
 2984W        W 5134  24.901   0.667  31.490  0.1020 -0.0705 -0.3531
 2985W        W 5135   5.209   0.051  22.953 -0.1030 -0.0429  0.0214
 2986W        W 5136  19.620   1.448  35.246 -0.1852  0.4386  0.2003
 2987W        W 5137  17.656   6.121  22.475 -0.0832 -0.2081  0.0447
 2988W        W 5138  22.431   4.049  33.718 -0.1368  0.3210  0.1966
 2989W        W 5139  24.319   4.903   9.160 -0.1873  0.3522  0.1993
 2990W        W 5140   3.675   0.027   1.361 -0.2021 -0.0717  0.1315
 2991W        W 5141  11.512   0.614  26.557  0.0943  0.4722 -0.0507
 2992W        W 5142   7.336   0.100   0.571 -0.1919 -0.1125  0.3719
 2993W        W 5143   6.553   2.392  34.100  0.0984 -0.2409  0.1555
 2994W        W 5144   3.725   1.374   7.061 -0.0087 -0.0584 -0.2115
 2995W        W 5145   6.346   4.378  35.016  0.1001  0.0391 -0.2473
 2996W        W 5146   9.590   0.108   7.676 -0.0544  0.0733 -0.1699
 2997W        W 5147  11.874   1.058   3.498  0.1234 -0.0569 -0.0205
 2998W        W 5148  21.580   3.636  11.764 -0.3607  0.0119  0.1023
 2999W        W 5149  15.032   0.267  26.179  0.3916  0.3133  0.1043
 3000W        W 5150  25.120   3.566   5.207  0.3367 -0.1285 -0.1978
 3001W        W 5151  11.502   0.085  21.364 -0.1097  0.2428 -0.2528
 3002W        W 5152  25.699   1.997  34.406 -0.1812 -0.0051  0.3301
 3003W        W 5153   2.157   4.223  23.084  0.3577 -0.3846  0.0102
 3004W        W 5154   9.964   4.312  26.796  0.0537  0.0416  0.0242
 3005W        W 5155  23.186   6.199  14.401 -0.0890  0.0155 -0.1683
 3006W        W 5156  14.194   0.670   0.076  0.2045  0.2023 -0.1894
 3007W        W 5157   7.389   0.895  29.621  0.1572 -0.2912 -0.3004
 3008W        W 5158  17.886   6.068  21.760 -0.0476 -0.0026 -0.0936
 3009W        W 5159   0.941   4.306  28.383  0.0952 -0.2465  0.2296
 3010W        W 5160  17.074   0.040  33.884 -0.1448 -0.1984 -0.0721
 3011W        W 5161  17.986   1.932   7.970  0.1362 -0.0437 -0.1991
 3012W        W 5162   2.108   0.835   2.553 -0.0054 -0.0109  0.0709
 3013W        W 5163  21.231   0.851   6.986  0.0596  0.3067 -0.2851
 3014W        W 5164  23.006   6.432  34.007 -0.2622  0.1508 -0.4455
 3015W        W 5165  20.763   0.435  11.200 -0.5438  0.1329  0.1109
 3016W        W 5166   2.191   2.398  28.230  0.0543  0.0233 -0.0752
 3017W        W 5167  19.195   1.863  29.064  0.0593 -0.1629  0.0440
 3018W        W 5168   8.235   0.495  35.522 -0.2187 -0.2675 -0.1948
 3019W        W 5169   4.557   4.903   9.618  0.1057 -0.0016  0.1121
 3020W        W 5170  13.679   0.949  22.996 -0.0236 -0.0722  0.0302
 3021W        W 5171   0.153   6.040  11.258  0.2449  0.0736  0.0938
 3022W        W 5172   2.301   5.012  26.864  0.1753  0.1609  0.2625
 3023W        W 5173  20.172   5.805  31.565 -0.1096 -0.2035 -0.0064
 3024W        W 5174  18.832   3.795  33.847 -0.0234 -0.2705 -0.0535
 3025W        W 5175  23.533   6.080  25.569 -0.0820 -0.1027  0.1668
 3026W        W 5176  19.882   0.453  31.681  0.0411 -0.0027  0.2190
 3027W        W 5177  20.860   5.376   9.460 -0.0516  0.0360 -0.0002
 3028W        W 5178   2.507   3.972  26.117  0.2732  0.3195 -0.0579
 3029W        W 5179   5.898   4.796  33.686 -0.1216 -0.3038 -0.1357
 3030W        W 5180  26.201   2.516  35.964 -0.0146  0.2337 -0.1413
 3031W        W 5181   2.273   0.796   0.858 -0.2637  0.1595  0.0213
 3032W        W 5182  14.371   3.150   7.149  0.2828 -0.3821 -0.1879
 3033W        W 5183  22.714   1.764  29.054  0.0116  0.1165  0.1025
 3034W        W 5184  13.400   0.078   8.574 -0.1843 -0.4299  0.0917
 3035W        W 5185   6.954   2.456  32.769 -0.1944 -0.0170 -0.1274
 3036W        W 5186   7.024   4.294  24.505 -0.0249 -0.1734  0.0042
 3037W        W 5187   5.471   3.309  25.142  0.1085 -0.0823 -0.0072
 3038W        W 5188  15.459   0.624  35.195  0.1108 -0.2557  0.3621
 3039W        W 5189  14.348   0.984  30.093  0.0030  0.1051 -0.1717
 3040W        W 5190  13.533   0.834   9.658 -0.2349  0.0368  0.0784
 3041W        W 5191   7.391   5.573   1.725 -0.0191  0.2195  0.0756
 3042W        W 5192   1.324   4.498  22.902 -0.2500  0.0986  0.1893
 3043W        W 5193   6.939   5.435  11.357 -0.0262 -0.2270  0.0651
 3044W        W 5194   7.555   6.399  33.924  0.2653  0.0798 -0.0860
 3045W        W 5195  16.572   5.701   5.227  0.0276  0.0457  0.0717
 3046W        W 5196   3.035   2.375  10.976 -0.0968 -0.1572 -0.1328
 3047W        W 5197   6.155   3.500   2.786  0.1027 -0.2794 -0.0825
 3048W        W 5198  22.391   0.376  13.024 -0.3094 -0.0347  0.0566
 3049W        W 5199   2.000   1.812  26.719 -0.0669 -0.1987  0.0565
 3050W        W 5200   4.631   1.890  23.108  0.1020 -0.0957 -0.1922
 3051W        W 5201  25.768   3.811   9.610 -0.0167 -0.0466  0.0286
 3052W        W 5202  20.363   0.357   1.992 -0.0600  0.1995  0.1042
 3053W        W 5203  18.060   6.362  32.380  0.0364 -0.0889 -0.1788
 3054W        W 5204   8.862   0.812  27.579 -0.3909  0.1217  0.2129
 3055W        W 5205  24.816   5.199   3.463 -0.0870 -0.0177  0.2672
 3056W        W 5206   8.535   1.376   9.296 -0.3161 -0.2855 -0.2926
 3057W        W 5207  19.866   2.943  32.141  0.2045  0.0436  0.1431
 3058W        W 5208  13.229   5.012  21.652 -0.0076  0.0485 -0.0421
 3059W        W 5209   0.606   3.225  33.890 -0.1066  0.0383  0.4297
 3060W        W 5210  18.091   1.566  20.944  0.2399  0.4061 -0.0397
 3061W        W 5211  21.062   0.128  29.523  0.1103  0.2695  0.1122
 3062W        W 5212  16.910   0.543  22.892  0.1150  0.1242  0.3395
 3063W        W 5213  24.077   2.932  31.404  0.0288  0.0301  0.1711
 3064W        W 5214   9.740   4.322   2.124 -0.0169  0.3914 -0.0634
 3065W        W 5215   0.920   5.081  10.286 -0.3432  0.1136 -0.2127
 3066W        W 5216   6.253   4.871   1.835 -0.1547 -0.3038 -0.1932
 3067W        W 5217  16.577   5.840  33.652  0.2409 -0.2282  0.1526
 3068W        W 5218   9.014   5.554  25.615 -0.0289  0.0794  0.0759
 3069W        W 5219  24.532   3.475   0.385  0.2685 -0.2310  0.0981
 3070W        W 5220   1.018   6.506  34.251 -0.0332 -0.0588  0.2137
 3071W        W 5221  18.608   3.890   3.889 -0.0772  0.2805 -0.1489
 3072W        W 5222   7.037   4.552   6.875  0.0551 -0.2328  0.1945
 3073W        W 5223  24.394   6.465  12.366 -0.0991 -0.0958  0.0145
 3074W        W 5224   7.872   5.672  23.613 -0.2205  0.0549  0.1525
 3075W        W 5225   5.901   2.927  27.240 -0.1286  0.2500 -0.0482
 3076W        W 5226  25.814   3.278  13.004 -0.1127 -0.2662 -0.1127
 3077W        W 5227  25.981   3.097  23.898  0.0173  0.0102  0.0554
 3078W        W 5228  15.872   2.961  10.337 -0.2101 -0.1543 -0.0688
 3079W        W 5229  26.136   2.186   3.711 -0.0628 -0.0824  0.1145
 3080W        W 5230   3.014   1.543  23.443  0.1295 -0.1299 -0.0312
 3081W        W 5231   3.657   2.118   1.346 -0.3079  0.1341 -0.0502
 3082W        W 5232  24.514   3.450  13.211  0.2075 -0.2041 -0.1103
 3083W        W 5233  20.183   5.765   0.738  0.0782 -0.4766 -0.3278
 3084W        W 5234   8.386   6.026   2.662 -0.2214  0.2540 -0.1331
 3085W        W 5235   9.225   0.352  10.425  0.0403  0.2463  0.1476
 3086W        W 5236  12.660   1.888   4.158  0.0191 -0.2296  0.1194
 3087W        W 5237  21.269   5.459   0.984  0.0105  0.2475 -0.0475
 3088W        W 5238   6.845   1.566  20.640 -0.3121  0.0612 -0.1923
 3089W        W 5239   5.102   1.588  31.369 -0.0604 -0.0829  0.0257
 3090W        W 5240   5.724   2.015  20.815 -0.0930 -0.1363  0.0290
 3091W        W 5241  20.445   6.350  28.018  0.1818 -0.1471 -0.0972
 3092W        W 5242  11.847   4.302  13.369 -0.0054 -0.1732 -0.1284
 3093W        W 5243  12.294   5.819  14.882 -0.1027 -0.1531  0.0103
 3094W        W 5244   2.358   5.459  14.671 -0.3021 -0.2495 -0.3680
 3095W        W 5245  12.263   3.421  27.077  0.1575 -0.0233 -0.0652
 3096W        W 5246  23.630   0.930   5.367  0.1061  0.0313 -0.3920
 3097W        W 5247   4.242   3.988  23.223 -0.1632  0.0607  0.0585
 3098W        W 5248   9.547   1.551  21.960 -0.1304  0.2431 -0.0535
 3099W        W 5249  14.142   6.499   0.012 -0.1950 -0.0459 -0.1562
 3100W        W 5250  10.531   2.880  30.520 -0.0314  0.0502  0.0788
 3101W        W 5251  15.265   4.889  29.596 -0.1010  0.3926 -0.4217
 3102W        W 5252  19.882   0.163   5.736 -0.0282  0.3540  0.0080
 3103W        W 5253  17.077   2.315  26.624 -0.2753  0.0911 -0.1742
 3104W        W 5254  13.163   1.408  27.728 -0.0216 -0.0947 -0.0836
 3105W        W 5255  13.542   0.325  25.407 -0.1211 -0.1345 -0.0409
 3106W        W 5256   1.881   0.966   6.297  0.0549  0.0345  0.2188
 3107W        W 5257   1.776   2.293   5.065  0.1561  0.3358 -0.0167
 3108W        W 5258   8.557   3.769  10.403  0.3555  0.0427 -0.1535
 3109W        W 5259  15.951   2.338  22.775 -0.3625 -0.0595 -0.0677
 3110W        W 5260  15.097   3.696   4.050 -0.2655 -0.0355 -0.1634
 3111W        W 5261   6.339   2.690   2.635  0.1677  0.0029 -0.0739
 3112W        W 5262  17.362   5.358  35.995 -0.0903 -0.0477 -0.1050
 3113W        W 5263   8.658   1.187   7.443 -0.0343  0.0019  0.0865
 3114W        W 5264   1.179   1.546  30.874  0.0577  0.0774 -0.0726
 3115W        W 5265   6.536   0.964  22.299  0.2109  0.2056  0.1080
 3116W        W 5266  14.842   5.381  13.776 -0.2186  0.0975 -0.0910
 3117W        W 5267   9.397   4.082  24.592  0.0303 -0.0061 -0.0035
 3118W        W 5268   0.364   0.903   5.946  0.3264  0.2056 -0.0607
 3119W        W 5269  11.932   4.851  36.120 -0.0498  0.0063 -0.4061
 3120W        W 5270  11.601   6.399  25.534  0.2586  0.0644 -0.0625
 3121W        W 5271  24.864   2.330   3.628 -0.1759 -0.1830  0.1315
 3122W        W 5272  12.790   0.436   5.539  0.0434 -0.0743 -0.1785
 3123W        W 5273   9.942   5.453  11.253 -0.1993 -0.1709  0.1585
 3124W        W 5274   3.554   0.932   1.153 -0.1366  0.2118 -0.4278
 3125W        W 5275  24.028   4.711  13.907  0.0446 -0.1597  0.0137
 3126W        W 5276   6.263   0.308  13.175  0.0661 -0.0323  0.1005
 3127W        W 5277   4.165   2.897   8.052  0.0409  0.0298  0.3471
 3128W        W 5278   7.939   3.655  21.334 -0.3410 -0.1008  0.1009
 3129W        W 5279   0.862   2.133   6.146  0.0698  0.0743 -0.0400
 3130W        W 5280  17.153   3.150  31.808  0.2344  0.1877 -0.2169
 3131W        W 5281  25.494   3.732  31.297  0.2072 -0.2086 -0.0667
 3132W        W 5282  23.252   3.859   3.340  0.0194  0.0654 -0.0896
 3133W        W 5283  19.480   5.631   4.913 -0.2880  0.3077 -0.0527
 3134W        W 5284   2.080   3.119   8.607  0.0876  0.0088  0.0082
 3135W        W 5285  19.130   3.516   4.439  0.0747 -0.0208  0.3663
 3136W        W 5286  23.715   4.560  31.129 -0.0370  0.1202  0.0976
 3137W        W 5287  19.301   2.658  12.270  0.0581  0.0093 -0.3363
 3138W        W 5288  18.922   3.192  14.967  0.0602  0.0999 -0.0697
 3139W        W 5289  10.360   4.150   2.836 -0.1932  0.2192  0.0194
 3140W        W 5290  25.074   0.128  21.146 -0.1917  0.0272  0.1088
 3141W        W 5291  15.487   3.503  23.910 -0.1953  0.4151 -0.0627
 3142W        W 5292  12.673   0.166  30.933 -0.1258 -0.0841 -0.1318
 3143W        W 5293  11.358   5.241   2.070 -0.1686 -0.1989  0.1190
 3144W        W 5294  16.304   2.349  28.428 -0.0010 -0.3897 -0.4193
 3145W        W 5295  16.931   3.181  35.059  0.3708  0.1217  0.1318
 3146W        W 5296   8.778   2.249   0.760  0.0890 -0.0416  0.0857
 3147W        W 5297   2.484   3.519   9.657 -0.2705 -0.1891  0.0194
 3148W        W 5298  17.603   0.536   8.613  0.1744  0.1231 -0.0245
 3149W        W 5299   5.079   1.413   6.721  0.0119 -0.0917  0.0823
 3150W        W 5300   9.854   2.426  31.123 -0.0448 -0.0891 -0.0901
 3151W        W 5301  21.998   0.079  11.078  0.0521 -0.2912 -0.0243
 3152W        W 5302   3.710   2.020   5.391 -0.1850 -0.1132 -0.2533
 3153W        W 5303  15.175   1.463   2.387  0.3410  0.1749 -0.1208
 3154W        W 5304   9.633   6.342  10.984  0.1467  0.2056  0.1314
 3155W        W 5305   6.490   2.809  26.721 -0.2329  0.3215 -0.1682
 3156W        W 5306  19.627   0.983  20.834  0.1395 -0.3442  0.3319
 3157W        W 5307   0.892   1.559  32.590  0.2211  0.2664 -0.3205
 3158W        W 5308   0.208   5.070  11.575 -0.0907 -0.3387  0.2348
 3159W        W 5309  11.023   6.191   5.519 -0.0412 -0.4427  0.2223
 3160W        W 5310   4.698   5.004  13.089 -0.0885 -0.0910  0.0254
 3161W        W 5311   9.293   4.140  33.823  0.0543  0.2863 -0.0335
 3162W        W 5312  10.642   6.144  29.489 -0.1067 -0.0875 -0.0892
 3163W        W 5313  25.031   1.396  35.459  0.0993 -0.0848  0.0425
 3164W        W 5314  20.792   3.588  30.180  0.5109  0.1208 -0.1048
 3165W        W 5315  11.757   1.284  30.719  0.0575  0.1331 -0.3137
 3166W        W 5316   2.893   4.941   8.124  0.2008  0.2343 -0.0456
 3167W        W 5317  22.681   1.518  11.143  0.0370  0.0013 -0.0386
 3168W        W 5318   0.605   4.441  28.725  0.0895  0.1263 -0.0849
 3169W        W 5319  10.702   1.884   7.169  0.5426 -0.0258 -0.1371
 3170W        W 5320  20.729   5.792   0.658  0.0343  0.2071 -0.1507
 3171W        W 5321  25.118   0.173   0.668  0.1769  0.2687 -0.2327
 3172W        W 5322  14.582   0.398  13.517 -0.3694 -0.1282 -0.1767
 3173W        W 5323  16.448   0.647  23.273  0.0072  0.1624  0.0669
 3174W        W 5324   3.974   6.160  13.708 -0.1657 -0.0361  0.3863
 3175W        W 5325   6.970   4.456  31.055 -0.2520  0.1863 -0.1022
 3176W        W 5326   6.571   6.540   2.395 -0.0939  0.4560  0.1998
 3177W        W 5327  14.365   1.465  26.786 -0.2518 -0.1960 -0.3209
 3178W        W 5328  17.276   1.969  28.351 -0.0318 -0.2263  0.0223
 3179W        W 5329   7.494   2.595   7.222 -0.1592 -0.0639  0.2717
 3180W        W 5330   4.179   5.602  24.310  0.0916 -0.1673 -0.0430
 3181W        W 5331  12.946   2.823  12.093 -0.0469  0.1628 -0.1133
 3182W        W 5332  25.290   1.965  12.884 -0.0981  0.0858 -0.0447
 3183W        W 5333  24.605   0.172  28.162 -0.3593 -0.0458  0.1464
 3184W        W 5334  10.011   4.926  26.826  0.2172 -0.0210 -0.0081
 3185W        W 5335  22.681   0.672   1.190 -0.1746  0.1396  0.3897
 3186W        W 5336  10.912   5.461  34.725 -0.3706  0.0159 -0.1577
 3187W        W 5337  24.419   4.147   1.244  0.2224 -0.2379  0.1980
 3188W        W 5338  12.341   0.648   7.062 -0.0786 -0.0777 -0.1103
 3189W        W 5339   8.976   6.233   6.480  0.1887  0.1489  0.2103
 3190W        W 5340  20.950   4.021  26.282  0.0664  0.2626  0.1929
 3191W        W 5341  15.541   4.775  23.706  0.1106 -0.1863 -0.3297
 3192W        W 5342  21.016   6.344  32.947 -0.0930 -0.0541  0.1237
 3193W        W 5343   1.545   1.108  35.170  0.1508  0.1113 -0.0845
 3194W        W 5344  14.938   0.971  33.178 -0.1216 -0.2128 -0.3999
 3195W        W 5345  22.244   5.124   6.205  0.0846 -0.1526  0.2108
 3196W        W 5346   0.639   1.296  33.353  0.0477 -0.1728  0.0410
 3197W        W 5347   5.037   5.071  14.055 -0.3906 -0.4344 -0.2069
 3198W        W 5348   3.761   0.841  22.604  0.0693 -0.1235 -0.1272
 3199W        W 5349   5.994   0.630   4.785 -0.1566  0.1563  0.1002
 3200W        W 5350  20.427   6.415  12.563 -0.0603 -0.2567  0.1068
 3201W        W 5351  10.213   6.101  27.451 -0.0083 -0.1952 -0.0492
 3202W        W 5352  17.483   0.873  28.495  0.1707  0.1752  0.0156
 3203W        W 5353  11.651   1.190   5.256 -0.0569 -0.0270  0.0981
 3204W        W 5354   7.654   0.739  11.734  0.2047  0.1096 -0.1179
 3205W        W 5355  12.550   0.444  10.953  0.1391 -0.0025  0.1716
 3206W        W 5356  25.063   3.147  12.348 -0.0972  0.0874  0.1054
 3207W        W 5357   8.867   5.258   7.612 -0.1925  0.2923  0.0585
 3208W        W 5358   4.270   3.269  11.153  0.0977 -0.2869  0.0866
 3209W        W 5359  16.002   1.159  32.762 -0.0625 -0.3256  0.0214
 3210W        W 5360  22.501   1.925  21.088 -0.2612 -0.1228 -0.1540
 3211W        W 5361   2.687   6.401  29.277  0.4529  0.4859 -0.0379
 3212W        W 5362  25.972   1.046  32.184 -0.0155 -0.1168  0.1232
 3213W        W 5363   7.467   6.452  32.970 -0.1512  0.1073 -0.2071
 3214W        W 5364  18.351   0.377   1.515 -0.1707 -0.3042  0.1525
 3215W        W 5365  14.187   0.915  24.910 -0.1111 -0.0550 -0.0559
 3216W        W 5366   0.386   3.130   4.016 -0.0384  0.0863 -0.0892
 3217W        W 5367  11.635   0.176  26.285 -0.0001  0.1218  0.1887
 3218W        W 5368   6.569   1.668  13.848  0.1575  0.0918  0.0568
 3219W        W 5369  21.190   4.889   1.103  0.0941 -0.2520  0.1832
 3220W        W 5370  19.779   5.422  11.204  0.2645 -0.2001  0.0359
 3221W        W 5371   2.926   3.150   8.119 -0.0201  0.0233 -0.0008
 3222W        W 5372  11.409   3.282   4.021  0.3867 -0.0278 -0.0961
 3223W        W 5373  21.366   5.972  23.317  0.0657 -0.0456  0.0282
 3224W        W 5374  23.888   1.971  10.474  0.1793 -0.2956  0.0674
 3225W        W 5375  10.157   3.747  25.167 -0.1199  0.0141 -0.4015
 3226W        W 5376  20.316   0.621   9.672  0.0254 -0.1545 -0.0460
 3227W        W 5377  22.647   2.831   1.926  0.0891  0.3519  0.0898
 3228W        W 5378  19.795   4.451  34.733 -0.0724  0.0658 -0.2014
 3229W        W 5379   1.008   5.081   0.606  0.1183 -0.0201  0.2109
 3230W        W 5380   4.271   1.886  26.736 -0.2554 -0.2434  0.0553
 3231W        W 5381  24.277   5.543   7.684  0.1344 -0.1143 -0.2267
 3232W        W 5382  21.634   0.153   0.677 -0.0683  0.1310  0.0763
 3233W        W 5383  19.115   6.545  36.127  0.2588 -0.0881  0.0511
 3234W        W 5384  15.409   5.654  32.211 -0.3524  0.0862 -0.0420
 3235W        W 5385   6.286   5.938  32.137  0.2008  0.1171  0.0899
 3236W        W 5386  21.958   0.402   5.385 -0.2308 -0.0308  0.2511
 3237W        W 5387  14.979   5.859  12.960  0.1160 -0.0067 -0.2201
 3238W        W 5388   9.884   2.402  14.950  0.1280  0.1681 -0.2093
 3239W        W 5389   0.457   3.913  29.966 -0.1052 -0.0603  0.3501
 3240W        W 5390  14.907   2.936  29.178  0.0156  0.1668  0.2042
 3241W        W 5391   9.516   3.457  23.221 -0.1183  0.1096  0.1416
 3242W        W 5392  22.298   0.395  34.621  0.0628  0.2417  0.1132
 3243W        W 5393   6.932   1.424  34.061 -0.0697  0.3300 -0.0363
 3244W        W 5394  11.639   3.803  30.969 -0.0830  0.0082  0.1602
 3245W        W 5395  25.346   2.824   9.067 -0.1327 -0.1608 -0.2924
 3246W        W 5396  15.661   3.204  30.790 -0.0201 -0.0646 -0.1940
 3247W        W 5397  16.337   0.083  10.248 -0.0177  0.0965 -0.1320
 3248W        W 5398  13.348   1.180   7.687 -0.2802  0.1212 -0.0759
 3249W        W 5399  11.601   2.751   0.244 -0.2890 -0.1604  0.1473
 3250W        W 5400  13.145   2.288  30.310 -0.1313 -0.1604 -0.1082
 3251W        W 5401  13.538   5.231  27.594 -0.0876  0.5050  0.1745
 3252W        W 5402  16.323   3.872  24.925 -0.1125 -0.0090  0.5072
 3253W        W 5403  19.761   0.138  21.890 -0.0501 -0.4050  0.3641
 3254W        W 5404   9.233   1.948  22.406 -0.0115 -0.0109 -0.1255
 3255W        W 5405  13.145   5.422  11.786  0.3956 -0.2662  0.2300
 3256W        W 5406  13.814   1.474  29.561  0.1623  0.1984 -0.3087
 3257W        W 5407  12.865   3.741   0.088 -0.0829  0.1162 -0.1288
 3258W        W 5408   9.801   3.535  21.841 -0.1208 -0.2231 -0.0602
 3259W        W 5409  15.753   3.380  20.594 -0.0858 -0.2459 -0.3443
 3260W        W 5410   9.156   5.263  28.039 -0.0984  0.1738  0.2654
 3261W        W 5411  21.019   4.277  35.845  0.0399  0.1451  0.0096
 3262W        W 5412  11.504   2.932  35.957  0.1849 -0.1375  0.0642
 3263W        W 5413   0.114   2.372  25.409  0.0293  0.0185  0.1281
 3264W        W 5414   0.192   3.616  35.571 -0.1012 -0.2777  0.3184
 3265W        W 5415  22.946   4.382   2.599 -0.1969 -0.1312  0.1867
 3266W        W 5416  25.248   3.209  14.461 -0.2502  0.2034 -0.0995
 3267W        W 5417   6.420   0.970  29.953  0.0152 -0.0814  0.0129
 3268W        W 5418  23.959   1.560  33.032 -0.0727  0.0102 -0.1059
 3269W        W 5419  19.507   1.597  11.098 -0.1072 -0.2449  0.2316
 3270W        W 5420  14.313   3.931  29.192  0.0003 -0.3591 -0.1352
 3271W        W 5421   8.472   2.106  25.225  0.2118 -0.2658  0.1022
 3272W        W 5422  20.383   2.683  12.800  0.0466 -0.0646 -0.0361
 3273W        W 5423  23.818   4.710  25.499  0.1805  0.0105  0.0841
 3274W        W 5424   5.001   1.279  14.947  0.0629  0.0938  0.0209
 3275W        W 5425  11.768   3.289  10.511  0.0847 -0.1230 -0.0541
 3276W        W 5426  11.646   4.790  25.574  0.3644 -0.1845  0.0359
 3277W        W 5427   9.556   5.528  15.361 -0.0204 -0.0570 -0.3279
 3278W        W 5428  14.237   5.699   8.351  0.2945  0.2670 -0.1633
 3279W        W 5429   9.797   0.726   7.588 -0.0375 -0.2022  0.0104
 3280W        W 5430  11.323   4.381  25.715  0.1250 -0.1526  0.0692
 3281W        W 5431   9.980   0.696  22.150  0.0348 -0.2657 -0.1786
 3282W        W 5432  13.421   5.292  33.382  0.0785 -0.1369 -0.1769
 3283W        W 5433  17.940   0.476  26.496 -0.1852  0.1700  0.0196
 3284W        W 5434  21.199   4.369   0.227  0.3277 -0.3005  0.0211
 3285W        W 5435  12.718   6.550  26.480 -0.3058  0.0068  0.2890
 3286W        W 5436  17.757   4.339  26.684 -0.2626  0.0081  0.2188
 3287W        W 5437  15.433   3.549  22.574 -0.0503  0.1002 -0.1742
 3288W        W 5438  24.844   2.238  21.247 -0.0970  0.3193  0.0362
 3289W        W 5439  24.692   1.570  14.383  0.0724  0.2017 -0.1013
 3290W        W 5440  15.656   6.490   4.208 -0.2264  0.0717 -0.1772
 3291W        W 5441  11.106   2.790  22.808 -0.0175  0.3123 -0.2207
 3292W        W 5442  22.904   2.416   7.842 -0.0349  0.0098  0.2131
 3293W        W 5443  13.211   4.723   8.559 -0.0476  0.1031 -0.0432
 3294W        W 5444   3.609   1.435  26.081 -0.2058  0.1120 -0.0828
 3295W        W 5445   8.074   4.191  34.904  0.1225  0.1418 -0.1348
 3296W        W 5446  21.582   0.390   0.299  0.0424 -0.0650 -0.1921
 3297W        W 5447   6.234   3.964  35.334  0.0694  0.0586  0.0442
 3298W        W 5448  23.515   3.276  12.536  0.0526 -0.0069 -0.1078
 3299W        W 5449  12.093   6.132  30.576  0.2560  0.3370 -0.0840
 3300W        W 5450   2.769   2.067   0.432 -0.1987 -0.0563  0.0559
 3301W        W 5451   5.211   4.870  13.070  0.0453 -0.1372 -0.0555
 3302W        W 5452   2.343   1.078   9.186  0.0682 -0.2622 -0.2178
 3303W        W 5453   4.198   5.137  33.823  0.0255 -0.1729 -0.1442
 3304W        W 5454  12.896   4.272  32.264 -0.1725  0.2484  0.0173
 3305W        W 5455   1.589   5.718  29.218 -0.0073  0.3294 -0.0159
 3306W        W 5456  18.289   5.050  35.644 -0.4581 -0.1441 -0.2172
 3307W        W 5457  22.983   2.628   5.624 -0.0627 -0.3033  0.0908
 3308W        W 5458  14.916   0.874   9.976 -0.1174  0.0343  0.3189
 3309W        W 5459  15.116   4.045   5.560  0.0854 -0.3569 -0.1859
 3310W        W 5460  19.958   6.540   7.554  0.1038 -0.0369 -0.1719
 3311W        W 5461  15.500   4.256   1.530 -0.1991  0.1357 -0.1893
 3312W        W 5462  15.074   2.870  23.505  0.0139 -0.0640 -0.2370
 3313W        W 5463   5.990   0.118   6.356  0.1091  0.2145  0.0360
 3314W        W 5464  20.695   3.859  14.872  0.1390 -0.1046 -0.2944
 3315W        W 5465  20.277   6.342  12.079  0.0717  0.0940  0.0166
 3316W        W 5466  24.121   3.792  35.245 -0.3321  0.0413 -0.0025
 3317W        W 5467   9.843   2.753  27.328  0.2122 -0.0630  0.1439
 3318W        W 5468  21.193   5.864  23.874 -0.0235  0.0678 -0.0374
 3319W        W 5469  17.752   2.241  32.492 -0.2442  0.2458  0.0425
 3320W        W 5470  10.409   5.512  30.613  0.0842 -0.1607  0.2339
 3321W        W 5471   9.203   6.568  30.587 -0.1051  0.0595  0.0021
 3322W        W 5472  19.394   2.984  20.390 -0.0901 -0.1131 -0.0157
 3323W        W 5473  11.246   1.352  30.975  0.1474 -0.0247 -0.3452
 3324W        W 5474   8.854   4.068  27.410  0.0609  0.1645 -0.1504
 3325W        W 5475  17.140   0.475   5.328  0.0926 -0.1105 -0.2304
 3326W        W 5476   8.747   2.524   1.621  0.1977  0.1518 -0.2671
 3327W        W 5477  10.659   0.580  28.603 -0.0409 -0.0224 -0.0756
 3328W        W 5478   7.939   4.768  27.654  0.1834  0.1713  0.0993
 3329W        W 5479   2.939   0.011  35.299 -0.0567  0.0872  0.1478
 3330W        W 5480  16.252   1.665  12.144  0.1764  0.0898  0.0014
 3331W        W 5481  21.119   5.946   3.173 -0.0491 -0.2666 -0.0813
 3332W        W 5482  14.076   5.652  10.743  0.2875  0.2275 -0.2175
 3333W        W 5483  25.435   2.818  12.061 -0.0647  0.0120  0.0327
 3334W        W 5484  20.232   3.220  26.109  0.0088  0.0765  0.1022
 3335W        W 5485  12.453   5.451  14.365  0.2094  0.0545 -0.0646
 3336W        W 5486  10.324   4.574  28.525  0.0490 -0.0464  0.1482
 3337W        W 5487  22.264   5.899  21.322  0.2889  0.1118 -0.0263
 3338W        W 5488  21.420   5.029  21.724  0.0831  0.1317  0.1848
 3339W        W 5489  25.530   4.653  22.242 -0.0072  0.0464  0.2417
 3340W        W 5490   3.207   6.272  25.739 -0.3583 -0.0046 -0.1258
 3341W        W 5491  19.418   1.984   8.068 -0.1951 -0.0801 -0.0870
 3342W        W 5492  19.365   1.144  32.256  0.1290 -0.2532  0.1419
 3343W        W 5493  17.934   4.034   8.544 -0.1962  0.1587 -0.0570
 3344W        W 5494   6.516   0.076  33.800  0.0111 -0.1834 -0.0478
 3345W        W 5495   8.871   3.503  12.266 -0.3124  0.0002  0.2054
 3346W        W 5496  18.582   5.929   5.190 -0.0326 -0.2268  0.1636
 3347W        W 5497  13.870   6.296  23.129  0.0545 -0.1368 -0.0312
 3348W        W 5498  17.997   0.389  14.213 -0.1441  0.1402  0.3150
 3349W        W 5499  23.129   2.456  11.906 -0.0223  0.2698 -0.2508
 3350W        W 5500   7.480   5.969  26.731  0.3805  0.3740  0.0400
 3351W        W 5501  23.959   4.352   4.250  0.1427  0.0892 -0.0538
 3352W        W 5502  20.044   1.898  22.993 -0.3522 -0.1832  0.0541
 3353W        W 5503   1.822   2.117  11.446 -0.1525 -0.1682 -0.3393
 3354W        W 5504  22.262   2.531  12.509  0.0775 -0.0272  0.2359
 3355W        W 5505  16.989   2.362  29.330 -0.0077 -0.3153  0.0256
 3356W        W 5506   9.205   2.412  30.145  0.0078 -0.1900 -0.0457
 3357W        W 5507  20.480   2.318  31.710 -0.0686  0.1581 -0.1845
 3358W        W 5508  14.989   5.998   4.606  0.1947 -0.2996  0.0582
 3359W        W 5509   3.746   0.999  11.500 -0.0706 -0.1172 -0.1008
 3360W        W 5510   1.820   0.461   7.325 -0.0430  0.1326  0.1164
 3361W        W 5511  10.390   5.979  25.335  0.1260  0.0035  0.1951
 3362W        W 5512  17.576   2.832  15.523 -0.1293  0.3177 -0.1044
 3363W        W 5513  23.368   4.021  13.947  0.1671 -0.1592 -0.0891
 3364W        W 5514  22.595   3.975  34.596  0.0235  0.0649 -0.1923
 3365W        W 5515  18.060   1.372  12.661  0.1055 -0.1142  0.0160
 3366W        W 5516  19.872   3.528  29.275  0.3598 -0.1123  0.1346
 3367W        W 5517  16.486   5.894   1.053  0.2466  0.3210  0.1828
 3368W        W 5518  11.641   5.178  23.571  0.3638 -0.1386 -0.0232
 3369W        W 5519  16.493   3.690   1.927  0.0426  0.2274  0.0912
 3370W        W 5520  24.099   3.481  34.319 -0.0171  0.2255  0.1958
 3371W        W 5521   0.521   2.768   1.440  0.1108 -0.2300  0.2389
 3372W        W 5522  10.653   1.977   1.122  0.0777 -0.0640  0.2020
 3373W        W 5523   6.023   3.331  25.202 -0.3186  0.1042  0.0693
 3374W        W 5524  15.626   3.061  25.615 -0.0413 -0.3987  0.2452
 3375W        W 5525   1.709   3.028   6.369 -0.2193 -0.0105  0.1613
 3376W        W 5526  25.028   0.474  35.558  0.3924 -0.0478  0.1831
 3377W        W 5527   1.319   5.122  28.486 -0.1647  0.2192  0.0228
 3378W        W 5528  21.022   6.415  31.589  0.0872  0.1183  0.1284
 3379W        W 5529  19.447   4.827  12.542 -0.3698 -0.1783  0.2899
 3380W        W 5530   1.053   1.259  34.960  0.0322 -0.0623  0.2484
 3381W        W 5531   1.870   1.193   8.864  0.3328  0.2294  0.0350
 3382W        W 5532  22.242   3.347  24.166  0.0920 -0.1737  0.1054
 3383W        W 5533  16.044   3.720  23.129 -0.1005 -0.0426 -0.0663
 3384W        W 5534  22.730   0.146  31.957  0.3602  0.3464 -0.0855
 3385W        W 5535  13.129   4.994   9.806 -0.1347 -0.2269 -0.3637
 3386W        W 5536   1.582   5.397  22.912  0.0138 -0.1590 -0.0042
 3387W        W 5537  13.117   6.422  22.188 -0.2094  0.0615  0.3093
 3388W        W 5538  14.731   5.401  36.101 -0.0358 -0.1453  0.1273
 3389W        W 5539  19.760   1.471   1.985 -0.1267  0.1039 -0.0615
 3390W        W 5540  18.538   6.162  28.052  0.0547 -0.0461 -0.0184
 3391W        W 5541   1.592   4.842   2.243 -0.0023 -0.2023  0.3011
 3392W        W 5542   5.080   0.418  29.344  0.0830 -0.1384  0.0294
 3393W        W 5543  24.812   3.502  22.023  0.4603  0.1563 -0.2102
 3394W        W 5544  14.579   5.103  31.685 -0.0976  0.1291  0.1604
 3395W        W 5545  21.473   5.209  30.835 -0.0957  0.3217 -0.0272
 3396W        W 5546  21.557   3.861  21.391 -0.0758  0.0841 -0.1180
 3397W        W 5547   4.242   0.827   5.802 -0.0680  0.2093  0.1865
 3398W        W 5548   8.049   3.517  32.783 -0.0306 -0.0754 -0.1406
 3399W        W 5549  15.663   0.480   2.428  0.0401 -0.1088 -0.4235
 3400W        W 5550  25.626   5.134  26.967 -0.2950 -0.2025 -0.1570
 3401W        W 5551   9.031   1.211  10.762 -0.2116 -0.3664 -0.2353
 3402W        W 5552   8.268   6.338   2.293 -0.3409  0.2310  0.0354
 3403W        W 5553  25.746   3.670  34.050  0.0699  0.1761 -0.1048
 3404W        W 5554  15.956   6.401  26.225 -0.1851  0.3446 -0.0579
 3405W        W 5555   4.858   4.754  24.927 -0.0996  0.0090  0.0342
 3406W        W 5556   6.996   2.133   9.467 -0.1370  0.1022  0.1101
 3407W        W 5557  16.629   4.124  31.018  0.0730 -0.0046 -0.1350
 3408W        W 5558  11.956   5.249  30.217  0.0180  0.1720  0.4096
 3409W        W 5559  13.789   0.789  25.547  0.0301  0.0556  0.0866
 3410W        W 5560  10.090   0.952   7.893 -0.0186 -0.1339  0.1921
 3411W        W 5561  25.833   1.347  10.350 -0.1245 -0.0043  0.0537
 3412W        W 5562  13.993   0.769  14.292 -0.3471 -0.0926 -0.0389
 3413W        W 5563  15.964   0.829   2.744  0.1716 -0.1358  0.0959
 3414W        W 5564  15.161   4.528  11.251  0.2630 -0.0212  0.0296
 3415W        W 5565   8.321   3.615   8.331  0.0381  0.2470  0.0017
 3416W        W 5566  18.032   3.076   4.358 -0.0217 -0.0220 -0.0231
 3417W        W 5567  17.665   5.220  22.184 -0.1222 -0.3443  0.0828
 3418W        W 5568   8.668   1.563  27.776 -0.0992 -0.0008 -0.0125
 3419W        W 5569   4.369   1.669  29.805 -0.0483 -0.0986  0.1857
 3420W        W 5570  20.432   3.929   2.414  0.2027 -0.1111 -0.0264
 3421W        W 5571  19.105   2.071  15.516 -0.2131 -0.0975 -0.2639
 3422W        W 5572  14.109   5.328  29.472 -0.0479 -0.1623 -0.0360
 3423W        W 5573  24.103   1.777  22.789 -0.1297  0.1816  0.1594
 3424W        W 5574  25.211   4.923  14.075 -0.1238  0.0327  0.0576
 3425W        W 5575  19.613   0.094  28.513 -0.2394  0.1685  0.0202
 3426W        W 5576  11.862   1.824   3.968  0.0411 -0.0134 -0.1134
 3427W        W 5577  23.347   1.206   5.064  0.0397  0.2936 -0.0995
 3428W        W 5578  25.236   0.204  35.237 -0.0215  0.0025 -0.0971
 3429W        W 5579   2.677   2.542  34.186 -0.1262  0.0154  0.3441
 3430W        W 5580   1.310   0.814   6.070  0.0122 -0.1190  0.2745
 3431W        W 5581   7.589   4.251  22.052 -0.0310 -0.0970 -0.0645
 3432W        W 5582  12.067   0.483   4.326  0.0580  0.1116  0.2563
 3433W        W 5583   1.100   3.868  15.414 -0.0508 -0.0027  0.1540
 3434W        W 5584  13.252   5.497  11.057  0.0274 -0.0997  0.2284
 3435W        W 5585   1.117   3.585  21.140  0.2898  0.1346 -0.1102
 3436W        W 5586   3.907   5.130  12.961 -0.2045  0.3590  0.2113
 3437W        W 5587  25.429   4.202   0.424  0.1913  0.0974 -0.0841
 3438W        W 5588   1.136   2.532   3.517 -0.0124 -0.0145  0.2936
 3439W        W 5589  10.850   1.516  24.769  0.0744  0.1224 -0.1380
 3440W        W 5590  17.763   1.459   4.937 -0.0984  0.2417 -0.1912
 3441W        W 5591   3.331   1.788   4.940  0.3057  0.1971  0.0778
 3442W        W 5592   3.355   6.371  22.673  0.4651  0.1324 -0.0179
 3443W        W 5593   9.345   3.029   8.442 -0.1766  0.1500  0.1702
 3444W        W 5594   1.463   3.384  12.413 -0.2047  0.1373  0.2281
 3445W        W 5595   7.279   5.550   6.449 -0.0629  0.1642  0.0792
 3446W        W 5596  11.182   5.308  12.398  0.1027 -0.1349 -0.1349
 3447W        W 5597  22.832   5.231   1.689 -0.0665 -0.0673  0.2540
 3448W        W 5598  19.249   4.519  11.329  0.1067 -0.0442 -0.2908
 3449W        W 5599  17.309   2.833  28.272 -0.0115  0.0142 -0.2403
 3450W        W 5600  26.316   0.835   6.862  0.2806  0.0436  0.0300
 3451W        W 5601  20.927   0.769  33.993  0.6178 -0.1256  0.0799
 3452W        W 5602  20.732   2.397   3.566 -0.0832 -0.0973  0.0178
 3453W        W 5603  19.370   2.035  25.092 -0.1403  0.1401 -0.0393
 3454W        W 5604  15.939   1.077  11.059  0.1158  0.1745  0.2199
 3455W        W 5605  23.296   3.851  11.916  0.0334  0.1216  0.1149
 3456W        W 5606   6.691   4.533   0.584  0.0021 -0.2230  0.1710
 3457W        W 5607  21.824   5.489  25.590 -0.1006  0.0401  0.0262
 3458W        W 5608   1.898   2.858  29.372  0.1450  0.1698 -0.2245
 3459W        W 5609   8.328   0.464   0.928 -0.1125 -0.0427 -0.1189
 3460W        W 5610  25.648   5.918   4.190  0.0608  0.1249  0.1014
 3461W        W 5611   0.823   6.247  32.681 -0.3438  0.0227 -0.0190
 3462W        W 5612  15.917   1.959  14.179 -0.1809  0.3690 -0.2808
 3463W        W 5613   3.937   3.298   8.180  0.2603 -0.0374  0.1114
 3464W        W 5614  20.958   1.624   4.485  0.1714 -0.2200 -0.2353
 3465W        W 5615  21.506   5.355  27.582 -0.1789 -0.2201 -0.2483
 3466W        W 5616   1.115   1.464  10.157 -0.2199 -0.0730 -0.2408
 3467W        W 5617  14.486   1.520  10.240  0.0754 -0.1493 -0.0173
 3468W        W 5618  18.744   5.125   4.075 -0.0846  0.2416 -0.0482
 3469W        W 5619   0.134   1.134  21.438 -0.0930  0.0068  0.1396
 3470W        W 5620  19.354   1.500  33.276 -0.1786  0.1952  0.2275
 3471W        W 5621  13.807   1.360   7.693 -0.1351  0.3609  0.2178
 3472W        W 5622  24.528   5.766   7.259 -0.0457  0.0247 -0.2012
 3473W        W 5623  18.119   3.749  21.580  0.1221  0.1289 -0.0887
 3474W        W 5624  15.645   3.123  32.146  0.0894  0.2228  0.0205
 3475W        W 5625  24.223   3.461  32.992  0.1288 -0.0559 -0.0631
 3476W        W 5626  21.040   0.644  32.717 -0.3113 -0.0093 -0.1413
 3477W        W 5627   4.188   2.695  30.728  0.1051 -0.3187  0.3398
 3478W        W 5628  18.130   4.972  16.008 -0.5480  0.3844 -0.1171
 3479W        W 5629   4.904   0.092  13.262  0.0194  0.2133  0.2553
 3480W        W 5630  18.369   0.544   1.020 -0.0055  0.2121 -0.0996
 3481W        W 5631  19.605   0.634   6.030  0.0482 -0.0105 -0.2129
 3482W        W 5632   4.430   3.241  11.661 -0.0650 -0.0055  0.0939
 3483W        W 5633   2.662   0.065  10.065  0.0684  0.0244 -0.1468
 3484W        W 5634  23.770   3.169  13.978 -0.1890  0.0599  0.1757
 3485W        W 5635  11.723   4.201  22.500  0.0827 -0.0825 -0.0998
 3486W        W 5636  19.334   3.473  10.149  0.0608 -0.2049 -0.1653
 3487W        W 5637  22.950   0.049   4.467 -0.0342 -0.0702  0.0211
 3488W        W 5638  16.450   3.541   9.994  0.0255  0.1662  0.0220
 3489W        W 5639   4.780   4.975   1.824  0.0378  0.0131 -0.1974
 3490W        W 5640   1.593   4.531  35.508  0.2717  0.1759  0.1633
 3491W        W 5641   4.990   2.398  29.321  0.0179 -0.0036 -0.1609
 3492W        W 5642   7.141   5.257  24.208  0.0740  0.3321  0.0300
 3493W        W 5643  23.567   5.931   9.667 -0.0193 -0.0362  0.2757
 3494W        W 5644   6.464   1.382   4.171 -0.1108  0.2430 -0.0516
 3495W        W 5645  23.334   1.406  30.858  0.2084 -0.0686  0.1294
 3496W        W 5646   5.553   2.829   8.197  0.0945 -0.0961 -0.1640
 3497W        W 5647   7.087   5.461  25.569 -0.1470  0.2052 -0.3054
 3498W        W 5648  17.535   2.975   2.719 -0.1240 -0.0154  0.1477
 3499W        W 5649   6.588   1.335   9.745  0.0280  0.0518 -0.2099
 3500W        W 5650  17.434   6.149  25.573 -0.0402  0.1736  0.0904
 3501W        W 5651  12.791   3.980  34.845  0.1558  0.0526 -0.3921
 3502W        W 5652   6.593   3.352   3.596 -0.0330 -0.0733 -0.0905
 3503W        W 5653  17.276   6.311   0.115  0.0464 -0.0841  0.0691
 3504W        W 5654   9.949   5.008  11.075  0.2538  0.2514  0.1246
 3505W        W 5655  18.330   4.925  28.031 -0.3269  0.0454 -0.0392
 3506W        W 5656   4.700   4.314  13.644  0.2031 -0.1269 -0.0053
 3507W        W 5657   3.842   2.788   2.353 -0.0005 -0.1703  0.1387
 3508W        W 5658  10.364   6.214  33.123 -0.1207 -0.0153  0.3540
 3509W        W 5659   8.196   4.603   1.555  0.2724  0.0710  0.0549
 3510W        W 5660   6.732   2.849  33.026 -0.0670  0.0687 -0.0936
 3511W        W 5661   5.557   5.467   5.796  0.1816  0.1361 -0.1070
 3512W        W 5662  26.336   6.026   6.570 -0.0986 -0.1644 -0.1429
 3513W        W 5663  15.281   2.183   1.129  0.1904  0.2882 -0.0791
 3514W        W 5664   2.293   1.664   6.246  0.1687  0.1309  0.0343
 3515W        W 5665  11.051   1.361  10.592  0.0577  0.0321 -0.2241
 3516W        W 5666  21.452   2.150  28.388  0.3866  0.3644  0.0964
 3517W        W 5667  21.533   2.972  13.614 -0.0638  0.2263  0.0280
 3518W        W 5668  18.493   5.476   2.765  0.1922  0.1400  0.0498
 3519W        W 5669  16.708   1.806  13.568  0.1468  0.3786  0.1939
 3520W        W 5670  13.864   4.570  35.469 -0.1582 -0.0183  0.1480
 3521W        W 5671   4.623   4.022   0.372  0.1442  0.1568  0.0451
 3522W        W 5672  22.967   4.991   8.813  0.1582 -0.1180 -0.1302
 3523W        W 5673   0.635   0.062  34.581  0.0015  0.0702  0.2853
 3524W        W 5674   7.950   0.505   9.851 -0.2296  0.0867 -0.0228
 3525W        W 5675   2.582   5.971  28.957  0.2052 -0.0063 -0.1692
 3526W        W 5676   9.014   4.702  21.166 -0.0735 -0.2257 -0.1021
 3527W        W 5677  18.862   5.588  32.777  0.0957 -0.2300 -0.1179
 3528W        W 5678  24.360   1.806  34.929 -0.0281  0.1782  0.2966
 3529W        W 5679  26.199   2.299  28.303 -0.1885  0.0514  0.1088
 3530W        W 5680   4.828   0.261   8.037  0.2130 -0.0289  0.3844
 3531W        W 5681  21.107   6.358   3.977 -0.1573  0.3184  0.0920
 3532W        W 5682  18.621   1.403  26.114 -0.2805 -0.0626  0.1112
 3533W        W 5683  26.410   0.125   9.169  0.0632 -0.3239 -0.0808
 3534W        W 5684   7.378   4.751   6.476  0.0431  0.0616 -0.2991
 3535W        W 5685  15.816   2.911   4.042  0.1605  0.0360 -0.0104
 3536W        W 5686  16.297   2.743  22.740 -0.0008 -0.0346  0.0337
 3537W        W 5687   7.571   2.761  22.775  0.1099  0.1798 -0.1324
 3538W        W 5688  16.776   3.173   6.097  0.2083 -0.0467  0.0597
 3539W        W 5689   2.148   2.714  30.496  0.1713  0.0858 -0.0173
 3540W        W 5690  12.222   2.793  13.797 -0.2462  0.1139 -0.1800
 3541W        W 5691  26.246   4.508   9.028 -0.0052 -0.0918 -0.2713
 3542W        W 5692   1.361   1.223  30.499 -0.2405 -0.2168  0.0293
 3543W        W 5693  14.771   5.329   7.190 -0.2230 -0.0519 -0.2766
 3544W        W 5694   3.706   4.309  35.497 -0.1082 -0.0667 -0.0886
 3545W        W 5695  25.229   2.763   1.285  0.1697 -0.0120 -0.0110
 3546W        W 5696   4.496   2.207   7.644 -0.1539  0.0801 -0.0204
 3547W        W 5697   1.497   1.309   6.077  0.0375  0.0898 -0.1166
 3548W        W 5698  15.034   1.205  31.653 -0.0533  0.0743  0.1904
 3549W        W 5699  23.410   2.390  14.286  0.0019 -0.1950 -0.1646
 3550W        W 5700  17.415   2.151  33.746 -0.2750  0.2908  0.0137
 3551W        W 5701   1.260   2.952   0.540 -0.0757 -0.1336  0.0224
 3552W        W 5702  15.574   3.127   8.361  0.1856  0.0992 -0.0060
 3553W        W 5703  23.332   2.273   0.917 -0.0769  0.1038 -0.2263
 3554W        W 5704   9.188   4.485   1.964  0.1170 -0.1220  0.0049
 3555W        W 5705   5.484   3.757  11.859 -0.3671 -0.1463  0.0407
 3556W        W 5706  26.134   1.742   1.318  0.1455  0.1666  0.2044
 3557W        W 5707   2.199   1.327   1.894 -0.0911  0.0547  0.0237
 3558W        W 5708  13.140   6.109  34.668 -0.1828 -0.0576  0.1205
 3559W        W 5709   8.906   0.555  19.874  0.0342 -0.0045  0.0534
 3560W        W 5710   6.572   0.214  13.597  0.0907 -0.0293 -0.0368
 3561W        W 5711  20.458   1.606  35.759  0.3048 -0.2252  0.0284
 3562W        W 5712   0.088   2.627  24.866 -0.0262  0.1093 -0.0226
 3563W        W 5713   5.630   4.035   8.094  0.4097 -0.0497  0.2214
 3564W        W 5714   1.402   0.760  22.828 -0.0280  0.0591 -0.1382
 3565W        W 5715  14.766   6.499   9.346  0.0889  0.0136 -0.1793
 3566W        W 5716  17.586   3.419  33.737 -0.0562  0.0460  0.2580
 3567W        W 5717  17.555   3.797  13.575  0.2766  0.3307  0.0412
 3568W        W 5718   8.541   0.917   2.125 -0.0180 -0.0418 -0.1447
 3569W        W 5719   6.058   3.925  28.243  0.1139  0.0304  0.1550
 3570W        W 5720  19.905   2.287  28.233 -0.2748  0.0775  0.2389
 3571W        W 5721  23.019   1.082  26.156 -0.4354 -0.1881 -0.0781
 3572W        W 5722   5.221   3.819   6.225  0.3175  0.0078 -0.3126
 3573W        W 5723  18.024   1.112  15.417  0.2732  0.1108  0.1383
 3574W        W 5724  15.797   3.041  30.273  0.2103  0.1708 -0.1132
 3575W        W 5725   6.590   6.056  20.231 -0.3267 -0.1104  0.0785
 3576W        W 5726  19.831   1.185  26.333 -0.2623  0.1241  0.1284
 3577W        W 5727  25.128   0.480  30.049  0.0541 -0.0384  0.0486
 3578W        W 5728  19.083   3.911   5.742 -0.2579 -0.0407  0.3165
 3579W        W 5729   6.646   3.881   2.602 -0.1071  0.0395  0.2942
 3580W        W 5730  15.515   0.345   9.843 -0.0011 -0.2804 -0.1003
 3581W        W 5731  17.707   3.029  11.450  0.0655 -0.1120 -0.0177
 3582W        W 5732   0.385   4.045  27.631  0.1490 -0.0606 -0.1194
 3583W        W 5733  23.110   1.426  13.388  0.0557 -0.2036  0.3624
 3584W        W 5734  13.932   2.172  27.958  0.1002  0.2797 -0.0004
 3585W        W 5735   3.303   0.944  11.148 -0.1466 -0.1306 -0.1258
 3586W        W 5736  20.357   3.210  21.724 -0.2485  0.0716  0.1716
 3587W        W 5737   4.567   5.616   2.521 -0.1284  0.0040 -0.1669
 3588W        W 5738  12.419   5.540  28.997 -0.1507 -0.0475  0.1651
 3589W        W 5739  12.066   4.450  31.271 -0.1767 -0.1589 -0.3260
 3590W        W 5740  10.070   3.506  24.441 -0.3716 -0.1480 -0.1145
 3591W        W 5741   5.459   5.193  13.359 -0.0169 -0.1191 -0.0863
 3592W        W 5742   0.846   0.646  31.266 -0.1888  0.0277  0.2155
 3593W        W 5743   0.583   5.371   5.617 -0.2437  0.1940 -0.2117
 3594W        W 5744  24.814   3.909  29.452 -0.1632 -0.3024 -0.0591
 3595W        W 5745  12.639   1.761  32.448  0.0996  0.4161  0.2786
 3596W        W 5746  15.404   5.215  21.880  0.1673  0.1312  0.2098
 3597W        W 5747  19.709   1.958   0.955  0.1617  0.1703  0.1488
 3598W        W 5748   0.856   0.262  20.900 -0.0760  0.2379 -0.2262
 3599W        W 5749  17.011   3.457  10.782 -0.2281  0.0235 -0.1306
 3600W        W 5750  25.564   1.408  23.170 -0.1216  0.0717  0.1829
 3601W        W 5751   4.110   6.364  31.239 -0.2850  0.1013 -0.1697
 3602W        W 5752  24.022   1.582  12.009 -0.0953  0.0639 -0.0081
 3603W        W 5753  12.734   0.978  28.412 -0.2862  0.0766  0.0498
 3604W        W 5754   0.918   3.490  11.780  0.1180 -0.2295  0.0610
 3605W        W 5755  25.019   2.211  28.125  0.2067 -0.2662 -0.0671
 3606W        W 5756  11.092   3.946   9.573  0.0971  0.1854  0.1329
 3607W        W 5757  24.697   6.550  22.225 -0.2015 -0.0921 -0.0917
 3608W        W 5758  14.048   6.136  10.848  0.0077  0.0263  0.1397
 3609W        W 5759   2.193   0.578  32.403 -0.3705 -0.2751 -0.2657
 3610W        W 5760  14.185   5.900  29.399  0.0629 -0.1907  0.0788
 3611W        W 5761   4.561   6.449  28.821  0.1323 -0.0965  0.2390
 3612W        W 5762   7.592   5.331  13.950 -0.1464 -0.4180 -0.1127
 3613W        W 5763  26.038   1.217   6.865  0.2979 -0.1097 -0.0653
 3614W        W 5764   1.432   5.556  21.543  0.0948 -0.0376 -0.1532
 3615W        W 5765  26.056   2.968   1.481  0.4720 -0.1338  0.2543
 3616W        W 5766  22.947   5.754  35.245 -0.2412 -0.2361 -0.1270
 3617W        W 5767   5.774   2.116  27.441  0.1809 -0.4703 -0.1288
 3618W        W 5768   5.374   6.495  14.018  0.3382  0.1204 -0.2411
 3619W        W 5769  19.724   4.481  29.446 -0.2100 -0.0164  0.1718
 3620W        W 5770  26.402   1.075   0.739  0.1218 -0.2586  0.1398
 3621W        W 5771   5.821   2.414  22.236 -0.1385  0.0749 -0.0763
 3622W        W 5772  11.648   3.990  35.861  0.0909 -0.0707 -0.0615
 3623W        W 5773  16.566   5.012  26.802  0.0238  0.0284  0.2065
 3624W        W 5774  15.763   2.494   3.751  0.3132  0.0756  0.2161
 3625W        W 5775   2.504   0.335   5.370 -0.2293 -0.0001 -0.0881
 3626W        W 5776   3.462   2.264   5.031  0.2134 -0.1833  0.0023
 3627W        W 5777  11.384   5.908   6.944  0.0271 -0.0536  0.1657
 3628W        W 5778  16.196   4.201  27.411 -0.2744 -0.0878 -0.2273
 3629W        W 5779  11.061   5.024  27.488  0.1420 -0.1157 -0.0975
 3630W        W 5780  17.415   6.101  35.247 -0.0483 -0.1459 -0.1666
 3631W        W 5781  19.044   3.154  26.245  0.1014 -0.2106  0.0349
 3632W        W 5782  11.549   3.018  24.736 -0.1230  0.3348  0.0304
 3633W        W 5783   7.149   0.655  29.200  0.0369 -0.0175 -0.1901
 3634W        W 5784  16.311   5.024   8.775  0.2672 -0.2186 -0.0392
 3635W        W 5785   9.772   0.979   1.740 -0.2831  0.0503 -0.2427
 3636W        W 5786   5.195   1.943   9.391 -0.1058 -0.1562  0.0649
 3637W        W 5787  23.946   4.105  23.295  0.1708 -0.1734 -0.2401
 3638W        W 5788   8.429   4.277   9.431  0.1306  0.2447  0.1230
 3639W        W 5789  25.834   3.537   8.669 -0.0181 -0.3706 -0.4420
 3640W        W 5790   1.560   2.760  25.999 -0.1599 -0.0751 -0.1151
 3641W        W 5791  23.992   4.710   4.690 -0.0178 -0.0292 -0.2105
 3642W        W 5792  19.034   4.882  11.124 -0.3008  0.5027 -0.2161
 3643W        W 5793  10.845   6.446  26.092  0.1247 -0.0470 -0.2009
 3644W        W 5794  22.138   2.263  30.441  0.0336  0.0002 -0.0213
 3645W        W 5795  11.119   4.050  28.070  0.1372  0.3246 -0.2792
 3646W        W 5796  10.381   2.861   8.441  0.1480  0.2031 -0.0385
 3647W        W 5797  16.567   1.705   5.374  0.2750  0.2089 -0.1558
 3648W        W 5798   8.355   2.976  20.505 -0.1691 -0.2252  0.0669
 3649W        W 5799  11.332   1.596   5.244 -0.0822  0.1220  0.1632
 3650W        W 5800  10.867   3.189  24.153 -0.1382  0.1644 -0.0856
 3651W        W 5801  13.367   3.746  26.775  0.1432  0.0931  0.1256
 3652W        W 5802  19.668   1.117  28.403  0.0799  0.0015  0.1299
 3653W        W 5803   9.926   0.624  31.706  0.0610  0.0986 -0.1122
 3654W        W 5804  18.949   3.073  24.393  0.1320 -0.2347  0.1200
 3655W        W 5805  20.195   3.021   2.277  0.0247 -0.1782  0.0961
 3656W        W 5806   9.851   6.566  22.646 -0.2270  0.0277 -0.2073
 3657W        W 5807  24.178   5.474  29.404  0.1728  0.1023  0.0571
 3658W        W 5808   6.095   1.522  23.434 -0.2129  0.0300 -0.0031
 3659W        W 5809  18.356   1.188   2.731  0.0782 -0.2537  0.0441
 3660W        W 5810  15.216   3.202  10.626  0.1134  0.2044 -0.0665
 3661W        W 5811   3.936   6.382  36.095  0.0066 -0.1834  0.0316
 3662W        W 5812  14.650   1.711  35.382 -0.0517  0.3688  0.0112
 3663W        W 5813  11.594   4.661  20.724  0.1606  0.1089 -0.1039
 3664W        W 5814  23.649   5.079   4.591 -0.3258 -0.0279 -0.0650
 3665W        W 5815   3.502   4.700  13.276 -0.1441  0.4124 -0.3261
 3666W        W 5816   4.232   1.845   3.713  0.0516  0.0653  0.1343
 3667W        W 5817  19.907   3.982  21.982  0.0184 -0.0172 -0.0919
 3668W        W 5818   6.412   4.894   5.628  0.1219  0.0234 -0.0006
 3669W        W 5819  24.042   3.054  31.929  0.0909 -0.1269  0.0267
 3670W        W 5820  17.967   2.052  34.006  0.0502 -0.1012 -0.1270
 3671W        W 5821   8.421   2.872  11.103 -0.2930  0.0667  0.2193
 3672W        W 5822   0.615   3.050   7.687  0.1217  0.2681 -0.0621
 3673W        W 5823  11.452   4.925   0.170  0.1656  0.1050  0.2793
 3674W        W 5824  23.411   1.670  26.560 -0.1823  0.0111 -0.2073
 3675W        W 5825   5.654   3.927   2.190  0.0706  0.2071 -0.0773
 3676W        W 5826  26.411   4.840  31.694 -0.1421 -0.1895  0.1988
 3677W        W 5827  16.109   1.047   7.571 -0.2773 -0.0609 -0.0625
 3678W        W 5828   3.544   4.106  24.085 -0.1180  0.0324 -0.0742
 3679W        W 5829  14.214   6.471  35.674 -0.1561 -0.0786 -0.1285
 3680W        W 5830   9.564   4.966  27.891  0.2819 -0.0451  0.0208
 3681W        W 5831  19.945   3.597   8.487  0.1598  0.0629  0.1972
 3682W        W 5832   5.143   5.445  33.794 -0.1211 -0.0358 -0.1000
 3683W        W 5833   5.675   5.186   6.729 -0.2575 -0.2116 -0.0880
 3684W        W 5834  11.415   3.760  23.688  0.0952 -0.1821  0.0043
 3685W        W 5835   5.455   3.148  27.314 -0.1620  0.1233 -0.0284
 3686W        W 5836  23.445   6.078  30.122  0.2797  0.3240  0.0958
 3687W        W 5837  23.512   3.617  33.557  0.3183  0.0009  0.0303
 3688W        W 5838  14.614   1.776  27.113 -0.0472  0.0473 -0.0828
 3689W        W 5839  15.730   0.050  24.919 -0.0684 -0.1936 -0.2776
 3690W        W 5840  20.436   6.332   3.222  0.3820 -0.1300 -0.0203
 3691W        W 5841   4.561   3.216  26.893 -0.2380 -0.1126  0.1772
 3692W        W 5842  15.279   1.191   7.494 -0.0207  0.1273 -0.0175
 3693W        W 5843   0.049   2.221  12.696  0.0331 -0.0166  0.2813
 3694W        W 5844  20.255   3.196   3.695  0.3289  0.0869  0.2216
 3695W        W 5845  20.344   2.413  21.341  0.2237  0.0526  0.0662
 3696W        W 5846  12.003   1.036  15.066 -0.2235 -0.1659  0.0233
 3697W        W 5847   0.174   2.143   5.752 -0.3306  0.0583  0.1294
 3698W        W 5848  20.982   4.582  33.112  0.2644  0.2270 -0.0873
 3699W        W 5849  11.280   5.077  10.130 -0.0206  0.1138  0.0872
 3700W        W 5850  13.705   3.816  29.178 -0.0628 -0.1060  0.0910
 3701W        W 5851   7.951   4.059  34.008 -0.1582  0.0860 -0.1504
 3702W        W 5852  22.419   1.367  14.703 -0.1769  0.0273 -0.0300
 3703W        W 5853   4.871   4.398   4.224 -0.0698 -0.0334 -0.0458
 3704W        W 5854   7.029   4.653   1.676 -0.0474  0.0119  0.3526
 3705W        W 5855   6.322   1.533  20.527 -0.0157  0.3572 -0.1238
 3706W        W 5856   5.547   0.204   0.894 -0.0402  0.0344  0.0512
 3707W        W 5857   3.675   3.281  10.322  0.0561 -0.0887  0.1114
 3708W        W 5858  10.886   5.341  24.250 -0.1680 -0.0043  0.0215
 3709W        W 5859  24.892   2.820  14.954 -0.1262 -0.3687  0.1237
 3710W        W 5860  18.478   1.493  32.364  0.0953 -0.0500 -0.1589
 3711W        W 5861   9.126   5.327  10.676 -0.0158  0.1889 -0.0470
 3712W        W 5862  23.001   3.236   2.552 -0.2654 -0.1688 -0.2267
 3713W        W 5863   5.763   0.650  34.429 -0.3268  0.1150 -0.1982
 3714W        W 5864   7.034   1.523   5.442  0.0875 -0.1354 -0.0740
 3715W        W 5865  10.510   2.010  20.980  0.0937 -0.0193  0.2842
 3716W        W 5866  22.566   0.670  32.892 -0.2083  0.1912  0.0172
 3717W        W 5867   0.546   1.772   5.894  0.0326  0.0429  0.0898
 3718W        W 5868  24.019   6.565   6.994 -0.0298 -0.1057  0.0436
 3719W        W 5869   0.013   1.776   9.710  0.2947  0.3606 -0.0288
 3720W        W 5870   1.607   6.600   6.663  0.0225  0.1331 -0.0274
 3721W        W 5871  22.737   2.748  20.857  0.0833  0.1208  0.0341
 3722W        W 5872  16.810   4.820   8.652  0.1989  0.0214 -0.0659
 3723W        W 5873  18.211   0.946  24.626  0.2548  0.2450  0.0828
 3724W        W 5874   3.252   1.034   6.317 -0.0437 -0.2168  0.2566
 3725W        W 5875  12.147   2.462   8.833 -0.3255  0.1627  0.4168
 3726W        W 5876  24.103   2.117   7.606  0.2346  0.0695 -0.0625
 3727W        W 5877   7.209   0.105  28.902  0.1808 -0.0702  0.1880
 3728W        W 5878   6.431   4.375  21.056 -0.0746  0.0567  0.1616
 3729W        W 5879  14.094   4.799   5.827  0.0377 -0.2659 -0.0649
 3730W        W 5880  13.152   0.681  35.345 -0.1221 -0.0654 -0.3556
 3731W        W 5881  11.499   2.438   6.717  0.0914 -0.1134  0.0883
 3732W        W 5882  24.120   6.081  27.741 -0.1852  0.3320 -0.1513
 3733W        W 5883   8.913   1.714  25.840 -0.1878 -0.1682  0.0632
 3734W        W 5884  25.126   0.030  12.962  0.1306 -0.0292  0.1277
 3735W        W 5885  23.266   5.604  27.797  0.0109 -0.0334  0.1324
 3736W        W 5886  12.407   1.779  10.666 -0.2725 -0.0714 -0.1423
 3737W        W 5887  16.483   6.284  30.638  0.0970 -0.1202 -0.3042
 3738W        W 5888  19.266   6.391  33.452 -0.3132  0.1518  0.0027
 3739W        W 5889  19.350   6.375  23.703  0.2007  0.1696 -0.1413
 3740W        W 5890  11.834   3.497  31.819  0.0834  0.0813  0.3283
 3741W        W 5891   9.780   5.435  30.175 -0.1183  0.1799  0.1374
 3742W        W 5892   4.954   3.827  30.459 -0.1214 -0.1110 -0.0616
 3743W        W 5893  18.510   4.674   8.292  0.4097  0.0751  0.0876
 3744W        W 5894  21.160   5.325  26.597  0.2222  0.0028  0.1202
 3745W        W 5895   0.081   5.030   6.159  0.0723  0.2070  0.1797
 3746W        W 5896  21.720   6.088  24.798 -0.3632 -0.1495  0.1988
 3747W        W 5897   0.687   5.095   6.597  0.0280  0.1678  0.2750
 3748W        W 5898  14.114   1.378   5.541  0.1743 -0.1536  0.0183
 3749W        W 5899  20.931   1.447  26.777 -0.2445 -0.0546 -0.2380
 3750W        W 5900  10.707   3.417  21.856  0.2833  0.3087 -0.1124
 3751W        W 5901  11.010   5.530  11.920  0.1377  0.0178 -0.0102
 3752W        W 5902  11.296   5.805  34.843 -0.1089 -0.0815  0.2259
 3753W        W 5903  18.286   0.325   9.418  0.1040 -0.0002  0.1525
 3754W        W 5904  11.018   4.077  28.612 -0.0381 -0.0250  0.4090
 3755W        W 5905  18.280   2.018   9.630  0.1268 -0.0444  0.1090
 3756W        W 5906  15.777   3.951  22.297  0.0509 -0.3130 -0.0873
 3757W        W 5907  24.076   5.776  10.526 -0.2752 -0.1878 -0.2683
 3758W        W 5908  18.016   1.245   2.302 -0.3148  0.4452  0.1700
 3759W        W 5909   3.117   1.330  11.417  0.0115  0.1509 -0.2111
 3760W        W 5910  22.393   6.542  31.605 -0.0380  0.1983  0.2303
 3761W        W 5911   0.611   2.986  27.375 -0.1215 -0.3514 -0.0216
 3762W        W 5912   5.839   2.228   2.365 -0.1225 -0.0635 -0.1162
 3763W        W 5913  23.896   4.800   2.415 -0.2488  0.0755  0.1160
 3764W        W 5914  14.700   5.949  24.153 -0.2042  0.1512 -0.1023
 3765W        W 5915  21.479   2.033  21.067 -0.0862  0.0353 -0.1869
 3766W        W 5916   2.384   4.046   4.622 -0.3336  0.0249  0.2293
 3767W        W 5917  13.924   5.057   8.145  0.0182  0.1270  0.0511
 3768W        W 5918  12.430   4.318  24.523 -0.0749  0.3947 -0.5624
 3769W        W 5919   3.630   0.008   9.442 -0.0711  0.0080 -0.1707
 3770W        W 5920  12.070   0.863   4.839  0.1372 -0.0726  0.1267
 3771W        W 5921  16.593   5.947  27.275  0.1896 -0.1409 -0.0273
 3772W        W 5922  17.041   5.823   4.515  0.2619 -0.0702  0.0209
 3773W        W 5923   5.254   4.657  22.813 -0.0158 -0.0090  0.0420
 3774W        W 5924  22.903   5.696   2.891 -0.0626  0.1693  0.2236
 3775W        W 5925  13.258   6.136  15.068  0.1175  0.2013 -0.3827
 3776W        W 5926  25.758   4.315  21.958  0.1178  0.4613  0.0041
 3777W        W 5927  16.658   4.615  23.864 -0.0707 -0.4243 -0.1720
 3778W        W 5928  22.657   5.388  33.845 -0.1789  0.0450  0.2799
 3779W        W 5929  17.587   3.748  27.913 -0.0516 -0.1258 -0.0947
 3780W        W 5930  16.283   5.984  10.461  0.1528 -0.1162  0.0832
 3781W        W 5931  21.325   3.394   2.753 -0.2063  0.0109  0.0787
 3782W        W 5932   4.669   1.747   1.874 -0.1042  0.0008  0.2697
 3783W        W 5933  13.764   1.435   3.383 -0.1007  0.0985  0.1536
 3784W        W 5934  13.018   1.041  28.049 -0.0692  0.0930  0.3093
 3785W        W 5935  26.400   2.585   3.443 -0.0431 -0.2235 -0.1100
 3786W        W 5936   5.954   3.982   4.745 -0.0320 -0.1903 -0.0929
 3787W        W 5937  22.200   6.250  24.910  0.0449  0.2129 -0.4743
 3788W        W 5938   2.898   5.111  32.560 -0.0027 -0.0736  0.0433
 3789W        W 5939  24.495   4.644  26.257 -0.0280 -0.4753 -0.1972
 3790W        W 5940  19.694   2.533  24.067 -0.1579  0.1390  0.2005
 3791W        W 5941  22.804   4.775   3.183 -0.0702  0.4110  0.2020
 3792W        W 5942  12.163   5.455   9.369  0.1707 -0.1332 -0.4625
 3793W        W 5943  12.684   5.282  13.925 -0.0754  0.3068 -0.0022
 3794W        W 5944   3.423   6.037   9.542 -0.0185 -0.1934  0.1271
 3795W        W 5945   8.240   1.053  29.147  0.1413 -0.1175  0.0336
 3796W        W 5946   1.262   1.090  14.009 -0.3473  0.4396 -0.2049
 3797W        W 5947  13.287   1.102  28.476 -0.0107  0.3059 -0.2640
 3798W        W 5948  23.903   1.190  13.626  0.1119  0.3285  0.0762
 3799W        W 5949  21.763   0.367   1.693  0.0299 -0.3173  0.0095
 3800W        W 5950  14.859   2.164  10.652  0.0576 -0.2793 -0.1519
 3801W        W 5951  23.425   4.814   1.206  0.1505  0.5083 -0.1595
 3802W        W 5952  17.010   1.626  14.739  0.1036  0.3386  0.2808
 3803W        W 5953  20.423   3.673  21.338 -0.0317 -0.0595 -0.0294
 3804W        W 5954   0.652   1.194  11.259  0.2187  0.0029 -0.1936
 3805W        W 5955  14.294   0.694  20.692  0.1330  0.1374  0.1313
 3806W        W 5956   5.874   5.072  13.044  0.0997  0.0712  0.0547
 3807W        W 5957   5.476   4.890  30.654 -0.1289  0.2253  0.3830
 3808W        W 5958  22.799   3.566   8.935 -0.5024  0.0431 -0.0652
 3809W        W 5959  26.177   3.976  13.865 -0.1555 -0.0433  0.0463
 3810W        W 5960  20.030   0.328  33.894  0.3312  0.1280  0.0354
 3811W        W 5961  16.373   2.060   8.334  0.1482 -0.2306  0.0897
 3812W        W 5962  14.793   5.611  31.494 -0.0145 -0.0067  0.0802
 3813W        W 5963  24.598   5.439  12.318  0.3598  0.4787 -0.2310
 3814W        W 5964  20.561   2.365  13.146 -0.1953  0.2720 -0.4346
 3815W        W 5965   2.788   3.866  33.404  0.1712  0.1599  0.1350
 3816W        W 5966  18.082   1.272  10.181  0.0179  0.1936  0.0248
 3817W        W 5967   2.401   2.972   6.797  0.2504 -0.0726 -0.2697
 3818W        W 5968   0.329   5.000  35.151 -0.3251 -0.2753 -0.0964
 3819W        W 5969  22.854   4.856  32.891 -0.1457 -0.1830  0.0049
 3820W        W 5970  26.321   4.026  30.830 -0.0450  0.0401  0.0009
 3821W        W 5971   8.802   4.316  13.283 -0.1334 -0.0990 -0.1185
 3822W        W 5972  23.782   1.162  14.473  0.0178  0.1604  0.0683
 3823W        W 5973  21.528   1.115  10.415 -0.3751  0.5147  0.2100
 3824W        W 5974   6.692   4.179  30.703 -0.2338  0.0149  0.0496
 3825W        W 5975  26.396   0.836   8.135 -0.1272  0.2360 -0.2045
 3826W        W 5976  16.919   5.901  35.504  0.0056  0.0638 -0.3107
 3827W        W 5977  11.449   3.154  31.797  0.2312  0.0475 -0.1129
 3828W        W 5978  22.234   4.343  22.054 -0.1225  0.0726  0.1478
 3829W        W 5979  16.856   5.998  26.875  0.0790  0.0538 -0.0969
 3830W        W 5980  21.002   1.956  32.336 -0.0831 -0.1536  0.4942
 3831W        W 5981  26.162   3.574  10.763  0.0712 -0.1540  0.0003
 3832W        W 5982   4.673   0.932  28.857 -0.0110 -0.0151 -0.0841
 3833W        W 5983   0.104   3.126   3.592  0.1445 -0.0998  0.4449
 3834W        W 5984  20.187   5.514  10.552  0.2028  0.0034 -0.4348
 3835W        W 5985  10.146   0.611   3.518 -0.0681  0.3849 -0.0859
 3836W        W 5986  10.410   5.293  29.287  0.0866  0.1590 -0.2254
 3837W        W 5987  11.726   5.869  14.886  0.1369 -0.3077 -0.1519
 3838W        W 5988  13.823   1.084  23.570  0.2540  0.1967 -0.0480
 3839W        W 5989   6.460   2.938  12.095  0.0313 -0.0400 -0.2143
 3840W        W 5990  23.277   6.363   8.279 -0.1596  0.3995 -0.3642
 3841W        W 5991  11.578   4.433  32.009 -0.0340 -0.1348  0.2066
 3842W        W 5992   1.602   1.956  27.797  0.3384 -0.1209 -0.0345
 3843W        W 5993  15.772   2.633   7.399 -0.0654 -0.1397 -0.1063
 3844W        W 5994  22.187   6.143  29.582 -0.1811 -0.1926 -0.1402
 3845W        W 5995   1.840   6.606   3.895  0.1031  0.0451  0.0160
 3846W        W 5996   4.756   3.561   6.103  0.2284  0.4321  0.2311
 3847W        W 5997   2.664   3.056  13.599 -0.0853  0.1022 -0.0938
 3848W        W 5998  23.816   6.569  28.888 -0.2188 -0.0359  0.2007
 3849W        W 5999  15.126   1.742  21.166 -0.1070 -0.0255 -0.1005
 3850W        W 6000  16.335   5.353  16.634 -0.1653 -0.0486 -0.2385
 3851W        W 6001   2.927   5.805  20.140 -0.0515  0.0132 -0.0646
 3852W        W 6002   4.569   2.650  21.510 -0.2234 -0.1035  0.1087
 3853W        W 6003  15.784   3.311  35.700 -0.0365 -0.1704  0.3696
 3854W        W 6004  23.904   2.472   7.897 -0.2131 -0.0286 -0.1229
 3855W        W 6005   2.177   2.758  34.265  0.0883  0.1956 -0.2519
 3856W        W 6006  24.615   3.037   0.476 -0.0651  0.1087  0.1344
 3857W        W 6007  22.570   2.091  25.122 -0.0149  0.0831  0.2541
 3858W        W 6008   0.516   2.724  20.981  0.0217  0.2079  0.1253
 3859W        W 6009  20.372   5.842   6.674  0.1183  0.2444  0.5278
 3860W        W 6010  11.264   3.771  29.857  0.0749 -0.1154 -0.3199
 3861W        W 6011  18.760   3.551  29.953 -0.2867 -0.2537 -0.2944
 3862W        W 6012  18.574   4.068   5.577 -0.2132 -0.0176  0.2818
 3863W        W 6013   8.424   2.225   1.816 -0.1110  0.1786  0.3315
 3864W        W 6014  24.689   3.188  11.513  0.1550  0.1154 -0.1560
 3865W        W 6015   7.980   4.183  11.890  0.3215 -0.0695  0.1577
 3866W        W 6016   1.213   1.512   0.743 -0.1133 -0.3237  0.1196
 3867W        W 6017   3.185   4.227  14.562 -0.0151 -0.2513 -0.0861
 3868W        W 6018   0.787   1.775  10.445  0.4527 -0.0948  0.2289
 3869W        W 6019   5.075   6.098  26.017 -0.0673 -0.0569 -0.1274
 3870W        W 6020  13.668   1.846   7.640  0.4110  0.0884 -0.0495
 3871W        W 6021   2.733   0.796   8.408 -0.1608 -0.1072 -0.1480
 3872W        W 6022  13.165   4.423  34.297  0.0882  0.3831  0.2198
 3873W        W 6023  24.277   1.113  27.411  0.1448 -0.0499 -0.3033
 3874W        W 6024  15.625   3.128  34.585 -0.1061  0.1816 -0.2278
 3875W        W 6025   8.047   2.910   4.301 -0.1443  0.0447 -0.1372
 3876W        W 6026   9.460   5.265  27.419  0.0196  0.1065  0.1291
 3877W        W 6027  24.588   4.391  11.057  0.0620  0.1016 -0.0075
 3878W        W 6028   3.632   6.063  21.279 -0.0395 -0.1212  0.0700
 3879W        W 6029  22.183   2.203   6.112 -0.1974  0.0291  0.1554
 3880W        W 6030  20.952   1.837  20.860 -0.0328 -0.0436 -0.0084
 3881W        W 6031   2.418   3.159  20.644  0.3295  0.0940  0.4359
 3882W        W 6032  10.800   2.881   2.878  0.0156 -0.0142 -0.1028
 3883W        W 6033  18.321   6.471   9.688 -0.1781 -0.1961 -0.1763
 3884W        W 6034  17.798   5.131  11.133 -0.0281 -0.0268  0.0917
 3885W        W 6035  12.335   5.850  22.453 -0.1105  0.0441  0.1579
 3886W        W 6036  21.487   5.632  31.114 -0.0538 -0.0730 -0.0923
 3887W        W 6037  22.849   0.987   2.348  0.1094 -0.2497  0.0856
 3888W        W 6038   6.369   1.250  13.540 -0.0913 -0.1516  0.0786
 3889W        W 6039  16.059   5.972   2.038 -0.0274  0.0604  0.3182
 3890W        W 6040   3.660   1.632   7.834  0.2103  0.2273 -0.0434
 3891W        W 6041  20.303   3.802  34.638 -0.1190  0.0738 -0.0300
 3892W        W 6042   5.791   4.148   9.010  0.1880  0.1201  0.0653
 3893W        W 6043  17.510   0.712   6.151 -0.2270 -0.3512  0.0569
 3894W        W 6044   9.168   2.437   6.592  0.0545 -0.0143 -0.1133
 3895W        W 6045  24.609   0.843   0.479  0.2191 -0.0478 -0.4212
 3896W        W 6046  13.386   1.115  25.152  0.2711  0.1454 -0.1662
 3897W        W 6047  19.724   5.662  24.312 -0.3212  0.0636  0.1499
 3898W        W 6048  19.872   2.969   9.425  0.2627  0.0340  0.2678
 3899W        W 6049   6.016   5.420  14.696 -0.0808 -0.1240 -0.1300
 3900W        W 6050   2.839   3.955  35.739 -0.0039  0.2202  0.2413
 3901W        W 6051   4.774   5.721  34.466 -0.1925  0.1453 -0.0469
 3902W        W 6052   4.145   2.273  11.502  0.1561 -0.2116  0.5010
 3903W        W 6053   9.549   5.267   7.926 -0.0483 -0.0189 -0.4109
 3904W        W 6054  16.659   1.698  13.065  0.0708  0.4184 -0.2327
 3905W        W 6055   6.477   5.912   8.529 -0.3631 -0.1538 -0.0244
 3906W        W 6056   5.186   3.003  11.286  0.2434 -0.0886  0.1310
 3907W        W 6057  22.123   3.108   5.751  0.1803  0.1328  0.1736
 3908W        W 6058   3.233   3.034  33.331 -0.3738  0.2237  0.0953
 3909W        W 6059   6.643   3.459  26.749 -0.2177 -0.2439 -0.1991
 3910W        W 6060  21.516   3.730   3.140  0.2247  0.2685  0.0490
 3911W        W 6061   2.076   2.442   3.259  0.3503 -0.0503  0.1591
 3912W        W 6062  25.772   0.729  22.382 -0.1353  0.1223 -0.1103
 3913W        W 6063  21.120   3.211  24.757 -0.0407 -0.4368  0.0313
 3914W        W 6064  21.184   4.697  29.177 -0.3302  0.1738  0.0082
 3915W        W 6065  13.810   0.516   8.277  0.1842 -0.2219 -0.1109
 3916W        W 6066  22.224   2.674  28.407  0.0826 -0.1633  0.3167
 3917W        W 6067   6.593   0.611   5.796  0.2521 -0.2495 -0.0795
 3918W        W 6068  14.510   6.181  24.706 -0.0649  0.1547 -0.0490
 3919W        W 6069   7.336   3.989  13.320  0.0143  0.0238 -0.2095
 3920W        W 6070  15.861   4.694  25.583 -0.0326  0.0206 -0.0302
 3921W        W 6071  18.734   5.237  28.202  0.2682 -0.0200  0.1018
 3922W        W 6072  14.126   0.024   5.593  0.2228  0.1006 -0.0695
 3923W        W 6073  11.397   3.740  20.803  0.2186 -0.1018 -0.0749
 3924W        W 6074  12.601   2.581  34.575  0.1389  0.1832  0.0099
 3925W        W 6075  17.339   5.382   8.838 -0.1190  0.0012 -0.0533
 3926W        W 6076  23.815   5.443  26.622 -0.0665 -0.0629  0.1370
 3927W        W 6077   1.389   6.043  23.589 -0.0208 -0.1765  0.5344
 3928W        W 6078  20.421   1.590  22.590  0.4175  0.3685  0.2503
 3929W        W 6079   1.825   3.092  32.472  0.1905 -0.1745  0.0949
 3930W        W 6080   8.521   0.896  33.207 -0.2004  0.0414  0.0478
 3931W        W 6081  11.530   6.103  30.120  0.2090 -0.2184  0.1464
 3932W        W 6082  21.332   2.199   2.773 -0.1302  0.0212  0.0747
 3933W        W 6083   7.551   0.482   5.877 -0.3044 -0.2300  0.1935
 3934W        W 6084  10.354   1.678  32.422  0.0190  0.2722 -0.1278
 3935W        W 6085   7.819   6.521   3.354  0.0913  0.2124  0.1364
 3936W        W 6086  17.419   4.595  22.079 -0.2860 -0.1829  0.2244
 3937W        W 6087  11.802   1.868  27.977 -0.2549 -0.0745 -0.1483
 3938W        W 6088  13.674   5.694   3.354 -0.3161 -0.0750 -0.1772
 3939W        W 6089   3.924   2.695  22.749  0.0065  0.0837  0.2288
 3940W        W 6090   3.846   5.846  23.965 -0.2139  0.2720 -0.1639
 3941W        W 6091  22.296   3.197  29.545  0.3144  0.0389  0.0851
 3942W        W 6092   6.854   2.051   4.334  0.0302  0.1783  0.1086
 3943W        W 6093   0.980   5.116   2.669  0.1958  0.3080 -0.1488
 3944W        W 6094  12.737   2.793  22.111 -0.1057  0.1541 -0.2175
 3945W        W 6095  14.875   0.596   1.405 -0.0540  0.0206  0.2139
 3946W        W 6096   7.376   6.220  21.763  0.0140 -0.0419 -0.0338
 3947W        W 6097  19.306   0.342  29.321  0.1953 -0.1897 -0.0272
 3948W        W 6098   0.473   2.050  33.352 -0.2025 -0.1652 -0.1427
 3949W        W 6099  24.665   2.833  30.261  0.2329  0.0757 -0.1618
 3950W        W 6100   9.809   1.656  34.310  0.1059 -0.1633 -0.0208
 3951W        W 6101   9.715   2.805  13.878  0.3006 -0.0169  0.1672
 3952W        W 6102   4.721   5.289  34.714 -0.1657 -0.0993  0.1123
 3953W        W 6103  13.257   5.338  13.901 -0.0354 -0.0516  0.0061
 3954W        W 6104   2.400   1.326  33.563  0.4963  0.0652  0.2577
 3955W        W 6105  21.535   0.283  12.423  0.0432  0.2122  0.0638
 3956W        W 6106  24.716   2.589  10.718 -0.0240 -0.1342  0.2160
 3957W        W 6107  23.061   2.532  28.679 -0.0304 -0.1539  0.3616
 3958W        W 6108  23.238   5.650  13.207 -0.0182 -0.0174 -0.0905
 3959W        W 6109  11.026   3.241   8.981  0.1182 -0.6257 -0.1712
 3960W        W 6110   1.138   3.386  28.598 -0.2410 -0.1123  0.0400
 3961W        W 6111  13.869   4.642  10.415 -0.3042 -0.0647 -0.1335
 3962W        W 6112  16.570   4.556  12.213  0.2475 -0.2424 -0.2141
 3963W        W 6113   6.582   2.624  29.455 -0.0314 -0.0912  0.0317
 3964W        W 6114  14.204   0.906  26.685  0.0490  0.2166 -0.1730
 3965W        W 6115  18.542   0.337  13.756  0.2026  0.2805  0.0194
 3966W        W 6116   6.952   3.724  24.672  0.4005  0.2814  0.0027
 3967W        W 6117   2.277   0.531  33.982  0.0187  0.0495 -0.0597
 3968W        W 6118  23.714   2.800   5.693  0.1480 -0.2281 -0.0862
 3969W        W 6119  23.675   0.247  24.214  0.1816  0.0491  0.2065
 3970W        W 6120  17.687   5.754  14.509 -0.1577 -0.1178  0.4400
 3971W        W 6121  26.289   3.565   0.337 -0.1670 -0.4083  0.0104
 3972W        W 6122  14.400   4.816  23.505 -0.1291  0.1673  0.0969
 3973W        W 6123  26.410   0.941  13.399 -0.0302 -0.2584 -0.0802
 3974W        W 6124  14.335   1.925   6.185 -0.2557  0.1530 -0.0426
 3975W        W 6125   5.056   4.874   8.718  0.3767  0.0616  0.0737
 3976W        W 6126  25.830   3.020  23.285 -0.1183 -0.2281  0.1698
 3977W        W 6127  14.900   1.348  28.016 -0.3458 -0.1483 -0.0176
 3978W        W 6128  10.688   5.134  23.457  0.2995  0.1560 -0.1725
 3979W        W 6129   4.651   5.968  35.326 -0.0170 -0.1676  0.1750
 3980W        W 6130   9.932   5.452  34.169  0.4392  0.0048  0.1241
 3981W        W 6131  25.617   4.656  27.840  0.0184  0.1464  0.2136
 3982W        W 6132  21.832   2.824  22.758 -0.1574 -0.0838 -0.0038
 3983W        W 6133  26.202   2.078  22.165 -0.0027 -0.1658 -0.1873
 3984W        W 6134   4.753   5.419  21.540  0.0128  0.2539 -0.1247
 3985W        W 6135   7.841   0.415   1.657 -0.0650 -0.0008 -0.0687
 3986W        W 6136  18.070   2.287   6.800 -0.0480  0.1467  0.1273
 3987W        W 6137   9.365   2.625   8.740  0.2125  0.0281 -0.0087
 3988W        W 6138  22.139   4.215  10.627  0.0173  0.2102 -0.0217
 3989W        W 6139   0.828   4.691   6.872 -0.0167  0.0129 -0.0097
 3990W        W 6140   2.312   5.025  10.423 -0.2818  0.1520  0.0530
 3991W        W 6141   8.502   1.538  34.871 -0.0678 -0.3423  0.1681
 3992W        W 6142  11.122   1.103   7.231 -0.2343  0.2330  0.2401
 3993W        W 6143  23.998   4.486  29.561  0.0766  0.0457  0.0620
 3994W        W 6144  23.698   1.049   3.359  0.0753  0.0374 -0.3405
 3995W        W 6145  26.413   6.364  23.646  0.0753 -0.0541  0.2129
 3996W        W 6146  22.364   6.216   2.009 -0.1651 -0.0366  0.0831
 3997W        W 6147   0.400   6.285   7.337 -0.0570  0.0300  0.0717
 3998W        W 6148   6.034   2.759  24.456  0.1516  0.0754  0.0136
 3999W        W 6149  25.428   1.514  24.003 -0.2720  0.1260  0.0139
 4000W        W 6150   1.903   0.244  13.584 -0.1984  0.1061 -0.1081
 4001W        W 6151  20.643   3.793  33.179 -0.1168  0.2621  0.0279
 4002W        W 6152  20.443   1.626   4.517  0.0469  0.0983  0.0978
 4003W        W 6153  12.067   3.205  13.516  0.0507 -0.0378  0.3443
 4004W        W 6154   1.269   5.550  29.703 -0.2020 -0.1855 -0.2660
 4005W        W 6155  14.489   5.779  22.016  0.0424  0.0482  0.1135
 4006W        W 6156   8.466   5.635  21.135 -0.1951  0.0502  0.1112
 4007W        W 6157  14.808   0.130   7.895 -0.1231  0.0516  0.0270
 4008W        W 6158   5.931   2.946  26.364  0.0096  0.3682  0.2691
 4009W        W 6159  20.419   4.673  27.753 -0.0385  0.2895 -0.0922
 4010W        W 6160   5.840   3.589  29.715  0.0595 -0.2368  0.2179
 4011W        W 6161   8.589   1.658  14.300  0.2076 -0.3234 -0.2630
 4012W        W 6162   8.611   0.157  27.046  0.1891  0.0099 -0.0209
 4013W        W 6163  16.908   3.787   9.994  0.1684 -0.0705 -0.0267
 4014W        W 6164   2.119   5.731   0.836 -0.2364  0.0209  0.1806
 4015W        W 6165  17.155   2.088  25.053  0.2184 -0.3660 -0.1626
 4016W        W 6166  10.787   2.991   7.245  0.1830  0.2230  0.0003
 4017W        W 6167   8.516   2.639  35.216 -0.1158  0.1167 -0.0263
 4018W        W 6168   8.339   5.005  24.486 -0.2455 -0.1417  0.1064
 4019W        W 6169  18.442   2.061  10.149 -0.0428 -0.1267  0.0560
 4020W        W 6170   0.465   0.137  32.622  0.0253  0.3645  0.1510
 4021W        W 6171  20.040   5.203   9.203  0.0446 -0.1143 -0.1898
 4022W        W 6172  16.536   5.123  24.341  0.0212 -0.1039 -0.0613
 4023W        W 6173  11.253   1.647  29.390  0.0930 -0.0113  0.1000
 4024W        W 6174  18.953   6.318  14.956 -0.0142 -0.1598  0.0563
 4025W        W 6175   9.504   2.622  24.299 -0.3104  0.1887  0.1645
 4026W        W 6176   7.807   5.694  20.814  0.1631  0.0145  0.3016
 4027W        W 6177  17.017   0.458  20.889  0.0810 -0.3544 -0.1823
 4028W        W 6178  22.706   1.777  22.660 -0.1149  0.1999 -0.1228
 4029W        W 6179  11.631   3.169  12.631 -0.0971  0.2486  0.0754
 4030W        W 6180   0.989   3.583   2.262  0.1399 -0.1025 -0.2130
 4031W        W 6181   0.347   6.088   6.831  0.1607 -0.1099  0.3265
 4032W        W 6182  11.389   3.026  34.915 -0.1322  0.0860  0.1489
 4033W        W 6183  21.191   0.390   0.726 -0.1613 -0.1045 -0.0242
 4034W        W 6184  13.326   5.151  23.175 -0.0580  0.2227 -0.5709
 4035W        W 6185   3.626   0.532  28.885 -0.0664 -0.1658  0.2373
 4036W        W 6186  11.518   3.418  31.370 -0.1137  0.0808 -0.0310
 4037W        W 6187   3.662   1.069   0.599  0.1496  0.1291 -0.0143
 4038W        W 6188   9.351   5.031   2.789 -0.0902 -0.0684  0.1222
 4039W        W 6189   7.195   4.535  34.657  0.1743  0.1118 -0.0982
 4040W        W 6190  22.471   4.180  35.879  0.0145 -0.1184  0.1966
 4041W        W 6191  13.990   5.850   2.523  0.1164  0.0436  0.3405
 4042W        W 6192   6.589   2.894  30.713 -0.1549  0.0816  0.4040
 4043W        W 6193   8.532   3.107   5.340 -0.0109 -0.5372  0.2913
 4044W        W 6194  22.965   3.756  27.715 -0.2328  0.2316  0.2212
 4045W        W 6195  18.973   1.472  32.397  0.3350 -0.0982  0.0384
 4046W        W 6196  22.477   2.322   3.510 -0.1979  0.0480 -0.1414
 4047W        W 6197  16.408   4.431  14.193 -0.1078 -0.0827 -0.1591
 4048W        W 6198  22.909   5.601  27.128 -0.1890  0.1503  0.1107
 4049W        W 6199  24.175   0.453  25.530 -0.0976 -0.0004  0.2016
 4050W        W 6200   5.361   4.490   9.015 -0.0927  0.1638  0.1819
 4051W        W 6201   1.805   4.317  32.946 -0.1922  0.1998  0.0852
 4052W        W 6202  21.790   2.193  34.543 -0.0378 -0.0613 -0.3038
 4053W        W 6203  24.440   2.607   5.665 -0.1112  0.2528 -0.3236
 4054W        W 6204  10.579   1.538  35.878  0.0174  0.0498 -0.0539
 4055W        W 6205  14.123   0.558  12.350  0.0944 -0.1744 -0.0327
 4056W        W 6206  24.370   6.246   1.081 -0.0939 -0.0513  0.1730
 4057W        W 6207  25.436   5.387  15.373  0.1010  0.1460  0.4205
 4058W        W 6208   6.668   2.851  23.002  0.3359  0.0517  0.1186
 4059W        W 6209  25.117   2.697  29.410  0.0550  0.0211  0.0271
 4060W        W 6210   2.958   3.629  30.673 -0.2330 -0.0281  0.1672
 4061W        W 6211  16.249   2.951  26.109  0.1299  0.2070 -0.1693
 4062W        W 6212   3.721   1.827  30.557  0.0933 -0.1010 -0.1437
 4063W        W 6213  18.846   2.598  33.090  0.1118  0.2349  0.0951
 4064W        W 6214  11.218   5.275  25.332  0.1369  0.0511  0.4304
 4065W        W 6215  18.081   6.174   3.187  0.0161 -0.1257 -0.3878
 4066W        W 6216  25.186   1.325  22.724  0.0926 -0.0571  0.2607
 4067W        W 6217  20.604   1.686  33.150  0.0513  0.1023 -0.2059
 4068W        W 6218   6.990   4.781  24.340 -0.0000  0.0215 -0.0345
 4069W        W 6219   8.770   3.837   8.551 -0.1854 -0.0060 -0.0931
 4070W        W 6220   2.628   2.012  31.054 -0.1150 -0.0155 -0.1391
 4071W        W 6221  25.259   1.374  33.172 -0.1353  0.1571 -0.1948
 4072W        W 6222  20.151   6.520   9.013 -0.0289 -0.1112 -0.2426
 4073W        W 6223  20.098   3.633   2.083 -0.3112 -0.0437 -0.1597
 4074W        W 6224  25.843   0.492  11.677 -0.1720 -0.1292 -0.0802
 4075W        W 6225   1.555   3.863  33.975  0.0172  0.1357  0.0820
 4076W        W 6226  20.347   1.591  31.965 -0.0704 -0.0042 -0.1387
 4077W        W 6227  14.556   1.170  15.853 -0.3958  0.2302 -0.3723
 4078W        W 6228  15.317   1.190  14.569 -0.0142  0.0563  0.0855
 4079W        W 6229  12.238   5.550   0.275  0.0024 -0.0604 -0.0024
 4080W        W 6230   4.226   0.596  22.763 -0.1551 -0.0606 -0.1524
 4081W        W 6231  12.017   1.718  23.773  0.0592 -0.1214  0.4162
 4082W        W 6232   6.694   6.530  20.755  0.1973 -0.0964 -0.3036
 4083W        W 6233  11.375   4.628   1.994  0.2391  0.0284  0.2193
 4084W        W 6234  18.969   4.611  32.471  0.0401 -0.0729 -0.1629
 4085W        W 6235   6.935   3.120  12.830 -0.0013  0.2218  0.2446
 4086W        W 6236   3.587   0.387  34.403  0.1710 -0.1088  0.1356
 4087W        W 6237  13.016   4.835   0.283  0.4303  0.3623 -0.1681
 4088W        W 6238   8.140   1.046  10.422 -0.2853  0.0612 -0.2029
 4089W        W 6239  13.786   3.151  33.021 -0.2091 -0.0871  0.1428
 4090W        W 6240   9.249   0.066  31.912  0.3090  0.1623 -0.2362
 4091W        W 6241   4.591   5.761  15.450  0.0529  0.0092  0.0299
 4092W        W 6242  16.835   1.956   7.193  0.0422 -0.2072  0.0675
 4093W        W 6243  25.413   0.151   0.174  0.1543  0.5310  0.1805
 4094W        W 6244  17.288   3.455  32.289  0.1115 -0.1116  0.3012
 4095W        W 6245   3.779   5.001  29.599  0.3024  0.0132  0.3075
 4096W        W 6246  23.943   2.770  33.747 -0.1207  0.1099  0.1372
 4097W        W 6247  24.274   1.313  14.761 -0.0220  0.0239  0.1113
 4098W        W 6248  13.719   6.019   0.663  0.1140  0.0362 -0.0476
 4099W        W 6249   9.391   4.495   3.706 -0.2839 -0.0103 -0.1147
 4100W        W 6250  18.588   5.051  10.935  0.0034  0.1024  0.0934
 4101W        W 6251  21.984   6.091  27.817  0.0283  0.2355 -0.0413
 4102W        W 6252  20.334   4.005  29.929  0.1224  0.0495  0.0260
 4103W        W 6253   8.784   0.829  29.990  0.1348 -0.2306 -0.0790
 4104W        W 6254   8.121   0.016  23.963  0.1374 -0.2528 -0.0184
 4105W        W 6255   1.791   4.569   7.747 -0.0863  0.1019 -0.1193
 4106W        W 6256  26.377   3.502  27.478  0.0938 -0.1793 -0.2426
 4107W        W 6257  12.719   1.450  10.808 -0.0143  0.0249 -0.1568
 4108W        W 6258   1.110   2.783  26.241 -0.0405  0.1753  0.1099
 4109W        W 6259  17.015   4.264   0.512  0.4390  0.1687  0.1496
 4110W        W 6260   3.797   4.481   5.163 -0.0316  0.0689  0.0860
 4111W        W 6261   5.448   5.635   3.493 -0.3063  0.0991 -0.0310
 4112W        W 6262  24.376   4.629   2.256  0.0351 -0.0767  0.0862
 4113W        W 6263   2.973   0.005  25.171 -0.1870 -0.1307 -0.2388
 4114W        W 6264  12.228   6.210   8.415  0.0842  0.2531  0.0283
 4115W        W 6265  15.137   2.396   2.563  0.2345  0.0448 -0.1269
 4116W        W 6266  16.057   1.879  30.213  0.0908  0.2266 -0.1285
 4117W        W 6267  23.761   2.168   8.271  0.0546  0.1344  0.0876
 4118W        W 6268  10.238   5.849  12.576 -0.0197 -0.2043 -0.1226
 4119W        W 6269  16.174   3.875   0.756  0.0625 -0.1137 -0.2974
 4120W        W 6270  17.215   2.604  13.922 -0.0687 -0.1635  0.1479
 4121W        W 6271   6.015   0.528  24.938 -0.1786 -0.2660  0.1996
 4122W        W 6272  11.904   4.848   6.290  0.2059 -0.0552  0.3814
 4123W        W 6273  19.155   5.913  29.386  0.2946 -0.2960  0.2143
 4124W        W 6274   5.837   5.119   7.221 -0.5019  0.4209 -0.0015
 4125W        W 6275  19.750   5.903   8.440  0.2697 -0.4852 -0.1912
 4126W        W 6276  19.703   1.738  23.367 -0.0184 -0.1294 -0.1540
 4127W        W 6277  13.373   0.593  29.772  0.4219  0.0883 -0.0943
 4128W        W 6278  12.121   5.072  24.953  0.1686  0.0778  0.0891
 4129W        W 6279  24.677   6.130   7.004 -0.0895 -0.0484  0.2443
 4130W        W 6280  20.436   5.777  33.490  0.0193 -0.2409 -0.1915
 4131W        W 6281  21.597   5.828  13.901 -0.0053  0.1913 -0.0230
 4132W        W 6282  10.846   5.397  29.120  0.1837  0.0786 -0.0604
 4133W        W 6283  17.853   3.150  21.092 -0.0550 -0.0349  0.4174
 4134W        W 6284   0.928   3.920  29.723 -0.1013 -0.3304 -0.0205
 4135W        W 6285  21.833   3.574  31.423  0.3786  0.0512  0.0119
 4136W        W 6286  11.336   4.536   3.800  0.3912  0.0653 -0.1072
 4137W        W 6287  15.186   6.287  13.417 -0.1267  0.0419 -0.0428
 4138W        W 6288  22.516   1.995   5.828  0.1083 -0.1968  0.0527
 4139W        W 6289  14.503   5.785  24.995  0.1024 -0.3133  0.0891
 4140W        W 6290   3.736   4.515  26.864  0.0521 -0.0362  0.0447
 4141W        W 6291  14.022   4.722   9.916  0.3281  0.0525 -0.1697
 4142W        W 6292  12.658   5.198  10.453  0.0445 -0.1490  0.0025
 4143W        W 6293   8.504   2.111  32.960  0.3756 -0.1387 -0.1687
 4144W        W 6294   0.107   3.177  35.264  0.0440 -0.0995  0.0074
 4145W        W 6295  23.974   1.395  27.782  0.2782  0.1919 -0.2326
 4146W        W 6296   3.567   0.349   7.025 -0.1253 -0.0696  0.1444
 4147W        W 6297   1.689   5.736   2.162  0.0168 -0.1939  0.0895
 4148W        W 6298   0.903   6.543  24.313  0.0707 -0.3530 -0.2213
 4149W        W 6299  12.148   0.060  30.384  0.1067 -0.2246 -0.1678
 4150W        W 6300  13.889   3.726  10.644  0.0504  0.1702 -0.1475
 4151W        W 6301   6.413   0.981  14.696  0.1244 -0.0582 -0.2922
 4152W        W 6302  20.181   3.017   7.739  0.0224  0.3572 -0.0258
 4153W        W 6303   1.493   5.424  25.707 -0.2330  0.0667 -0.1068
 4154W        W 6304  16.408   5.500  22.584  0.1007 -0.1724 -0.1102
 4155W        W 6305  22.289   1.375  25.547  0.0229  0.1563 -0.2198
 4156W        W 6306  12.769   0.385  11.528 -0.1909  0.0017  0.2520
 4157W        W 6307  21.077   3.514  23.389  0.0599  0.4485  0.0079
 4158W        W 6308   8.203   1.729  27.839  0.3504  0.2469 -0.1344
 4159W        W 6309   1.748   1.140  13.279  0.0090  0.2065  0.2648
 4160W        W 6310   4.797   0.137  25.522 -0.1857 -0.0473  0.3174
 4161W        W 6311   8.154   4.582   3.507 -0.4523  0.1017 -0.1084
 4162W        W 6312   0.345   2.850   7.321 -0.0005  0.0470 -0.0967
 4163W        W 6313  20.373   0.785   1.712  0.0780  0.1955 -0.2071
 4164W        W 6314  25.324   3.535  20.885 -0.3701  0.2272 -0.3897
 4165W        W 6315  23.782   6.398   8.236 -0.0110  0.0393  0.3582
 4166W        W 6316   5.779   6.378  13.277  0.0442  0.0909  0.1251
 4167W        W 6317  19.713   0.915  27.992  0.1641  0.1214  0.1594
 4168W        W 6318   2.603   4.287  25.657 -0.0436  0.0466  0.0401
 4169W        W 6319  11.281   0.782  24.879  0.0212  0.0995 -0.0269
 4170W        W 6320   9.851   4.010  35.002  0.0564  0.3075  0.3046
 4171W        W 6321  22.418   2.713  13.219  0.0432  0.0554  0.0322
 4172W        W 6322  11.585   0.211   9.448 -0.0297 -0.3964  0.0223
 4173W        W 6323  15.844   0.545  15.229  0.2773 -0.0460 -0.2731
 4174W        W 6324  26.055   0.357  30.479 -0.0140  0.1525 -0.2235
 4175W        W 6325  25.746   2.679  24.248 -0.2297  0.2303 -0.0772
 4176W        W 6326  14.450   4.296  25.937  0.2600  0.1936  0.1283
 4177W        W 6327  24.242   4.370   8.838 -0.1733  0.0600  0.1256
 4178W        W 6328   4.805   3.023  13.308 -0.2790  0.1583  0.1249
 4179W        W 6329  23.520   2.539   1.799  0.2968 -0.2528  0.2018
 4180W        W 6330   3.507   0.165  24.987  0.1289 -0.3187  0.4107
 4181W        W 6331  17.465   1.500  14.845 -0.3220  0.1861  0.3667
 4182W        W 6332   5.383   1.555  23.452 -0.1559  0.0467 -0.0110
 4183W        W 6333  16.414   3.841   4.270  0.2407  0.0278 -0.4454
 4184W        W 6334  23.769   6.372  28.440  0.3552 -0.2644 -0.0361
 4185W        W 6335  17.381   0.148  14.965  0.0919  0.1123  0.1870
 4186W        W 6336  11.277   5.436  22.864 -0.0644 -0.1360 -0.1699
 4187W        W 6337  15.394   0.222  36.091 -0.0204  0.2799 -0.0605
 4188W        W 6338  17.657   3.553  11.531 -0.2623 -0.1367  0.0953
 4189W        W 6339   6.417   0.456   9.118 -0.1057  0.2338 -0.0028
 4190W        W 6340   3.319   5.426   5.922 -0.0225 -0.0028  0.0109
 4191W        W 6341   8.873   5.593   9.227 -0.2311  0.1221 -0.0011
 4192W        W 6342   0.291   4.968   5.717 -0.2144 -0.0068  0.0485
 4193W        W 6343  24.726   5.629  33.005 -0.2771 -0.0918 -0.0084
 4194W        W 6344   1.741   1.161   7.328  0.2028  0.1774 -0.3806
 4195W        W 6345  17.075   4.337  30.745 -0.5095  0.1344  0.0358
 4196W        W 6346   9.439   5.590   4.770 -0.0956  0.2299  0.2603
 4197W        W 6347   7.306   5.643  11.042 -0.0235 -0.2140 -0.2376
 4198W        W 6348  10.635   4.716  12.909  0.1397 -0.0247 -0.2731
 4199W        W 6349  23.267   1.684   7.386 -0.2390  0.2115 -0.1260
 4200W        W 6350  19.517   2.332  13.952  0.2320 -0.1736  0.2635
 4201W        W 6351  16.112   4.563   9.240 -0.0089  0.2888  0.0065
 4202W        W 6352  18.219   4.761   2.524  0.1740  0.1785  0.2413
 4203W        W 6353  23.970   5.571  35.349 -0.1531  0.0222  0.0273
 4204W        W 6354  18.022   4.891  26.272  0.0058 -0.2807 -0.1230
 4205W        W 6355  24.170   4.983  26.051  0.1311 -0.2798 -0.3541
 4206W        W 6356  25.908   1.316  15.169 -0.2355  0.3840 -0.1805
 4207W        W 6357  10.898   2.924  28.112  0.0710  0.2265 -0.1087
 4208W        W 6358  10.951   5.748  23.036 -0.0293 -0.2258  0.2545
 4209W        W 6359   9.064   6.179   7.276  0.2926  0.0728  0.3378
 4210W        W 6360   9.648   0.544  27.360  0.0262 -0.0541 -0.3918
 4211W        W 6361  21.791   5.928  11.248 -0.1208 -0.1411 -0.2131
 4212W        W 6362  11.528   5.921  30.601 -0.2264  0.0556 -0.1703
 4213W        W 6363   0.281   2.323  13.884 -0.1474 -0.2003 -0.0569
 4214W        W 6364  22.912   3.236   1.759 -0.3619  0.2128  0.0287
 4215W        W 6365   7.157   4.564  12.395 -0.0435 -0.0765 -0.0259
 4216W        W 6366   1.607   2.935  28.098  0.1856  0.4336 -0.0057
 4217W        W 6367  22.343   6.546  28.368 -0.0907 -0.2575  0.1398
 4218W        W 6368   7.165   2.939   7.006 -0.1430 -0.1774 -0.0115
 4219W        W 6369  24.049   2.647  13.978 -0.0271  0.3400 -0.0571
 4220W        W 6370  26.204   4.967   4.138 -0.3085 -0.0861  0.2224
 4221W        W 6371   1.938   3.004  33.757 -0.0223  0.1297  0.0742
 4222W        W 6372   1.906   4.368   2.141 -0.1971  0.2674 -0.0629
 4223W        W 6373  26.112   5.038  23.663 -0.4544  0.0826  0.0295
 4224W        W 6374  24.857   6.425   3.028  0.0680 -0.2354 -0.1120
 4225W        W 6375  19.132   2.700  27.734 -0.1938  0.1888  0.2753
 4226W        W 6376  21.103   1.480  29.268  0.0522 -0.1140  0.1549
 4227W        W 6377  13.164   1.176  23.670 -0.3159  0.1288  0.3075
 4228W        W 6378   7.923   2.981  33.614 -0.0256 -0.1048  0.0385
 4229W        W 6379   9.755   3.099  20.313  0.0060 -0.4081 -0.1888
 4230W        W 6380  15.268   2.486  21.754  0.4146  0.1833  0.3478
 4231W        W 6381   1.026   2.297  35.981  0.1430 -0.0399 -0.0552
 4232W        W 6382  24.856   2.786  23.321 -0.1847  0.1846  0.0983
 4233W        W 6383   2.682   3.814  10.454 -0.0357  0.2700 -0.1686
 4234W        W 6384  16.598   3.085  15.483  0.0207 -0.2706 -0.1166
 4235W        W 6385  25.302   4.577  33.684 -0.1965 -0.0428 -0.2527
 4236W        W 6386   3.228   6.037  30.208  0.2147 -0.0199  0.0010
 4237W        W 6387  18.685   2.375  26.143 -0.1109  0.2466 -0.0045
 4238W        W 6388   5.903   5.623   6.892 -0.0181 -0.0834  0.0995
 4239W        W 6389  21.897   3.375  13.143  0.1032 -0.2206 -0.2607
 4240W        W 6390   3.033   0.732  30.415  0.2504 -0.3024 -0.2208
 4241W        W 6391   2.616   3.462  14.465 -0.1756 -0.2803 -0.3331
 4242W        W 6392  10.789   2.086   2.398 -0.1961  0.1304  0.0410
 4243W        W 6393  11.637   6.049  31.509 -0.1396 -0.0526 -0.1504
 4244W        W 6394  21.825   3.662  26.437  0.0125  0.0718  0.3546
 4245W        W 6395  23.270   1.369  34.824 -0.1951 -0.0911 -0.1692
 4246W        W 6396   2.706   0.089   2.332 -0.1861 -0.0545 -0.1564
 4247W        W 6397  22.451   2.805   3.438 -0.2242 -0.1905 -0.2206
 4248W        W 6398  10.233   4.012  33.149  0.0867 -0.2807 -0.2256
 4249W        W 6399  14.307   4.302  26.467 -0.0603 -0.2621 -0.1563
 4250W        W 6400  22.993   6.013  11.889 -0.1906 -0.1805  0.0853
 4251W        W 6401   0.794   4.257  27.607 -0.1280  0.1354 -0.1234
 4252W        W 6402   6.239   1.144  25.964 -0.2251 -0.0042  0.0523
 4253W        W 6403   2.953   4.574   2.436  0.1314 -0.0547 -0.1138
 4254W        W 6404   7.472   1.599  31.322 -0.0382  0.3215  0.1142
 4255W        W 6405   8.916   3.846  31.504  0.1238 -0.2684  0.0390
 4256W        W 6406  10.264   4.047  11.177  0.2131 -0.2137  0.0235
 4257W        W 6407   7.873   2.537  28.091  0.1313 -0.0713 -0.0109
 4258W        W 6408  15.130   5.791  25.307 -0.1564  0.2067 -0.0232
 4259W        W 6409   7.877   0.978  27.384 -0.3734  0.0601 -0.1088
 4260W        W 6410  18.734   5.514   9.605  0.1825  0.1324  0.1500
 4261W        W 6411  23.948   5.497   1.874 -0.1314  0.1924 -0.1646
 4262W        W 6412   0.050   5.676   1.418  0.0891  0.0137  0.2180
 4263W        W 6413   7.274   0.356  27.193 -0.0234 -0.0650 -0.0313
 4264W        W 6414  22.276   4.948  34.574  0.2184  0.1663  0.1100
 4265W        W 6415   3.979   1.730   1.129  0.0560 -0.1401 -0.0616
 4266W        W 6416  21.977   5.807   8.204  0.1690  0.2161 -0.0448
 4267W        W 6417  17.481   2.451  26.201  0.0049 -0.1368 -0.1124
 4268W        W 6418  23.759   5.876  12.810 -0.1533  0.2377 -0.0559
 4269W        W 6419  25.681   4.495   8.758  0.2067  0.2020 -0.2893
 4270W        W 6420  19.008   0.445   2.671 -0.0974 -0.0790  0.1427
 4271W        W 6421   0.806   0.732   5.206 -0.1335 -0.2680 -0.1307
 4272W        W 6422   9.435   0.520  31.737 -0.1565  0.2141 -0.0825
 4273W        W 6423  20.788   4.625  13.777 -0.1414  0.4513 -0.1128
 4274W        W 6424  24.565   0.140  30.951  0.0785 -0.1207  0.0872
 4275W        W 6425   3.177   3.308   2.940  0.0665 -0.1957  0.1740
 4276W        W 6426  14.424   5.136  28.020  0.2281  0.1229 -0.0903
 4277W        W 6427  14.807   0.946  24.389  0.0478 -0.3127  0.0651
 4278W        W 6428  19.324   4.947  22.750 -0.0649 -0.0404  0.0777
 4279W        W 6429  15.876   2.844   5.531  0.0535  0.0817 -0.2570
 4280W        W 6430   3.086   5.297  33.022  0.0192  0.1286 -0.1077
 4281W        W 6431  12.705   3.517   5.964  0.0646 -0.1185  0.0774
 4282W        W 6432  14.847   5.127  15.375 -0.2233 -0.2034 -0.0682
 4283W        W 6433  10.131   4.054   4.299 -0.3118  0.1963 -0.0216
 4284W        W 6434  12.807   0.509   6.888 -0.0805  0.1266  0.1708
 4285W        W 6435  15.826   1.560  11.865 -0.1523 -0.0005  0.4066
 4286W        W 6436   2.240   3.712   5.384  0.1819  0.0272 -0.2243
 4287W        W 6437  25.531   3.714  27.925 -0.0115  0.2962 -0.1269
 4288W        W 6438  22.685   0.859  23.047 -0.1343 -0.1476  0.1931
 4289W        W 6439   6.838   3.593  26.326  0.0392 -0.2547 -0.1176
 4290W        W 6440  13.562   0.069   3.566 -0.3626  0.3257 -0.0969
 4291W        W 6441  23.010   2.294  23.978 -0.2834 -0.2017  0.1753
 4292W        W 6442   5.004   0.992   5.152  0.3290 -0.0578  0.0432
 4293W        W 6443  10.381   1.317  31.744 -0.0066  0.2171 -0.1935
 4294W        W 6444   9.361   0.214  26.477  0.1713  0.0786 -0.0112
 4295W        W 6445  16.567   3.451  34.450  0.0462 -0.1375  0.1669
 4296W        W 6446  21.324   6.257   7.444 -0.1376  0.1023 -0.1482
 4297W        W 6447  20.775   3.185   5.625  0.2699 -0.3967 -0.0786
 4298W        W 6448  10.871   5.156   8.254  0.0834  0.2553 -0.0729
 4299W        W 6449  17.255   1.439  30.311  0.1754 -0.2499  0.1780
 4300W        W 6450   4.653   5.875   4.681  0.0684 -0.1631  0.1531
 4301W        W 6451  12.407   5.404   5.536  0.4535  0.1825 -0.1787
 4302W        W 6452  13.900   4.776   7.210 -0.0021  0.0048 -0.0219
 4303W        W 6453  18.976   0.678   1.778  0.0839  0.0107  0.0496
 4304W        W 6454  25.084   0.701  13.782  0.1246  0.2957  0.1200
 4305W        W 6455  13.028   5.569  30.511  0.3442 -0.1917  0.0143
 4306W        W 6456   8.966   1.307  12.824  0.0149  0.5147  0.1537
 4307W        W 6457  24.134   4.475  25.946 -0.0487 -0.1931 -0.0354
 4308W        W 6458   1.456   5.148  14.566 -0.2494  0.2946 -0.0305
 4309W        W 6459  18.951   6.071  31.449 -0.0774 -0.3380 -0.1365
 4310W        W 6460  22.564   2.287  22.786  0.1828  0.0718 -0.3148
 4311W        W 6461  13.569   3.697  28.725 -0.0434 -0.0164 -0.1253
 4312W        W 6462  24.294   0.986  32.311 -0.0122 -0.0290 -0.0608
 4313W        W 6463  17.290   6.289  34.735  0.1531 -0.2674 -0.1831
 4314W        W 6464   3.011   6.368   3.111 -0.2824 -0.2537  0.3209
 4315W        W 6465   6.398   1.208   3.712 -0.2390  0.1551 -0.0045
 4316W        W 6466  19.414   3.697  27.772  0.0562  0.0750 -0.1720
 4317W        W 6467  20.108   2.976  26.997 -0.0810  0.0688  0.1564
 4318W        W 6468  26.240   3.479   1.255 -0.1130  0.0720 -0.0606
 4319W        W 6469   1.822   3.557   5.636 -0.0018  0.1208  0.3144
 4320W        W 6470  25.654   2.617  23.057 -0.3174 -0.0799 -0.0394
 4321W        W 6471  22.341   5.350  27.597  0.1413  0.0708 -0.2241
 4322W        W 6472   6.617   4.818  35.634 -0.0808  0.0943  0.0679
 4323W        W 6473  20.447   4.243  35.984 -0.1249  0.0085  0.4285
 4324W        W 6474  13.669   3.242  25.202 -0.0132 -0.0879  0.0505
 4325W        W 6475  26.085   4.392   3.560 -0.0701  0.1108 -0.0815
 4326W        W 6476  10.300   6.423  22.349 -0.1028 -0.1703  0.4523
 4327W        W 6477  25.003   4.122  34.320  0.3818  0.1263 -0.3888
 4328W        W 6478   1.827   6.494  33.580  0.2711  0.0744 -0.0403
 4329W        W 6479   6.772   2.552   9.240 -0.0154  0.0818  0.1842
 4330W        W 6480   5.216   2.836   6.384  0.0274 -0.0415 -0.0263
 4331W        W 6481  12.648   5.529  27.396 -0.1407  0.1115 -0.0325
 4332W        W 6482  15.528   0.341  15.472 -0.2445 -0.1126 -0.0647
 4333W        W 6483  22.490   2.626  26.850 -0.0935  0.0399 -0.3154
 4334W        W 6484   0.691   5.712  12.678 -0.1651  0.0912 -0.3593
 4335W        W 6485  23.309   2.747   3.834  0.0433  0.2152  0.0120
 4336W        W 6486  20.918   0.270  26.003  0.0734  0.1015  0.1913
 4337W        W 6487  17.270   3.764   3.840 -0.0480  0.1821 -0.0701
 4338W        W 6488  26.107   3.370   8.245 -0.0138  0.4670  0.3684
 4339W        W 6489  14.368   4.592   7.126  0.4349  0.1017 -0.0111
 4340W        W 6490   5.745   6.437  29.601  0.0964 -0.2263 -0.0829
 4341W        W 6491  15.490   2.891  11.009  0.0572 -0.0671 -0.0495
 4342W        W 6492   3.772   3.330  35.818  0.0147  0.0373 -0.0182
 4343W        W 6493  13.229   4.009  28.407  0.0830 -0.1120 -0.2174
 4344W        W 6494   0.298   3.878   7.756  0.4085  0.2110 -0.0509
 4345W        W 6495   3.975   3.307   6.517  0.1753 -0.1017  0.2967
 4346W        W 6496  11.568   4.818  11.968  0.0911  0.0932 -0.2192
 4347W        W 6497   4.919   4.713   7.341  0.0006  0.2260 -0.4425
 4348W        W 6498  16.196   4.315  35.540  0.0680  0.1876  0.1091
 4349W        W 6499  19.574   0.571  22.655 -0.1482  0.1668 -0.0862
 4350W        W 6500  20.314   0.505  21.135 -0.1019 -0.0115 -0.1151
 4351W        W 6501  23.245   5.100   3.043 -0.0662 -0.1421 -0.1230
 4352W        W 6502  25.160   4.019  25.126  0.3151  0.0103  0.0888
 4353W        W 6503  12.360   3.276  24.042  0.1356  0.0258 -0.0610
 4354W        W 6504  22.149   4.473  31.496 -0.1976  0.2349 -0.0067
 4355W        W 6505  12.657   4.762  21.385 -0.0217 -0.1603  0.0590
 4356W        W 6506  18.629   3.266   9.506  0.1074 -0.1249 -0.0222
 4357W        W 6507   9.566   1.707   1.019 -0.1792 -0.1684 -0.2224
 4358W        W 6508  15.941   2.608   2.875 -0.0287  0.0233  0.3114
 4359W        W 6509  22.219   5.455  26.636 -0.2408 -0.0512 -0.4018
 4360W        W 6510  25.052   4.058  20.817 -0.1578  0.2432  0.0898
 4361W        W 6511   1.226   5.012  27.969  0.0934  0.1088 -0.2775
 4362W        W 6512  18.220   5.765  24.382 -0.2161  0.1235 -0.2323
 4363W        W 6513  18.880   5.549  15.562  0.1138 -0.2143  0.1012
 4364W        W 6514  20.960   5.695  25.302 -0.2044 -0.0057  0.0664
 4365W        W 6515  18.596   4.630  11.173 -0.0672 -0.1927 -0.2431
 4366W        W 6516   9.763   6.159  19.997  0.1571  0.0555 -0.0539
 4367W        W 6517  17.727   2.234   2.192 -0.0657  0.1340  0.2300
 4368W        W 6518  23.851   5.805  25.797 -0.1848 -0.1284  0.1183
 4369W        W 6519   5.773   4.692   3.331 -0.1450 -0.2156  0.2636
 4370W        W 6520  24.796   3.041  14.456 -0.1822 -0.2415 -0.5020
 4371W        W 6521  16.624   5.462  20.919 -0.1226 -0.2016 -0.0881
 4372W        W 6522  16.919   0.165   6.019 -0.0598  0.1104  0.1515
 4373W        W 6523  15.485   1.344  23.700 -0.1981 -0.2610 -0.0905
 4374W        W 6524  24.522   4.508   8.168  0.0414  0.1156 -0.3306
 4375W        W 6525  23.938   6.057  15.143  0.0676  0.1299  0.4074
 4376W        W 6526  26.015   2.592   6.744 -0.1351 -0.1458  0.1512
 4377W        W 6527   6.722   6.186  24.125  0.3329  0.3130  0.0056
 4378W        W 6528  15.381   6.177  35.165 -0.0817  0.2241 -0.2798
 4379W        W 6529  11.984   5.021   0.457  0.0841 -0.2588 -0.2383
 4380W        W 6530  17.334   2.486   2.947  0.0686  0.2789  0.2595
 4381W        W 6531  10.227   1.190   5.261 -0.1582  0.2042  0.1203
 4382W        W 6532   1.334   1.205  10.558  0.2029 -0.2245  0.1828
 4383W        W 6533   3.052   3.586  31.864  0.0231  0.1464  0.1694
 4384W        W 6534   7.936   4.039  25.715 -0.0461  0.2668 -0.1334
 4385W        W 6535  24.671   5.549  28.230 -0.2763  0.0814 -0.1518
 4386W        W 6536  11.625   4.069   6.530 -0.1609  0.1552  0.0020
 4387W        W 6537   0.449   5.089   5.130 -0.1700  0.1394  0.1778
 4388W        W 6538  25.762   4.052  14.162 -0.3869 -0.0816 -0.1850
 4389W        W 6539   5.874   4.617   7.166  0.3751 -0.1679 -0.4450
 4390W        W 6540   5.383   5.965   9.918  0.1125  0.1756 -0.0462
 4391W        W 6541  25.560   5.460  12.581  0.1020  0.2111  0.1704
 4392W        W 6542   1.136   4.588  22.105 -0.0261  0.0835 -0.1596
 4393W        W 6543   7.230   1.665  32.105  0.0835  0.2058  0.1101
 4394W        W 6544   3.539   6.168   7.497 -0.1077 -0.0465  0.0172
 4395W        W 6545  24.857   4.579  12.175 -0.1626 -0.1711  0.0470
 4396W        W 6546   9.294   1.554  11.163  0.1008 -0.1761  0.2964
 4397W        W 6547   0.306   1.238  36.083  0.1206 -0.0412 -0.0846
 4398W        W 6548  20.952   3.760  31.536 -0.2388 -0.3747 -0.1875
 4399W        W 6549  24.603   3.544   5.106 -0.3541 -0.1628  0.1895
 4400W        W 6550  23.307   0.784  28.932  0.0114 -0.0291 -0.3093
 4401W        W 6551   8.298   5.809  13.455 -0.2529  0.0821 -0.0007
 4402W        W 6552   9.332   4.065  29.453  0.0040 -0.1741  0.0388
 4403W        W 6553  11.016   3.425   0.038  0.1066  0.2186 -0.0759
 4404W        W 6554  10.164   0.606  36.121 -0.2387  0.1632  0.1546
 4405W        W 6555  15.100   5.213  31.503  0.1162  0.0598  0.1203
 4406W        W 6556  18.087   3.120   1.895  0.0337 -0.2429 -0.0578
 4407W        W 6557   5.651   0.874   1.892  0.0670  0.2402 -0.0493
 4408W        W 6558   9.180   6.552  35.444 -0.0343  0.1612  0.0334
 4409W        W 6559  20.951   2.224  28.335 -0.1191  0.2689 -0.2025
 4410W        W 6560  11.324   5.797  33.254 -0.1989  0.4192 -0.2291
 4411W        W 6561   4.565   5.959   8.353 -0.0367  0.2255  0.1378
 4412W        W 6562  25.724   2.209   6.812  0.1164 -0.3049 -0.2529
 4413W        W 6563  11.841   3.950   7.818 -0.2522  0.1332  0.1607
 4414W        W 6564  10.801   2.622  13.004  0.0476  0.1116 -0.1489
 4415W        W 6565  17.332   4.019  32.008  0.0450  0.2581 -0.1182
 4416W        W 6566   7.981   1.284  33.740 -0.0972  0.0960  0.0667
 4417W        W 6567   1.362   3.277  32.417  0.0432 -0.0107  0.3458
 4418W        W 6568   1.528   5.728   5.607  0.0104 -0.0572  0.0381
 4419W        W 6569   3.595   3.421  34.791  0.0370  0.0197  0.1081
 4420W        W 6570  22.445   4.519  27.552  0.2350  0.0275  0.2348
 4421W        W 6571   4.921   3.544  31.270  0.0706 -0.0393  0.1808
 4422W        W 6572  17.942   1.182  36.125 -0.0937 -0.3807 -0.1996
 4423W        W 6573  19.983   3.812  11.854 -0.0992  0.3531  0.0081
 4424W        W 6574   7.847   0.347  10.971  0.1051 -0.0825  0.1695
 4425W        W 6575   8.930   3.509  14.090 -0.0835  0.0491  0.1424
 4426W        W 6576  16.627   2.325  22.740  0.2060 -0.1572  0.1981
 4427W        W 6577   8.279   1.334   1.302  0.1087  0.2470  0.2089
 4428W        W 6578   2.359   3.657  34.879  0.3625 -0.0830  0.2992
 4429W        W 6579  26.220   4.041  22.675  0.1704 -0.0424 -0.0153
 4430W        W 6580  19.043   6.430   7.533 -0.0353 -0.0147  0.0718
 4431W        W 6581  11.354   1.009  30.597 -0.0855  0.0667  0.1194
 4432W        W 6582   4.100   4.247  33.467 -0.1233 -0.3055  0.0099
 4433W        W 6583  25.138   3.205  22.605  0.1046 -0.0537 -0.3592
 4434W        W 6584  16.906   0.374  29.503  0.0830 -0.1357 -0.2419
 4435W        W 6585  23.629   3.030   9.077 -0.1941 -0.3846  0.0129
 4436W        W 6586   4.909   0.409   2.462  0.1761 -0.0945  0.0709
 4437W        W 6587  18.725   1.081  32.555 -0.1767 -0.1895 -0.1025
 4438W        W 6588  20.370   1.553  10.379  0.0887 -0.3984 -0.0907
 4439W        W 6589   4.294   2.619  36.125 -0.1245  0.0659 -0.0360
 4440W        W 6590  13.949   1.638  33.045  0.3249 -0.1240  0.2795
 4441W        W 6591  26.061   3.727  27.898  0.2109  0.1363  0.2252
 4442W        W 6592  14.523   5.515   2.788  0.2678  0.1742  0.3200
 4443W        W 6593  10.038   3.131  27.016 -0.1809  0.0276 -0.1028
 4444W        W 6594   1.200   2.687  28.191  0.3905 -0.0753 -0.2346
 4445W        W 6595  20.911   4.783  12.932 -0.1943 -0.1428 -0.0928
 4446W        W 6596  13.684   2.669   2.901 -0.1422  0.1391 -0.0098
 4447W        W 6597   4.822   4.584  12.867 -0.1087 -0.0243  0.2435
 4448W        W 6598  21.096   4.483  22.683 -0.1334 -0.0307 -0.3399
 4449W        W 6599  25.498   1.400   0.464  0.1832  0.1310  0.1169
 4450W        W 6600  12.874   0.567   2.911 -0.1445 -0.0338  0.2675
 4451W        W 6601  22.305   6.361  11.869 -0.0979  0.1400 -0.0347
 4452W        W 6602  24.689   3.740  25.046 -0.0412 -0.1892  0.0722
 4453W        W 6603  15.050   5.253   6.766 -0.3603  0.1087 -0.2625
 4454W        W 6604   6.234   0.303   4.474 -0.0170 -0.1821  0.0513
 4455W        W 6605  16.387   6.272  35.418  0.1225  0.2601 -0.0549
 4456W        W 6606  20.316   0.323  24.077 -0.0069 -0.0498  0.2795
 4457W        W 6607  24.024   4.053  31.563  0.2835 -0.3881  0.0605
 4458W        W 6608  21.024   5.202   7.681  0.1012 -0.0419  0.2149
 4459W        W 6609  13.051   2.986  33.087  0.1020  0.0677 -0.1575
 4460W        W 6610  14.521   4.027  24.674 -0.0144 -0.1196  0.2805
 4461W        W 6611  11.144   1.143   4.971 -0.0270  0.0902  0.1359
 4462W        W 6612   1.828   6.548  32.164 -0.0410 -0.0499 -0.1572
 4463W        W 6613  11.750   3.096  29.887  0.1626 -0.0145 -0.0722
 4464W        W 6614   0.700   5.954  30.905 -0.0719  0.2160  0.0768
 4465W        W 6615   4.152   1.245  35.783 -0.0936 -0.3558 -0.0495
 4466W        W 6616  24.287   0.622   4.381 -0.1241 -0.0472 -0.1221
 4467W        W 6617  16.123   1.434   1.644  0.0365 -0.3366 -0.0138
 4468W        W 6618  21.549   6.410  13.508 -0.0849 -0.1070 -0.0937
 4469W        W 6619  12.479   5.262  33.088  0.2473 -0.1315 -0.2486
 4470W        W 6620  13.711   3.009   7.154 -0.0096 -0.0579  0.0754
 4471W        W 6621   4.830   2.372   2.741 -0.1424 -0.1402 -0.1407
 4472W        W 6622  12.552   2.841  31.464  0.1683  0.2378 -0.0280
 4473W        W 6623  24.060   1.094  24.873  0.0446  0.1184 -0.1854
 4474W        W 6624  12.264   2.084   3.840  0.0230 -0.2592  0.0891
 4475W        W 6625  25.185   2.980  27.748  0.0638  0.3737 -0.1391
 4476W        W 6626  16.156   4.772  15.925 -0.0655  0.0617  0.1644
 4477W        W 6627   4.520   2.144  31.537 -0.1506 -0.1529 -0.1001
 4478W        W 6628   1.989   1.400   1.445 -0.2022  0.1151  0.1581
 4479W        W 6629  22.453   3.475   0.896  0.2842 -0.1424 -0.1998
 4480W        W 6630   5.566   1.974  30.673 -0.1724 -0.0665  0.0768
 4481W        W 6631  19.203   1.628   6.486 -0.1501 -0.0924 -0.0393
 4482W        W 6632  21.501   0.759  31.950  0.0880  0.1329 -0.1144
 4483W        W 6633   6.340   5.925   5.364  0.0048 -0.0326 -0.2738
 4484W        W 6634   4.053   2.963  21.235 -0.0973 -0.0880 -0.0887
 4485W        W 6635  12.789   4.639   4.320  0.0913 -0.0166  0.0381
 4486W        W 6636   3.136   1.921  23.922 -0.2136  0.0771  0.2927
 4487W        W 6637  19.499   3.473  21.405  0.0890  0.1163 -0.0108
 4488W        W 6638  25.339   4.646  36.108  0.0666 -0.3438 -0.1675
 4489W        W 6639   1.983   1.180  25.679  0.0982  0.1013  0.1577
 4490W        W 6640  24.458   1.815  11.151 -0.1000 -0.0792  0.0354
 4491W        W 6641  13.313   6.043  32.497 -0.1127  0.1232  0.1256
 4492W        W 6642  21.353   3.107  28.385 -0.6992  0.0601 -0.2369
 4493W        W 6643  10.976   4.166  13.624  0.3536  0.0260 -0.2247
 4494W        W 6644  10.551   4.522  34.963  0.1016  0.0802  0.2160
 4495W        W 6645  15.929   1.038  30.214 -0.3594  0.1470  0.1027
 4496W        W 6646  13.303   1.596  15.235  0.0329  0.3596 -0.1390
 4497W        W 6647  24.340   0.458  33.807  0.0789 -0.4188 -0.0714
 4498W        W 6648   1.453   0.182   2.078  0.3389 -0.4247  0.2117
 4499W        W 6649  15.872   1.438   8.011 -0.1394  0.1899 -0.2835
 4500W        W 6650  13.255   3.841  27.295  0.0080  0.1300  0.0098
 4501W        W 6651  23.560   2.164  29.089 -0.1020  0.1281 -0.2852
 4502W        W 6652  14.459   4.493  33.763 -0.1456 -0.0732 -0.1307
 4503W        W 6653   9.669   0.459   6.796 -0.1144  0.2974 -0.1769
 4504W        W 6654  14.924   6.446   4.365 -0.0753 -0.0334 -0.0268
 4505W        W 6655   4.655   4.245  23.329  0.0856  0.1188  0.3771
 4506W        W 6656  14.107   1.972   1.925 -0.0835  0.1877 -0.1476
 4507W        W 6657  25.356   3.930  28.757 -0.1178 -0.0628  0.0801
 4508W        W 6658   6.584   2.873  11.117  0.0399 -0.0829 -0.1919
 4509W        W 6659   9.403   4.742   9.543 -0.0135 -0.2334 -0.0924
 4510W        W 6660  22.630   3.074   3.051 -0.2319 -0.2196  0.2784
 4511W        W 6661   3.056   4.212  25.445 -0.1946  0.0279 -0.0635
 4512W        W 6662   0.058   4.138   3.227  0.0723 -0.1134 -0.2650
 4513W        W 6663   8.812   3.922  29.507 -0.1187  0.0096 -0.0170
 4514W        W 6664  14.581   0.896  22.887 -0.0351  0.0832 -0.2333
 4515W        W 6665  16.634   5.275   5.563  0.0490  0.0728 -0.0779
 4516W        W 6666   7.272   1.206  29.941  0.1182  0.1966  0.0428
 4517W        W 6667  13.383   4.251  32.173  0.0656 -0.1453 -0.0669
 4518W        W 6668  17.877   0.858  12.059  0.2255  0.0851  0.1172
 4519W        W 6669  14.372   2.015  25.296  0.1279 -0.0531  0.1760
 4520W        W 6670  24.520   4.161  27.446  0.0155  0.3523  0.1877
 4521W        W 6671  23.204   2.293   8.430 -0.2722 -0.2056  0.0385
 4522W        W 6672   3.705   6.192  12.884 -0.1554  0.0736  0.0199
 4523W        W 6673  17.691   1.614  23.167  0.1426  0.1432  0.2034
 4524W        W 6674   6.803   1.070  29.086  0.0053 -0.2416  0.0896
 4525W        W 6675   8.743   4.306   8.467 -0.0531 -0.0115 -0.0323
 4526W        W 6676   4.951   3.627  27.978 -0.3275 -0.0547 -0.2270
 4527W        W 6677  25.114   3.439  10.641 -0.1399  0.3112  0.1471
 4528W        W 6678  25.022   1.763  15.786  0.2808  0.0116  0.1758
 4529W        W 6679   2.323   5.079  28.888 -0.0019 -0.0250 -0.1376
 4530W        W 6680   3.109   0.876  20.562  0.1090  0.0856 -0.1632
 4531W        W 6681   2.335   4.548  26.672  0.1101 -0.0860  0.2835
 4532W        W 6682  11.157   3.892  25.180 -0.2851 -0.3012 -0.0090
 4533W        W 6683  25.226   4.490  34.844  0.4577 -0.1191 -0.0694
 4534W        W 6684  22.401   2.094   3.090 -0.0209  0.0387  0.0725
 4535W        W 6685  24.764   4.499   1.706 -0.0894  0.0384  0.1462
 4536W        W 6686   5.933   2.424  11.629  0.1096  0.0016 -0.0220
 4537W        W 6687  23.914   1.044   1.400  0.1353  0.3491 -0.2303
 4538W        W 6688  19.194   5.871   3.787 -0.2586  0.2579 -0.2382
 4539W        W 6689  25.194   3.097  21.973 -0.0602 -0.2353  0.0528
 4540W        W 6690   3.106   6.599  12.632 -0.2709  0.2079  0.1806
 4541W        W 6691  10.724   0.064  32.235 -0.0869  0.2099  0.1139
 4542W        W 6692  12.789   5.525  21.944 -0.1365  0.3922  0.4874
 4543W        W 6693   4.196   3.014  12.037 -0.1854  0.0681  0.1430
 4544W        W 6694  13.797   3.012   8.908  0.4570 -0.1674 -0.1016
 4545W        W 6695  20.665   1.438  12.161  0.2308  0.3867  0.0392
 4546W        W 6696  16.220   5.082  32.596  0.0684  0.0229  0.1860
 4547W        W 6697  12.768   6.218   3.418 -0.0004  0.1644 -0.2132
 4548W        W 6698   9.805   3.396   8.999 -0.0309  0.0059  0.1208
 4549W        W 6699  11.399   2.827  22.346  0.0375  0.1943 -0.1297
 4550W        W 6700   3.676   4.442  11.596 -0.0442 -0.2582 -0.0738
 4551W        W 6701  25.667   6.085  11.899  0.0459  0.0377 -0.0540
 4552W        W 6702   4.033   0.473   3.717  0.0741  0.2762  0.1099
 4553W        W 6703   4.616   5.414   5.970 -0.1533 -0.1987 -0.0912
 4554W        W 6704  22.184   6.292  31.160  0.1487 -0.0983 -0.1561
 4555W        W 6705  16.393   0.423   9.660  0.0908  0.0623 -0.4158
 4556W        W 6706  19.104   2.651  24.205  0.2535 -0.0582 -0.1934
 4557W        W 6707   3.591   5.734  27.902 -0.0837 -0.1090 -0.0328
 4558W        W 6708   9.522   6.179   2.605  0.1153  0.3707 -0.0288
 4559W        W 6709  11.212   3.722   4.194 -0.0574 -0.0432  0.2857
 4560W        W 6710   8.183   4.375  34.389 -0.0384 -0.0355  0.0670
 4561W        W 6711  21.123   5.352  11.074 -0.0185 -0.1791 -0.1382
 4562W        W 6712  14.004   0.370  25.813  0.0119 -0.1212  0.0884
 4563W        W 6713  21.766   6.409  25.170 -0.0270  0.0437 -0.0677
 4564W        W 6714  23.951   4.605   6.712  0.0692 -0.1334  0.1484
 4565W        W 6715   7.350   2.966   1.036  0.1916  0.1398 -0.0442
 4566W        W 6716  19.509   0.891  33.402  0.1340 -0.0659 -0.1283
 4567W        W 6717  24.585   3.654  27.488  0.2687  0.0306  0.3970
 4568W        W 6718  12.110   2.685  24.105  0.0404 -0.1145 -0.0300
 4569W        W 6719  25.783   0.149  25.299  0.1421 -0.3388  0.0473
 4570W        W 6720  24.532   4.696  33.610 -0.0586  0.0636 -0.0300
 4571W        W 6721   3.549   5.285  13.753  0.2516  0.0969  0.1161
 4572W        W 6722  16.924   1.064  35.043  0.0948  0.0978 -0.0847
 4573W        W 6723   2.338   6.431   7.462  0.0544  0.2284 -0.1653
 4574W        W 6724  18.386   2.169  10.625 -0.1329  0.0342  0.1786
 4575W        W 6725   7.569   4.649  12.042 -0.0072  0.0860  0.1210
 4576W        W 6726  17.127   3.726   2.000  0.1020  0.3524  0.0010
 4577W        W 6727  22.471   0.495  33.751  0.1270 -0.1417 -0.1023
 4578W        W 6728   5.408   6.157   1.236 -0.0981 -0.2168 -0.0975
 4579W        W 6729  22.762   4.716  23.938  0.0517  0.0141 -0.1894
 4580W        W 6730  17.995   1.430  35.659 -0.3347 -0.0921  0.3125
 4581W        W 6731   5.451   1.821  27.005 -0.1473 -0.0043 -0.0022
 4582W        W 6732  12.148   2.899   4.150 -0.2983 -0.1012  0.1883
 4583W        W 6733   5.695   3.566  14.180 -0.0939 -0.1418 -0.0696
 4584W        W 6734   5.259   2.890  31.494 -0.0748  0.1090  0.1735
 4585W        W 6735   5.126   2.854  28.553 -0.1061 -0.0392 -0.0671
 4586W        W 6736  17.272   0.593  30.810 -0.0548  0.2591 -0.2547
 4587W        W 6737  20.607   4.773  23.722  0.0861 -0.0633 -0.3801
 4588W        W 6738   1.809   2.788  36.119 -0.1474  0.1246 -0.2553
 4589W        W 6739  10.804   0.521  21.842 -0.4186  0.0639 -0.0311
 4590W        W 6740  21.576   3.636  14.425 -0.4027  0.0849 -0.1040
 4591W        W 6741  11.499   0.976   3.136  0.0530 -0.0795 -0.1060
 4592W        W 6742  17.094   1.370   2.100 -0.2013  0.1741 -0.0477
 4593W        W 6743   7.403   3.354  22.802  0.0269  0.0681  0.0164
 4594W        W 6744   5.414   6.024  31.379  0.0924 -0.0643 -0.1708
 4595W        W 6745  10.178   1.503  10.991  0.2865  0.2689 -0.1220
 4596W        W 6746   9.445   1.048  12.979 -0.3375 -0.2517 -0.0112
 4597W        W 6747   0.487   1.128  26.478  0.0192  0.2473  0.1422
 4598W        W 6748   6.217   0.967  11.490  0.0586 -0.2790 -0.0170
 4599W        W 6749   3.104   5.508  30.221  0.0895 -0.1854 -0.1457
 4600W        W 6750  25.685   1.876   6.131  0.1028 -0.3784 -0.1031
 4601W        W 6751   2.588   5.145   1.322 -0.1533  0.0943  0.0514
 4602W        W 6752   4.456   5.759  23.280  0.0298 -0.1734 -0.0270
 4603W        W 6753  14.266   2.967  25.454  0.0786 -0.1898  0.1353
 4604W        W 6754   5.835   4.646   8.899 -0.0890  0.2231  0.0280
 4605W        W 6755  11.835   1.309  21.443 -0.0190 -0.1540  0.1318
 4606W        W 6756   7.224   6.242  26.081 -0.1025  0.0470  0.0761
 4607W        W 6757  10.762   1.780  28.932  0.2704  0.2938 -0.1105
 4608W        W 6758   7.415   4.029  20.644 -0.0935 -0.0956 -0.1131
 4609W        W 6759  19.863   5.978  20.641 -0.0352  0.1114 -0.3028
 4610W        W 6760  24.002   6.036   5.344  0.2223  0.2653 -0.0084
 4611W        W 6761  18.914   1.013   8.360 -0.1178  0.0286 -0.2146
 4612W        W 6762  12.011   4.999  22.762  0.1295 -0.3632 -0.1997
 4613W        W 6763  11.387   0.679  23.178  0.1367 -0.1563  0.1959
 4614W        W 6764  17.477   1.322  15.759  0.0460  0.0787  0.1527
 4615W        W 6765  13.330   6.222   9.505  0.2974 -0.0527  0.1526
 4616W        W 6766  13.291   0.501  14.470 -0.1062  0.0800  0.1280
 4617W        W 6767   2.390   3.641  23.802  0.2333 -0.0154  0.2632
 4618W        W 6768  16.926   5.057  29.952 -0.1179  0.2925 -0.1597
 4619W        W 6769  12.709   3.450   4.296 -0.0302  0.2103 -0.0766
 4620W        W 6770   1.920   2.355   1.471  0.0670 -0.2281  0.2114
 4621W        W 6771  26.115   4.782   8.583  0.1570 -0.2680  0.0205
 4622W        W 6772  13.875   1.657  25.900 -0.2193 -0.2777 -0.2023
 4623W        W 6773  10.639   1.272   2.801 -0.1215 -0.4569  0.1887
 4624W        W 6774  26.306   6.559  30.217 -0.1845 -0.0314 -0.0529
 4625W        W 6775  20.139   0.142   1.159  0.0116  0.0607 -0.0192
 4626W        W 6776   7.251   1.680  10.132  0.0103 -0.0760 -0.3473
 4627W        W 6777   5.079   1.346  12.211  0.0052  0.1518 -0.3124
 4628W        W 6778  22.879   5.821  23.048  0.4932 -0.2009 -0.1371
 4629W        W 6779   0.177   1.623   3.793  0.1112 -0.0430  0.0617
 4630W        W 6780  24.441   1.969   4.849  0.3935 -0.1770 -0.0676
 4631W        W 6781  21.879   5.394  22.250  0.0449 -0.0995  0.3946
 4632W        W 6782   0.069   4.181   2.038  0.1269 -0.1670 -0.0182
 4633W        W 6783   9.047   1.656  34.074 -0.2466  0.0391 -0.4072
 4634W        W 6784  23.699   4.493  36.064  0.2009  0.0050 -0.0672
 4635W        W 6785   7.390   5.169  22.657  0.0826  0.1455 -0.2219
 4636W        W 6786  25.662   3.942   6.824 -0.2042 -0.2315  0.0709
 4637W        W 6787   7.351   3.962  26.356  0.2670 -0.2161  0.1245
 4638W        W 6788  23.592   3.969   8.582  0.1080  0.0355 -0.0638
 4639W        W 6789  18.782   2.569  24.692 -0.0758  0.0792  0.0059
 4640W        W 6790  15.303   1.386  22.428 -0.1379  0.4617 -0.1319
 4641W        W 6791   0.128   0.596   0.544  0.2211  0.2153  0.1710
 4642W        W 6792  26.047   1.673  11.493 -0.3194  0.0069 -0.0506
 4643W        W 6793  17.630   4.464  31.908  0.0647 -0.1519 -0.1145
 4644W        W 6794   7.085   4.497  23.445  0.3755 -0.3303  0.3472
 4645W        W 6795  18.442   3.955  15.291  0.2602  0.0428  0.1561
 4646W        W 6796  14.696   3.087  12.608  0.0205 -0.0073  0.2378
 4647W        W 6797   1.999   3.541  30.317 -0.0323  0.0665 -0.0037
 4648W        W 6798  17.279   5.583  31.749 -0.1258 -0.1756  0.2121
 4649W        W 6799  13.555   5.470  30.706 -0.2913  0.2449  0.0704
 4650W        W 6800  22.357   6.477  22.900 -0.2486 -0.2419 -0.0896
 4651W        W 6801  14.159   0.223   2.169  0.1814  0.0564  0.1387
 4652W        W 6802  19.291   3.001  35.199  0.0575  0.0634  0.2550
 4653W        W 6803  23.339   5.590  31.885 -0.1026 -0.1578 -0.0314
 4654W        W 6804   3.109   1.679   7.013 -0.0737 -0.0921 -0.0806
 4655W        W 6805   2.469   0.017  32.801  0.3589  0.2269 -0.1245
 4656W        W 6806  18.243   1.227  11.258 -0.1991 -0.0412 -0.0208
 4657W        W 6807  19.178   5.432   8.359 -0.0706 -0.1008 -0.2037
 4658W        W 6808  19.482   2.456  15.199  0.0650  0.1206  0.2484
 4659W        W 6809  21.470   4.082  32.439  0.3644 -0.1186 -0.1164
 4660W        W 6810   4.702   1.402  33.935  0.1207  0.0286 -0.0454
 4661W        W 6811   1.111   6.177   9.685 -0.0684  0.3629 -0.0068
 4662W        W 6812  17.078   4.537  27.112  0.0322 -0.0666 -0.3139
 4663W        W 6813  20.692   3.706  33.717  0.2735  0.1496  0.1950
 4664W        W 6814   8.033   0.726  28.819  0.2206 -0.1210  0.0359
 4665W        W 6815  16.087   6.529   7.484  0.5671 -0.0918  0.1658
 4666W        W 6816  14.466   5.606  27.763 -0.0027  0.0831 -0.3574
 4667W        W 6817  10.531   4.769   5.295  0.0645  0.1052 -0.0824
 4668W        W 6818   3.875   4.297  23.399  0.1661  0.0692 -0.0055
 4669W        W 6819  22.053   5.942  10.086  0.3165 -0.0756 -0.1404
 4670W        W 6820   1.283   2.268  31.210  0.3279 -0.0766  0.1412
 4671W        W 6821   7.510   4.259  10.330  0.2542  0.0576 -0.3890
 4672W        W 6822  12.594   5.953  28.727  0.2329  0.0514 -0.2287
 4673W        W 6823  10.719   4.070  31.066  0.2562  0.1239  0.0563
 4674W        W 6824   1.048   3.020  10.495  0.1585 -0.1716 -0.1512
 4675W        W 6825  20.552   6.247  22.894  0.1808 -0.2193 -0.1971
 4676W        W 6826  17.856   2.543  30.963  0.0619 -0.2126 -0.0725
 4677W        W 6827   3.304   1.100  22.845 -0.2500 -0.1573  0.0817
 4678W        W 6828   4.986   6.437  33.624 -0.1093  0.0101 -0.0898
 4679W        W 6829  12.372   6.384  14.796 -0.0163  0.0098 -0.2472
 4680W        W 6830  25.166   2.414   6.817 -0.2173  0.0468  0.0484
 4681W        W 6831  10.348   5.871  21.329  0.1661 -0.3194 -0.1162
 4682W        W 6832  15.471   1.200  32.366  0.2560  0.0151  0.1770
 4683W        W 6833  15.521   5.530  30.816  0.4451 -0.1028  0.0876
 4684W        W 6834  15.671   1.520  14.309  0.2765 -0.1679 -0.2566
 4685W        W 6835  23.618   5.353  14.422 -0.1147  0.2129 -0.4214
 4686W        W 6836   0.563   1.369  25.355 -0.0605  0.0614 -0.1044
 4687W        W 6837  20.351   4.953  15.026 -0.2421  0.0598  0.1869
 4688W        W 6838   8.520   6.586  25.655 -0.0295  0.2122  0.2497
 4689W        W 6839  24.790   1.374  12.453 -0.0620 -0.1248 -0.1494
 4690W        W 6840   2.469   5.754  21.569  0.0033  0.0123 -0.2468
 4691W        W 6841  21.677   5.925  34.081  0.1983 -0.0114  0.3084
 4692W        W 6842  26.249   0.798  21.209  0.0450 -0.2515 -0.0775
 4693W        W 6843   0.542   3.277   7.085 -0.1303  0.1633 -0.0484
 4694W        W 6844  18.846   1.943   9.762 -0.1329 -0.1319 -0.1844
 4695W        W 6845  24.672   5.608  10.042 -0.5025 -0.0331  0.1782
 4696W        W 6846  21.562   3.170   9.779  0.1533  0.0550 -0.2111
 4697W        W 6847   6.043   5.254  22.922 -0.0830  0.0293 -0.1270
 4698W        W 6848   6.750   4.520  14.384  0.2254 -0.1901 -0.1765
 4699W        W 6849  22.487   3.912  32.247 -0.0198  0.0886 -0.2593
 4700W        W 6850  15.822   5.975  13.961 -0.1757 -0.1286  0.1119
 4701W        W 6851   8.695   1.937  31.825  0.1183  0.1249 -0.2554
 4702W        W 6852  11.633   0.027  23.900 -0.2756 -0.1420  0.3230
 4703W        W 6853  14.770   4.453  27.977  0.0510  0.1354 -0.0439
 4704W        W 6854  20.859   3.528  12.947 -0.0942 -0.1180 -0.1652
 4705W        W 6855  10.423   6.169  11.738 -0.0567 -0.1931 -0.0797
 4706W        W 6856  10.106   6.537   5.732  0.2056 -0.0693  0.0161
 4707W        W 6857  23.950   3.907  10.330  0.1463 -0.0169 -0.1503
 4708W        W 6858  24.562   5.763  26.559  0.1342 -0.1491 -0.4298
 4709W        W 6859  22.312   2.397  10.310  0.2607  0.3223 -0.1218
 4710W        W 6860  18.799   3.665  32.379 -0.2189  0.1640  0.0403
 4711W        W 6861   5.754   0.973   6.237 -0.4031  0.1223 -0.3093
 4712W        W 6862  13.976   5.880  29.922  0.1785 -0.0658 -0.0869
 4713W        W 6863   2.360   3.930   8.946 -0.1331  0.1187 -0.1132
 4714W        W 6864  15.685   6.333  33.222 -0.4464 -0.0480  0.2640
 4715W        W 6865  11.148   1.762  32.047 -0.0129 -0.4390 -0.1015
 4716W        W 6866   6.919   4.166  14.733  0.0575 -0.2664  0.2056
 4717W        W 6867  24.268   4.460  34.355 -0.1138 -0.3414  0.0095
 4718W        W 6868   0.375   1.015  28.407 -0.0885  0.0583  0.0329
 4719W        W 6869   8.134   0.551   8.337  0.0314 -0.1572 -0.0562
 4720W        W 6870   3.527   1.259  29.212  0.0216  0.1612 -0.0988
 4721W        W 6871  11.474   0.788   9.576  0.0693  0.1552  0.2920
 4722W        W 6872   0.899   3.417   1.786  0.0086  0.3606  0.2272
 4723W        W 6873  20.694   2.083  24.322  0.2067 -0.0266  0.0551
 4724W        W 6874  18.412   2.982  12.167  0.0503 -0.1480  0.0102
 4725W        W 6875  18.259   2.964  33.610 -0.2736 -0.1250  0.1767
 4726W        W 6876  15.280   5.224  32.388  0.1131 -0.0406  0.1104
 4727W        W 6877  26.325   2.990  13.757  0.2043 -0.0131 -0.0221
 4728W        W 6878   0.799   0.443  27.361 -0.0763  0.1492  0.0010
 4729W        W 6879   6.075   2.826  22.519 -0.0725 -0.1475  0.1564
 4730W        W 6880   4.835   6.229  25.333 -0.2717  0.0612 -0.2869
 4731W        W 6881  21.547   0.794   7.878  0.1790 -0.0180  0.1737
 4732W        W 6882  25.870   5.979  33.796  0.0011 -0.4397  0.1880
 4733W        W 6883  15.224   5.376  15.103  0.3436  0.2322  0.0800
 4734W        W 6884   4.442   1.851  21.694 -0.0632 -0.0297 -0.1585
 4735W        W 6885   2.937   4.806  29.595 -0.0060 -0.0150 -0.1307
 4736W        W 6886  17.629   1.422   1.661  0.2501 -0.1043  0.0809
 4737W        W 6887  21.773   0.143  26.627  0.0379 -0.0514  0.0179
 4738W        W 6888  25.808   2.521  20.938  0.4016  0.3050 -0.1971
 4739W        W 6889   7.731   5.047  23.076  0.3439  0.0422  0.3340
 4740W        W 6890  23.336   0.367  23.739  0.0531  0.1157 -0.1253
 4741W        W 6891   3.860   1.532  26.700 -0.0249 -0.2625 -0.0888
 4742W        W 6892   2.301   3.110   9.963 -0.0240 -0.0334 -0.2816
 4743W        W 6893   1.645   4.546   5.938  0.1951 -0.0947  0.0842
 4744W        W 6894   5.467   4.466  23.266 -0.0350 -0.0631  0.1970
 4745W        W 6895  21.647   4.623  29.465  0.2493  0.0174  0.0993
 4746W        W 6896  19.845   6.376  24.583 -0.0389  0.1654  0.0764
 4747W        W 6897  17.563   2.025  30.862  0.0883 -0.0126 -0.1519
 4748W        W 6898   2.067   1.454   4.536 -0.1928  0.0325  0.1143
 4749W        W 6899  20.426   4.090  23.094 -0.1415 -0.0483 -0.1940
 4750W        W 6900  15.036   2.865   2.565 -0.1282  0.1764 -0.3670
 4751W        W 6901  11.380   3.316  29.491  0.0638 -0.0601 -0.3340
 4752W        W 6902   5.403   5.387  23.906  0.0157 -0.0229  0.1956
 4753W        W 6903  25.117   2.825  31.060  0.0528 -0.0466 -0.0123
 4754W        W 6904   2.476   5.120  31.321  0.1817 -0.1355  0.3959
 4755W        W 6905   9.769   3.174  33.013  0.0983 -0.1662 -0.2066
 4756W        W 6906  25.281   3.557  11.448 -0.4381  0.2126  0.0179
 4757W        W 6907  18.582   3.589   1.351 -0.3628 -0.2724 -0.1298
 4758W        W 6908  25.458   4.536  13.286  0.2423 -0.0554  0.0169
 4759W        W 6909  25.008   5.658  34.356 -0.0371  0.1300  0.4110
 4760W        W 6910   8.953   3.964   7.280  0.1794  0.1976  0.2074
 4761W        W 6911   6.955   2.665  33.660 -0.0895 -0.0557 -0.1396
 4762W        W 6912  21.434   3.922  27.101 -0.1158  0.1601  0.1973
 4763W        W 6913  10.252   1.181  26.928 -0.1518 -0.0053  0.0377
 4764W        W 6914   7.400   4.748   2.072 -0.0319 -0.3241  0.1425
 4765W        W 6915  18.851   1.297  22.584  0.1501  0.0201  0.0743
 4766W        W 6916  21.968   3.244  22.551 -0.3162 -0.0063  0.2682
 4767W        W 6917  22.080   1.027  10.849  0.1169 -0.0101 -0.0437
 4768W        W 6918  10.290   1.451   1.430 -0.2086  0.3554  0.3598
 4769W        W 6919  17.259   5.891  14.953 -0.1230 -0.1663  0.2507
 4770W        W 6920  16.429   6.008  15.637 -0.2232 -0.3401  0.0808
 4771W        W 6921  23.426   1.230   6.627 -0.3140  0.1393 -0.1984
 4772W        W 6922  25.960   3.824  24.799 -0.4143  0.0545  0.1953
 4773W        W 6923  14.277   2.281  22.200 -0.0358 -0.1098 -0.0078
 4774W        W 6924   3.376   4.476  11.189  0.1603 -0.0677 -0.0050
 4775W        W 6925  14.735   2.673  13.372  0.0032  0.1710  0.0823
 4776W        W 6926  18.442   2.423   3.827  0.0537  0.1832  0.1356
 4777W        W 6927   3.191   4.782  33.048 -0.0787  0.0471 -0.1413
 4778W        W 6928   2.471   6.027   9.303  0.1543  0.0545 -0.0907
 4779W        W 6929  19.158   2.070   0.105  0.3081 -0.1931 -0.1179
 4780W        W 6930  13.143   5.516  26.231  0.0108  0.1139 -0.0413
 4781W        W 6931  25.575   3.259  31.316 -0.0302 -0.2412  0.0239
 4782W        W 6932   2.959   1.995  33.423  0.1304  0.0327 -0.0648
 4783W        W 6933  13.608   4.207  26.787  0.0424  0.1672 -0.2671
 4784W        W 6934  14.903   1.923   9.078  0.1487 -0.0280  0.2894
 4785W        W 6935   2.382   4.863  30.876 -0.2771 -0.4260  0.2052
 4786W        W 6936  16.521   1.295   0.965  0.1415  0.1987 -0.0307
 4787W        W 6937   1.412   0.383  30.870 -0.0560  0.1367  0.2063
 4788W        W 6938   0.239   4.059  11.780 -0.0943  0.3553 -0.0351
 4789W        W 6939   7.455   0.713  24.045  0.0724 -0.1218  0.3737
 4790W        W 6940   3.354   0.162  21.107  0.2682  0.2872 -0.0637
 4791W        W 6941  12.567   0.726   4.005 -0.1181  0.2118 -0.0922
 4792W        W 6942  12.975   1.902  10.243 -0.2406 -0.3353 -0.0353
 4793W        W 6943  13.813   4.464  30.842  0.1759  0.1249  0.0383
 4794W        W 6944  21.297   1.381  34.596 -0.2723  0.0079  0.0408
 4795W        W 6945  16.282   4.057   9.405  0.1509  0.1903 -0.2045
 4796W        W 6946   3.851   1.563  22.073 -0.1737 -0.0423  0.3133
 4797W        W 6947   7.523   6.135  24.022 -0.1360  0.0597  0.1915
 4798W        W 6948  18.826   5.942   2.805 -0.1228  0.0627  0.0894
 4799W        W 6949  18.537   2.056  35.095 -0.0848 -0.1588 -0.1632
 4800W        W 6950   6.986   2.283  25.586  0.2444  0.1129 -0.0135
 4801W        W 6951   6.569   2.798  13.075 -0.1008 -0.3175 -0.1437
 4802W        W 6952   0.732   1.243   3.485  0.1514 -0.5224  0.0718
 4803W        W 6953  19.634   2.508  10.113 -0.2717 -0.3917 -0.0387
 4804W        W 6954  24.164   2.739  26.938  0.0353  0.1460 -0.0188
 4805W        W 6955   6.440   2.555   7.541 -0.0499 -0.0045  0.2155
 4806W        W 6956   0.133   5.645  12.660  0.0673  0.3311 -0.0758
 4807W        W 6957  23.055   1.990  33.344  0.1485  0.0371  0.1633
 4808W        W 6958   9.458   2.008  33.161  0.0592  0.0257  0.2823
 4809W        W 6959  26.132   1.072  25.004  0.1010  0.2737 -0.1963
 4810W        W 6960   9.937   0.716   5.029  0.3728 -0.0308  0.0474
 4811W        W 6961  13.594   4.658  25.964  0.0164  0.1246 -0.3457
 4812W        W 6962   7.526   1.390  11.800 -0.1990  0.1980 -0.2502
 4813W        W 6963   0.265   6.366  12.267 -0.0384 -0.0374 -0.2739
 4814W        W 6964   1.362   5.300  33.701  0.0117  0.2113  0.3188
 4815W        W 6965  21.777   4.436  22.280  0.0691 -0.0956 -0.4361
 4816W        W 6966   3.667   1.340   8.976 -0.0122 -0.1309 -0.0696
 4817W        W 6967   9.890   2.556  34.497  0.0187 -0.0005  0.0510
 4818W        W 6968  18.207   4.067  22.257 -0.0651  0.0528  0.0045
 4819W        W 6969  14.167   0.892  28.190  0.1515 -0.0466 -0.4721
 4820W        W 6970  11.042   0.394  26.171  0.2626 -0.1164  0.0035
 4821W        W 6971   7.403   6.180   8.221  0.0955 -0.1986 -0.1274
 4822W        W 6972  22.968   5.807   6.154  0.1780  0.1851 -0.1341
 4823W        W 6973  11.289   6.037  20.877 -0.1474  0.1584 -0.2183
 4824W        W 6974  12.908   2.032  31.643  0.1245  0.0379 -0.1858
 4825W        W 6975   1.672   0.798   6.980 -0.4031 -0.0162  0.2013
 4826W        W 6976  15.270   3.212  12.670 -0.0192 -0.1467  0.1796
 4827W        W 6977  17.392   5.780   0.213  0.2077 -0.0153 -0.0272
 4828W        W 6978   5.811   3.115  30.735  0.1142 -0.3229 -0.1785
 4829W        W 6979  10.667   4.431  24.168  0.1659 -0.0448  0.0519
 4830W        W 6980   1.234   1.959  23.158 -0.0272  0.1319  0.1285
 4831W        W 6981   3.298   4.185  28.252 -0.1185 -0.0611 -0.1575
 4832W        W 6982   2.611   5.758   7.232 -0.0499  0.1568  0.0903
 4833W        W 6983  13.591   3.631   7.244  0.2939 -0.0251 -0.0353
 4834W        W 6984   7.851   6.238  20.697  0.0127  0.2053  0.0688
 4835W        W 6985   3.604   4.030  27.883  0.0606  0.0322 -0.0070
 4836W        W 6986  17.404   6.204  12.830  0.0221  0.0581  0.0356
 4837W        W 6987  18.015   4.625  34.133 -0.0031  0.0849  0.1056
 4838W        W 6988   4.683   0.072   9.851  0.1229 -0.1566 -0.0202
 4839W        W 6989  15.702   4.907  12.789 -0.0722  0.0460 -0.0591
 4840W        W 6990   0.635   6.556   6.717  0.1259  0.0213 -0.1802
 4841W        W 6991   6.053   5.949   6.365 -0.0194 -0.2312 -0.0864
 4842W        W 6992  18.073   1.508  27.816  0.0316 -0.0327  0.2268
 4843W        W 6993  16.676   5.128   3.170  0.0210  0.0119  0.0347
 4844W        W 6994  23.750   5.781  20.141  0.0417  0.0587  0.2355
 4845W        W 6995   7.799   6.344   1.989  0.0020  0.2740 -0.2037
 4846W        W 6996   7.484   1.562  23.149  0.3511  0.3087  0.0852
 4847W        W 6997   2.176   0.831  23.219  0.3501 -0.0079 -0.1096
 4848W        W 6998  16.276   0.178  23.413 -0.0145 -0.1046  0.0416
 4849W        W 6999  14.863   1.437  24.741 -0.2312 -0.0380 -0.0628
 4850W        W 7000  13.529   2.478   4.551  0.4518  0.1372  0.2675
 4851W        W 7001   7.135   0.238  28.415 -0.0659 -0.0146 -0.4792
 4852W        W 7002   6.212   5.913   5.870 -0.1026 -0.0977  0.3389
 4853W        W 7003  25.902   6.488   7.562  0.0937 -0.1557  0.1194
 4854W        W 7004   8.609   2.760  14.629 -0.1240 -0.0191  0.0393
 4855W        W 7005   5.420   6.318   5.132  0.4012 -0.1686 -0.0561
 4856W        W 7006  20.329   3.116  24.438 -0.5487 -0.0730 -0.0079
 4857W        W 7007  16.571   4.984  11.450  0.0937  0.1535  0.2245
 4858W        W 7008  22.440   5.484  28.903  0.2264 -0.0622  0.2652
 4859W        W 7009   7.509   3.650  32.550 -0.1109 -0.0152 -0.0332
 4860W        W 7010  15.662   6.428  36.149 -0.1992 -0.2201 -0.0125
 4861W        W 7011   5.309   0.245  28.359 -0.0203 -0.0718 -0.1388
 4862W        W 7012   0.058   3.281   4.968  0.0303  0.1111  0.0354
 4863W        W 7013   2.733   4.370  31.647 -0.0424 -0.0054 -0.1526
 4864W        W 7014  14.653   6.532  12.688 -0.0350 -0.2324 -0.3452
 4865W        W 7015   5.340   2.624   2.858  0.2015 -0.0683  0.0470
 4866W        W 7016   5.878   2.310  23.131  0.0196  0.2244  0.0813
 4867W        W 7017  25.434   4.983   0.882  0.0187 -0.1096  0.1220
 4868W        W 7018   6.524   5.826  29.815  0.2657 -0.1392 -0.0494
 4869W        W 7019   3.360   5.069  27.966  0.1327  0.0189  0.2957
 4870W        W 7020  17.330   0.579  23.077 -0.4743  0.1095 -0.0307
 4871W        W 7021   0.405   2.391   6.165  0.1274  0.1370  0.4269
 4872W        W 7022  14.347   0.209  27.271  0.0769  0.1138  0.1844
 4873W        W 7023  18.978   6.457  33.818  0.1734 -0.3516  0.1003
 4874W        W 7024  15.508   4.710   3.400  0.1450  0.0290 -0.1848
 4875W        W 7025  10.619   5.397  27.531 -0.0193  0.2283 -0.3701
 4876W        W 7026  19.801   1.069   8.883  0.0237  0.0683  0.3698
 4877W        W 7027  17.855   4.045  11.711 -0.1353  0.0083  0.2968
 4878W        W 7028  22.992   3.050  25.955 -0.0283 -0.0694 -0.2489
 4879W        W 7029  18.743   3.479  30.463 -0.0281  0.0172  0.2445
 4880W        W 7030   8.784   1.635  31.003 -0.0526 -0.1100 -0.2424
 4881W        W 7031   8.079   4.686  33.990 -0.1249  0.0081  0.1322
 4882W        W 7032   7.447   0.378  32.865 -0.4001 -0.4094 -0.1865
 4883W        W 7033  20.692   2.418  23.931 -0.1744  0.0462 -0.0416
 4884W        W 7034  10.124   3.772   9.233 -0.0192  0.1653 -0.0935
 4885W        W 7035  17.983   6.092   6.811  0.1514 -0.2228  0.1540
 4886W        W 7036   7.634   6.427   6.176  0.0677  0.2553  0.1646
 4887W        W 7037  11.471   1.745   7.417  0.1578 -0.2401 -0.0860
 4888W        W 7038  22.784   2.462   4.806 -0.2381  0.3607  0.1894
 4889W        W 7039   8.619   2.040  26.945 -0.0921 -0.2537 -0.0234
 4890W        W 7040  14.301   2.921  15.308 -0.3303  0.2525 -0.0830
 4891W        W 7041  26.313   0.637  14.457  0.1490 -0.3516 -0.0280
 4892W        W 7042  14.113   3.342  26.721 -0.2232  0.0168  0.0514
 4893W        W 7043  13.548   0.917  31.304 -0.5776  0.2279 -0.1077
 4894W        W 7044  18.795   2.925   3.318 -0.0040 -0.1753 -0.0678
 4895W        W 7045  13.828   5.022  11.364 -0.0928  0.1129 -0.1489
 4896W        W 7046  17.084   1.917   7.703 -0.2516 -0.1914 -0.1712
 4897W        W 7047  14.969   5.114   0.307 -0.3607 -0.0551 -0.0117
 4898W        W 7048  22.268   2.623  22.977  0.0044 -0.2747 -0.0857
 4899W        W 7049   2.365   1.805  21.428 -0.1524 -0.0162  0.0710
 4900W        W 7050   3.900   4.341   6.734  0.1567 -0.0730 -0.2537
 4901W        W 7051   7.942   6.429  34.256 -0.2696 -0.0504 -0.1159
 4902W        W 7052  13.923   3.081   2.692  0.1546 -0.0201  0.0073
 4903W        W 7053  24.088   0.613   3.394  0.2673  0.1645  0.0237
 4904W        W 7054  16.594   4.780  28.589  0.2275  0.0149  0.1694
 4905W        W 7055  15.020   4.870  35.393  0.1130  0.0281 -0.4294
 4906W        W 7056  17.206   4.507  34.939  0.2266 -0.1385  0.0711
 4907W        W 7057  11.017   5.855  29.262 -0.0859 -0.3501 -0.1341
 4908W        W 7058   3.592   6.247  13.372 -0.0502  0.1192  0.3774
 4909W        W 7059  23.653   1.793  32.707 -0.2016  0.2066  0.1322
 4910W        W 7060  23.360   1.856   5.260 -0.0336 -0.0274  0.0580
 4911W        W 7061   6.015   1.057  27.202 -0.1725  0.1359  0.0683
 4912W        W 7062   9.367   6.361  13.748  0.0974  0.0667  0.1756
 4913W        W 7063  24.654   5.842   6.169 -0.0262  0.2183 -0.0678
 4914W        W 7064  21.040   3.678   4.033  0.0143 -0.2557 -0.2855
 4915W        W 7065   5.171   0.657  14.638 -0.0202  0.1834  0.2367
 4916W        W 7066   0.934   2.329  11.586 -0.2318 -0.3296  0.1442
 4917W        W 7067   6.721   3.708  29.866 -0.4588  0.0007 -0.1540
 4918W        W 7068  18.532   0.299  25.188  0.0379  0.1664 -0.0253
 4919W        W 7069  18.838   5.201  34.216 -0.3690  0.2220 -0.0714
 4920W        W 7070   5.232   2.354   0.698  0.1913 -0.0864  0.2588
 4921W        W 7071   9.509   1.218  25.569  0.2375 -0.1040  0.0684
 4922W        W 7072  16.168   1.728  27.822 -0.0993  0.0772 -0.4611
 4923W        W 7073  14.090   3.562  27.968  0.1731  0.1543  0.1646
 4924W        W 7074  12.959   2.801   9.695 -0.1844 -0.1429  0.0662
 4925W        W 7075  14.861   1.475   4.968  0.1526  0.0699  0.0769
 4926W        W 7076  17.757   1.587  32.701  0.0986  0.3093 -0.0861
 4927W        W 7077   9.605   6.310  34.032  0.2328  0.0990  0.2031
 4928W        W 7078  22.577   4.180  31.620  0.2635  0.0442 -0.1321
 4929W        W 7079   7.405   2.360  25.971 -0.0049  0.0173  0.0628
 4930W        W 7080   7.812   4.926  14.106 -0.1344  0.2058  0.0255
 4931W        W 7081  19.679   3.760  11.431  0.0643  0.1101  0.3423
 4932W        W 7082  25.109   5.733  28.579  0.1128 -0.2392  0.0281
 4933W        W 7083  13.972   5.944   7.656  0.0465 -0.1428  0.1319
 4934W        W 7084  23.945   5.900  28.284 -0.2290 -0.2542 -0.0213
 4935W        W 7085   9.267   0.026   4.419  0.1106 -0.1646 -0.1296
 4936W        W 7086  17.749   0.880   4.004  0.1666 -0.2330  0.1023
 4937W        W 7087  22.199   3.670  26.811  0.0940  0.0986 -0.0718
 4938W        W 7088  15.646   5.150   0.707 -0.0923  0.0939  0.0634
 4939W        W 7089   8.908   0.442  28.756 -0.0108 -0.0385 -0.0698
 4940W        W 7090   7.734   3.941   6.371  0.1533 -0.1015 -0.1346
 4941W        W 7091  17.130   0.841   3.075  0.4960 -0.1642  0.0900
 4942W        W 7092  13.098   6.251  29.270 -0.1321  0.0917 -0.1652
 4943W        W 7093   2.054   4.664  35.265  0.0999 -0.1761 -0.2853
 4944W        W 7094   9.905   5.057  31.474  0.0715  0.4651 -0.1653
 4945W        W 7095  13.174   4.451   5.825 -0.0846  0.3884  0.1428
 4946W        W 7096  16.312   2.601  20.707 -0.2125 -0.1223  0.0402
 4947W        W 7097  19.888   4.117   0.476 -0.1376 -0.1788 -0.2396
 4948W        W 7098  18.472   1.474   9.484 -0.1639 -0.1998  0.2054
 4949W        W 7099  21.869   2.606  22.229 -0.1330 -0.0441 -0.2111
 4950W        W 7100   2.311   5.529   5.084 -0.1199 -0.4321  0.0704
 4951W        W 7101  26.059   0.933  34.980 -0.0167  0.1738 -0.0703
 4952W        W 7102  10.262   1.167   3.944 -0.1572  0.0382 -0.1054
 4953W        W 7103  11.944   0.394  26.655 -0.0186  0.1702  0.1426
 4954W        W 7104  24.976   3.941  27.722 -0.2004 -0.0189  0.0802
 4955W        W 7105   0.548   4.833   2.757 -0.0253 -0.0623  0.0630
 4956W        W 7106  16.330   0.893  31.149 -0.1285 -0.1925 -0.1700
 4957W        W 7107   8.601   1.625   8.883 -0.1214 -0.2324  0.3856
 4958W        W 7108  11.594   2.038  27.400  0.2551 -0.2196 -0.1354
 4959W        W 7109  17.562   5.507  29.389  0.0325 -0.0125 -0.1036
 4960W        W 7110   1.260   2.449  12.995 -0.0611  0.2152 -0.1949
 4961W        W 7111   8.273   1.985   0.655  0.0308  0.1567 -0.0419
 4962W        W 7112  25.580   3.911   2.115  0.0880 -0.1791  0.1922
 4963W        W 7113  25.052   6.268  26.818  0.0571 -0.0072  0.0701
 4964W        W 7114  15.586   5.125  25.990 -0.0500  0.1735 -0.2828
 4965W        W 7115   5.238   5.991   3.249 -0.1937  0.0205 -0.3051
 4966W        W 7116   0.638   4.277  29.668  0.1840 -0.0403 -0.3050
 4967W        W 7117   4.687   5.016  24.559  0.2049  0.1649  0.0237
 4968W        W 7118   0.247   4.437  34.543  0.3228 -0.2187 -0.0721
 4969W        W 7119  10.866   4.248  23.155 -0.2555 -0.0216  0.1579
 4970W        W 7120  11.683   0.233  25.270 -0.0543 -0.2047 -0.0303
 4971W        W 7121  17.435   3.817  11.973  0.2976 -0.3346 -0.0002
 4972W        W 7122  11.442   3.337   2.234  0.4289 -0.2092 -0.0286
 4973W        W 7123   4.276   2.138   1.128 -0.1901 -0.0276  0.0879
 4974W        W 7124   5.501   5.473   0.454 -0.1196 -0.1498  0.1631
 4975W        W 7125   4.296   3.064  29.601 -0.2086  0.1235 -0.1898
 4976W        W 7126  19.328   0.264  24.603 -0.1456  0.0185  0.1209
 4977W        W 7127   9.283   4.683  30.768  0.1223 -0.0063  0.0673
 4978W        W 7128   7.383   0.551  28.756  0.1205 -0.2546  0.2190
 4979W        W 7129   4.003   3.581  15.641  0.2138 -0.0394 -0.3710
 4980W        W 7130  23.641   3.588  35.339  0.0408 -0.1084 -0.0336
 4981W        W 7131  16.922   2.906  21.297 -0.0313 -0.1462  0.0763
 4982W        W 7132  10.732   3.660   5.190  0.3164  0.2158  0.0823
 4983W        W 7133   2.849   1.676  31.653 -0.1689 -0.2175 -0.0307
 4984W        W 7134  10.608   5.747   8.003 -0.1840 -0.0995 -0.2909
 4985W        W 7135  13.799   3.187  32.533  0.0372 -0.2084 -0.0758
 4986W        W 7136   8.031   6.197   9.655  0.1689  0.0596 -0.0699
 4987W        W 7137   5.267   2.024  33.571  0.3043 -0.2074  0.0502
 4988W        W 7138   4.003   4.546  22.917  0.2324 -0.1073 -0.1489
 4989W        W 7139  16.592   0.814  33.577 -0.0733  0.2572 -0.1908
 4990W        W 7140  20.992   5.074  24.120 -0.5121  0.1332 -0.1144
 4991W        W 7141   0.184   6.091   1.804 -0.2087 -0.4168 -0.4901
 4992W        W 7142  19.291   6.374  29.285  0.1121  0.0896  0.3668
 4993W        W 7143   6.668   2.509   8.556  0.1629  0.1617 -0.0851
 4994W        W 7144  11.336   0.827  28.092 -0.1391  0.0606 -0.1898
 4995W        W 7145  25.009   5.349   4.961  0.0237  0.1359  0.0283
 4996W        W 7146  25.611   4.311  25.051  0.0150 -0.0920  0.0044
 4997W        W 7147  18.597   4.689  32.765 -0.0057  0.2310 -0.0174
 4998W        W 7148  21.293   5.496  32.025 -0.0924  0.1368  0.0419
 4999W        W 7149  25.057   3.182   3.831  0.1813 -0.1691 -0.2668
 5000W        W 7150  16.508   3.360  21.384  0.4605  0.0147 -0.0773
 5001W        W 7151  20.558   0.548  27.413 -0.0650  0.1667  0.0461
 5002W        W 7152   8.767   0.353   3.202  0.0095  0.2705  0.0681
 5003W        W 7153  24.170   3.705  26.620 -0.0094 -0.1098  0.0394
 5004W        W 7154   5.624   5.150   3.417  0.3143  0.1497 -0.2397
 5005W        W 7155  19.145   1.424  34.724 -0.1546  0.1524  0.4405
 5006W        W 7156  13.445   4.533  32.551  0.0751 -0.1957  0.0087
 5007W        W 7157  22.648   0.360  29.696 -0.0542  0.1343  0.0102
 5008W        W 7158  18.166   4.326   3.227  0.2847  0.1021  0.1684
 5009W        W 7159  13.238   4.862  27.392  0.0370 -0.1299 -0.0375
 5010W        W 7160  16.399   4.011  12.963 -0.1115 -0.2144  0.2485
 5011W        W 7161   0.847   4.063   9.538 -0.2742 -0.1708  0.2273
 5012W        W 7162  11.783   2.310  30.813 -0.0118  0.0047 -0.0639
 5013W        W 7163  16.274   2.788  26.656  0.0082  0.0860 -0.1802
 5014W        W 7164   3.766   0.084  28.158 -0.1834 -0.0096  0.0132
 5015W        W 7165   7.166   5.500  36.076  0.1979  0.1096  0.2188
 5016W        W 7166  13.717   2.753  12.060 -0.1261  0.0705 -0.1563
 5017W        W 7167  19.194   4.771  33.896  0.2084  0.1904  0.2517
 5018W        W 7168   0.349   5.367   6.384  0.1116  0.0976 -0.0946
 5019W        W 7169  14.527   1.202  21.438 -0.1257  0.1028  0.2255
 5020W        W 7170   1.070   0.203  21.818  0.0786 -0.1127 -0.1619
 5021W        W 7171  18.722   1.455  14.817 -0.0676  0.2642  0.0893
 5022W        W 7172  10.097   1.564   4.409 -0.2187  0.1753  0.1438
 5023W        W 7173   3.053   4.710   9.427 -0.2539  0.1438 -0.1266
 5024W        W 7174  18.424   6.317  21.674 -0.0665  0.1180 -0.0011
 5025W        W 7175  23.125   1.306   0.397  0.0041 -0.3568  0.3781
 5026W        W 7176   5.944   0.770   7.497 -0.0414 -0.1426 -0.3192
 5027W        W 7177   1.428   5.247  11.711  0.0460  0.2520  0.2444
 5028W        W 7178  12.487   3.626   0.699  0.0247  0.0262 -0.0276
 5029W        W 7179   9.553   1.722  25.272  0.0843 -0.1288 -0.0125
 5030W        W 7180  12.625   3.423  28.864 -0.2621  0.0772 -0.1577
 5031W        W 7181   3.104   2.908  15.122  0.2580  0.1026  0.2142
 5032W        W 7182  16.254   3.127  22.445 -0.2859 -0.1538 -0.1714
 5033W        W 7183  13.128   6.209   6.499 -0.2525  0.0718 -0.0713
 5034W        W 7184   4.571   1.181  14.684  0.3803  0.1669  0.3101
 5035W        W 7185  21.615   2.502  29.772  0.2340 -0.0517  0.0214
 5036W        W 7186  20.933   5.208  23.663  0.2054 -0.0079  0.0931
 5037W        W 7187   7.426   5.015  26.509 -0.2884 -0.0782 -0.0601
 5038W        W 7188  19.479   2.077  31.863 -0.0229  0.1158  0.0597
 5039W        W 7189  14.065   6.161   5.772  0.0582 -0.2256 -0.1348
 5040W        W 7190  24.091   4.301  26.563 -0.0356  0.0649 -0.0890
 5041W        W 7191   3.218   4.709  32.539 -0.1390 -0.0154  0.0968
 5042W        W 7192  12.509   2.505  12.974  0.2120  0.1321  0.0958
 5043W        W 7193  13.981   0.335   1.717 -0.0699 -0.0353  0.2011
 5044W        W 7194   2.228   5.564  31.937  0.1808  0.0845  0.1205
 5045W        W 7195  17.146   3.231   2.121  0.2192  0.2367 -0.0330
 5046W        W 7196  21.202   5.102  31.257  0.1380 -0.0482  0.1015
 5047W        W 7197   7.814   3.690   6.915 -0.0261 -0.3492  0.0379
 5048W        W 7198   6.042   4.663   2.252  0.0531 -0.0156  0.0769
 5049W        W 7199  20.410   4.332  23.530 -0.0750 -0.1977 -0.3292
 5050W        W 7200  11.633   4.807  29.341 -0.2148  0.0867  0.1293
 5051W        W 7201  15.649   6.562   8.355 -0.2550  0.2409  0.0935
 5052W        W 7202  18.584   3.649  10.558  0.1826 -0.3430 -0.2669
 5053W        W 7203   2.819   1.465   2.659  0.1050  0.0646 -0.1351
 5054W        W 7204  17.871   1.218  25.849  0.0467  0.3683 -0.2091
 5055W        W 7205   1.863   5.504   9.259 -0.0259 -0.2283 -0.2517
 5056W        W 7206  13.201   3.356  27.394 -0.1832  0.1453  0.0128
 5057W        W 7207  25.039   6.281  14.698  0.2961  0.0437  0.0068
 5058W        W 7208  13.912   5.068   1.320  0.1348 -0.2854 -0.0454
 5059W        W 7209   6.556   6.031  13.001 -0.3769 -0.0496 -0.2606
 5060W        W 7210  15.306   0.068  21.345 -0.2189 -0.2081  0.1236
 5061W        W 7211  17.337   6.602  26.790  0.0522 -0.2714 -0.0756
 5062W        W 7212   1.743   2.106  21.151 -0.0120  0.0586 -0.0050
 5063W        W 7213   8.360   6.186  35.681 -0.0481 -0.1178 -0.1705
 5064W        W 7214  20.854   4.747  15.150 -0.1811 -0.1071 -0.0763
 5065W        W 7215  12.955   5.374  34.276  0.0875  0.2442 -0.0500
 5066W        W 7216   4.769   3.119  16.112  0.1029 -0.0425  0.1802
 5067W        W 7217  20.169   0.270   7.275 -0.3219 -0.1141  0.1517
 5068W        W 7218  24.209   1.084   4.212  0.0290 -0.1975 -0.2883
 5069W        W 7219  17.962   3.470   6.038  0.2386 -0.2595  0.0440
 5070W        W 7220  16.207   3.126  14.710  0.0007  0.0309  0.0545
 5071W        W 7221  20.723   1.472  10.710  0.0990 -0.0687  0.2696
 5072W        W 7222  11.970   2.541  29.651 -0.1419  0.0472  0.0157
 5073W        W 7223  24.120   2.997  35.685 -0.0543 -0.2686 -0.0694
 5074W        W 7224  24.673   1.943  12.286 -0.1367  0.0197 -0.3393
 5075W        W 7225  15.947   6.411  14.196  0.1427  0.0778 -0.0107
 5076W        W 7226   2.619   0.850  34.600  0.3477  0.2060 -0.1891
 5077W        W 7227   7.170   4.133  28.592 -0.1994 -0.1626  0.0496
 5078W        W 7228   9.162   4.461   4.110  0.2653 -0.1565  0.1353
 5079W        W 7229  21.180   0.593   6.528 -0.0080 -0.3387  0.0980
 5080W        W 7230   9.469   1.861  13.954  0.2261 -0.2688  0.3258
 5081W        W 7231  24.775   5.483  28.857  0.3047 -0.3381  0.1097
 5082W        W 7232   1.789   4.549   8.226  0.1777  0.0177 -0.0881
 5083W        W 7233   7.171   5.144   6.750  0.0098  0.0004  0.0197
 5084W        W 7234   8.863   4.648   8.779 -0.2017  0.0831 -0.0805
 5085W        W 7235  10.216   3.719  27.825 -0.3745 -0.0375  0.0583
 5086W        W 7236  13.103   3.798  32.076 -0.1244 -0.3201 -0.1162
 5087W        W 7237  24.775   1.556   4.884  0.1348 -0.1171 -0.1234
 5088W        W 7238  21.769   6.369   6.500 -0.1514  0.1940  0.0341
 5089W        W 7239   3.950   4.773   5.556  0.2754 -0.3381  0.1915
 5090W        W 7240   7.535   2.685  24.303 -0.0365 -0.0711  0.1569
 5091W        W 7241   8.699   4.256   3.192 -0.0726  0.5538  0.0769
 5092W        W 7242  14.152   1.502  34.532 -0.0714 -0.1974 -0.1015
 5093W        W 7243   7.764   1.069   4.555  0.0764 -0.2085  0.2799
 5094W        W 7244  18.129   5.829   5.047 -0.0508 -0.3773 -0.1910
 5095W        W 7245   6.913   4.516  21.331  0.0537  0.1072  0.0186
 5096W        W 7246  18.540   3.653  36.118 -0.1092 -0.1111 -0.0414
 5097W        W 7247  20.271   6.336  29.285 -0.1162 -0.3825 -0.1337
 5098W        W 7248   0.658   3.225   2.157 -0.1511  0.1597 -0.3711
 5099W        W 7249   8.250   5.390   4.346  0.0765 -0.1423 -0.1596
 5100W        W 7250   4.726   1.147  27.812 -0.2688 -0.2313  0.1762
 5101W        W 7251  20.905   5.475  35.170  0.0057  0.1260  0.0967
 5102W        W 7252  21.539   4.190  15.504 -0.0427  0.0160  0.1558
 5103W        W 7253  16.788   0.664   4.203  0.3164  0.1236 -0.1866
 5104W        W 7254  18.703   1.730   3.372  0.2641 -0.0028  0.3565
 5105W        W 7255  24.448   3.882   5.937 -0.0421 -0.1392 -0.3061
 5106W        W 7256  21.209   1.520   5.000 -0.0097  0.0968 -0.2043
 5107W        W 7257   3.561   3.068   6.414  0.3061  0.0467 -0.0814
 5108W        W 7258  11.499   1.121  23.429  0.1491  0.0367 -0.0517
 5109W        W 7259  19.637   4.814  10.364  0.1409  0.2702  0.3233
 5110W        W 7260  23.604   0.952  14.050  0.1670  0.4087 -0.1598
 5111W        W 7261  15.010   2.895  25.545 -0.1687 -0.0281  0.3146
 5112W        W 7262  17.570   6.534  35.469 -0.2677 -0.2302 -0.0614
 5113W        W 7263  16.904   5.565   7.439  0.0784  0.2028  0.2147
 5114W        W 7264   5.821   4.531   8.140 -0.0876  0.1837  0.3447
 5115W        W 7265  22.588   3.442  33.223 -0.1127 -0.2839  0.3667
 5116W        W 7266  18.832   1.862  21.690 -0.1496 -0.1123 -0.0091
 5117W        W 7267  18.704   6.399   6.463  0.0878 -0.1193  0.2720
 5118W        W 7268  15.919   2.566  15.353  0.1957  0.2413 -0.1164
 5119W        W 7269  22.398   5.553   1.591 -0.2121 -0.2646 -0.1658
 5120W        W 7270   7.601   3.746   5.905 -0.1293  0.0942  0.2460
 5121W        W 7271  10.862   6.239  20.620  0.1653  0.0068 -0.2662
 5122W        W 7272  24.915   0.918  34.031  0.3332  0.0248  0.0993
 5123W        W 7273  14.379   1.401   6.001 -0.3430 -0.0960 -0.0310
 5124W        W 7274  23.551   1.973  34.171  0.3460 -0.0391  0.0449
 5125W        W 7275  24.064   5.196  10.583  0.0984  0.1264  0.0679
 5126W        W 7276   5.656   5.800  12.227  0.0002  0.2571  0.1585
 5127W        W 7277   9.972   3.277  13.609 -0.1884  0.0878 -0.3469
 5128W        W 7278  25.305   2.471   2.577 -0.2701 -0.1684 -0.2924
 5129W        W 7279  22.359   1.303  23.132  0.0186 -0.2016 -0.0418
 5130W        W 7280  14.753   4.401  26.825  0.2073 -0.2131  0.0892
 5131W        W 7281   0.380   1.566  23.006 -0.3432 -0.1336  0.0149
 5132W        W 7282   9.531   2.553  23.777 -0.1941  0.0547  0.1412
 5133W        W 7283   8.061   3.327  33.288  0.1995 -0.0964 -0.0744
 5134W        W 7284  22.785   0.388   1.616  0.0471  0.0408  0.0712
 5135W        W 7285   5.042   6.553   3.961 -0.0710 -0.0017 -0.3855
 5136W        W 7286   4.954   6.319  14.674  0.0050  0.1338 -0.2813
 5137W        W 7287   8.433   3.826  14.536  0.1239 -0.1572 -0.2658
 5138W        W 7288  19.661   2.908  29.779 -0.1127  0.1071  0.2073
 5139W        W 7289   0.879   1.646  21.935  0.0644 -0.4493 -0.1373
 5140W        W 7290  17.926   0.866   6.427 -0.0585  0.1986  0.2040
 5141W        W 7291   7.160   2.616  15.200  0.1837  0.2648 -0.0815
 5142W        W 7292  22.377   3.242  35.785 -0.0002  0.1346  0.2880
 5143W        W 7293   2.781   4.151  28.253  0.1296  0.1408 -0.2723
 5144W        W 7294  10.561   5.874   9.090  0.0075  0.2257 -0.2152
 5145W        W 7295  23.433   2.088  33.662 -0.0002 -0.1323  0.1603
 5146W        W 7296  15.509   2.885  35.543  0.0070 -0.1898 -0.0591
 5147W        W 7297  19.909   5.667  34.982  0.0061 -0.3376  0.0568
 5148W        W 7298  23.773   3.075  27.007  0.0188  0.1324 -0.0798
 5149W        W 7299   6.499   6.366   3.848 -0.3402  0.0138 -0.0948
 5150W        W 7300  20.640   5.209   5.487  0.3075  0.1473 -0.1790
 5151W        W 7301  21.367   1.777  13.278 -0.0667 -0.0714 -0.1352
 5152W        W 7302  13.486   5.396   9.717  0.1189  0.1279  0.0073
 5153W        W 7303  21.710   6.085  30.276 -0.1351  0.0553 -0.1120
 5154W        W 7304  14.418   3.583  28.817  0.0204 -0.0344 -0.2228
 5155W        W 7305  22.792   6.492  26.143  0.2203  0.0832  0.1959
 5156W        W 7306  25.818   4.192  34.129  0.0885  0.1617 -0.4567
 5157W        W 7307  13.946   6.031  10.257 -0.0054  0.0536 -0.0112
 5158W        W 7308  10.353   4.954   2.840  0.0030  0.0514 -0.1056
 5159W        W 7309  11.413   2.386  20.801 -0.0472  0.1823  0.1772
 5160W        W 7310  20.550   5.293  14.468  0.0468 -0.0573  0.1832
 5161W        W 7311   8.107   6.102  12.078 -0.1050 -0.1351 -0.0973
 5162W        W 7312  18.436   2.707   2.418 -0.3176 -0.0712 -0.1139
 5163W        W 7313  17.770   2.643   4.466 -0.1766 -0.2675  0.0474
 5164W        W 7314  25.419   3.353  29.004  0.0634 -0.0559  0.0756
 5165W        W 7315  14.106   5.252  31.616  0.1462 -0.1602  0.1301
 5166W        W 7316   4.931   6.239  36.138  0.3463 -0.0684  0.1898
 5167W        W 7317  11.149   4.097   5.734  0.2131 -0.2347  0.1363
 5168W        W 7318  18.781   2.642   8.155  0.0585  0.2706  0.1206
 5169W        W 7319   7.759   2.722  32.245 -0.0441 -0.1763  0.4839
 5170W        W 7320   1.752   2.174   2.991  0.0985 -0.2164 -0.1394
 5171W        W 7321  14.034   3.314   7.515  0.1466 -0.0029 -0.0670
 5172W        W 7322   7.109   1.366  30.451  0.1407  0.0269  0.2772
 5173W        W 7323  18.238   3.876   3.588  0.1396 -0.2943 -0.1631
 5174W        W 7324  14.262   1.008   0.403 -0.2434 -0.1302 -0.1864
 5175W        W 7325  14.939   0.541  24.736  0.0700  0.0966  0.2057
 5176W        W 7326  12.764   0.490   3.607  0.0267 -0.3100  0.1664
 5177W        W 7327   2.647   0.458  34.314  0.1838  0.1562  0.0073
 5178W        W 7328  10.511   3.473  26.873 -0.0997  0.1183  0.1063
 5179W        W 7329   6.036   0.562  24.261  0.1749  0.0008  0.2124
 5180W        W 7330  13.529   3.393  22.473  0.0782  0.1330 -0.1045
 5181W        W 7331  18.768   0.495  30.153 -0.0078 -0.0409  0.0888
 5182W        W 7332  12.172   3.593   9.500  0.0905  0.2995 -0.2907
 5183W        W 7333  15.065   3.868   7.395 -0.0805  0.0576  0.0564
 5184W        W 7334   1.301   2.034   6.977 -0.0859 -0.0694 -0.3915
 5185W        W 7335  22.476   2.782  11.656 -0.0286  0.4667  0.2054
 5186W        W 7336  13.342   5.098  35.038  0.1100  0.1189  0.3440
 5187W        W 7337   2.610   4.266   3.708  0.0446 -0.1214  0.2769
 5188W        W 7338  15.154   1.224  26.216  0.3585  0.0235  0.1276
 5189W        W 7339  21.673   1.725   8.097  0.3332 -0.1347  0.0561
 5190W        W 7340   4.814   0.783   8.036  0.0727  0.0238 -0.2240
 5191W        W 7341   0.779   4.375  20.877 -0.1521  0.0371  0.1266
 5192W        W 7342   5.570   5.155   8.037 -0.0700  0.0889 -0.0735
 5193W        W 7343  15.186   1.427   5.741 -0.2742  0.0582 -0.3381
 5194W        W 7344  19.735   1.093  12.796 -0.1997  0.0406  0.0746
 5195W        W 7345  13.078   0.599  10.729  0.1143 -0.1215 -0.3066
 5196W        W 7346  18.861   3.757  35.700  0.0773  0.1266  0.0073
 5197W        W 7347   7.749   5.139   0.992  0.3092  0.2652 -0.0796
 5198W        W 7348  19.669   1.353   8.037  0.0432 -0.1113  0.2137
 5199W        W 7349  24.589   0.447  11.227  0.0052  0.3585  0.0680
 5200W        W 7350   3.340   6.599  27.878 -0.2210  0.3657  0.0484
 5201W        W 7351  10.940   5.755  11.427 -0.2917  0.1112 -0.4963
 5202W        W 7352   8.388   0.353  11.064 -0.0589  0.0610 -0.2983
 5203W        W 7353   9.127   2.363  22.014 -0.0041  0.2782 -0.0470
 5204W        W 7354   3.902   0.348  10.211  0.1149  0.2007  0.1884
 5205W        W 7355  10.483   2.445  25.970 -0.1399 -0.0426 -0.1482
 5206W        W 7356   8.608   5.866   3.720  0.2943 -0.0874 -0.1730
 5207W        W 7357   5.592   3.040  28.833 -0.0336  0.1639 -0.2083
 5208W        W 7358  18.923   4.512  31.187 -0.0018 -0.1143  0.2222
 5209W        W 7359   4.905   4.203   2.371 -0.1169  0.3724 -0.0003
 5210W        W 7360   2.612   2.085   9.759  0.1412  0.0429  0.0103
 5211W        W 7361  25.960   2.902  33.239  0.1316  0.0702 -0.1305
 5212W        W 7362  13.337   5.896  29.068 -0.1278  0.3987 -0.0801
 5213W        W 7363  11.657   4.232  26.222  0.0626  0.4618  0.1251
 5214W        W 7364  17.104   1.971   8.766  0.1193 -0.0582  0.1008
 5215W        W 7365  18.443   3.913   3.044 -0.0792 -0.1090  0.1774
 5216W        W 7366   0.088   1.891  21.213 -0.2010  0.1659 -0.1104
 5217W        W 7367  16.387   3.155  35.820  0.1910 -0.0108  0.2431
 5218W        W 7368  16.372   3.601  29.037 -0.2283  0.1017 -0.2083
 5219W        W 7369  20.865   1.084  25.154  0.0199 -0.3168  0.0020
 5220W        W 7370   2.236   0.509  21.886  0.1055  0.2255  0.0962
 5221W        W 7371   9.978   4.088  32.212 -0.4521  0.2603  0.0937
 5222W        W 7372  13.310   5.820  32.042  0.0965  0.0710 -0.2654
 5223W        W 7373  18.031   3.364  12.063  0.0528 -0.1280  0.0193
 5224W        W 7374  12.334   3.530  34.990 -0.1031  0.0878 -0.2884
 5225W        W 7375   4.620   5.229  23.238  0.0215  0.3022 -0.0933
 5226W        W 7376  16.917   1.222  11.635 -0.0771 -0.2238 -0.0961
 5227W        W 7377   3.236   5.201  24.564  0.2657  0.2518 -0.2016
 5228W        W 7378  13.322   4.362  14.721  0.2201  0.0921  0.0398
 5229W        W 7379  11.743   2.714  34.759  0.4242  0.0038  0.2712
 5230W        W 7380   4.029   5.524   1.349  0.0792  0.0144  0.1014
 5231W        W 7381  26.092   5.483  14.070  0.3272  0.1137 -0.2082
 5232W        W 7382  20.593   1.745  21.258  0.0021 -0.1075 -0.0305
 5233W        W 7383   2.721   0.797  20.998 -0.4194 -0.1147 -0.3370
 5234W        W 7384  15.229   2.401   0.252  0.0703 -0.4856 -0.3154
 5235W        W 7385   8.438   3.651   5.038 -0.0293  0.3478  0.0981
 5236W        W 7386  24.780   0.963   8.613 -0.0013  0.2296 -0.2370
 5237W        W 7387   7.944   6.140   6.400  0.0216 -0.0394 -0.0128
 5238W        W 7388  14.406   1.282  13.343 -0.0320 -0.0514  0.0395
 5239W        W 7389   3.334   3.000  23.145 -0.0593  0.0606 -0.3297
 5240W        W 7390   6.530   0.064   6.559  0.0164 -0.0004 -0.1318
 5241W        W 7391  15.277   1.283  15.180 -0.5444 -0.0887 -0.3145
 5242W        W 7392   7.596   5.918   2.914  0.1051 -0.3928  0.0492
 5243W        W 7393   0.671   0.612  28.411  0.1307 -0.1438 -0.0536
 5244W        W 7394  21.754   6.577  20.253  0.1464  0.0412 -0.1342
 5245W        W 7395  20.258   5.718   4.285 -0.0224 -0.0043  0.2266
 5246W        W 7396   3.603   4.802  20.722 -0.4257 -0.0183  0.0040
 5247W        W 7397  25.341   4.255  11.979 -0.0533  0.2459  0.3669
 5248W        W 7398   8.588   4.655   0.828 -0.0940  0.2000 -0.1504
 5249W        W 7399   8.922   4.225  33.213  0.0790 -0.1985 -0.0753
 5250W        W 7400  18.614   0.497  30.720  0.3511 -0.1006  0.3248
 5251W        W 7401  22.312   0.244  23.780 -0.0640  0.0723  0.0656
 5252W        W 7402   8.037   0.094  28.330 -0.2258 -0.0212  0.1599
 5253W        W 7403  17.383   2.395  25.738 -0.2897 -0.0084 -0.0545
 5254W        W 7404   4.618   6.567   1.698 -0.0187  0.2108 -0.0563
 5255W        W 7405  12.102   2.359  27.967  0.1667  0.0301 -0.0677
 5256W        W 7406  18.840   4.164  11.443 -0.3603  0.0993  0.3721
 5257W        W 7407  15.030   4.755   4.994 -0.1231 -0.1913 -0.3299
 5258W        W 7408   9.524   0.110   8.896  0.0082  0.0293  0.0642
 5259W        W 7409   2.178   2.128   7.553  0.1194 -0.1127 -0.2259
 5260W        W 7410  12.458   3.296  11.045  0.0629  0.0286 -0.1537
 5261W        W 7411   3.518   0.953   3.736  0.0555 -0.0811  0.0375
 5262W        W 7412   5.075   1.880  23.261  0.1732 -0.3416 -0.0845
 5263W        W 7413  12.361   4.409   1.990  0.2246 -0.2558 -0.2231
 5264W        W 7414   6.435   3.058  28.738 -0.1042  0.2194  0.0254
 5265W        W 7415   9.991   4.620  21.562  0.4457 -0.0026  0.0974
 5266W        W 7416  25.225   1.012   1.235 -0.0148 -0.0464 -0.0176
 5267W        W 7417   5.988   2.210  29.223  0.2141  0.0039  0.1804
 5268W        W 7418   3.976   3.167  32.373 -0.1042  0.2754  0.1269
 5269W        W 7419  15.491   0.937   3.605  0.0645 -0.0888 -0.1230
 5270W        W 7420  15.394   2.828   8.701 -0.0632  0.2663 -0.3758
 5271W        W 7421  15.956   5.160  23.596 -0.2227 -0.0675 -0.1504
 5272W        W 7422  20.038   3.033  14.802  0.0706  0.1973  0.0493
 5273W        W 7423   2.222   2.753   6.324  0.1470 -0.0024  0.2208
 5274W        W 7424  17.802   0.783  23.870 -0.0929 -0.1064 -0.1855
 5275W        W 7425   9.071   2.699  28.594  0.1719 -0.0372  0.0749
 5276W        W 7426   6.327   5.840   1.388  0.1523 -0.0462 -0.0220
 5277W        W 7427  24.117   1.863  11.482  0.0996  0.3524  0.0601
 5278W        W 7428   1.775   2.582  11.117  0.1443 -0.1957 -0.0548
 5279W        W 7429  21.101   2.762  24.048  0.0966 -0.2012  0.0419
 5280W        W 7430  21.117   5.887   9.689 -0.1860  0.0202  0.2660
 5281W        W 7431  11.443   6.356   3.497 -0.0119 -0.0081 -0.0734
 5282W        W 7432  11.106   1.875  10.478  0.3307  0.1481  0.3301
 5283W        W 7433  10.103   1.385  30.115 -0.0206  0.1422 -0.1060
 5284W        W 7434   9.698   3.100  14.726  0.2077 -0.1648 -0.0461
 5285W        W 7435  17.671   0.339   5.868  0.5114  0.2518 -0.1576
 5286W        W 7436  25.209   6.236  11.130 -0.0493 -0.0281 -0.0609
 5287W        W 7437   5.652   4.364   2.440 -0.2628  0.2190  0.0222
 5288W        W 7438  12.029   5.371  28.616  0.1576  0.1418  0.1172
 5289W        W 7439  11.053   1.721  30.698 -0.0848  0.1984  0.1560
 5290W        W 7440   6.787   1.118   5.083  0.1166  0.3000  0.1338
 5291W        W 7441   3.026   5.304  27.573 -0.2038 -0.1239 -0.0404
 5292W        W 7442   5.653   5.903   4.100 -0.0806 -0.0045  0.1695
 5293W        W 7443  10.095   6.158   1.930  0.0460  0.1185 -0.1457
 5294W        W 7444   3.823   1.276   4.300 -0.4160 -0.2571  0.1656
 5295W        W 7445  11.948   2.211  32.764 -0.1809 -0.3854  0.2967
 5296W        W 7446  23.544   3.227  13.439  0.0419  0.0721  0.1264
 5297W        W 7447   3.831   2.780   4.530  0.0189 -0.0249 -0.1892
 5298W        W 7448  13.020   2.665  12.866  0.0097  0.1246  0.0088
 5299W        W 7449   8.909   1.054   1.806  0.0314 -0.1874 -0.0789
 5300W        W 7450  23.714   3.412  28.473 -0.3783 -0.0166 -0.0558
 5301W        W 7451  19.276   3.804  16.053 -0.1227  0.1019  0.1939
 5302W        W 7452  23.885   2.944  24.685 -0.0092  0.2805  0.4418
 5303W        W 7453   2.786   3.665  10.961 -0.2921  0.0757  0.2283
 5304W        W 7454   2.145   0.189  14.346  0.1401 -0.0273  0.2936
 5305W        W 7455  18.314   1.300  30.070 -0.2968 -0.1253 -0.2228
 5306W        W 7456  17.204   1.640   4.062 -0.1816  0.2049  0.0444
 5307W        W 7457  23.091   6.057   3.253  0.1315  0.1012  0.1224
 5308W        W 7458  10.190   6.389  21.270  0.1685  0.3719 -0.0079
 5309W        W 7459   3.465   4.697   2.275  0.0836  0.5436  0.1957
 5310W        W 7460  10.759   6.343   8.764 -0.0833  0.2055 -0.3681
 5311W        W 7461  14.271   2.159   3.549  0.2271 -0.0812 -0.1229
 5312W        W 7462   8.086   3.196  10.639 -0.1908 -0.2012  0.1309
 5313W        W 7463   7.596   6.320  13.999  0.0511 -0.0563 -0.1132
 5314W        W 7464   3.838   6.260   1.652 -0.1125 -0.1442 -0.1153
 5315W        W 7465   2.315   4.214   4.165  0.1315  0.1774  0.0985
 5316W        W 7466  21.194   3.842  23.858  0.0991  0.0287 -0.2115
 5317W        W 7467   2.189   2.962   2.684  0.0386 -0.3871  0.1254
 5318W        W 7468   8.545   6.375  14.368  0.1797  0.1511  0.1538
 5319W        W 7469   5.011   4.077  14.182  0.2318  0.0908 -0.1090
 5320W        W 7470   6.692   5.224   4.482 -0.0910 -0.1098 -0.0592
 5321W        W 7471  12.554   0.156   1.362  0.0389 -0.0424  0.0909
 5322W        W 7472   9.336   1.186  32.726  0.1769  0.4175  0.0838
 5323W        W 7473  13.636   2.833  33.796 -0.3775  0.0509  0.0060
 5324W        W 7474  14.930   2.636  14.373  0.0314 -0.2184  0.3875
 5325W        W 7475   2.926   1.414   9.840  0.0240  0.2059  0.0337
 5326W        W 7476  14.125   1.208  31.441  0.0292 -0.1328 -0.0921
 5327W        W 7477   4.225   3.964  21.673 -0.1904  0.0345 -0.1292
 5328W        W 7478   1.031   1.147  25.295 -0.2546  0.0550 -0.1272
 5329W        W 7479  11.339   2.468   1.221  0.0190 -0.1896  0.1009
 5330W        W 7480  23.921   6.520  33.043 -0.1543  0.1836  0.1429
 5331W        W 7481   9.879   3.516  22.898 -0.1355 -0.1092  0.0024
 5332W        W 7482  24.697   4.916  11.782 -0.4440  0.1632 -0.0122
 5333W        W 7483   1.925   0.217  13.017 -0.0533 -0.0909  0.0554
 5334W        W 7484  20.291   2.077  23.955 -0.0526  0.1488 -0.1915
 5335W        W 7485   0.777   1.660  35.148  0.0479  0.3291  0.0293
 5336W        W 7486   9.652   1.339   2.471 -0.0828 -0.2601  0.2144
 5337W        W 7487  19.557   1.007  34.315 -0.3069 -0.0261 -0.0474
 5338W        W 7488  17.233   4.559   8.444  0.4650 -0.0440 -0.0183
 5339W        W 7489  11.728   6.071  20.622  0.2594  0.2606  0.1302
 5340W        W 7490   3.167   2.855  12.929  0.2765  0.1451  0.2103
 5341W        W 7491  12.517   6.316  23.137 -0.4650  0.1112 -0.0325
 5342W        W 7492   3.809   2.185  13.183  0.0656  0.1097 -0.1514
 5343W        W 7493   8.852   5.382  29.892 -0.0939  0.0410  0.3727
 5344W        W 7494  23.608   4.268   3.262 -0.0968  0.1110 -0.2691
 5345W        W 7495  12.374   3.723  14.611 -0.3378  0.1062 -0.1020
 5346W        W 7496  19.254   5.121   0.768 -0.2246  0.2917 -0.2135
 5347W        W 7497   8.040   3.712   2.988 -0.0199  0.0537 -0.0862
 5348W        W 7498  20.381   5.187  30.970 -0.4364  0.0987 -0.0786
 5349W        W 7499  25.824   4.237  12.036  0.1346 -0.0264  0.1263
 5350W        W 7500  16.047   0.210   0.169 -0.1995  0.0507 -0.0074
 5351W        W 7501   7.937   2.493  33.512  0.0367  0.3028  0.1613
 5352W        W 7502   9.094   3.404  10.758  0.0665  0.0238 -0.0950
 5353W        W 7503  11.644   1.225   0.845  0.0993  0.0189  0.0502
 5354W        W 7504   2.386   1.281  36.017 -0.2912 -0.0139 -0.1574
 5355W        W 7505  15.511   2.403  14.976 -0.1048  0.0718  0.2127
 5356W        W 7506  23.481   4.374  11.744  0.2152 -0.1973 -0.0861
 5357W        W 7507  20.479   1.246  26.929  0.0046  0.1968 -0.0054
 5358W        W 7508  16.330   1.882  11.604 -0.2546 -0.0881 -0.1770
 5359W        W 7509  20.981   5.679  12.456  0.1680  0.1560  0.1263
 5360W        W 7510  19.877   3.646  23.828 -0.1299  0.1641  0.0903
 5361W        W 7511  10.437   3.804  32.000  0.0116 -0.4415  0.2329
 5362W        W 7512   2.076   0.048  31.704 -0.0330 -0.2598  0.0772
 5363W        W 7513  20.306   4.996  26.803  0.2876 -0.0376 -0.5338
 5364W        W 7514   5.274   5.526  30.204 -0.0801  0.0214  0.1579
 5365W        W 7515   2.042   4.183   9.268  0.2245  0.0067  0.2021
 5366W        W 7516  17.751   5.698  27.163  0.1051 -0.2471 -0.1192
 5367W        W 7517  23.324   5.809   0.057  0.2356 -0.1348 -0.0644
 5368W        W 7518  13.119   3.072   3.315 -0.0652 -0.3759  0.1211
 5369W        W 7519  20.016   1.640  36.005  0.0903 -0.2305  0.1176
 5370W        W 7520  12.094   6.457  12.746 -0.2056 -0.0187 -0.3301
 5371W        W 7521   1.070   0.685   7.140 -0.3294  0.0780  0.2030
 5372W        W 7522   7.461   4.617  26.863  0.0026 -0.3034  0.0406
 5373W        W 7523   9.515   3.194  24.736  0.0465 -0.0802  0.3193
 5374W        W 7524   5.436   2.539  21.522  0.0614  0.0307 -0.2096
 5375W        W 7525  17.309   5.213  30.330 -0.3301 -0.0651  0.1808
 5376W        W 7526   1.404   3.185   9.457  0.1825  0.2570 -0.1388
 5377W        W 7527  15.954   3.390  24.033 -0.1571  0.1325  0.1364
 5378W        W 7528  10.768   1.291   6.411 -0.1323  0.0928  0.0668
 5379W        W 7529   3.643   4.269  33.317 -0.1096 -0.0335  0.0203
 5380W        W 7530  10.571   2.085   3.644 -0.1474  0.0746 -0.1083
 5381W        W 7531  16.431   1.197   5.756  0.2074  0.2852  0.2440
 5382W        W 7532  18.964   0.158  29.849 -0.0093 -0.0462 -0.0514
 5383W        W 7533   3.567   3.031  30.641 -0.0362  0.0491 -0.0172
 5384W        W 7534   5.692   0.774  23.512  0.1473  0.0143  0.4871
 5385W        W 7535  22.737   4.736  34.199 -0.1682  0.1222  0.0007
 5386W        W 7536   9.287   3.672  32.412  0.1778  0.1634 -0.2298
 5387W        W 7537  15.001   5.406  28.673 -0.1619 -0.2711 -0.0286
 5388W        W 7538  12.489   3.828  23.787 -0.0811  0.3057  0.3585
 5389W        W 7539  10.714   1.499   3.247 -0.1148 -0.3881 -0.1073
 5390W        W 7540  20.676   1.884  27.044 -0.0258 -0.0122  0.0781
 5391W        W 7541  24.251   4.517  24.629 -0.0848 -0.0770 -0.1681
 5392W        W 7542   4.779   3.561   1.549  0.1426  0.0291  0.0310
 5393W        W 7543   2.553   2.286  13.073  0.3807  0.1356 -0.0714
 5394W        W 7544   6.683   0.890  12.204 -0.0519 -0.0290  0.0812
 5395W        W 7545   0.364   4.311  23.383  0.1805 -0.1974 -0.2269
 5396W        W 7546   1.605   0.144  28.533 -0.2969 -0.0953 -0.0831
 5397W        W 7547  11.873   2.864  26.979 -0.0342 -0.1439 -0.0071
 5398W        W 7548  15.487   2.739  22.114  0.0032 -0.2432  0.2249
 5399W        W 7549  14.220   4.397   5.590 -0.0283  0.0094 -0.0691
 5400W        W 7550  18.842   2.128  14.744  0.1090 -0.2299  0.1403
 5401W        W 7551   2.113   2.439   7.105  0.0416 -0.0136 -0.4100
 5402W        W 7552   4.469   5.973  10.876 -0.0414  0.0260  0.0551
 5403W        W 7553  10.246   5.243  15.356  0.1922  0.1694  0.1175
 5404W        W 7554  22.571   0.652  32.100  0.2844 -0.1583  0.2481
 5405W        W 7555   4.864   2.433  28.500  0.4986  0.0998  0.1917
 5406W        W 7556  13.639   2.668  24.918  0.1354  0.0712 -0.2281
 5407W        W 7557  15.186   4.387  24.026  0.1325 -0.0371  0.0584
 5408W        W 7558  22.685   2.868  23.225  0.1275  0.0609  0.2802
 5409W        W 7559   2.679   3.788  15.241  0.0226 -0.1780 -0.1879
 5410W        W 7560  23.593   6.392   8.698  0.0650 -0.0994 -0.2121
 5411W        W 7561   0.580   6.003   4.684 -0.2493  0.1237  0.2869
 5412W        W 7562  24.232   2.689  28.625  0.1490 -0.0335 -0.1347
 5413W        W 7563  25.022   2.088  23.773  0.1371 -0.0827  0.2635
 5414W        W 7564  21.357   0.715  25.226 -0.3071 -0.1980  0.1767
 5415W        W 7565  19.850   3.698   2.656 -0.0377  0.2116  0.3431
 5416W        W 7566   2.473   2.060  25.016  0.1684  0.1691 -0.0551
 5417W        W 7567  14.132   2.551  30.519  0.1584  0.1831  0.0807
 5418W        W 7568  25.198   1.295  21.825  0.2516  0.0616  0.3311
 5419W        W 7569   9.667   5.184   9.684 -0.0374  0.0047  0.0546
 5420W        W 7570  13.716   1.088  22.083 -0.2116 -0.0197  0.0394
 5421W        W 7571  17.170   4.453   5.264 -0.1310 -0.1577 -0.1285
 5422W        W 7572  25.886   1.449   4.981  0.0752 -0.3465  0.0657
 5423W        W 7573  15.404   3.420  12.182 -0.5033 -0.3824 -0.1732
 5424W        W 7574  13.288   2.660  34.488 -0.1952  0.0476 -0.3686
 5425W        W 7575  24.841   2.566   5.307 -0.1002 -0.1458 -0.1506
 5426W        W 7576  26.358   0.190  12.034  0.1015 -0.2489 -0.2455
 5427W        W 7577  14.450   1.120   9.089  0.4419  0.3099  0.1242
 5428W        W 7578  23.580   2.476   7.520  0.5996 -0.1002 -0.4430
 5429W        W 7579  12.321   4.108   1.550 -0.2117  0.0580 -0.2720
 5430W        W 7580  20.204   5.684  30.500  0.0511  0.2034  0.2709
 5431W        W 7581  24.354   1.367   8.760 -0.1777  0.0221  0.1351
 5432W        W 7582  23.428   3.643   0.592  0.1816  0.2508  0.0071
 5433W        W 7583  24.461   3.418  11.939  0.1168  0.0685 -0.0723
 5434W        W 7584   2.712   4.103  28.846 -0.1705  0.3695 -0.0670
 5435W        W 7585  15.819   4.219  14.127 -0.0508  0.2063  0.2335
 5436W        W 7586  11.194   3.074  21.935  0.0360  0.2199  0.1113
 5437W        W 7587   7.402   0.564  20.968 -0.4095 -0.0200 -0.1628
 5438W        W 7588  24.660   1.631  26.090  0.0686 -0.1860 -0.0806
 5439W        W 7589  21.774   0.902  25.888  0.2824  0.2742 -0.2388
 5440W        W 7590   0.262   2.895  13.221  0.0057  0.0951  0.2013
 5441W        W 7591  13.424   2.793  24.354  0.0360  0.0437 -0.1173
 5442W        W 7592   4.442   6.184  31.969 -0.0605 -0.0756 -0.3137
 5443W        W 7593   7.601   5.481  31.872 -0.1212 -0.3439  0.1611
 5444W        W 7594  21.990   6.232   3.432  0.2517 -0.1788 -0.0605
 5445W        W 7595  11.266   1.586   6.545  0.1989 -0.0106  0.0133
 5446W        W 7596  18.386   3.890  29.300  0.1443  0.0771 -0.0445
 5447W        W 7597  25.811   0.578   0.916  0.2993 -0.0684 -0.0149
 5448W        W 7598  25.935   5.802   3.737  0.4018  0.1118 -0.1360
 5449W        W 7599  16.523   2.210  35.879  0.0877 -0.0203 -0.0700
 5450W        W 7600   0.641   0.230  21.437 -0.3050  0.0279 -0.0836
 5451W        W 7601  26.156   1.823  31.195 -0.3233 -0.3070  0.0786
 5452W        W 7602  19.893   0.215  30.472 -0.2084 -0.1405  0.1311
 5453W        W 7603   2.987   1.911  10.656  0.3098 -0.0928 -0.3121
 5454W        W 7604  24.340   3.620  10.682  0.2258  0.2148 -0.0069
 5455W        W 7605   3.937   1.950   4.925 -0.0219  0.4257 -0.3402
 5456W        W 7606   2.004   5.482   5.985  0.1326 -0.2217  0.1219
 5457W        W 7607  21.930   4.742   6.380  0.0361  0.1702 -0.0308
 5458W        W 7608   3.385   2.933   8.995 -0.0979  0.3432 -0.1027
 5459W        W 7609   4.340   1.069  30.593  0.3217 -0.1264  0.0622
 5460W        W 7610  12.009   1.309  25.455  0.3615  0.0250 -0.2414
 5461W        W 7611   9.835   5.637  27.459 -0.0648 -0.0141  0.0088
 5462W        W 7612  15.943   1.611  26.507  0.0456  0.2353  0.5156
 5463W        W 7613   0.484   6.425   7.822  0.1362 -0.1183 -0.2523
 5464W        W 7614  19.914   4.277   9.179 -0.2283 -0.0828  0.2882
 5465W        W 7615   9.110   5.496  13.646  0.1183  0.0284 -0.5499
 5466W        W 7616  10.176   6.151  33.965  0.0523 -0.1287  0.3467
 5467W        W 7617  10.451   0.830   4.964  0.1417 -0.0280 -0.0726
 5468W        W 7618   9.889   3.610  22.390 -0.1384  0.0659  0.2597
 5469W        W 7619   1.527   2.363  15.045 -0.0298 -0.0009  0.0791
 5470W        W 7620  16.511   0.575  10.212 -0.3189  0.0593  0.0389
 5471W        W 7621  14.766   3.696   5.815  0.6372 -0.1854  0.1628
 5472W        W 7622  15.675   6.545   7.804 -0.0728 -0.4387  0.1198
 5473W        W 7623  15.335   6.211   5.537  0.4673 -0.0255  0.0180
 5474W        W 7624   8.087   3.866  34.472  0.0920 -0.0298  0.1245
 5475W        W 7625   8.637   3.947  14.135  0.1558  0.1090  0.1337
 5476W        W 7626  15.628   6.383  25.768 -0.2505  0.3181 -0.0700
 5477W        W 7627  24.270   2.945  15.630 -0.4477 -0.0028 -0.1368
 5478W        W 7628  13.304   3.159   5.700 -0.1121  0.1171  0.0865
 5479W        W 7629   7.782   2.927   3.508 -0.1175 -0.4294  0.1029
 5480W        W 7630  18.651   6.032  21.273  0.0846 -0.0533  0.1418
 5481W        W 7631   9.805   1.207  34.526  0.0227 -0.0972 -0.1586
 5482W        W 7632   9.041   0.892  13.342  0.3065  0.2237 -0.1918
 5483W        W 7633   6.505   0.721  35.901 -0.1493 -0.2488 -0.0306
 5484W        W 7634   5.774   4.366  21.871  0.3846  0.0110  0.1675
 5485W        W 7635  13.604   1.081  24.611 -0.1793 -0.1725  0.1356
 5486W        W 7636   5.027   3.819   5.764  0.1337 -0.1241 -0.2281
 5487W        W 7637   4.348   0.496   7.935 -0.1213  0.4016 -0.0339
 5488W        W 7638   3.924   2.833  24.069 -0.3150  0.0152 -0.2056
 5489W        W 7639  17.412   5.702  13.953 -0.1189  0.1904 -0.2421
 5490W        W 7640  10.237   2.820   1.713 -0.0985 -0.2559  0.4104
 5491W        W 7641  19.562   4.451   9.603 -0.0847 -0.1154  0.4173
 5492W        W 7642  22.633   0.407  12.504 -0.0699  0.2164  0.0116
 5493W        W 7643   9.884   5.605  34.852 -0.1503 -0.1113  0.1733
 5494W        W 7644   2.625   4.099  23.928  0.0384 -0.1864 -0.0359
 5495W        W 7645  11.052   2.763   1.537 -0.0944 -0.3244 -0.0454
 5496W        W 7646   1.159   0.995   9.479 -0.1297 -0.0904  0.1742
 5497W        W 7647  13.296   0.516   8.305  0.1054 -0.0215  0.0666
 5498W        W 7648   0.837   6.078  15.332 -0.0051  0.0054  0.0184
 5499W        W 7649  23.587   1.355   6.077  0.0424 -0.1921  0.1124
 5500W        W 7650  20.563   6.440  23.793 -0.4484 -0.0444 -0.1191
 5501W        W 7651  18.906   3.861   5.195 -0.0922 -0.1591  0.0451
 5502W        W 7652   1.249   0.496  14.749 -0.2454 -0.0492  0.0959
 5503W        W 7653  25.571   0.274  12.614  0.1660  0.1172 -0.0922
 5504W        W 7654   0.418   4.774  12.457 -0.0927 -0.1021 -0.1784
 5505W        W 7655  24.565   0.920  10.230 -0.1375 -0.1100  0.1219
 5506W        W 7656  12.023   0.936  31.077 -0.0808  0.0044 -0.0687
 5507W        W 7657   7.991   5.253  26.418 -0.1566  0.0395 -0.3567
 5508W        W 7658  18.219   2.355  32.420  0.1446 -0.0486  0.2072
 5509W        W 7659   3.328   2.112   2.033 -0.0456 -0.1140  0.2465
 5510W        W 7660  23.468   5.274   6.609  0.0542 -0.2799  0.1921
 5511W        W 7661  13.281   3.489   1.691  0.3291 -0.4247  0.2609
 5512W        W 7662  16.069   6.287  10.137 -0.0544 -0.3440  0.1059
 5513W        W 7663  14.664   4.927  27.574  0.1139 -0.1865 -0.3061
 5514W        W 7664  15.909   4.931  11.110  0.1777 -0.1391  0.0752
 5515W        W 7665  13.029   1.935   0.053 -0.2985  0.3254  0.0215
 5516W        W 7666  25.053   0.229  11.766 -0.1629 -0.1946  0.1000
 5517W        W 7667   2.503   1.756  25.486  0.3063  0.1052 -0.2026
 5518W        W 7668   8.253   1.394  29.584  0.0829  0.0749 -0.0780
 5519W        W 7669  17.839   3.341  12.850  0.0009 -0.0703 -0.4670
 5520W        W 7670  25.348   2.163  25.891 -0.1480  0.0602 -0.2733
 5521W        W 7671  13.230   3.387  34.000  0.0356  0.1178  0.1521
 5522W        W 7672   4.029   1.366  29.355  0.2176 -0.2014  0.1420
 5523W        W 7673   9.467   0.154   5.352  0.1748 -0.1002  0.3171
 5524W        W 7674  11.667   3.949   2.948  0.0450  0.1513  0.1792
 5525W        W 7675  15.429   2.238  35.169 -0.2403  0.0950  0.2103
 5526W        W 7676  24.507   1.271  35.037  0.1018  0.1262  0.1264
 5527W        W 7677  18.418   2.718   6.654 -0.0648 -0.1162 -0.2950
 5528W        W 7678  15.796   4.227  26.429 -0.0999  0.0777 -0.1679
 5529W        W 7679  17.794   4.619  14.276  0.2089 -0.0290 -0.2727
 5530W        W 7680  18.505   4.597   9.156 -0.0500 -0.0841  0.2541
 5531W        W 7681  23.052   5.715   9.028 -0.1943 -0.0311  0.2931
 5532W        W 7682   9.662   6.579  14.875 -0.1129  0.1061 -0.3642
 5533W        W 7683   6.430   0.632  15.776 -0.2999 -0.0832  0.1302
 5534W        W 7684  15.673   1.048  11.646 -0.1308 -0.1045 -0.1919
 5535W        W 7685  15.716   4.215  25.919 -0.1291 -0.0345  0.4061
 5536W        W 7686  13.778   2.801   2.308  0.0027 -0.0354  0.0465
 5537W        W 7687  20.709   4.161  30.275 -0.0477  0.0439  0.0132
 5538W        W 7688  19.615   4.216  11.651  0.1466 -0.3366 -0.0789
 5539W        W 7689   0.984   1.833  35.652 -0.1360 -0.1658  0.1308
 5540W        W 7690  17.046   4.846  26.641  0.1728 -0.0686  0.1132
 5541W        W 7691   4.158   0.271   5.970 -0.2711 -0.2110 -0.1717
 5542W        W 7692   4.535   6.146   1.983  0.0744  0.4472 -0.3778
 5543W        W 7693  12.230   3.676  32.179  0.0044  0.1129  0.2757
 5544W        W 7694  22.487   2.203  14.490 -0.1866  0.3295 -0.1880
 5545W        W 7695   0.111   0.832  35.074 -0.2350  0.0548  0.1971
 5546W        W 7696  20.195   1.791  26.152 -0.0375  0.0967 -0.1523
 5547W        W 7697   6.459   0.556  33.988 -0.0804 -0.0791  0.1738
 5548W        W 7698   9.244   5.583   2.070  0.0318 -0.0992  0.4733
 5549W        W 7699  24.378   1.772  10.637  0.2546 -0.2242 -0.1027
 5550W        W 7700  25.227   0.860   9.821 -0.3308  0.1354  0.1396
 5551W        W 7701   4.557   5.468  35.657  0.1442 -0.1018 -0.1523
 5552W        W 7702   6.019   6.092   7.080  0.0075 -0.1688 -0.1217
 5553W        W 7703  14.377   5.648   0.202 -0.0007  0.1791 -0.0708
 5554W        W 7704   9.058   4.183   1.635 -0.1669  0.1558 -0.0161
 5555W        W 7705  25.506   0.992   4.814 -0.0168  0.0162 -0.2798
 5556W        W 7706  21.691   2.281  30.236  0.1112  0.2839  0.0826
 5557W        W 7707  15.175   3.423  30.832  0.0472  0.1853 -0.0762
 5558W        W 7708  21.357   3.828  21.883  0.1090  0.1201 -0.0954
 5559W        W 7709  13.430   1.901  25.658  0.2565 -0.0364  0.2271
 5560W        W 7710  12.731   4.596   6.009  0.0267 -0.1571  0.0800
 5561W        W 7711   0.185   2.728  21.860  0.1815  0.3260  0.1940
 5562W        W 7712  12.497   5.419  34.490 -0.1148  0.1504 -0.2159
 5563W        W 7713   3.743   3.984   5.299  0.2780 -0.2362  0.1136
 5564W        W 7714  12.482   5.701  30.098 -0.0502  0.1290  0.3009
 5565W        W 7715  17.594   6.572  33.730 -0.0199 -0.1291  0.1565
 5566W        W 7716  20.076   0.784   9.260 -0.3185  0.0656 -0.2074
 5567W        W 7717   5.055   0.081   5.706  0.0835  0.0859  0.0066
 5568W        W 7718   3.110   6.303   0.648 -0.0085 -0.0157  0.0476
 5569W        W 7719  20.338   2.170  14.312 -0.3851 -0.4599  0.0581
 5570W        W 7720  17.853   1.372  10.663  0.0711  0.0753 -0.1962
 5571W        W 7721   8.481   0.498  34.247 -0.2616  0.0899 -0.0118
 5572W        W 7722  16.615   0.453  14.495  0.2189 -0.1111  0.1532
 5573W        W 7723   4.004   2.637  27.579 -0.0401  0.1052  0.1089
 5574W        W 7724  14.192   5.328  27.352  0.0201  0.3047 -0.0753
 5575W        W 7725   6.331   3.308  13.323 -0.3125 -0.2426  0.0368
 5576W        W 7726  10.729   5.739   5.295 -0.1391 -0.2069 -0.0398
 5577W        W 7727  14.634   3.301  21.034  0.3804  0.3381  0.0797
 5578W        W 7728  20.867   5.707  11.400 -0.2514 -0.0730 -0.0727
 5579W        W 7729  16.447   2.513   9.810  0.0898  0.2272 -0.0540
 5580W        W 7730  21.251   3.382  20.865 -0.2515 -0.0279 -0.0576
 5581W        W 7731  18.755   1.358   6.279 -0.0605 -0.0380 -0.1010
 5582W        W 7732  15.226   6.403   9.013  0.2323  0.0739  0.0675
 5583W        W 7733   5.617   2.337   7.405 -0.2924  0.0972 -0.0789
 5584W        W 7734   0.123   2.261   8.079  0.0003  0.1618 -0.1020
 5585W        W 7735   8.949   2.419  29.740 -0.1491 -0.0846 -0.1206
 5586W        W 7736  16.029   2.434   4.233 -0.2307 -0.0428  0.0027
 5587W        W 7737  14.006   1.961   4.974  0.0943  0.0884  0.0637
 5588W        W 7738  18.971   0.539  14.657  0.0196 -0.0873 -0.0497
 5589W        W 7739  19.013   0.800  28.780 -0.2936  0.1891 -0.1887
 5590W        W 7740   2.203   4.489   6.846 -0.0109  0.3543 -0.1601
 5591W        W 7741  24.481   0.512  25.915  0.1134  0.1286 -0.2363
 5592W        W 7742  21.477   5.351   1.678 -0.2991  0.1425 -0.1881
 5593W        W 7743  18.586   2.488  21.004 -0.1180  0.0089 -0.1093
 5594W        W 7744  22.903   0.314  26.448  0.1009 -0.1148 -0.1248
 5595W        W 7745  11.851   0.145   9.040  0.2361  0.1682 -0.2358
 5596W        W 7746  24.720   0.958  21.104 -0.3208 -0.2138 -0.0959
 5597W        W 7747  22.291   4.127  26.761  0.1932  0.2390 -0.3650
 5598W        W 7748  21.908   5.254   0.670  0.2237 -0.2759 -0.0322
 5599W        W 7749  13.414   4.464  28.081  0.1451  0.0012 -0.0480
 5600W        W 7750  21.107   0.348   9.824 -0.0342 -0.1134  0.0402
 5601W        W 7751  10.225   4.913  13.091 -0.5907 -0.0371  0.4688
 5602W        W 7752  19.581   4.712   6.883  0.1605  0.0897  0.3306
 5603W        W 7753   3.420   4.440  23.153 -0.3082  0.1872 -0.1771
 5604W        W 7754  18.477   2.232  12.122 -0.1307  0.2312  0.0010
 5605W        W 7755   8.674   2.910  22.910  0.0152 -0.0826 -0.2361
 5606W        W 7756   0.713   5.304   3.056 -0.0382  0.1477 -0.0185
 5607W        W 7757  26.340   5.089  25.019  0.0669 -0.3381 -0.0744
 5608W        W 7758   2.006   5.011  27.231  0.1532  0.3386 -0.2908
 5609W        W 7759  21.068   4.922   0.332  0.1175 -0.1084  0.3499
 5610W        W 7760  25.705   2.788  25.214  0.1292  0.3282 -0.0251
 5611W        W 7761   0.848   4.161  23.527  0.0609  0.3225 -0.1063
 5612W        W 7762   6.240   6.405  12.039  0.0042  0.0456  0.0741
 5613W        W 7763  18.239   3.779  31.162  0.0460 -0.0827 -0.0052
 5614W        W 7764  11.645   1.497  11.001 -0.2547  0.2289  0.2670
 5615W        W 7765   5.462   1.279  15.272  0.0463  0.0952 -0.2646
 5616W        W 7766  15.577   6.434  15.659  0.1609  0.1646 -0.1756
 5617W        W 7767   0.351   0.314  22.000 -0.1296  0.0395  0.1746
 5618W        W 7768  16.881   5.466   8.044  0.1734  0.0966 -0.2503
 5619W        W 7769  10.963   3.644  26.754 -0.2925  0.4707  0.0945
 5620W        W 7770   0.726   5.282  12.367 -0.0164  0.2141  0.0295
 5621W        W 7771  24.900   4.988  29.625  0.1978 -0.1965 -0.1804
 5622W        W 7772   6.688   6.136   1.513  0.0619  0.0145 -0.3781
 5623W        W 7773  22.922   6.555  10.787  0.0400  0.1038  0.0375
 5624W        W 7774  21.837   2.605  33.608  0.1710 -0.1396 -0.1186
 5625W        W 7775  25.801   5.239   6.816  0.3047  0.0605  0.2134
 5626W        W 7776  17.382   5.184  29.039  0.0683  0.0557 -0.0361
 5627W        W 7777  19.086   3.862   7.511  0.0077  0.0887  0.0903
 5628W        W 7778  24.223   4.367  24.143 -0.1389  0.2853 -0.1404
 5629W        W 7779   0.542   4.970  30.506 -0.2335 -0.2041  0.2339
 5630W        W 7780   2.725   3.658   2.820  0.3246 -0.0621 -0.1868
 5631W        W 7781  24.342   4.945   5.097  0.1590  0.1763 -0.1324
 5632W        W 7782  19.645   2.338   2.035 -0.0718 -0.1183 -0.2958
 5633W        W 7783  13.041   1.969   9.259 -0.0323  0.0201 -0.1828
 5634W        W 7784  21.264   4.148  20.627 -0.0234 -0.1272 -0.2356
 5635W        W 7785   4.885   2.948  12.815  0.2239 -0.0520 -0.1510
 5636W        W 7786  26.400   3.788  20.727 -0.1356 -0.3715  0.0749
 5637W        W 7787   3.513   4.828   5.332  0.0146  0.1149  0.0706
 5638W        W 7788  25.655   5.369  34.585  0.0618  0.1559  0.1526
 5639W        W 7789  25.961   6.576  23.157 -0.3973  0.1751 -0.1845
 5640W        W 7790  15.589   1.039  26.437  0.0187 -0.1984 -0.0445
 5641W        W 7791   9.080   3.369  21.957 -0.2162 -0.3284 -0.1460
 5642W        W 7792  25.043   4.965  34.927  0.2135 -0.0748 -0.0701
 5643W        W 7793   7.592   0.214  10.162  0.1136  0.0985  0.1621
 5644W        W 7794   4.335   5.415   9.491 -0.1897  0.1467 -0.0169
 5645W        W 7795  21.453   2.782  30.450  0.0008  0.2592 -0.0065
 5646W        W 7796   5.780   0.241  30.360  0.1901 -0.0942  0.0589
 5647W        W 7797  21.564   3.752  29.282  0.0747  0.0924 -0.0152
 5648W        W 7798   3.240   6.538   4.741  0.0135  0.0367 -0.0363
 5649W        W 7799   3.745   5.910  31.172  0.0777  0.1533  0.0300
 5650W        W 7800  11.106   1.402   1.653 -0.0437  0.0124 -0.1546
 5651W        W 7801  21.261   5.200   6.143 -0.0417 -0.0004 -0.0746
 5652W        W 7802   4.692   2.256  33.994 -0.0239  0.0516  0.1211
 5653W        W 7803   9.156   5.500  11.745  0.0846 -0.3519  0.2756
 5654W        W 7804   3.866   0.599   5.120  0.3822  0.2315  0.2779
 5655W        W 7805  21.985   4.870  13.496 -0.2672  0.0935 -0.3426
 5656W        W 7806  13.828   1.337  11.585 -0.2506  0.1008 -0.1115
 5657W        W 7807   7.244   6.129  34.918 -0.3051 -0.1250  0.0437
 5658W        W 7808  18.071   5.534  26.775 -0.2898 -0.3281 -0.3916
 5659W        W 7809  19.817   2.063   9.196  0.1110  0.1650  0.1265
 5660W        W 7810  24.667   4.625  27.698  0.2825  0.0175  0.1709
 5661W        W 7811   7.446   6.424  34.512  0.0026  0.0116  0.0115
 5662W        W 7812   4.416   5.939  29.906  0.2872 -0.1071  0.1002
 5663W        W 7813  19.561   0.667  32.408 -0.0113  0.1584 -0.1992
 5664W        W 7814   8.132   5.026  28.734  0.2322 -0.4174 -0.0137
 5665W        W 7815   1.163   0.367  36.033  0.0732  0.3969  0.0115
 5666W        W 7816  22.689   4.321   7.922  0.3133 -0.0803 -0.2608
 5667W        W 7817  23.571   2.233   9.986 -0.0634 -0.0917  0.0012
 5668W        W 7818   9.863   2.169  35.310  0.0675 -0.1131  0.0368
 5669W        W 7819   5.664   5.128  30.274  0.1493 -0.1446  0.1197
 5670W        W 7820  18.252   5.589  13.178 -0.1194 -0.3803  0.2992
 5671W        W 7821   1.655   1.333  13.794 -0.0959  0.1844 -0.1041
 5672W        W 7822  12.798   3.442  15.632 -0.4862 -0.1477  0.4524
 5673W        W 7823  16.064   5.686  15.439 -0.1236  0.2122  0.2154
 5674W        W 7824   7.004   3.448   2.587  0.1852 -0.1759  0.3926
 5675W        W 7825  10.836   3.780  31.613  0.0234 -0.0898 -0.1361
 5676W        W 7826  15.408   2.674   4.757  0.2347  0.0663 -0.1813
 5677W        W 7827   7.288   6.222  28.117  0.0814 -0.0770 -0.0504
 5678W        W 7828  19.942   4.136   2.309  0.0845  0.3021 -0.2435
 5679W        W 7829  12.472   3.220   8.470 -0.1994 -0.0504 -0.5003
 5680W        W 7830  17.170   5.993  14.455 -0.0207 -0.0442 -0.3454
 5681W        W 7831  16.478   3.382   5.001 -0.1963  0.1266  0.1904
 5682W        W 7832   1.621   5.852  27.236  0.1248  0.0036 -0.2104
 5683W        W 7833  10.607   2.146  29.924  0.1742  0.2099  0.0189
 5684W        W 7834  18.204   5.532  27.255  0.0192  0.1674  0.0470
 5685W        W 7835  25.159   1.370   2.375  0.2571 -0.1605  0.1319
 5686W        W 7836  14.717   0.889   8.141  0.0356  0.0516 -0.2410
 5687W        W 7837  20.348   3.315   6.938 -0.0285  0.5284  0.0095
 5688W        W 7838   6.451   3.996  12.624 -0.0319 -0.0178 -0.0011
 5689W        W 7839  22.331   2.162  32.763  0.1702 -0.3423 -0.1402
 5690W        W 7840  22.039   3.588  30.757  0.0954 -0.0354  0.1089
 5691W        W 7841  20.721   1.548   9.927 -0.0367 -0.4142  0.0330
 5692W        W 7842   7.148   3.927  34.667  0.0327  0.1044  0.1607
 5693W        W 7843   3.519   1.865  12.247  0.0298 -0.1225 -0.1672
 5694W        W 7844  15.139   1.125  33.858  0.0371  0.1710  0.2469
 5695W        W 7845  21.123   2.099  35.701  0.2437  0.3047 -0.0528
 5696W        W 7846   7.386   0.077  28.011 -0.0548  0.2874  0.2306
 5697W        W 7847   6.845   4.641  13.916 -0.1569  0.0506 -0.2389
 5698W        W 7848  12.499   6.501  20.685 -0.1394 -0.3179 -0.0822
 5699W        W 7849   0.229   4.339  22.504  0.2439  0.0444 -0.1399
 5700W        W 7850  12.736   2.657  15.038 -0.0210  0.1027 -0.0778
 5701W        W 7851   2.952   2.073  20.773  0.0541  0.0858  0.0676
 5702W        W 7852  20.178   1.498  27.259 -0.0979  0.0089 -0.0088
 5703W        W 7853  18.452   4.298  27.073 -0.1756 -0.0734  0.2180
 5704W        W 7854  20.358   0.151   8.602  0.0130  0.3030 -0.1743
 5705W        W 7855  14.762   3.339  15.979 -0.2043  0.0290  0.0563
 5706W        W 7856  15.132   3.554  25.989  0.0751  0.1031 -0.1184
 5707W        W 7857   6.060   2.269   1.062  0.0654 -0.3406 -0.1580
 5708W        W 7858  18.767   3.091  25.460 -0.1192  0.4144 -0.0232
 5709W        W 7859   3.512   5.246  32.801 -0.1060 -0.1138  0.0933
 5710W        W 7860  22.784   4.831   5.664 -0.0320 -0.2252 -0.0316
 5711W        W 7861  12.023   1.593  10.133  0.0499 -0.0711  0.3691
 5712W        W 7862  20.107   0.959  26.684  0.1522 -0.1839  0.1075
 5713W        W 7863   9.173   0.024  34.167  0.0366  0.2402  0.2212
 5714W        W 7864  22.675   2.879   4.556 -0.2554 -0.1185 -0.1043
 5715W        W 7865  10.973   2.750   7.700 -0.5053 -0.0195 -0.1163
 5716W        W 7866  21.137   1.759   9.598  0.0339  0.2524 -0.1438
 5717W        W 7867  24.912   1.848  33.987 -0.0176 -0.0677  0.0480
 5718W        W 7868   0.688   3.962  31.292 -0.1068 -0.0861 -0.0927
 5719W        W 7869  13.200   4.380  12.832  0.3059  0.1377 -0.1453
 5720W        W 7870  21.471   1.289  24.597 -0.0964 -0.2721  0.1962
 5721W        W 7871  19.325   2.070   1.270 -0.0175  0.3571 -0.2286
 5722W        W 7872   7.526   5.755  15.120  0.1396 -0.1810  0.0210
 5723W        W 7873   5.170   2.474  13.585  0.0684 -0.1945  0.0606
 5724W        W 7874  13.553   4.847  23.572  0.0357 -0.1841  0.2322
 5725W        W 7875  23.424   1.540  32.153  0.3655  0.0490  0.1483
 5726W        W 7876  13.413   1.140   4.391  0.1903 -0.3195 -0.1418
 5727W        W 7877  13.082   6.067   1.619 -0.0837 -0.2552  0.0219
 5728W        W 7878  26.252   6.444   2.043 -0.1161  0.2065 -0.0192
 5729W        W 7879  10.923   6.228   5.995  0.1500 -0.1527 -0.2818
 5730W        W 7880   6.043   3.275   5.873  0.2729 -0.3610  0.1217
 5731W        W 7881  21.538   0.167  14.882  0.0515 -0.1655  0.0536
 5732W        W 7882  21.400   4.552   5.096 -0.2747 -0.1008  0.3442
 5733W        W 7883   7.969   6.000  13.747  0.0435  0.0039 -0.3553
 5734W        W 7884  12.026   2.583   6.928 -0.0490 -0.0636  0.0739
 5735W        W 7885   8.882   2.976  14.150 -0.0216 -0.2462 -0.0777
 5736W        W 7886   3.846   5.517   6.913  0.1462 -0.2972  0.0372
 5737W        W 7887  17.771   2.379  35.758 -0.0089  0.0976 -0.1686
 5738W        W 7888  26.426   3.990  21.688  0.0480  0.1179 -0.0717
 5739W        W 7889  21.577   5.126  25.426  0.0855  0.0912  0.0814
 5740W        W 7890  23.354   1.404  35.861 -0.1536  0.0594 -0.1034
 5741W        W 7891  18.709   1.819  14.365  0.1835 -0.0217  0.0923
 5742W        W 7892   4.625   5.137  28.570  0.0334 -0.1064 -0.1176
 5743W        W 7893  20.387   4.276  26.303  0.3439 -0.0396  0.1880
 5744W        W 7894  14.626   2.625  34.741 -0.1479  0.0671 -0.0641
 5745W        W 7895  10.830   5.171   1.289  0.1314 -0.1468 -0.4345
 5746W        W 7896  19.684   1.939  30.807 -0.1949  0.0020  0.0210
 5747W        W 7897  14.297   1.928   9.328  0.1148  0.1062 -0.1172
 5748W        W 7898   7.271   0.798   4.208 -0.1417 -0.1237  0.0200
 5749W        W 7899   3.154   0.009  32.357 -0.0026 -0.0099 -0.3544
 5750W        W 7900   5.732   3.814  32.484 -0.2054  0.0809  0.0247
 5751W        W 7901   2.150   6.024  35.572 -0.0747  0.0763 -0.2328
 5752W        W 7902   6.523   4.250   9.464 -0.1605 -0.0329  0.0397
 5753W        W 7903   0.389   2.502  31.488  0.0064 -0.0584  0.0109
 5754W        W 7904  10.157   1.217   0.517 -0.1744  0.1986  0.2122
 5755W        W 7905  17.537   1.083   1.152 -0.0389 -0.0164  0.0646
 5756W        W 7906  18.013   4.060  31.544 -0.1190  0.3240 -0.1698
 5757W        W 7907  11.764   3.757  34.834 -0.4173 -0.3142 -0.2182
 5758W        W 7908  25.264   2.651  32.183  0.1441 -0.5844  0.1078
 5759W        W 7909  13.424   0.700  15.592 -0.0884 -0.0886  0.1806
 5760W        W 7910  10.305   5.506   8.344 -0.0672 -0.1909  0.0958
 5761W        W 7911  12.087   5.146   1.444  0.1241 -0.0092  0.1505
 5762W        W 7912  10.191   2.389  27.634 -0.0130  0.1141  0.2927
 5763W        W 7913   9.732   5.349   5.690 -0.0665 -0.1100  0.1155
 5764W        W 7914   6.813   1.185   6.548  0.0449 -0.0001 -0.4553
 5765W        W 7915  14.822   1.921  26.394 -0.0134 -0.0534  0.1296
 5766W        W 7916   7.850   3.976  32.738  0.0722 -0.0296 -0.0157
 5767W        W 7917   4.607   0.508  10.833 -0.0233  0.1028 -0.0952
 5768W        W 7918  13.502   3.501  29.562 -0.2198 -0.3557  0.0892
 5769W        W 7919  20.116   3.589  14.891  0.1864 -0.1824  0.1263
 5770W        W 7920  20.214   3.327  34.829  0.0245  0.1937 -0.1180
 5771W        W 7921   0.464   3.162   1.704 -0.0000  0.1864  0.0466
 5772W        W 7922  17.878   3.156  15.189  0.0591 -0.0223 -0.2010
 5773W        W 7923   0.834   1.388   8.682  0.4984 -0.0001  0.0528
 5774W        W 7924  19.249   0.613   6.348  0.1234 -0.0711 -0.1490
 5775W        W 7925  13.344   0.124  12.964 -0.1996 -0.0193 -0.0990
 5776W        W 7926   9.060   5.547  22.781 -0.0062 -0.0357  0.0155
 5777W        W 7927  21.111   3.852  21.082 -0.1206 -0.0646  0.0321
 5778W        W 7928   7.993   1.836  28.356  0.1307 -0.0967  0.1894
 5779W        W 7929   7.705   0.992  31.349 -0.1158  0.0168 -0.2312
 5780W        W 7930  25.989   2.394  35.470 -0.1907  0.5222 -0.2125
 5781W        W 7931  25.630   6.100   5.199  0.0178 -0.1394 -0.1591
 5782W        W 7932  21.690   5.977  28.688  0.0652  0.0564 -0.1064
 5783W        W 7933   0.359   6.301  13.317  0.1686  0.0463  0.2026
 5784W        W 7934   4.397   0.127  22.474  0.1458 -0.1736  0.0671
 5785W        W 7935  17.723   3.340  13.646  0.1206  0.1928 -0.0260
 5786W        W 7936  15.761   0.065  15.145 -0.0118  0.0289  0.1712
 5787W        W 7937   0.572   1.875  22.335 -0.1931 -0.2497 -0.0189
 5788W        W 7938   9.821   0.413  26.923 -0.0110  0.0966 -0.2613
 5789W        W 7939  18.065   4.711  24.579 -0.1445  0.0347 -0.2104
 5790W        W 7940  24.129   4.357   0.202 -0.0063  0.3034  0.0491
 5791W        W 7941  19.255   6.534   9.152 -0.2514 -0.0866  0.1727
 5792W        W 7942   4.853   6.339   0.603  0.1647 -0.0521  0.1095
 5793W        W 7943  25.269   4.840  22.714  0.0503  0.0945  0.1404
 5794W        W 7944  10.376   5.332  22.447 -0.3285 -0.0812 -0.0747
 5795W        W 7945  16.736   4.310  27.388 -0.1693 -0.1633 -0.0768
 5796W        W 7946   2.823   0.928  10.826 -0.1492 -0.0493  0.2131
 5797W        W 7947   5.338   6.543  10.777 -0.1075 -0.0739  0.1265
 5798W        W 7948   0.316   2.794   8.285  0.1568  0.1399  0.0794
 5799W        W 7949   5.203   4.937   3.238 -0.0706  0.1404 -0.1523
 5800W        W 7950   2.267   1.145  28.651  0.2421 -0.3551 -0.0431
 5801W        W 7951  11.226   6.542  27.652 -0.0402  0.0278  0.0185
 5802W        W 7952  23.312   5.321  14.013  0.0562 -0.1524 -0.0333
 5803W        W 7953   0.870   2.771  10.105 -0.1048  0.1288 -0.2531
 5804W        W 7954  18.558   5.216  33.424 -0.0597 -0.0722 -0.0002
 5805W        W 7955  14.585   1.191  34.265  0.0539  0.0220  0.0257
 5806W        W 7956  10.646   4.145  32.331 -0.0015  0.0246  0.2019
 5807W        W 7957  17.811   1.242   5.912 -0.3415 -0.1822 -0.1409
 5808W        W 7958   8.839   0.879  21.876 -0.1097  0.0697  0.0978
 5809W        W 7959  14.052   1.213   4.912  0.0779 -0.1049  0.0024
 5810W        W 7960  20.594   6.270   6.863 -0.1399 -0.1486  0.1194
 5811W        W 7961  20.615   2.651  24.407 -0.1902  0.0058 -0.1243
 5812W        W 7962  23.148   3.402   0.261  0.1562  0.0444 -0.1574
 5813W        W 7963   2.310   6.567  26.812  0.2110  0.1033 -0.1213
 5814W        W 7964   6.401   3.408  14.983 -0.1060  0.1804 -0.3563
 5815W        W 7965   8.648   3.364  30.795  0.0960 -0.2322  0.0637
 5816W        W 7966  11.165   0.160   1.576  0.0936 -0.0647 -0.0231
 5817W        W 7967   4.451   3.784  31.079 -0.0187  0.1781 -0.3253
 5818W        W 7968   7.371   3.812  22.949 -0.1257 -0.0114 -0.2610
 5819W        W 7969  20.966   2.391   1.818  0.1490 -0.0862 -0.0107
 5820W        W 7970   5.603   5.362   2.575 -0.0604 -0.4092  0.2753
 5821W        W 7971  15.188   4.781   0.853 -0.1101 -0.2651  0.1540
 5822W        W 7972  22.259   4.404   5.425  0.0844  0.1223  0.0417
 5823W        W 7973  23.213   5.173  23.145 -0.0819 -0.1838  0.0993
 5824W        W 7974  14.905   6.152  10.313 -0.1605  0.0552  0.1131
 5825W        W 7975  10.692   0.774  12.104  0.1484 -0.1330  0.0398
 5826W        W 7976  18.952   5.379   6.544  0.0347 -0.1375  0.0718
 5827W        W 7977  10.325   3.436  25.662  0.0104 -0.3392  0.3506
 5828W        W 7978   5.777   1.044  11.719  0.0010  0.0323 -0.0584
 5829W        W 7979  10.162   3.824  26.985 -0.2183  0.1745 -0.1522
 5830W        W 7980  20.448   4.181  30.872 -0.0477  0.1568 -0.1386
 5831W        W 7981  26.197   3.536  21.728 -0.0110  0.1792 -0.0759
 5832W        W 7982  10.860   0.812   8.199 -0.1644 -0.2038  0.4436
 5833W        W 7983  16.805   2.454  29.892 -0.3751  0.3364  0.0184
 5834W        W 7984  23.965   4.085  27.024  0.0477  0.1632  0.0390
 5835W        W 7985   8.906   6.165   5.944  0.2069 -0.0944  0.2018
 5836W        W 7986  23.728   3.926  30.728  0.0614 -0.0117  0.1587
 5837W        W 7987   8.805   2.951   4.240 -0.0566  0.1264 -0.0774
 5838W        W 7988  11.478   1.006  22.224 -0.2591  0.2404  0.4529
 5839W        W 7989   3.814   6.246  27.280  0.0974  0.2349  0.1084
 5840W        W 7990   6.563   3.134  21.200  0.2154  0.0252  0.1087
 5841W        W 7991   7.734   0.221  14.102 -0.4375 -0.1304  0.1975
 5842W        W 7992  10.055   1.470  32.775 -0.1124 -0.0769  0.0605
 5843W        W 7993  25.421   2.434  15.091  0.0854 -0.1035  0.2804
 5844W        W 7994   4.513   1.719   6.680 -0.3303  0.2463  0.0949
 5845W        W 7995   9.368   3.901  26.256 -0.1448 -0.0657  0.0118
 5846W        W 7996  10.946   0.497  25.080  0.0533  0.0197  0.0598
 5847W        W 7997  22.108   2.392   0.170 -0.0078 -0.1210 -0.2192
 5848W        W 7998  21.881   2.443  11.099 -0.1668 -0.0299  0.3747
 5849W        W 7999  25.105   4.994   7.497 -0.0555  0.0773 -0.2262
 5850W        W 8000   1.434   1.012  32.938  0.3284 -0.1827  0.0561
 5851W        W 8001   2.579   0.253  15.571  0.1000 -0.4204  0.1934
 5852W        W 8002   4.886   4.184   6.099 -0.1103  0.0816 -0.1039
 5853W        W 8003  21.605   3.854   5.393 -0.1255 -0.0381 -0.2209
 5854W        W 8004  13.126   1.708  28.910 -0.1055 -0.0621 -0.2354
 5855W        W 8005  19.785   2.438  10.593 -0.4474 -0.2256  0.2148
 5856W        W 8006  20.455   5.228  30.464  0.0754 -0.0725  0.4403
 5857W        W 8007   7.949   2.029  12.379 -0.2621 -0.2199 -0.0100
 5858W        W 8008   6.789   6.118  25.632 -0.0106  0.0768 -0.3512
 5859W        W 8009  22.080   5.205  25.277  0.0230 -0.1231  0.3067
 5860W        W 8010   8.278   4.570   8.011 -0.2936  0.1135 -0.0675
 5861W        W 8011  16.647   1.612   1.916 -0.3454 -0.0716  0.2658
 5862W        W 8012  16.025   0.758  24.569  0.1292 -0.1288 -0.2024
 5863W        W 8013  25.396   3.505  13.569 -0.0056 -0.1155 -0.0818
 5864W        W 8014  17.582   3.579   2.700  0.0551 -0.1538 -0.0250
 5865W        W 8015  11.822   2.863  26.504 -0.1133  0.1534  0.2509
 5866W        W 8016  21.050   1.792  23.116 -0.3927 -0.0208  0.1841
 5867W        W 8017  14.108   2.967  12.383  0.1886 -0.3899 -0.2261
 5868W        W 8018  12.196   1.347  20.755 -0.1102 -0.1602 -0.0143
 5869W        W 8019  15.749   3.906  12.486 -0.0116 -0.2894  0.3858
 5870W        W 8020  15.446   1.271  21.074  0.1380 -0.0048 -0.3423
 5871W        W 8021  22.991   0.938  25.012 -0.2272 -0.2484  0.1154
 5872W        W 8022   5.955   5.777   9.138  0.0242 -0.1374  0.0945
 5873W        W 8023  17.337   2.413  29.752 -0.2774  0.0250  0.2787
 5874W        W 8024   7.703   2.570  29.038  0.1612  0.0648  0.4405
 5875W        W 8025  25.505   1.789   1.144  0.0015  0.1061  0.1325
 5876W        W 8026   3.130   2.958  28.586 -0.0491  0.1091 -0.0392
 5877W        W 8027   7.463   5.926  20.477  0.1675  0.2967 -0.0851
 5878W        W 8028   2.411   5.453   4.586 -0.1433 -0.0241 -0.0968
 5879W        W 8029  11.652   5.746   0.841  0.1915 -0.0439  0.2497
 5880W        W 8030  19.035   4.117  28.506 -0.1236 -0.0182  0.0127
 5881W        W 8031  15.124   2.789  27.647 -0.1653 -0.0759  0.0018
 5882W        W 8032  13.355   2.267   9.014 -0.0844  0.1132 -0.2350
 5883W        W 8033  21.912   1.930  10.906  0.2119 -0.1908 -0.0761
 5884W        W 8034  20.721   4.722  12.426  0.1319 -0.0687 -0.1712
 5885W        W 8035   3.439   1.876  21.772  0.1217  0.1265 -0.1395
 5886W        W 8036  10.940   3.972   7.802 -0.0108 -0.1991  0.0512
 5887W        W 8037  18.815   1.837  29.494 -0.1064 -0.0465 -0.0495
 5888W        W 8038  26.308   4.189  22.176 -0.0967  0.1613  0.2419
 5889W        W 8039   5.563   3.730  27.409 -0.2023 -0.3271  0.4733
 5890W        W 8040  24.231   4.421  10.292 -0.2005  0.3110  0.1061
 5891W        W 8041  26.314   5.261   0.481  0.0664 -0.0028  0.0778
 5892W        W 8042  23.157   1.873  30.950 -0.0111 -0.2113  0.1526
 5893W        W 8043  23.731   1.096  29.783 -0.0644 -0.2097  0.1123
 5894W        W 8044   8.955   1.814  12.820 -0.2675  0.0793  0.3942
 5895W        W 8045  23.810   5.670  12.051 -0.0269 -0.1587  0.1203
 5896W        W 8046  14.195   1.420  28.283  0.2442  0.1919 -0.1657
 5897W        W 8047  20.729   6.044   9.965 -0.0942 -0.0537 -0.2094
 5898W        W 8048  23.536   4.752   2.025 -0.0348  0.1799 -0.0041
 5899W        W 8049  12.333   6.499  35.580  0.0637 -0.0675  0.0477
 5900W        W 8050  15.222   1.793  10.849  0.0365  0.0069  0.1955
 5901W        W 8051  25.635   5.923  11.091 -0.1706  0.0282  0.1777
 5902W        W 8052   7.664   1.633   8.479  0.0206 -0.1189  0.3423
 5903W        W 8053  21.396   0.742  14.150  0.0297  0.0221  0.2882
 5904W        W 8054  25.917   2.260  30.372  0.0227  0.2847  0.2012
 5905W        W 8055   6.532   6.089  29.255 -0.1750  0.1700 -0.1387
 5906W        W 8056   1.961   1.024   0.534  0.2070 -0.3537 -0.0838
 5907W        W 8057  26.055   0.412  21.504  0.1515  0.0614  0.0811
 5908W        W 8058  21.565   4.739  35.223 -0.2133  0.3221 -0.0077
 5909W        W 8059  18.353   3.331  29.230 -0.2149 -0.2939  0.3220
 5910W        W 8060  10.262   0.929   9.912 -0.4589 -0.0291 -0.2992
 5911W        W 8061  12.966   1.332   0.735  0.2067 -0.3194  0.0189
 5912W        W 8062  24.378   1.675   5.295 -0.1384 -0.1778  0.0823
 5913W        W 8063  22.484   0.161  28.808 -0.1810 -0.0189  0.2604
 5914W        W 8064   2.239   1.483  21.983  0.1920  0.1737 -0.1324
 5915W        W 8065   9.533   0.751  29.470  0.2324 -0.3223 -0.0039
 5916W        W 8066  15.564   2.314  30.950 -0.3864 -0.0701  0.1537
 5917W        W 8067  11.928   0.180   0.151  0.1311  0.3455  0.1986
 5918W        W 8068  16.888   1.949  35.647 -0.1858 -0.2046 -0.1214
 5919W        W 8069  19.063   3.435   6.976 -0.0933 -0.0015 -0.2199
 5920W        W 8070   2.266   2.272  32.299 -0.1534 -0.0527  0.0365
 5921W        W 8071   9.137   4.475   9.989 -0.2149  0.0280 -0.2315
 5922W        W 8072   8.355   5.299  13.524 -0.0160 -0.0059 -0.1062
 5923W        W 8073  24.994   1.268  32.725  0.1387 -0.1851 -0.0073
 5924W        W 8074   4.280   2.674   2.135  0.1452 -0.0323 -0.1348
 5925W        W 8075   7.001   3.934   5.746 -0.0020  0.1937  0.2162
 5926W        W 8076   5.930   2.321   6.863  0.3365 -0.2457 -0.0698
 5927W        W 8077  11.797   0.768  29.873 -0.0946 -0.1048 -0.0585
 5928W        W 8078  19.717   5.430  21.142  0.3298 -0.0602  0.0458
 5929W        W 8079   5.305   4.378  22.376  0.1979  0.0856 -0.4590
 5930W        W 8080  23.974   6.401   3.992 -0.1003 -0.0030 -0.3214
 5931W        W 8081   8.300   3.702  20.943 -0.1041  0.1166 -0.1138
 5932W        W 8082   7.607   0.131  20.869 -0.0006 -0.0525  0.3692
 5933W        W 8083  15.322   1.265  27.668  0.2371  0.3881  0.1647
 5934W        W 8084  25.416   5.589  23.324  0.1709 -0.1776  0.0561
 5935W        W 8085   7.252   3.432  24.364 -0.1402  0.0660 -0.0284
 5936W        W 8086  10.648   0.784   6.083 -0.1779 -0.0934 -0.0665
 5937W        W 8087  21.111   3.740  26.749 -0.0180 -0.1563  0.2378
 5938W        W 8088   6.247   2.898  25.411  0.2674  0.1377  0.5247
 5939W        W 8089   1.273   3.581   5.574  0.0063  0.0360 -0.1725
 5940W        W 8090   7.505   4.250  12.365 -0.0332  0.0090  0.0686
 5941W        W 8091  13.139   6.187  31.304  0.1632 -0.0355  0.0338
 5942W        W 8092  10.464   2.584  22.275 -0.0205 -0.1050 -0.1552
 5943W        W 8093  22.117   4.015  20.958 -0.2185  0.2087  0.0164
 5944W        W 8094   4.635   1.732   4.057  0.0180  0.1541 -0.2148
 5945W        W 8095  24.678   6.304  11.132 -0.0764  0.0996  0.1369
 5946W        W 8096  12.953   0.737  29.487 -0.1227 -0.2150  0.1199
 5947W        W 8097  17.934   4.335  10.787 -0.0218 -0.1151  0.0634
 5948W        W 8098   9.705   4.007   7.843 -0.1499  0.0496  0.0515
 5949W        W 8099  11.923   3.068  26.040 -0.2212 -0.0064 -0.1027
 5950W        W 8100  26.023   0.229  31.311  0.1056  0.0124  0.1051
 5951W        W 8101   2.524   0.147   2.782 -0.0794 -0.1794  0.1923
 5952W        W 8102   3.818   2.186  32.711  0.5192 -0.1015 -0.0689
 5953W        W 8103  25.586   1.134  29.748  0.1257 -0.2132 -0.1331
 5954W        W 8104   7.800   0.215  28.855  0.3897 -0.2671 -0.0612
 5955W        W 8105   0.154   4.314  33.584  0.3916  0.3359  0.0037
 5956W        W 8106  23.342   3.536   2.596 -0.1073 -0.4984 -0.1297
 5957W        W 8107   8.027   4.385   5.046  0.0725 -0.2686  0.0587
 5958W        W 8108  13.283   0.368  11.547 -0.1338  0.2271  0.1648
 5959W        W 8109  18.369   6.077  35.118 -0.1699  0.0305  0.1067
 5960W        W 8110  11.205   4.515   9.464  0.1758 -0.2044 -0.1125
 5961W        W 8111   4.530   1.488  24.469 -0.1053  0.1211 -0.0232
 5962W        W 8112   8.199   2.551  12.889 -0.5124  0.1116  0.1287
 5963W        W 8113   4.612   4.876   4.272 -0.1471 -0.1977 -0.0638
 5964W        W 8114   7.328   1.130  28.950  0.1200  0.1030  0.0792
 5965W        W 8115   3.734   0.103  21.894  0.0633 -0.2425 -0.0569
 5966W        W 8116  23.354   2.328  33.199 -0.2229  0.0078  0.1611
 5967W        W 8117  10.874   6.542  30.666  0.0088  0.0137 -0.0209
 5968W        W 8118  24.704   0.161  14.466  0.1349  0.0464 -0.2134
 5969W        W 8119  22.117   4.081   4.554  0.0503  0.1873  0.0554
 5970W        W 8120  25.382   2.333  35.748  0.2291 -0.0765  0.0584
 5971W        W 8121   6.138   3.253  35.116 -0.1101 -0.0931 -0.2624
 5972W        W 8122   7.942   0.221  23.448  0.3800 -0.1453 -0.1837
 5973W        W 8123  11.630   2.586  23.927  0.3548 -0.0595  0.1248
 5974W        W 8124  24.888   5.740  22.622 -0.0120  0.2607 -0.0458
 5975W        W 8125   4.755   4.269   0.830  0.0922 -0.0361 -0.2146
 5976W        W 8126   7.345   3.475   8.685 -0.1951  0.4385 -0.1333
 5977W        W 8127  11.178   4.208  23.839  0.2073 -0.1025 -0.2494
 5978W        W 8128  24.050   5.121   7.929 -0.3691 -0.3137  0.2828
 5979W        W 8129  14.307   5.719  13.001  0.2670 -0.2344 -0.3335
 5980W        W 8130   9.962   3.222   1.768 -0.0877 -0.0269  0.3974
 5981W        W 8131  21.050   1.917  33.450 -0.1120 -0.1193  0.2108
 5982W        W 8132   7.733   3.072  13.744  0.0110 -0.2204  0.0178
 5983W        W 8133  21.731   2.999   4.394  0.1298  0.2165 -0.0495
 5984W        W 8134  18.011   2.395   7.810 -0.0696  0.0801  0.0267
 5985W        W 8135  13.632   5.854  11.072 -0.0057  0.2141  0.2715
 5986W        W 8136  17.841   1.581  14.009 -0.0354  0.3550  0.0532
 5987W        W 8137  25.831   4.012   6.354  0.5284  0.0991 -0.2267
 5988W        W 8138   0.819   1.421  28.706  0.0069 -0.2598 -0.1317
 5989W        W 8139  23.229   3.176  13.831 -0.1891  0.4284 -0.0651
 5990W        W 8140   0.375   2.823  23.586  0.0172 -0.2106  0.0842
 5991W        W 8141   8.743   2.402  15.340 -0.1917 -0.3535 -0.2853
 5992W        W 8142   4.359   3.881   3.766 -0.0520  0.1282 -0.1579
 5993W        W 8143   1.797   4.645  34.273  0.2403 -0.0099  0.1732
 5994W        W 8144  22.454   4.007   2.662 -0.1613  0.0122 -0.0990
 5995W        W 8145  16.531   0.278   8.760 -0.0568 -0.0729  0.0858
 5996W        W 8146   4.994   4.434  21.555 -0.0607 -0.4234 -0.0063
 5997W        W 8147  12.851   4.566  34.686 -0.2285  0.0564 -0.1835
 5998W        W 8148   7.772   2.743  28.569  0.1552  0.0745 -0.1057
 5999W        W 8149  14.284   0.627   3.310 -0.3845  0.1854 -0.0544
 6000W        W 8150  20.199   4.250   8.149  0.1959 -0.1528 -0.0111
 6001W        W 8151  21.148   3.915  28.404  0.2147 -0.1496  0.0627
 6002W        W 8152  11.918   6.423   3.867  0.1993  0.0378  0.1985
 6003W        W 8153  21.698   2.867  11.200  0.0257  0.4659 -0.1390
 6004W        W 8154  14.733   0.287  29.668  0.0820 -0.1642 -0.1451
 6005W        W 8155  14.158   2.566  25.044  0.3138  0.2170  0.1375
 6006W        W 8156  18.776   6.594  21.486 -0.1513 -0.0521  0.0881
 6007W        W 8157   9.667   4.772   6.766 -0.0282  0.2993  0.0278
 6008W        W 8158  18.506   5.756  24.860  0.0613 -0.0554 -0.2009
 6009W        W 8159  15.873   0.984  15.549  0.3626 -0.1208  0.0511
 6010W        W 8160  17.678   5.520  10.141 -0.0396 -0.2876 -0.4129
 6011W        W 8161  15.034   1.582  29.232  0.0338  0.2885 -0.3229
 6012W        W 8162  21.961   4.257   1.087 -0.0575 -0.1062 -0.0653
 6013W        W 8163  10.450   5.015   8.483 -0.1036 -0.1967  0.1247
 6014W        W 8164   6.071   0.706   9.384 -0.1316  0.3673  0.3455
 6015W        W 8165  11.207   4.812  32.679  0.0179  0.2851  0.0918
 6016W        W 8166  23.887   5.197  11.588 -0.1704 -0.1747  0.0807
 6017W        W 8167  22.669   0.967   8.686 -0.0103 -0.1213  0.1701
 6018W        W 8168   4.559   3.387   2.544  0.1258 -0.0216  0.1306
 6019W        W 8169  26.110   1.157   6.414  0.0694 -0.0914 -0.0880
 6020W        W 8170  21.920   0.795   0.473  0.5513 -0.2292 -0.5350
 6021W        W 8171   9.499   1.855   2.965 -0.1146 -0.1106 -0.3701
 6022W        W 8172  12.561   6.313   1.649 -0.1432  0.2145 -0.2728
 6023W        W 8173   2.230   6.108  23.193  0.0236 -0.2050 -0.1593
 6024W        W 8174   9.312   1.953   0.668 -0.0510 -0.0665 -0.0672
 6025W        W 8175  21.733   1.707   0.233 -0.0444 -0.0155 -0.0254
 6026W        W 8176  12.136   3.051  34.755 -0.1402 -0.1019  0.0350
 6027W        W 8177  11.120   2.968   9.953 -0.0822 -0.1579  0.0267
 6028W        W 8178   0.141   5.559   9.391  0.1355  0.2422 -0.0026
 6029W        W 8179   8.559   1.170  10.804 -0.1872  0.1838 -0.2241
 6030W        W 8180   2.398   1.475  31.920 -0.1735  0.0868 -0.0117
 6031W        W 8181   7.436   5.962  11.844  0.0029  0.3459 -0.3928
 6032W        W 8182   8.062   5.408  24.437  0.1024  0.1567  0.5124
 6033W        W 8183  23.755   2.491  28.736 -0.2972  0.1957  0.2272
 6034W        W 8184  15.555   2.816  14.028  0.0844  0.1775 -0.1554
 6035W        W 8185   4.254   3.464  12.214  0.0106 -0.5384 -0.0935
 6036W        W 8186  25.389   3.795  35.398  0.2594 -0.0376 -0.1132
 6037W        W 8187   2.349   0.070  13.370  0.2572 -0.2198 -0.1131
 6038W        W 8188  15.018   1.598  14.347 -0.0632  0.3068 -0.2130
 6039W        W 8189  17.795   6.082   4.076  0.0593  0.3918 -0.0778
 6040W        W 8190  23.662   3.150  26.087  0.4325  0.0061 -0.0083
 6041W        W 8191  22.413   5.041  30.810 -0.0672 -0.3123 -0.2565
 6042W        W 8192   7.715   2.225   6.834  0.2033 -0.1931 -0.1398
 6043W        W 8193   0.572   6.556  33.108 -0.0862  0.0641 -0.0664
 6044W        W 8194   6.103   0.744  23.765 -0.1598  0.0202  0.0031
 6045W        W 8195   2.905   4.232   5.343  0.0287  0.1305 -0.4115
 6046W        W 8196   7.285   0.450   7.487  0.0470 -0.1208 -0.1683
 6047W        W 8197  21.240   5.051   3.102 -0.4709 -0.0908 -0.0400
 6048W        W 8198  25.424   6.219  25.941  0.2278 -0.0410  0.3678
 6049W        W 8199  19.784   4.554  30.318 -0.4161  0.0439  0.1772
 6050W        W 8200  15.516   4.657  33.581  0.0528 -0.0673  0.0466
 6051W        W 8201  16.055   2.961  24.286 -0.2425  0.0423  0.0539
 6052W        W 8202  16.113   3.233  15.212  0.0795 -0.2828 -0.4504
 6053W        W 8203  10.563   3.541  32.525 -0.1396  0.1420 -0.1025
 6054W        W 8204  16.282   2.969   7.482 -0.0217 -0.0184 -0.3528
 6055W        W 8205  17.562   3.065  25.282  0.2311  0.3192 -0.1343
 6056W        W 8206  20.397   3.509  30.945  0.0573  0.0647  0.0585
 6057W        W 8207  13.765   4.709   4.288  0.0176 -0.1161 -0.1966
 6058W        W 8208  16.838   5.330   8.655  0.5158  0.0913  0.0257
 6059W        W 8209  16.950   2.404  25.559  0.1053  0.0854 -0.1233
 6060W        W 8210   6.878   5.330  32.958  0.2179  0.2122  0.0025
 6061W        W 8211   9.443   5.249  11.448  0.2548 -0.2793 -0.0695
 6062W        W 8212  13.416   2.418   6.045  0.0221  0.1694 -0.0209
 6063W        W 8213   1.063   2.215  13.375 -0.0002 -0.0129 -0.0972
 6064W        W 8214   8.774   1.486  23.667 -0.1109 -0.1972  0.2193
 6065W        W 8215   8.616   3.240  27.435  0.0426 -0.3208 -0.1794
 6066W        W 8216  15.473   0.463   9.276  0.0318  0.3735 -0.0949
 6067W        W 8217  25.902   6.049  27.304  0.0941  0.1046 -0.0502
 6068W        W 8218  17.230   5.198   8.389  0.0549  0.0094  0.2093
 6069W        W 8219  12.839   2.306   1.390 -0.1363  0.3313 -0.0138
 6070W        W 8220  14.032   6.393  30.851  0.1347 -0.1732  0.0177
 6071W        W 8221  23.068   3.250  29.506  0.1051  0.4801  0.0692
 6072W        W 8222  26.210   2.772  15.065 -0.3304 -0.0061 -0.0338
 6073W        W 8223  10.528   1.737  23.745 -0.1189 -0.1673 -0.0717
 6074W        W 8224  20.114   5.965  35.370  0.3321  0.2331  0.0669
 6075W        W 8225  10.130   4.150  20.760  0.0509  0.0994 -0.0175
 6076W        W 8226   3.595   3.890   2.263 -0.3840 -0.0371  0.1087
 6077W        W 8227  16.189   5.101  20.842 -0.0522  0.1743 -0.1170
 6078W        W 8228   6.696   0.905  31.907 -0.1184 -0.0261  0.0156
 6079W        W 8229  15.966   4.932  10.469 -0.0898  0.6008  0.0806
 6080W        W 8230  18.942   3.731  30.866  0.0412 -0.1038 -0.0834
 6081W        W 8231   7.320   5.064   5.149  0.0122 -0.2303  0.1285
 6082W        W 8232  23.899   6.317  25.135  0.1866  0.0388  0.0009
 6083W        W 8233  10.312   2.626  24.630  0.0538  0.1072  0.1784
 6084W        W 8234   2.113   0.483  34.425  0.0406 -0.0925  0.1423
 6085W        W 8235  11.317   5.944   9.889  0.0363  0.0949  0.1238
 6086W        W 8236   9.767   4.370  32.704 -0.0530 -0.1042  0.1734
 6087W        W 8237   2.795   3.540   6.012  0.2298 -0.1058 -0.0680
 6088W        W 8238  23.019   1.703  26.266 -0.0657 -0.3395  0.0245
 6089W        W 8239   6.900   4.918  25.063 -0.1173 -0.0800 -0.0854
 6090W        W 8240  24.133   1.995   7.016 -0.1952  0.2491 -0.1639
 6091W        W 8241   8.413   4.115   2.778  0.0760 -0.2796 -0.1502
 6092W        W 8242  15.137   4.346  29.769  0.0473  0.1835  0.0332
 6093W        W 8243   3.272   0.084   6.446 -0.2315 -0.1907  0.1550
 6094W        W 8244  18.411   1.325  10.734 -0.0434 -0.1419 -0.1497
 6095W        W 8245  22.359   2.909   7.260 -0.2854  0.0921  0.0768
 6096W        W 8246   4.014   6.000   3.712  0.1699 -0.1887 -0.1547
 6097W        W 8247  17.204   4.108  29.080  0.2163  0.0983  0.2167
 6098W        W 8248  20.246   1.079   3.517 -0.3354 -0.0670 -0.0170
 6099W        W 8249  25.870   3.335   1.807 -0.2603  0.1009 -0.1484
 6100W        W 8250  15.758   1.024  14.503 -0.0389  0.1366  0.1845
 6101W        W 8251  24.245   3.903  24.229 -0.3553 -0.1966  0.0279
 6102W        W 8252   9.773   6.285  30.759  0.2589 -0.2884  0.0965
 6103W        W 8253  17.472   0.752  34.269  0.2871 -0.0247  0.1973
 6104W        W 8254  15.930   4.944  33.038 -0.1164 -0.2594 -0.0957
 6105W        W 8255   4.774   2.049  30.177 -0.1035 -0.0032 -0.2325
 6106W        W 8256   3.680   0.523   5.781 -0.1079  0.1792 -0.0773
 6107W        W 8257   3.407   5.871  19.951 -0.1996 -0.0525 -0.1165
 6108W        W 8258  13.046   3.957   8.022 -0.1340  0.0607  0.1080
 6109W        W 8259  18.411   3.820  20.766  0.1388  0.2256 -0.0512
 6110W        W 8260   1.418   6.269  10.505 -0.0387  0.2023 -0.3533
 6111W        W 8261   3.703   5.281   4.019  0.0618 -0.1011 -0.1061
 6112W        W 8262   4.859   4.501  22.067  0.2093 -0.0542 -0.0915
 6113W        W 8263   6.070   3.167  34.050  0.0123  0.0201  0.1247
 6114W        W 8264   8.392   0.863  33.906  0.0434  0.1394  0.1063
 6115W        W 8265  16.070   0.181  28.981 -0.0856  0.2429  0.2305
 6116W        W 8266  14.067   4.314  12.599  0.0731 -0.1589 -0.3328
 6117W        W 8267  18.477   2.820  24.193  0.1639 -0.1840  0.0441
 6118W        W 8268  19.754   3.212   6.933  0.0082  0.4448 -0.0178
 6119W        W 8269  13.278   2.571  22.816 -0.1577 -0.4722  0.1109
 6120W        W 8270  24.174   2.237  28.793 -0.0535  0.3887 -0.2250
 6121W        W 8271  17.636   0.503  33.861  0.2614  0.4144  0.0184
 6122W        W 8272  22.027   1.367  26.574  0.0716 -0.0651  0.0802
 6123W        W 8273  18.145   1.623  25.761 -0.3622  0.3759  0.0468
 6124W        W 8274   7.136   5.769   9.710  0.0860 -0.2241 -0.2461
 6125W        W 8275  17.124   0.904  25.409 -0.1685 -0.1539 -0.0374
 6126W        W 8276  17.060   3.702  29.294  0.0413  0.4244 -0.2297
 6127W        W 8277  22.727   6.370   6.272  0.1078 -0.0266 -0.0097
 6128W        W 8278   2.978   1.906   0.869  0.0371 -0.0948 -0.0842
 6129W        W 8279  15.107   2.079  32.734  0.5289  0.0736 -0.1546
 6130W        W 8280  12.751   2.894  13.196 -0.0886  0.2412 -0.2981
 6131W        W 8281  24.471   3.311  14.708  0.1331 -0.2618  0.0584
 6132W        W 8282   1.484   4.563  21.791 -0.0750 -0.0835  0.0930
 6133W        W 8283  26.233   1.632  23.755 -0.1174  0.1566  0.2882
 6134W        W 8284  24.721   2.081  33.303 -0.0733  0.0907  0.3484
 6135W        W 8285  11.944   3.476   9.053  0.0685 -0.0189 -0.1210
 6136W        W 8286   6.213   4.848  23.771 -0.0870  0.0515  0.2517
 6137W        W 8287  21.586   5.878   4.737 -0.0768  0.1656  0.0585
 6138W        W 8288  23.600   5.298  31.300 -0.0628  0.0431 -0.2050
 6139W        W 8289   6.475   6.132   9.981 -0.1061  0.1600  0.1929
 6140W        W 8290  21.088   5.409   4.428 -0.2706 -0.3996 -0.0306
 6141W        W 8291   8.013   6.335  27.335  0.1201  0.2501 -0.5171
 6142W        W 8292   7.555   2.817   6.057 -0.1100  0.2060 -0.0423
 6143W        W 8293  23.856   4.715   1.459 -0.2477 -0.0859  0.2247
 6144W        W 8294  26.157   4.124   9.500 -0.0078 -0.2468 -0.1419
 6145W        W 8295  20.284   6.564   4.201 -0.1167 -0.0127  0.0262
 6146W        W 8296   4.283   2.320  25.807  0.0844  0.0644 -0.1164
 6147W        W 8297  16.751   1.788  27.849  0.3216  0.1458 -0.1829
 6148W        W 8298   1.268   5.083  26.774 -0.2422  0.0600 -0.1998
 6149W        W 8299   7.887   5.934  25.383  0.0368  0.2413 -0.1040
 6150W        W 8300  18.311   3.109  31.928  0.1917 -0.2878  0.0353
 6151W        W 8301  20.182   3.774  27.750 -0.1449 -0.1878 -0.1272
 6152W        W 8302   8.479   5.879   5.680  0.1493  0.1877  0.1804
 6153W        W 8303  13.244   5.409   7.932 -0.0792  0.0781  0.1306
 6154W        W 8304  14.925   6.211  22.470 -0.0878  0.4411 -0.0129
 6155W        W 8305  11.914   0.811   4.030 -0.1041  0.1626  0.0175
 6156W        W 8306  14.930   2.380  34.337  0.1298 -0.0850 -0.2120
 6157W        W 8307   4.362   0.191   3.482 -0.0647 -0.0902 -0.0288
 6158W        W 8308  15.621   1.220  21.928  0.0571  0.1927  0.0656
 6159W        W 8309  25.372   2.928   4.193  0.2931  0.3557  0.0063
 6160W        W 8310   7.530   3.920  23.446 -0.0359 -0.3255 -0.2110
 6161W        W 8311  20.684   5.705   5.255 -0.2885 -0.0368  0.0657
 6162W        W 8312  15.053   5.114   4.636 -0.0458  0.1338 -0.2044
 6163W        W 8313  12.172   2.774   6.077  0.0279  0.0612  0.0168
 6164W        W 8314  26.217   0.919  28.170  0.1931  0.2434 -0.0214
 6165W        W 8315  21.583   3.718  29.975 -0.0061  0.1555 -0.1633
 6166W        W 8316  17.106   3.922  25.315  0.0895  0.3386  0.5076
 6167W        W 8317  25.725   2.349  19.731  0.1112 -0.0238 -0.1195
 6168W        W 8318   0.563   5.818  32.515  0.3340  0.0219 -0.0290
 6169W        W 8319  21.556   6.497  14.382 -0.6245 -0.0388 -0.0836
 6170W        W 8320   6.666   4.357   4.370 -0.1776  0.2299  0.1767
 6171W        W 8321   3.941   1.678  14.542  0.0925 -0.0851  0.1272
 6172W        W 8322   3.776   3.264  12.386  0.2334  0.2272  0.1476
 6173W        W 8323  23.292   1.333  20.800  0.2211  0.2106  0.0853
 6174W        W 8324   9.554   3.303   3.729  0.0639 -0.1951  0.1660
 6175W        W 8325  23.232   2.727  26.218 -0.2484  0.1685  0.1903
 6176W        W 8326  19.908   1.662   9.451 -0.2013  0.2837 -0.3076
 6177W        W 8327  24.305   3.021  35.008  0.0592  0.0402 -0.1132
 6178W        W 8328  22.276   0.416  12.172  0.0347 -0.2997  0.1050
 6179W        W 8329   0.104   3.789  33.635 -0.4232 -0.1043  0.0309
 6180W        W 8330   9.515   5.744  34.133 -0.0103 -0.0123 -0.0823
 6181W        W 8331  25.757   6.159  35.141 -0.1951 -0.2616  0.0093
 6182W        W 8332   3.988   4.170  25.003  0.1533  0.1548  0.0370
 6183W        W 8333  10.481   5.978   1.625  0.1320  0.3044 -0.1252
 6184W        W 8334  14.846   5.550   5.986 -0.3193 -0.0898  0.0622
 6185W        W 8335  23.898   5.990  24.099 -0.5026 -0.2269 -0.1974
 6186W        W 8336   1.397   6.596  32.957 -0.2166 -0.1976 -0.0054
 6187W        W 8337   7.566   3.830  10.534  0.0273  0.0571 -0.0097
 6188W        W 8338   8.973   3.492   0.922  0.1217 -0.1463 -0.1138
 6189W        W 8339  11.197   4.746  24.161  0.1823  0.0122 -0.1799
 6190W        W 8340  18.578   5.731  23.479  0.0020 -0.1215  0.3098
 6191W        W 8341   7.504   5.266  15.155 -0.1075 -0.1153  0.1240
 6192W        W 8342   7.167   4.696   8.175 -0.1692 -0.1010  0.0900
 6193W        W 8343  11.636   4.209  20.990 -0.4245 -0.3148 -0.3346
 6194W        W 8344  14.437   0.970  10.144 -0.0642 -0.0452 -0.0524
 6195W        W 8345  10.511   5.505   6.662 -0.2098  0.0619 -0.0075
 6196W        W 8346  14.841   1.502  26.728 -0.3060  0.0959 -0.0887
 6197W        W 8347  13.069   6.312  11.039  0.0875 -0.0247 -0.1377
 6198W        W 8348  16.133   1.143  13.513 -0.0973  0.1880  0.1386
 6199W        W 8349  20.884   2.402  30.179  0.0495 -0.0885 -0.3356
 6200W        W 8350   6.054   4.778  10.228  0.2171 -0.1377  0.1664
 6201W        W 8351  25.021   3.339   9.079  0.3682 -0.3417  0.2730
 6202W        W 8352  14.256   6.574   9.611 -0.1822  0.2206  0.2981
 6203W        W 8353  20.988   0.174  16.072 -0.2394  0.2338  0.0720
 6204W        W 8354  24.947   5.910  29.183 -0.1162  0.0006  0.0376
 6205W        W 8355  10.925   0.163  25.536  0.0449 -0.1034  0.0731
 6206W        W 8356   0.056   4.328  33.111  0.0371 -0.2880 -0.0167
 6207W        W 8357  19.689   5.418  35.353  0.0073  0.2224 -0.1059
 6208W        W 8358   8.094   6.224   4.819 -0.1388 -0.1359  0.0701
 6209W        W 8359  17.656   6.250  30.682  0.4960  0.2587  0.0361
 6210W        W 8360  23.418   3.783  35.788 -0.0024 -0.0310  0.1390
 6211W        W 8361  16.256   4.593   7.050 -0.1301 -0.0148 -0.2840
 6212W        W 8362   0.836   5.707   3.784 -0.1711 -0.0313 -0.1702
 6213W        W 8363  13.172   5.996   6.043  0.0249  0.0830  0.1627
 6214W        W 8364  20.605   2.967  34.716 -0.1366  0.6009 -0.0823
 6215W        W 8365  14.615   3.218  36.102 -0.3344 -0.0995 -0.0346
 6216W        W 8366   5.652   4.355   1.024 -0.2095  0.0534 -0.4886
 6217W        W 8367   0.436   2.783  35.323 -0.1737 -0.0765 -0.0255
 6218W        W 8368  15.506   3.610  20.981  0.1168  0.0936  0.1569
 6219W        W 8369  17.659   3.995  21.369 -0.0362 -0.0401 -0.0127
 6220W        W 8370   9.344   1.242   1.695  0.2074  0.0370 -0.2485
 6221W        W 8371  26.108   1.909  14.467 -0.2241 -0.0545  0.3439
 6222W        W 8372  10.600   4.837  33.192 -0.3657 -0.0117 -0.1543
 6223W        W 8373  25.110   1.777   8.864 -0.1824 -0.0099 -0.1185
 6224W        W 8374   5.932   0.190   5.786  0.3836 -0.3947  0.0756
 6225W        W 8375   6.814   0.119   6.926 -0.2272  0.1336 -0.0499
 6226W        W 8376  10.309   2.173  10.861  0.2005  0.2326 -0.0884
 6227W        W 8377  19.186   2.329  12.708 -0.0618 -0.0603 -0.0982
 6228W        W 8378  20.812   5.962  28.090  0.0078  0.5215  0.3653
 6229W        W 8379  10.761   3.693  10.782  0.2695  0.1316 -0.2021
 6230W        W 8380  21.397   0.141  28.239 -0.0489 -0.1743 -0.2946
 6231W        W 8381   3.101   1.180  34.754 -0.4044 -0.2005  0.1325
 6232W        W 8382  13.037   0.060  33.998  0.1826  0.0555 -0.0168
 6233W        W 8383  12.643   3.601   8.719  0.1358 -0.1810 -0.0344
 6234W        W 8384  19.610   1.122  25.207 -0.0862  0.2790 -0.0650
 6235W        W 8385   3.443   4.109   1.828 -0.0627 -0.1649 -0.1351
 6236W        W 8386  13.933   2.198   6.068 -0.2152  0.2152  0.1667
 6237W        W 8387   9.263   5.367   9.441  0.0797  0.2492 -0.1957
 6238W        W 8388  20.489   0.241   6.874  0.0255 -0.0740  0.0964
 6239W        W 8389   0.397   1.090  11.767 -0.1477 -0.1566  0.1122
 6240W        W 8390  20.645   1.781  24.841  0.2820  0.0862 -0.0954
 6241W        W 8391   2.870   3.091  11.625 -0.1794 -0.0541 -0.1340
 6242W        W 8392  19.583   0.947  29.960 -0.0636  0.1332 -0.0763
 6243W        W 8393  14.706   3.134  35.449 -0.2809  0.1597 -0.0203
 6244W        W 8394  12.764   3.603   6.969  0.0387 -0.2589  0.1780
 6245W        W 8395  23.115   2.702   6.903  0.1745 -0.0488  0.0419
 6246W        W 8396   9.958   5.836   2.798 -0.2498  0.3231  0.3785
 6247W        W 8397  19.888   5.970  21.679  0.1167  0.0998 -0.0410
 6248W        W 8398  24.606   3.023   7.509 -0.0509 -0.2413  0.1631
 6249W        W 8399   1.811   6.400   7.975 -0.0496  0.0948  0.0235
 6250W        W 8400  25.338   1.096  25.769 -0.1406  0.0421  0.0868
 6251W        W 8401  23.077   1.947  31.979  0.1514 -0.2546 -0.0404
 6252W        W 8402  16.622   2.095   3.203  0.0760  0.1442 -0.1365
 6253W        W 8403  23.515   1.083  21.749 -0.0086 -0.0503 -0.0366
 6254W        W 8404  13.633   3.815  23.490  0.0203 -0.3939 -0.0855
 6255W        W 8405   1.230   4.234   7.856  0.0777  0.0381 -0.4715
 6256W        W 8406  17.786   5.378  13.098  0.0065 -0.0013  0.0288
 6257W        W 8407   0.843   0.553   7.559 -0.1266  0.1006  0.2730
 6258W        W 8408   0.566   4.051  35.343  0.2710  0.0030  0.0044
 6259W        W 8409   7.617   5.366  10.233 -0.1601 -0.2136  0.0190
 6260W        W 8410   3.657   3.883   9.430 -0.1224 -0.0209  0.1606
 6261W        W 8411  10.655   5.315   6.170 -0.0155  0.0373 -0.2528
 6262W        W 8412  20.829   5.981   3.678  0.0002 -0.0343  0.0954
 6263W        W 8413  22.540   1.143  30.187  0.0509 -0.1158 -0.0418
 6264W        W 8414  14.862   3.418  29.037  0.3597 -0.1039  0.0468
 6265W        W 8415  20.785   0.394  22.499  0.3666 -0.0878 -0.1752
 6266W        W 8416   7.524   1.585  22.656  0.0419 -0.0948  0.0645
 6267W        W 8417  11.792   5.369   9.857  0.2365  0.1605 -0.2132
 6268W        W 8418  15.725   0.956  27.379  0.0323 -0.3607  0.0442
 6269W        W 8419   8.285   6.387  31.935  0.0551  0.0440  0.0020
 6270W        W 8420  10.969   2.001  33.659  0.2834  0.1855 -0.0622
 6271W        W 8421  15.320   2.786  22.630 -0.2580  0.0413 -0.0418
 6272W        W 8422  16.589   5.627  10.115 -0.1471 -0.0367  0.0815
 6273W        W 8423  26.159   3.640  23.942 -0.1161 -0.0125 -0.1347
 6274W        W 8424   0.356   2.295  28.211 -0.1170 -0.3010 -0.0096
 6275W        W 8425  17.407   1.594   3.524 -0.1990  0.0493 -0.0108
 6276W        W 8426   6.909   5.778  35.148 -0.0942  0.0656  0.0537
 6277W        W 8427  10.044   3.281  27.998 -0.2332  0.1074  0.0354
 6278W        W 8428   0.424   3.989  12.297  0.2220 -0.0555 -0.1293
 6279W        W 8429  19.515   3.326   9.003 -0.2597  0.0897  0.2132
 6280W        W 8430  14.471   2.800  32.330 -0.0204 -0.1075 -0.1291
 6281W        W 8431   3.064   4.185   8.005  0.0046  0.0433  0.0427
 6282W        W 8432  21.549   0.226  35.481 -0.1692  0.1351 -0.0201
 6283W        W 8433  20.934   0.461  36.047  0.0838  0.2299  0.0349
 6284W        W 8434   6.214   1.901  35.718  0.2580 -0.4426 -0.1998
 6285W        W 8435   9.960   1.328  34.026 -0.3726 -0.0767  0.1215
 6286W        W 8436  12.397   2.630  14.661 -0.0004  0.1364 -0.0067
 6287W        W 8437  22.337   1.480   9.227  0.0554 -0.0059 -0.3165
 6288W        W 8438  21.053   0.366  28.589 -0.1431  0.3052  0.2313
 6289W        W 8439   2.137   5.263   5.521  0.1504 -0.0000 -0.0825
 6290W        W 8440   1.831   1.483   6.451 -0.0892 -0.0714  0.0442
 6291W        W 8441   3.703   0.171   6.128  0.1828 -0.1533  0.3466
 6292W        W 8442  24.971   0.158  31.367  0.0576 -0.1202 -0.0006
 6293W        W 8443  17.856   0.619   9.708 -0.2560  0.1434 -0.0700
 6294W        W 8444  14.541   1.836  21.950 -0.6153 -0.1513 -0.2529
 6295W        W 8445  17.461   3.079  24.354 -0.1298  0.2602 -0.0829
 6296W        W 8446  14.309   5.600   7.422  0.2293 -0.1073 -0.4784
 6297W        W 8447  12.413   2.018  35.572  0.2205 -0.1856  0.0540
 6298W        W 8448   6.988   0.718   5.317  0.0191  0.0227  0.0180
 6299W        W 8449  18.079   1.997   8.904 -0.0033 -0.0982 -0.1634
 6300W        W 8450  20.581   2.702   0.075  0.2555  0.0058 -0.0279
 6301W        W 8451  15.791   3.908  31.801  0.1721  0.0759  0.0901
 6302W        W 8452  18.540   2.773  35.810 -0.0188  0.0291 -0.1017
 6303W        W 8453  13.992   3.141  34.488  0.1710  0.2300 -0.0711
 6304W        W 8454  10.470   3.426  31.629  0.0524 -0.3081  0.0474
 6305W        W 8455   5.717   4.512  26.240 -0.1052 -0.0374  0.0595
 6306W        W 8456  12.696   3.504   8.069 -0.0406  0.3367  0.0597
 6307W        W 8457  21.636   6.195   9.912 -0.0339 -0.3092  0.3930
 6308W        W 8458  22.014   5.133   4.380 -0.2172 -0.0842 -0.2545
 6309W        W 8459  12.705   2.724  29.391  0.0274  0.1566 -0.3665
 6310W        W 8460   9.539   0.249   2.047  0.2169 -0.0016 -0.2113
 6311W        W 8461  20.187   4.557   3.765  0.1506 -0.5174 -0.1707
 6312W        W 8462   2.760   5.605  31.624 -0.1962  0.3430 -0.1958
 6313W        W 8463   5.929   3.364  34.507  0.1372  0.3997 -0.0274
 6314W        W 8464  23.485   0.849  25.892  0.1658 -0.0289 -0.0268
 6315W        W 8465   7.852   2.761  11.152  0.0357 -0.3068  0.2958
 6316W        W 8466  16.061   0.864  21.666 -0.0144  0.0571  0.2902
 6317W        W 8467   7.006   1.093   1.820  0.0492 -0.0750  0.0396
 6318W        W 8468   2.838   3.249  27.698  0.0345 -0.0907 -0.1882
 6319W        W 8469  16.370   5.561  15.826 -0.0940 -0.0379  0.0238
 6320W        W 8470  21.617   0.757  14.562 -0.2385  0.0668  0.2278
 6321W        W 8471   7.194   1.908  22.968  0.1745 -0.0088  0.0096
 6322W        W 8472   6.802   3.174  21.654  0.3704  0.0271 -0.1639
 6323W        W 8473   8.733   0.990  34.481  0.1212 -0.3550 -0.0421
 6324W        W 8474  24.867   5.756   7.720  0.3860  0.2180  0.1610
 6325W        W 8475   9.454   2.812   3.381  0.0133  0.2417  0.1503
 6326W        W 8476  17.972   4.710  33.125 -0.0377  0.2833 -0.2854
 6327W        W 8477   1.335   1.218  23.466  0.4470  0.1685 -0.0478
 6328W        W 8478   1.998   3.057  26.109 -0.1558  0.0975 -0.1948
 6329W        W 8479  14.474   0.291   0.219  0.2582  0.1006  0.0812
 6330W        W 8480  14.675   3.408  26.676  0.0015 -0.1694 -0.0329
 6331W        W 8481  13.237   1.810  27.419 -0.2249  0.4777  0.0609
 6332W        W 8482  11.414   2.367  23.000 -0.2195  0.0323 -0.0397
 6333W        W 8483  18.229   4.562   4.912 -0.2359 -0.1254  0.2137
 6334W        W 8484  21.838   3.619  21.710 -0.1427 -0.0354  0.0082
 6335W        W 8485   1.417   2.796  12.581 -0.0495 -0.2107  0.0126
 6336W        W 8486  21.302   4.830  33.700  0.0302  0.0605 -0.0616
 6337W        W 8487  16.407   4.491  23.353  0.2283 -0.1001  0.0974
 6338W        W 8488   5.766   0.948   3.606  0.1980 -0.4538  0.0825
 6339W        W 8489  24.834   1.186  25.574  0.0478 -0.2361 -0.2195
 6340W        W 8490   9.893   2.297   9.868 -0.1603 -0.1067  0.0402
 6341W        W 8491  20.904   6.362  26.460  0.0222  0.0200  0.0585
 6342W        W 8492   8.762   5.955  13.774  0.2356  0.3073 -0.2636
 6343W        W 8493  11.464   0.205  10.438  0.0662 -0.4620 -0.0786
 6344W        W 8494   3.501   4.337   9.272 -0.1309  0.2366 -0.2349
 6345W        W 8495  12.771   0.720   7.385  0.0470 -0.3540 -0.2151
 6346W        W 8496   8.655   4.368  29.647  0.0126 -0.1141  0.1215
 6347W        W 8497  16.697   0.335  21.260  0.3886  0.0542  0.1371
 6348W        W 8498  25.103   1.115  13.514  0.0506  0.2616  0.0970
 6349W        W 8499  23.653   4.818   7.645 -0.0257 -0.1572 -0.0271
 6350W        W 8500  21.766   2.251   9.492 -0.0788 -0.0827 -0.2232
 6351W        W 8501  19.107   0.894  34.742  0.2205 -0.1034  0.2079
 6352W        W 8502  19.524   3.099  33.747 -0.1485  0.1786  0.0388
 6353W        W 8503  10.450   3.486  33.383  0.1485  0.0909  0.1691
 6354W        W 8504  25.819   5.427  11.107 -0.2195  0.3496 -0.1666
 6355W        W 8505   8.415   6.206   4.119  0.1184 -0.1791 -0.0133
 6356W        W 8506  11.081   5.490   9.307 -0.0431  0.1352  0.1715
 6357W        W 8507   3.833   5.730  25.153 -0.1751 -0.0429 -0.1495
 6358W        W 8508  11.952   1.899   7.381 -0.0791  0.0524  0.2242
 6359W        W 8509   5.607   4.276  28.092 -0.0766  0.1275  0.0956
 6360W        W 8510  17.962   0.990  22.523  0.0225  0.2253 -0.0543
 6361W        W 8511   6.267   4.303   0.686 -0.0167 -0.0748 -0.0949
 6362W        W 8512  15.594   4.989  24.872  0.4313  0.1693  0.1729
 6363W        W 8513  22.413   2.276  26.052 -0.0741 -0.0934  0.0323
 6364W        W 8514  13.234   6.161  33.922  0.0550 -0.1381  0.3090
 6365W        W 8515  21.248   6.324   6.294  0.0668 -0.1696 -0.1950
 6366W        W 8516   5.006   3.179  14.158  0.0887 -0.0771  0.0399
 6367W        W 8517  10.880   1.522  27.508  0.0726  0.1159 -0.1009
 6368W        W 8518   2.183   3.730  26.564  0.1228  0.2577  0.1965
 6369W        W 8519   7.879   0.296   6.821 -0.0689  0.0634  0.0035
 6370W        W 8520   8.007   4.940  31.257  0.1902  0.3068 -0.0234
 6371W        W 8521   1.184   2.468   1.367  0.0353  0.1411  0.0282
 6372W        W 8522  14.857   3.347  11.091  0.1051 -0.2441 -0.0823
 6373W        W 8523   3.069   3.799   4.183 -0.0290 -0.0877  0.0256
 6374W        W 8524   8.939   3.108   8.113  0.1328  0.0581  0.2414
 6375W        W 8525   9.568   3.024  23.618  0.0109  0.2711 -0.1500
 6376W        W 8526   1.762   0.428  23.040 -0.2413 -0.0098 -0.0201
 6377W        W 8527   9.004   5.825  23.200  0.0745 -0.1809  0.1122
 6378W        W 8528   7.862   3.560   5.537  0.1028  0.2260 -0.1201
 6379W        W 8529  15.896   5.320  33.803  0.0972  0.1807 -0.2279
 6380W        W 8530   2.445   3.797  36.005 -0.2777 -0.0799 -0.0715
 6381W        W 8531   3.827   0.116  12.610 -0.1661  0.2251 -0.0990
 6382W        W 8532   6.123   3.122  12.862 -0.0604 -0.0801 -0.1928
 6383W        W 8533   8.355   3.633  15.405 -0.0035 -0.0018 -0.0173
 6384W        W 8534  13.847   6.458  11.686  0.1309  0.0458 -0.1145
 6385W        W 8535  22.429   3.141   8.981 -0.1153  0.0129 -0.4795
 6386W        W 8536  10.568   0.627  13.600  0.4710 -0.0980  0.0245
 6387W        W 8537  17.492   1.778  34.059  0.1432  0.1381 -0.1611
 6388W        W 8538   6.351   6.464  13.940 -0.0403  0.1024  0.1308
 6389W        W 8539  17.952   2.579  26.448  0.3520  0.0860  0.1079
 6390W        W 8540  10.961   4.550  27.697  0.0470 -0.1113 -0.0266
 6391W        W 8541  19.991   3.098  24.107  0.0113 -0.4503  0.1878
 6392W        W 8542   8.087   2.271  21.210  0.0539 -0.2414 -0.0643
 6393W        W 8543   4.899   6.035  12.335  0.1372  0.3177  0.0540
 6394W        W 8544  19.784   5.536  22.142 -0.2052  0.2085 -0.2235
 6395W        W 8545  12.206   5.260  35.099 -0.0346  0.1159 -0.2235
 6396W        W 8546  10.704   1.197  23.929 -0.1968 -0.1825  0.1642
 6397W        W 8547  22.597   5.564  22.355  0.0481 -0.1967 -0.0672
 6398W        W 8548  17.972   3.678  29.166  0.0871 -0.1589  0.0949
 6399W        W 8549   3.840   2.761   8.887  0.0588 -0.1079  0.0006
 6400W        W 8550   9.891   3.811  10.889  0.0458  0.0437  0.3685
 6401W        W 8551  15.884   6.243  29.374 -0.2821  0.1223 -0.0522
 6402W        W 8552  10.105   4.204  21.276 -0.2534 -0.1932 -0.0036
 6403W        W 8553   7.531   2.308   0.109 -0.0984  0.0800  0.1990
 6404W        W 8554   9.520   1.838   4.791  0.0574  0.0758  0.1670
 6405W        W 8555  21.613   3.865   6.609 -0.1121  0.0564  0.1106
 6406W        W 8556  10.000   0.071   1.782 -0.2457 -0.0933  0.1814
 6407W        W 8557  19.672   3.834   4.230 -0.1000 -0.2073 -0.2015
 6408W        W 8558   4.942   2.123   8.510  0.0247  0.1806  0.2895
 6409W        W 8559  24.258   1.511  29.986  0.0371  0.0533 -0.1249
 6410W        W 8560  23.814   1.612  35.893  0.0356  0.0244  0.0088
 6411W        W 8561  15.278   3.911   0.998  0.0836 -0.0845 -0.2455
 6412W        W 8562   5.021   1.744  10.420 -0.0855 -0.1093  0.0351
 6413W        W 8563  11.045   6.523  33.762  0.0184 -0.0415 -0.0722
 6414W        W 8564  12.702   5.268   9.931 -0.1718  0.0818  0.0514
 6415W        W 8565   2.483   2.131  20.595 -0.0488 -0.2904 -0.5096
 6416W        W 8566  13.921   1.030   7.299  0.0076  0.0580  0.4099
 6417W        W 8567   6.874   0.652  21.094 -0.2038  0.2081  0.0702
 6418W        W 8568   9.265   4.804   6.409  0.0039 -0.0223  0.0208
 6419W        W 8569  12.485   0.806   2.038  0.0890  0.0689  0.0377
 6420W        W 8570   7.972   5.859  26.966 -0.3308  0.4864 -0.2233
 6421W        W 8571   6.222   2.935  29.302 -0.0565 -0.4128 -0.3296
 6422W        W 8572  18.899   1.476  23.686  0.1462 -0.1922 -0.0001
 6423W        W 8573  16.296   5.936   4.305  0.0549  0.1357 -0.1128
 6424W        W 8574   5.218   5.709  13.521  0.1395 -0.1736 -0.2785
 6425W        W 8575  23.150   4.110  20.789  0.0009  0.2039 -0.2910
 6426W        W 8576  15.963   2.823   8.522  0.1507 -0.2663  0.0149
 6427W        W 8577   5.208   4.616   2.408 -0.0529 -0.0781  0.0854
 6428W        W 8578  21.742   3.974   0.277 -0.1546  0.0094 -0.0562
 6429W        W 8579  10.894   0.747   0.714  0.0607 -0.2521 -0.1934
 6430W        W 8580   0.061   2.260  27.787 -0.1417  0.0244 -0.0174
 6431W        W 8581   5.246   5.026  29.791  0.0938  0.0535  0.0489
 6432W        W 8582   8.954   3.835  22.243  0.1808 -0.2628  0.2737
 6433W        W 8583  14.384   3.929  34.032  0.0244 -0.0638  0.0767
 6434W        W 8584  24.760   5.966   0.989  0.0173  0.0805 -0.1384
 6435W        W 8585  11.472   5.176   6.333  0.0181  0.6624  0.1724
 6436W        W 8586   6.376   0.065   2.795 -0.1880 -0.1855  0.2183
 6437W        W 8587   8.253   5.989  32.783 -0.3051  0.3305 -0.0522
 6438W        W 8588  17.200   5.672   2.705 -0.0726  0.1171 -0.1134
 6439W        W 8589  25.196   0.131   2.651  0.0789 -0.1909 -0.0678
 6440W        W 8590  17.256   2.955   9.316 -0.2182 -0.0054  0.2406
 6441W        W 8591  18.388   1.992  23.625 -0.0644 -0.0423 -0.2001
 6442W        W 8592  25.150   3.853   1.825  0.2670 -0.1152 -0.2360
 6443W        W 8593  19.619   0.022  13.759 -0.3355  0.0047  0.0851
 6444W        W 8594  19.541   6.357  11.057  0.1493 -0.0722  0.1060
 6445W        W 8595  24.579   3.034   9.119 -0.0516  0.1617 -0.3880
 6446W        W 8596   7.122   6.100  13.681  0.1565 -0.1569  0.1021
 6447W        W 8597  25.612   2.471   4.346 -0.2316  0.3161  0.0176
 6448W        W 8598  19.712   5.838   2.658 -0.1074  0.1912  0.2340
 6449W        W 8599  12.318   5.862  24.003  0.2210  0.0874  0.0447
 6450W        W 8600   1.469   6.181  26.882  0.0724 -0.1246  0.0316
 6451W        W 8601  24.877   6.089  15.324  0.0675  0.0357 -0.0822
 6452W        W 8602   1.477   4.000   7.183 -0.1746  0.1715 -0.0353
 6453W        W 8603   3.370   5.596  20.394 -0.3587 -0.1441  0.0212
 6454W        W 8604  23.039   0.968  21.829  0.3864  0.1598 -0.1961
 6455W        W 8605   4.701   6.584  30.982 -0.0539  0.0871  0.0025
 6456W        W 8606  18.729   0.559  26.057 -0.3165  0.1721  0.2351
 6457W        W 8607  12.529   1.049  15.799 -0.0391  0.0124 -0.0523
 6458W        W 8608  16.340   0.259   7.163 -0.1471 -0.0189  0.1977
 6459W        W 8609   6.181   5.594  23.262  0.1004  0.1264  0.1052
 6460W        W 8610   7.584   3.949  27.340 -0.0574  0.0031 -0.0415
 6461W        W 8611   5.250   3.048   9.539 -0.3217 -0.0750 -0.1998
 6462W        W 8612  23.392   2.928  28.615 -0.0128  0.0926  0.1759
 6463W        W 8613  11.495   3.982  13.670  0.0753  0.1814 -0.0859
 6464W        W 8614  11.248   6.543  25.254  0.1969  0.2059  0.1852
 6465W        W 8615  14.489   4.147   8.556 -0.1123  0.1740 -0.0386
 6466W        W 8616  12.148   0.741   8.022 -0.1599  0.0821 -0.1070
 6467W        W 8617   4.350   0.493   8.998 -0.1164  0.2172 -0.1616
 6468W        W 8618  13.697   5.611  26.171  0.1386  0.1819 -0.0871
 6469W        W 8619   4.130   2.373  26.760  0.0958 -0.1628  0.0117
 6470W        W 8620  15.635   1.802  34.344 -0.1738  0.0408  0.1637
 6471W        W 8621   0.598   0.150  10.324  0.3317 -0.1851 -0.1925
 6472W        W 8622   8.819   1.075  22.699 -0.0399  0.1216 -0.0132
 6473W        W 8623  14.512   6.295  29.259 -0.0578 -0.0798  0.3371
 6474W        W 8624   8.550   1.277  31.249  0.2529  0.3136 -0.0794
 6475W        W 8625   7.375   4.967  34.512 -0.1339 -0.3735 -0.2770
 6476W        W 8626  16.132   5.332  29.811 -0.1141  0.4022  0.1254
 6477W        W 8627   5.458   0.530   3.644  0.0365 -0.0035 -0.1653
 6478W        W 8628  17.731   6.532  27.393  0.0982 -0.1170  0.2160
 6479W        W 8629  12.527   1.752  30.639 -0.3715 -0.1384 -0.1166
 6480W        W 8630  11.148   4.262  14.526  0.5023  0.0055  0.2398
 6481W        W 8631   2.193   1.331  10.239  0.0839  0.2801 -0.0841
 6482W        W 8632  12.622   4.156   2.563  0.0333 -0.0903 -0.1559
 6483W        W 8633   0.295   0.201  32.141  0.0858 -0.0915  0.0871
 6484W        W 8634  23.767   2.353  35.388  0.1536 -0.0749  0.3480
 6485W        W 8635   0.014   0.282  32.918 -0.1128 -0.0813  0.0229
 6486W        W 8636   6.621   5.659  27.274 -0.0374  0.0476  0.0844
 6487W        W 8637  10.732   1.073  26.895  0.0171 -0.0121 -0.0448
 6488W        W 8638  21.157   2.272  24.327  0.1055  0.0157 -0.0055
 6489W        W 8639  19.952   2.821  26.039  0.1439 -0.0993  0.0382
 6490W        W 8640  14.533   5.656  35.127 -0.1549  0.2315 -0.0890
 6491W        W 8641  13.928   5.381   7.185 -0.1022  0.1231  0.1704
 6492W        W 8642  24.044   0.340  35.994  0.0251  0.1095 -0.1654
 6493W        W 8643  24.798   4.268  12.827 -0.2331 -0.0257  0.4554
 6494W        W 8644   4.992   2.449  12.046 -0.1673  0.0345 -0.0754
 6495W        W 8645  15.319   3.071   5.553  0.2652 -0.0428  0.2444
 6496W        W 8646   1.007   4.225   7.375 -0.1712  0.1825 -0.0806
 6497W        W 8647   9.448   5.438  14.256  0.0794 -0.0620  0.1971
 6498W        W 8648  21.590   0.775  20.772 -0.2971 -0.0922 -0.2337
 6499W        W 8649  24.346   2.647  32.298  0.0112 -0.3034  0.1051
 6500W        W 8650  24.903   5.852  13.182 -0.0749  0.4417  0.0995
 6501W        W 8651  24.181   4.496   5.157  0.0445  0.4082 -0.0323
 6502W        W 8652  15.760   5.871  32.468  0.2535 -0.0650  0.2825
 6503W        W 8653   9.371   5.765  32.498 -0.0875 -0.1225  0.0738
 6504W        W 8654  17.724   3.729  14.630  0.1042  0.0764  0.0243
 6505W        W 8655   0.502   0.814  24.517  0.1313  0.1246 -0.1926
 6506W        W 8656  20.208   3.038  32.451 -0.2561  0.0655 -0.2284
 6507W        W 8657  25.322   1.723  20.634 -0.0456  0.5074  0.0339
 6508W        W 8658  23.662   6.473  15.177  0.1269  0.2207 -0.1188
 6509W        W 8659   2.940   0.051   1.076 -0.0203 -0.1601  0.2443
 6510W        W 8660  16.256   6.343   3.205 -0.0284  0.0539 -0.0618
 6511W        W 8661  20.292   3.398   8.812  0.0918  0.1890 -0.0830
 6512W        W 8662  10.004   2.573   1.199  0.2264  0.2925 -0.0050
 6513W        W 8663   2.876   1.883   5.142 -0.1292  0.0583  0.2802
 6514W        W 8664   8.402   2.507  33.510 -0.1370 -0.0919  0.2972
 6515W        W 8665   4.564   0.879  25.879  0.0195 -0.1593 -0.0662
 6516W        W 8666   9.543   1.096  10.507 -0.1205  0.2247 -0.1674
 6517W        W 8667   9.240   3.981  30.008  0.1017 -0.0547 -0.2261
 6518W        W 8668   3.635   6.097  35.124  0.2243  0.1902 -0.0552
 6519W        W 8669  22.098   2.407  29.832 -0.0811  0.1352 -0.2629
 6520W        W 8670  13.850   5.991   5.294  0.4238  0.0186  0.1252
 6521W        W 8671  12.637   0.475  24.404  0.1236  0.2887 -0.2359
 6522W        W 8672   3.377   1.089  31.337 -0.2511 -0.1298 -0.0613
 6523W        W 8673   9.058   2.170  13.838 -0.2120  0.2164  0.0687
 6524W        W 8674  11.602   6.338  22.967  0.0280  0.5653 -0.1258
 6525W        W 8675   3.995   4.829  10.544  0.0210 -0.2536  0.0146
 6526W        W 8676  25.313   4.447  30.027  0.2268  0.4172 -0.2913
 6527W        W 8677  13.764   2.343  34.554 -0.3266  0.1465 -0.0054
 6528W        W 8678  14.614   5.527   1.786 -0.2185 -0.1719  0.1687
 6529W        W 8679   4.243   4.807  27.781  0.0772 -0.0808 -0.0742
 6530W        W 8680  13.447   5.075  33.834  0.0090 -0.1053  0.1560
 6531W        W 8681  24.133   2.422   3.793  0.1652 -0.2829  0.1071
 6532W        W 8682   4.349   2.564  27.218  0.0761 -0.0867  0.3089
 6533W        W 8683  10.580   1.041  13.330  0.0180 -0.1964  0.0693
 6534W        W 8684  14.725   1.194  12.396 -0.3298  0.3552  0.1071
 6535W        W 8685   9.949   3.477  26.097 -0.0656 -0.1455  0.2702
 6536W        W 8686   9.357   3.742  13.841 -0.0224  0.3894  0.2677
 6537W        W 8687  16.677   4.629   9.854 -0.1372 -0.1296  0.0286
 6538W        W 8688   8.722   6.255   8.630  0.0146 -0.1480  0.0185
 6539W        W 8689   4.199   1.046  26.818 -0.3472 -0.0278  0.1243
 6540W        W 8690  12.167   0.687   3.626  0.1008 -0.0435 -0.1634
 6541W        W 8691  18.292   0.765   0.126 -0.1330 -0.0550  0.0035
 6542W        W 8692  23.702   4.587  10.370  0.1027  0.2772 -0.0017
 6543W        W 8693  17.216   2.795   7.581  0.0172  0.0814  0.3184
 6544W        W 8694  26.407   3.184  26.001  0.1042  0.2384 -0.0876
 6545W        W 8695  13.851   5.095  14.439 -0.2385  0.2832  0.1025
 6546W        W 8696  13.296   0.513  32.763  0.1135  0.0752  0.1038
 6547W        W 8697  24.735   5.530   5.763  0.0736  0.0557 -0.0503
 6548W        W 8698  23.358   1.279  34.286  0.1423 -0.1755  0.2244
 6549W        W 8699   4.753   5.060   2.407 -0.1094  0.0021  0.0330
 6550W        W 8700  10.676   6.102  15.001  0.0198  0.3068 -0.2054
 6551W        W 8701  18.069   6.100  12.592  0.2855  0.2866 -0.1350
 6552W        W 8702   7.703   0.497   0.776  0.2356 -0.1111 -0.2539
 6553W        W 8703  16.395   1.010   0.369 -0.1083 -0.1244  0.1714
 6554W        W 8704  21.888   0.593  26.922  0.0450  0.0057 -0.2184
 6555W        W 8705  16.703   0.959  35.842  0.1151 -0.1046  0.0716
 6556W        W 8706  12.615   2.567  35.089 -0.1005 -0.0300 -0.0036
 6557W        W 8707  23.895   4.690   8.832  0.2442 -0.0806 -0.2750
 6558W        W 8708   5.905   6.417  31.701  0.0713  0.0373  0.0989
 6559W        W 8709  12.490   4.002  29.477 -0.3269  0.0796  0.0274
 6560W        W 8710  20.081   3.496  22.045  0.2060  0.1087 -0.1057
 6561W        W 8711   8.369   4.216  25.356 -0.3022 -0.4156  0.3515
 6562W        W 8712  25.579   6.527  22.223 -0.1615 -0.4326 -0.1828
 6563W        W 8713   7.920   4.409   5.575  0.0676  0.0629 -0.0191
 6564W        W 8714  15.818   0.748   5.690  0.0840 -0.0393 -0.0019
 6565W        W 8715  17.229   1.193  21.582  0.0492  0.0560 -0.3245
 6566W        W 8716  15.013   6.505  32.160  0.1505  0.0622 -0.0062
 6567W        W 8717  23.672   5.140   1.682 -0.2090 -0.1240  0.0129
 6568W        W 8718  21.870   0.722   6.507 -0.0075  0.1517  0.3049
 6569W        W 8719  23.353   0.634  12.581  0.2141 -0.1661 -0.0855
 6570W        W 8720   6.275   3.223  26.935 -0.2899 -0.0568  0.0542
 6571W        W 8721   9.111   5.087   2.006  0.0867  0.1028 -0.0596
 6572W        W 8722   4.372   6.121  28.309 -0.2820  0.2134  0.1221
 6573W        W 8723  21.098   2.679  13.474  0.0530 -0.0060  0.0231
 6574W        W 8724   5.537   3.877   5.778  0.3141  0.0020 -0.0303
 6575W        W 8725  22.136   4.549  24.883 -0.3223  0.3049  0.2199
 6576W        W 8726  11.901   1.916   1.658  0.0879 -0.0727  0.2536
 6577W        W 8727  18.186   2.446  26.062 -0.0231  0.1805 -0.0087
 6578W        W 8728  21.921   1.982  33.448 -0.1679  0.0702 -0.3420
 6579W        W 8729   7.875   2.722   2.573  0.1195  0.3736 -0.2216
 6580W        W 8730  20.363   4.092  35.443 -0.0811  0.0852 -0.2247
 6581W        W 8731  24.999   6.569   8.892  0.1277  0.1455 -0.2435
 6582W        W 8732  19.436   2.258   5.377 -0.1059  0.2087 -0.0441
 6583W        W 8733  22.202   1.429   0.411 -0.2006  0.0590 -0.2557
 6584W        W 8734  11.117   3.653  13.375 -0.0715  0.1948 -0.1925
 6585W        W 8735  18.627   0.464   4.430 -0.0672  0.0194  0.1048
 6586W        W 8736   9.613   6.001   3.837 -0.1143  0.0124 -0.3340
 6587W        W 8737   1.649   3.098   2.584 -0.2242 -0.2378 -0.1132
 6588W        W 8738  17.367   1.042  34.795  0.0583 -0.1301 -0.0231
 6589W        W 8739   1.977   2.206  29.745  0.0468 -0.0916  0.2919
 6590W        W 8740   6.776   5.044   0.684 -0.2077  0.2660 -0.3282
 6591W        W 8741  12.054   2.376   2.934  0.2465 -0.1822  0.2223
 6592W        W 8742   7.186   0.215   5.290 -0.1379  0.4173 -0.2195
 6593W        W 8743   3.242   2.249   7.186  0.0747 -0.1983 -0.2237
 6594W        W 8744  22.277   5.805   8.750  0.2562  0.3038 -0.0214
 6595W        W 8745  10.656   2.973   5.987 -0.3511 -0.0293 -0.2513
 6596W        W 8746  16.333   2.807  34.168  0.1905  0.1626 -0.0191
 6597W        W 8747  18.237   3.872   5.975 -0.0235 -0.1290 -0.0320
 6598W        W 8748  20.206   0.594   3.387  0.1384 -0.3412  0.1513
 6599W        W 8749   3.414   2.834  24.062  0.1145  0.1181  0.0214
 6600W        W 8750  14.171   6.081   9.770  0.2447 -0.2288 -0.0943
 6601W        W 8751  23.721   3.056  10.316 -0.1715  0.0336  0.0696
 6602W        W 8752  24.726   2.247  12.782  0.0440  0.0166 -0.2759
 6603W        W 8753   8.880   4.677   6.009 -0.1815 -0.0081 -0.1425
 6604W        W 8754   2.712   2.080   6.952 -0.2165  0.1409 -0.1238
 6605W        W 8755  22.494   0.137  31.070  0.0196  0.0525 -0.0340
 6606W        W 8756  21.427   3.234   4.113  0.1112 -0.1635 -0.3097
 6607W        W 8757  14.389   6.475   0.492 -0.0538  0.1214 -0.1863
 6608W        W 8758   1.127   3.347  32.884 -0.0025  0.1709 -0.1930
 6609W        W 8759  21.436   1.005  33.766 -0.0925 -0.2034 -0.0229
 6610W        W 8760   3.230   1.302   8.736  0.3013  0.1180  0.0775
 6611W        W 8761   1.122   0.633  20.745 -0.2484 -0.1057  0.0259
 6612W        W 8762   6.256   3.475   8.519  0.0036 -0.0661  0.1728
 6613W        W 8763   0.142   4.475  29.519  0.2015  0.0410 -0.3743
 6614W        W 8764  23.604   5.638  15.081  0.0646 -0.0601  0.1752
 6615W        W 8765   5.223   1.037   6.299 -0.1128 -0.3982 -0.0125
 6616W        W 8766   4.355   3.752  25.000  0.1116 -0.0765  0.1097
 6617W        W 8767   2.118   3.558  14.628 -0.1075  0.2091 -0.1625
 6618W        W 8768   6.613   2.143  30.070 -0.3751 -0.1337 -0.0159
 6619W        W 8769  21.853   0.222  34.349  0.0740 -0.1461 -0.0526
 6620W        W 8770   3.858   5.599  31.973 -0.2568  0.2806 -0.2072
 6621W        W 8771   9.572   5.687   8.910  0.0822 -0.2194 -0.2643
 6622W        W 8772  20.144   0.296   2.975 -0.2742 -0.1211 -0.1501
 6623W        W 8773   1.195   4.241  33.144  0.1475  0.3902  0.1226
 6624W        W 8774  21.929   6.468  25.657  0.0084 -0.0097  0.4813
 6625W        W 8775   4.187   5.948  24.868 -0.2236  0.0097  0.0996
 6626W        W 8776  14.300   4.749  32.410  0.2699  0.0827 -0.3132
 6627W        W 8777   3.144   3.821  12.187 -0.0685 -0.2368  0.1136
 6628W        W 8778  14.316   6.067  13.528  0.1057  0.0490 -0.0493
 6629W        W 8779   3.410   4.800  13.875 -0.1763  0.1219 -0.1159
 6630W        W 8780  13.378   6.452  24.808  0.0880 -0.1916  0.0121
 6631W        W 8781  25.073   6.201  22.778 -0.1926 -0.0051  0.2626
 6632W        W 8782   6.269   1.125   5.942 -0.0613  0.2467 -0.0786
 6633W        W 8783  17.682   0.404   5.342  0.0688  0.0040 -0.0622
 6634W        W 8784  19.883   3.061  26.499 -0.0211 -0.2887  0.1713
 6635W        W 8785  17.757   3.671  31.336 -0.3030  0.0630 -0.1014
 6636W        W 8786   5.204   5.844  24.237  0.1129  0.4944  0.4345
 6637W        W 8787  20.601   1.660  15.042  0.0341 -0.1907 -0.0141
 6638W        W 8788   5.457   0.816   7.513  0.0190  0.2233  0.1010
 6639W        W 8789  18.163   0.013  26.449  0.0257  0.0736  0.1352
 6640W        W 8790   6.061   6.594  10.080 -0.2250 -0.0184  0.0412
 6641W        W 8791  15.182   0.905  27.999 -0.3655 -0.0500  0.0004
 6642W        W 8792  23.892   0.586  35.431 -0.0047 -0.1928  0.1240
 6643W        W 8793   9.846   3.692   1.696  0.1567  0.2908 -0.1571
 6644W        W 8794  20.845   3.062  28.405  0.0455  0.1371 -0.1726
 6645W        W 8795   9.185   1.798   9.702  0.2099 -0.2286  0.0973
 6646W        W 8796  17.466   5.536  25.701 -0.2819 -0.0934  0.0131
 6647W        W 8797  18.941   1.007  22.131 -0.0211 -0.1761 -0.0542
 6648W        W 8798   3.111   2.703   3.836  0.0220  0.1033 -0.0885
 6649W        W 8799  14.472   3.374   4.470 -0.1019  0.2357 -0.4698
 6650W        W 8800  20.347   5.528   9.413  0.0041 -0.1939 -0.3351
 6651W        W 8801   4.286   4.122  23.688 -0.2316  0.2748 -0.1426
 6652W        W 8802   5.534   0.434   4.562  0.0208 -0.1047 -0.1516
 6653W        W 8803  18.390   0.846  13.519  0.1427  0.1450  0.1749
 6654W        W 8804   2.480   6.477  10.591 -0.2040  0.3849 -0.0725
 6655W        W 8805  17.717   2.832  22.988 -0.1978  0.1419 -0.0911
 6656W        W 8806  15.845   1.505  22.992 -0.1020  0.5230 -0.0395
 6657W        W 8807  13.463   4.854  13.856  0.3143 -0.2718 -0.3034
 6658W        W 8808  10.699   2.603  25.106  0.0320  0.1749 -0.2242
 6659W        W 8809  14.253   4.838  23.013  0.0355  0.0494  0.0718
 6660W        W 8810  19.228   5.240  28.989  0.0358 -0.1096  0.2743
 6661W        W 8811   0.508   6.282  24.102 -0.3977  0.1458 -0.1192
 6662W        W 8812  22.595   4.349   5.789 -0.0768 -0.0291  0.1660
 6663W        W 8813  20.139   1.405   5.263  0.4331 -0.3664  0.1653
 6664W        W 8814   1.881   5.495  13.059  0.0325 -0.1112 -0.1012
 6665W        W 8815  12.643   6.058   5.625  0.2334  0.0216  0.0173
 6666W        W 8816  25.522   0.123  26.791 -0.0122  0.1249 -0.1735
 6667W        W 8817  12.266   6.426   2.074 -0.1606  0.1272  0.1158
 6668W        W 8818  11.521   1.187   1.341  0.2918  0.4073  0.2092
 6669W        W 8819   6.130   0.500   1.837 -0.2286 -0.2928  0.1247
 6670W        W 8820  18.474   5.208  23.363  0.1655 -0.0598  0.0148
 6671W        W 8821  15.619   6.508  33.691  0.2852 -0.0638  0.0812
 6672W        W 8822  24.168   5.808   4.857  0.2246 -0.3130 -0.0734
 6673W        W 8823  15.834   2.320   4.645  0.1906  0.2499 -0.3803
 6674W        W 8824  17.267   0.314  31.847 -0.2891 -0.0577  0.3753
 6675W        W 8825   5.589   5.329   3.885  0.0167  0.0996 -0.0917
 6676W        W 8826   4.222   6.128  27.688  0.1178 -0.1792 -0.2809
 6677W        W 8827  25.876   5.441   7.893 -0.0886 -0.2611  0.1025
 6678W        W 8828  16.137   0.617  25.609 -0.1938 -0.2595 -0.2781
 6679W        W 8829  14.661   0.762  33.510 -0.0167 -0.0736  0.2326
 6680W        W 8830   5.641   5.930   0.311  0.1857  0.2823 -0.1530
 6681W        W 8831  13.600   0.586   1.142  0.0852 -0.0262  0.0200
 6682W        W 8832   2.950   5.799  24.083 -0.0316  0.1639  0.1409
 6683W        W 8833  15.590   2.707  24.300 -0.3071  0.1855  0.2014
 6684W        W 8834  22.407   4.594  30.656 -0.2269 -0.1104  0.1786
 6685W        W 8835   8.948   3.273  14.901 -0.0436  0.0878  0.0384
 6686W        W 8836   6.295   6.089  25.421 -0.3294  0.3727  0.3674
 6687W        W 8837   0.133   6.512  21.434  0.1919  0.0266 -0.3070
 6688W        W 8838  16.679   1.378   6.279 -0.2003  0.1567  0.0058
 6689W        W 8839  21.376   1.570  10.667 -0.0791 -0.1010  0.0946
 6690W        W 8840   0.315   4.261   7.370  0.1318  0.0007 -0.0537
 6691W        W 8841  16.287   3.059   0.165  0.0294 -0.3450  0.0013
 6692W        W 8842   3.804   2.336   2.147 -0.2074 -0.1144  0.2210
 6693W        W 8843  14.032   5.752   6.268  0.1864 -0.3864  0.1578
 6694W        W 8844  13.320   3.126  30.918  0.2821  0.0990 -0.2364
 6695W        W 8845  19.540   6.094  34.885  0.2048 -0.0222 -0.2925
 6696W        W 8846  24.256   0.057   1.306 -0.1029 -0.0495 -0.1845
 6697W        W 8847  23.116   5.902   7.907 -0.1364  0.0157 -0.1601
 6698W        W 8848   3.686   6.421  31.527 -0.2515  0.0493  0.2523
 6699W        W 8849   6.351   1.134  12.986  0.1025  0.1444  0.2030
 6700W        W 8850   1.158   2.966  27.253 -0.2215  0.2319 -0.0757
 6701W        W 8851   6.237   1.704  29.912  0.1680  0.3571 -0.0462
 6702W        W 8852  18.047   2.514  35.020  0.1782 -0.2542  0.1015
 6703W        W 8853   0.991   5.603  35.949 -0.2229 -0.3206  0.0694
 6704W        W 8854  13.578   5.871  23.385 -0.1508  0.0084  0.2513
 6705W        W 8855  12.775   3.673  25.436 -0.1681  0.1216  0.2841
 6706W        W 8856  21.758   5.203  32.066  0.1377 -0.2774  0.1990
 6707W        W 8857   4.548   1.741   0.884  0.0463 -0.0656 -0.0097
 6708W        W 8858   7.906   4.561  25.363 -0.1750  0.2743 -0.0758
 6709W        W 8859   9.563   2.309  32.783 -0.0423  0.1266 -0.0115
 6710W        W 8860   7.078   4.666   9.246 -0.1564 -0.0339  0.2306
 6711W        W 8861  24.508   2.447  26.705  0.0079 -0.3173 -0.0374
 6712W        W 8862   6.499   1.214   1.820  0.0085  0.1709 -0.3031
 6713W        W 8863  13.699   2.645  29.576  0.0101  0.2617 -0.1300
 6714W        W 8864  16.395   6.592  31.473 -0.1611 -0.0487  0.0318
 6715W        W 8865   8.410   5.197  15.782  0.1005  0.3225  0.2901
 6716W        W 8866  16.931   1.100   7.825 -0.1223  0.0356 -0.1909
 6717W        W 8867  23.201   6.350  25.817 -0.1246  0.0724  0.0087
 6718W        W 8868  24.772   5.032  21.390 -0.0318 -0.0635 -0.2801
 6719W        W 8869   6.030   5.084  22.321  0.0641  0.0339 -0.3628
 6720W        W 8870  10.317   5.972   3.196  0.2297 -0.0314 -0.0137
 6721W        W 8871   3.678   1.600  11.779  0.1968 -0.4200 -0.1763
 6722W        W 8872  12.526   3.229  29.506  0.2620  0.0473  0.0479
 6723W        W 8873  12.729   0.448  13.317  0.2139  0.0329 -0.0783
 6724W        W 8874  11.142   5.982   2.702 -0.1069  0.1491  0.3432
 6725W        W 8875  14.705   5.413  22.312 -0.1789 -0.0723  0.2237
 6726W        W 8876  12.609   0.983  24.353  0.0163  0.0606 -0.0544
 6727W        W 8877  22.902   5.912  27.578 -0.0123 -0.2163  0.0309
 6728W        W 8878  25.310   5.009  12.568 -0.2487  0.2209 -0.2674
 6729W        W 8879  16.823   6.284  23.057  0.0821 -0.0276 -0.0009
 6730W        W 8880   6.220   4.028  30.427  0.2087 -0.1785 -0.0595
 6731W        W 8881  15.671   4.405  32.513  0.0750 -0.0932 -0.1481
 6732W        W 8882   5.563   2.391  13.195 -0.1761  0.0389 -0.0889
 6733W        W 8883  15.881   5.412  28.947  0.1409  0.1768 -0.1287
 6734W        W 8884  10.830   1.749   2.762  0.2438 -0.2019  0.1494
 6735W        W 8885   4.935   0.943  13.223  0.2150  0.1378 -0.2316
 6736W        W 8886  17.047   1.459  25.331  0.0166 -0.0007 -0.2517
 6737W        W 8887  21.731   3.784  35.277 -0.1821  0.0551  0.4285
 6738W        W 8888  24.090   5.244   5.467  0.1515 -0.3077  0.1097
 6739W        W 8889  10.224   2.794  23.778 -0.0272 -0.1172  0.1270
 6740W        W 8890  20.869   1.118  36.118  0.1451  0.1201 -0.1036
 6741W        W 8891  23.871   1.093   6.371  0.0931 -0.0177  0.1859
 6742W        W 8892   5.421   0.526  11.813  0.2252  0.1745 -0.2941
 6743W        W 8893   0.932   1.006  24.365  0.0405  0.0579 -0.1978
 6744W        W 8894  19.378   0.131  34.504 -0.0703  0.2072 -0.0840
 6745W        W 8895   2.270   0.976  29.939 -0.0650 -0.1916  0.0296
 6746W        W 8896  14.375   6.223  34.406  0.1125 -0.0571 -0.1758
 6747W        W 8897  16.207   1.306  33.622  0.2690 -0.4411 -0.1422
 6748W        W 8898  19.257   4.086  20.923  0.2091 -0.3576 -0.1794
 6749W        W 8899   2.210   4.196  10.932  0.0091 -0.2374 -0.3623
 6750W        W 8900   7.800   0.422  12.145  0.0786  0.0712  0.1195
 6751W        W 8901  23.962   4.664   3.388  0.3754 -0.0151  0.0779
 6752W        W 8902  20.126   5.291   4.468  0.0653 -0.0167  0.0774
 6753W        W 8903  13.131   1.390  26.624  0.3119 -0.0275 -0.0704
 6754W        W 8904  13.526   0.127   7.579  0.0830 -0.0638  0.0919
 6755W        W 8905  13.198   6.019  22.506  0.0755  0.1276  0.0302
 6756W        W 8906  18.474   5.764  14.296 -0.1227  0.0244  0.1080
 6757W        W 8907   5.441   5.790  23.589  0.3005  0.1742 -0.0117
 6758W        W 8908   1.240   2.102  28.777 -0.0930  0.1230  0.0568
 6759W        W 8909   2.873   4.422  35.817  0.4752  0.1652  0.3220
 6760W        W 8910  16.035   6.026  29.820 -0.1451  0.1170 -0.2110
 6761W        W 8911   0.015   1.264  31.877  0.0728 -0.0211  0.0865
 6762W        W 8912  23.001   0.031  32.408 -0.1135  0.1393 -0.0529
 6763W        W 8913  13.560   6.529   4.045  0.1801  0.2046  0.3449
 6764W        W 8914  18.654   4.736  28.339 -0.0381  0.1911  0.0969
 6765W        W 8915  13.773   3.394  13.711 -0.2546  0.2126 -0.1679
 6766W        W 8916   4.579   4.899  22.177  0.2191 -0.0371  0.0666
 6767W        W 8917   2.635   2.411  29.661  0.0880 -0.0146 -0.2401
 6768W        W 8918   6.772   5.393   4.041  0.1509  0.0624  0.0270
 6769W        W 8919  21.036   5.238   6.667 -0.1092 -0.2229 -0.0460
 6770W        W 8920  12.836   3.651  24.111 -0.0541  0.4699 -0.0923
 6771W        W 8921  15.094   3.468  21.752  0.0349  0.0077  0.1766
 6772W        W 8922  20.189   4.919  30.178  0.1767  0.2530 -0.2854
 6773W        W 8923  17.104   1.768  36.118 -0.0025  0.0111 -0.1700
 6774W        W 8924   6.670   5.518  12.916  0.0030  0.1135 -0.0150
 6775W        W 8925  26.132   5.076  11.417  0.1335  0.0337 -0.1737
 6776W        W 8926  19.292   1.983  14.586  0.0500 -0.1763  0.4096
 6777W        W 8927  10.827   4.451   3.924 -0.2382 -0.3542 -0.1265
 6778W        W 8928   9.085   3.067   0.573  0.0464  0.1902 -0.0897
 6779W        W 8929  13.571   2.437  35.537  0.0603 -0.1673  0.0368
 6780W        W 8930  15.477   0.302  31.282 -0.0165 -0.0181 -0.0161
 6781W        W 8931   3.889   4.113   7.461 -0.0715 -0.1464  0.1023
 6782W        W 8932   5.560   2.113   1.042 -0.0054  0.0349 -0.1607
 6783W        W 8933   1.382   0.083  33.520  0.0595  0.0377  0.1473
 6784W        W 8934  14.891   3.208  23.193  0.1067  0.0732 -0.1539
 6785W        W 8935  19.780   1.715  32.632 -0.0638 -0.0808 -0.2371
 6786W        W 8936   9.605   0.805  22.922  0.1407  0.1734 -0.0246
 6787W        W 8937   9.646   1.625   6.746 -0.1353 -0.1690 -0.2513
 6788W        W 8938   7.831   1.928   6.423 -0.4457  0.0906  0.1893
 6789W        W 8939   8.856   6.052  26.336 -0.0442  0.1208 -0.1522
 6790W        W 8940  19.856   4.737   1.565  0.1811 -0.1359 -0.0871
 6791W        W 8941  22.332   6.356  22.446  0.0120  0.0098  0.0432
 6792W        W 8942  19.241   3.947  33.627 -0.1728  0.0700 -0.0945
 6793W        W 8943  25.055   2.143  11.998  0.2604 -0.0854 -0.1554
 6794W        W 8944  11.291   5.565  15.307 -0.2017 -0.0902  0.1552
 6795W        W 8945   9.669   1.211   9.004 -0.0577  0.0908  0.0367
 6796W        W 8946   8.772   1.718  21.394  0.1017  0.0143 -0.2205
 6797W        W 8947  11.991   5.656  33.600  0.0689  0.2395  0.0209
 6798W        W 8948  10.776   3.332  14.089 -0.1629  0.0975  0.1348
 6799W        W 8949   9.149   2.518   5.127  0.2565  0.0398  0.2956
 6800W        W 8950  23.905   3.693   9.775  0.0628 -0.1762  0.0286
 6801W        W 8951  18.730   1.375   3.022 -0.0691 -0.0488 -0.0967
 6802W        W 8952  12.416   6.010  32.577 -0.2540 -0.1000 -0.3128
 6803W        W 8953   3.463   2.389  22.661  0.1738 -0.1193 -0.3036
 6804W        W 8954  13.191   2.136  35.360 -0.3988  0.1227 -0.0325
 6805W        W 8955  10.218   3.645  30.993 -0.1868  0.2292 -0.1711
 6806W        W 8956  17.093   4.682  34.146 -0.0226  0.1546 -0.0720
 6807W        W 8957  15.353   5.505  11.670  0.2618  0.2187 -0.3410
 6808W        W 8958  23.783   5.723  21.736 -0.2319 -0.1252  0.1590
 6809W        W 8959  15.269   4.906  23.333  0.0914  0.1677  0.1307
 6810W        W 8960   2.868   0.020  27.129 -0.1183 -0.0847 -0.1321
 6811W        W 8961  19.392   4.569  21.812  0.1262 -0.0913  0.1759
 6812W        W 8962   6.874   1.116  33.043 -0.1863  0.1521 -0.0433
 6813W        W 8963  17.857   0.858  13.600 -0.0054  0.0566  0.0402
 6814W        W 8964  15.070   4.158   6.035  0.0137 -0.2104  0.1423
 6815W        W 8965  15.818   2.467  13.540  0.3532 -0.2292 -0.4396
 6816W        W 8966   1.257   0.652  24.622  0.2011 -0.0632  0.5235
 6817W        W 8967  11.469   5.276  11.856  0.2727 -0.1525  0.2373
 6818W        W 8968  11.789   0.841  24.606  0.1948 -0.0676 -0.1178
 6819W        W 8969  15.826   3.207  10.751 -0.2262 -0.0317 -0.0253
 6820W        W 8970  15.310   6.074  13.966 -0.1081  0.1591 -0.0918
 6821W        W 8971   8.401   5.187  23.605  0.0936 -0.0053 -0.2219
 6822W        W 8972   9.752   0.939  35.944  0.0068  0.1519 -0.0553
 6823W        W 8973   8.442   0.657  28.525 -0.1540  0.0602  0.3613
 6824W        W 8974  10.641   3.827  13.437  0.0437  0.0607 -0.1490
 6825W        W 8975   0.174   1.766  35.376 -0.3398 -0.0194 -0.3009
 6826W        W 8976  21.206   2.058  12.051  0.1560 -0.0043  0.0481
 6827W        W 8977   3.526   0.013  11.264  0.2222  0.0836  0.3523
 6828W        W 8978  16.409   1.618  31.546 -0.1048 -0.0582  0.2706
 6829W        W 8979   1.522   4.674  35.980 -0.2047  0.2107 -0.0970
 6830W        W 8980   9.510   1.505  32.107 -0.1518 -0.0515 -0.0831
 6831W        W 8981   5.088   5.407  21.183 -0.1714  0.2976  0.1076
 6832W        W 8982  22.142   4.195   7.713 -0.1152 -0.1193 -0.2658
 6833W        W 8983  10.731   6.359   6.539 -0.0095  0.3956 -0.3049
 6834W        W 8984  13.222   1.619  35.493  0.0016 -0.0845 -0.0810
 6835W        W 8985  15.352   0.919  31.407  0.0618 -0.0099  0.2277
 6836W        W 8986  19.116   1.603  36.030 -0.1493  0.0320  0.2288
 6837W        W 8987   2.853   1.989   9.042  0.0532  0.1828 -0.0790
 6838W        W 8988  15.172   5.854  34.801  0.0632 -0.1433  0.1416
 6839W        W 8989  21.663   1.736  26.231  0.0867  0.0432  0.4512
 6840W        W 8990  23.163   0.038  23.439  0.0423  0.4555 -0.0522
 6841W        W 8991   4.023   2.124  29.285 -0.0111  0.0617  0.2175
 6842W        W 8992  21.786   2.874  28.179 -0.0525 -0.1121  0.2024
 6843W        W 8993  25.571   6.029  25.500 -0.0005  0.4680 -0.0998
 6844W        W 8994  20.121   5.948  22.384  0.1673 -0.1611 -0.0520
 6845W        W 8995  17.882   2.360   5.905  0.3351 -0.0674 -0.5245
 6846W        W 8996   5.910   6.334   4.800  0.0756 -0.2902 -0.3021
 6847W        W 8997  11.690   4.753  15.481 -0.2236  0.1793  0.2379
 6848W        W 8998   2.793   0.863  27.035  0.1891  0.1451  0.1600
 6849W        W 8999  24.223   0.915  29.950 -0.1792 -0.0410  0.1378
 6850W        W 9000   4.442   4.051  13.987  0.0340  0.2526  0.1500
 6851W        W 9001  10.771   2.616  35.010  0.3193  0.1511 -0.1773
 6852W        W 9002   7.026   6.553   8.204  0.0963  0.1458  0.4115
 6853W        W 9003   4.053   5.952  23.054  0.0907 -0.0798  0.0418
 6854W        W 9004  24.173   6.341  22.918 -0.1286  0.1097  0.1002
 6855W        W 9005  15.451   3.786  14.862  0.2359  0.0864  0.2256
 6856W        W 9006  22.545   5.938   5.050  0.0104 -0.1461 -0.0979
 6857W        W 9007  10.396   6.112   7.720 -0.0571  0.0672  0.0321
 6858W        W 9008  23.038   0.328  10.385 -0.1963  0.0764 -0.1833
 6859W        W 9009  14.732   1.022   1.532 -0.1576  0.1620  0.0412
 6860W        W 9010  21.895   6.453  11.564 -0.2037  0.1913 -0.0449
 6861W        W 9011  13.062   3.155  10.260  0.0731  0.1884 -0.2303
 6862W        W 9012  25.314   6.172  28.500  0.1921 -0.0958 -0.0704
 6863W        W 9013  18.561   4.126   2.574 -0.0668  0.0708 -0.2359
 6864W        W 9014  14.347   0.433  10.648  0.2972  0.0082 -0.2110
 6865W        W 9015  14.236   1.612  11.707  0.0452  0.0466  0.0757
 6866W        W 9016  17.436   2.410   8.439 -0.2790  0.2667 -0.1663
 6867W        W 9017  18.990   4.631  26.197 -0.5411  0.1803  0.0301
 6868W        W 9018   7.734   0.614  14.402  0.3675  0.3222  0.1862
 6869W        W 9019  25.920   2.095   0.972 -0.0037 -0.0346  0.1586
 6870W        W 9020  19.803   2.180  11.224  0.3769  0.0324 -0.0091
 6871W        W 9021  16.192   0.287  12.957 -0.0045  0.0998  0.2685
 6872W        W 9022  14.368   0.878  35.227 -0.2816 -0.0073 -0.1120
 6873W        W 9023   9.811   2.483   1.703 -0.1395  0.0898  0.2988
 6874W        W 9024   6.955   5.383   2.114 -0.0785  0.3175  0.0277
 6875W        W 9025  15.312   3.851   7.865 -0.0997 -0.0509 -0.1914
 6876W        W 9026   3.749   5.809  26.436 -0.2482  0.2288  0.0703
 6877W        W 9027   2.437   0.288   6.327  0.2895 -0.0683  0.1863
 6878W        W 9028   4.224   1.915  14.241 -0.0612  0.0343  0.1228
 6879W        W 9029  16.648   3.076  31.109  0.3360 -0.0854  0.0219
 6880W        W 9030   4.298   3.034  35.914 -0.1383  0.1987  0.0112
 6881W        W 9031  18.913   0.338   2.157  0.1236  0.0143 -0.1102
 6882W        W 9032   7.103   4.212  31.467  0.3469  0.3877  0.0340
 6883W        W 9033   8.099   1.851  35.626  0.0127  0.2228  0.0125
 6884W        W 9034  11.284   5.406   6.952 -0.1412  0.2120  0.1371
 6885W        W 9035   4.516   5.502  10.975  0.3915  0.2114 -0.1090
 6886W        W 9036   9.388   5.179  33.150 -0.0631  0.1378 -0.1849
 6887W        W 9037  26.135   0.948  24.468 -0.0912 -0.2361 -0.0545
 6888W        W 9038  16.115   5.485  25.129  0.1417  0.1075 -0.1021
 6889W        W 9039   3.942   5.889  26.885 -0.1307  0.1749 -0.1308
 6890W        W 9040  24.497   3.363  26.465  0.0482  0.0397  0.0949
 6891W        W 9041  16.804   4.224  13.192  0.1685  0.2288  0.1784
 6892W        W 9042   3.708   5.890  28.437  0.0520  0.0148 -0.0636
 6893W        W 9043  18.932   3.448   3.038  0.2864 -0.2847 -0.1895
 6894W        W 9044  14.038   5.807  24.670 -0.1388  0.0299 -0.0762
 6895W        W 9045   8.873   1.592  31.508  0.1946 -0.1689  0.4249
 6896W        W 9046  21.444   5.942   1.798 -0.0653 -0.2186  0.2322
 6897W        W 9047  24.466   5.450   1.178  0.2745  0.0702 -0.0361
 6898W        W 9048  12.949   1.445  28.351  0.0971 -0.1913  0.1450
 6899W        W 9049   5.756   5.539  29.383 -0.3027  0.1689 -0.0211
 6900W        W 9050  14.844   6.414   0.259 -0.5351 -0.0512 -0.1281
 6901W        W 9051   2.799   2.884   4.737  0.0256 -0.1473  0.2612
 6902W        W 9052  16.089   2.728  30.001 -0.1688 -0.1229  0.1607
 6903W        W 9053  23.677   1.315  13.157 -0.0798 -0.1003 -0.0279
 6904W        W 9054   9.755   6.555  21.540  0.1733  0.1342 -0.1263
 6905W        W 9055  12.544   3.679  31.069 -0.1539 -0.4228 -0.0193
 6906W        W 9056  21.165   1.149  31.971 -0.1674 -0.3167  0.1911
 6907W        W 9057  24.585   3.035  31.148 -0.3062  0.1025 -0.0785
 6908W        W 9058   4.387   6.307   9.890 -0.0040 -0.1387  0.3130
 6909W        W 9059  12.567   6.027  12.279 -0.0884 -0.2429  0.0796
 6910W        W 9060  23.583   3.239  15.239  0.0019  0.2104 -0.4211
 6911W        W 9061   0.460   1.484   4.967 -0.1023  0.2599  0.1178
 6912W        W 9062   2.020   1.133  29.432  0.2106 -0.0629  0.3565
 6913W        W 9063  20.019   2.921  32.906 -0.0155 -0.1530 -0.3130
 6914W        W 9064   8.432   1.380   5.272 -0.0236  0.1415 -0.0306
 6915W        W 9065  19.217   3.875  11.435 -0.1790 -0.0602  0.0053
 6916W        W 9066  19.992   6.545   4.633  0.3897  0.1770  0.1845
 6917W        W 9067   1.208   6.306  12.126  0.2223 -0.0603  0.1213
 6918W        W 9068   7.567   0.569  23.592 -0.0331 -0.2386 -0.0860
 6919W        W 9069   4.670   3.263  25.414 -0.1158  0.3615 -0.0930
 6920W        W 9070  17.635   5.556  34.029  0.0435 -0.2897 -0.1471
 6921W        W 9071  16.516   4.076  20.154  0.5080  0.0007  0.0056
 6922W        W 9072  22.366   5.183   0.413  0.0429  0.1022  0.1910
 6923W        W 9073  20.539   0.193  25.460  0.2300 -0.0445 -0.2510
 6924W        W 9074   9.029   6.091  10.499  0.0609 -0.2052  0.0268
 6925W        W 9075  24.781   4.931  35.391 -0.0941  0.0431 -0.0534
 6926W        W 9076  13.103   6.265   2.617 -0.1502 -0.2964  0.0443
 6927W        W 9077  21.007   4.280  12.590 -0.0089 -0.1384 -0.2726
 6928W        W 9078   9.721   0.373   3.024 -0.1626 -0.1065 -0.1507
 6929W        W 9079   5.254   4.480  34.700  0.1550  0.3567 -0.0058
 6930W        W 9080  10.464   2.521   4.297 -0.1003  0.1071  0.3650
 6931W        W 9081   3.396   1.565   7.381 -0.0588  0.1297  0.1340
 6932W        W 9082  20.174   2.598  12.314  0.1517  0.1898  0.0423
 6933W        W 9083  10.686   2.569   3.790  0.1237 -0.2664  0.0452
 6934W        W 9084  12.520   4.126   3.108 -0.2080 -0.1769  0.0308
 6935W        W 9085  20.007   3.393   9.215 -0.3111 -0.0467  0.0074
 6936W        W 9086  16.655   4.810   5.670  0.4920  0.1387  0.1090
 6937W        W 9087  13.054   0.213   0.558  0.3319  0.0568 -0.1081
 6938W        W 9088  22.658   0.551  11.757  0.1662 -0.1911  0.0598
 6939W        W 9089   6.437   0.247   1.448 -0.0680  0.0484  0.1564
 6940W        W 9090   3.232   6.054  28.464  0.0247  0.1350 -0.0692
 6941W        W 9091  12.627   4.752  12.281 -0.1073  0.1144 -0.1315
 6942W        W 9092  16.216   4.038   8.896  0.0395  0.0846  0.3599
 6943W        W 9093  21.170   1.780  14.879 -0.0720 -0.2762  0.1738
 6944W        W 9094  17.034   2.542   6.877  0.0236  0.0991 -0.2027
 6945W        W 9095   0.782   4.593  29.141  0.1362 -0.1127 -0.1854
 6946W        W 9096   1.896   2.378  30.199 -0.3258 -0.0775  0.2870
 6947W        W 9097  20.217   6.129  15.944 -0.1614 -0.0869 -0.3109
 6948W        W 9098  14.954   5.457  27.757 -0.2384 -0.0189 -0.1267
 6949W        W 9099   1.780   5.900  30.292 -0.0617  0.2141 -0.1570
 6950W        W 9100   1.120   6.524  10.957  0.0561  0.1587 -0.2227
 6951W        W 9101  16.096   0.516  35.771  0.1885  0.0478 -0.1108
 6952W        W 9102   9.342   3.484  30.233 -0.1350  0.1331  0.2635
 6953W        W 9103  13.055   1.205  32.962 -0.3423  0.3777  0.0526
 6954W        W 9104  25.968   4.663   2.597  0.1749 -0.0115  0.2436
 6955W        W 9105  18.111   1.095  29.066 -0.1224 -0.0440  0.1256
 6956W        W 9106  12.513   1.237  35.799  0.1221 -0.1610  0.1175
 6957W        W 9107  17.955   0.656  22.952 -0.0372  0.0431  0.2227
 6958W        W 9108  26.259   4.285  33.951  0.2124  0.0529  0.5511
 6959W        W 9109  11.706   1.552  27.552 -0.1352  0.0803 -0.0162
 6960W        W 9110   9.919   4.295  27.366  0.1404  0.0934  0.0302
 6961W        W 9111  13.732   0.025   2.545 -0.0115  0.2154  0.2897
 6962W        W 9112   7.064   2.718  21.770 -0.1407 -0.1107  0.0208
 6963W        W 9113  17.778   2.376  23.908  0.1194  0.2168  0.1323
 6964W        W 9114  17.434   6.014  28.961 -0.0464  0.3668 -0.0318
 6965W        W 9115   5.899   6.342   6.020 -0.0687  0.0555 -0.1167
 6966W        W 9116   8.336   1.880  26.451 -0.2656 -0.0168 -0.3530
 6967W        W 9117  20.118   4.498  35.328 -0.2624  0.1538 -0.1596
 6968W        W 9118   3.992   6.238   4.181  0.0034 -0.3326 -0.1477
 6969W        W 9119   6.854   1.730  30.176  0.0451  0.0589  0.0558
 6970W        W 9120  23.731   1.466  10.602  0.0691 -0.2297  0.2852
 6971W        W 9121   6.201   0.156  28.620  0.3240 -0.1444  0.2344
 6972W        W 9122  15.400   4.735  29.055 -0.0287 -0.0024  0.2600
 6973W        W 9123   6.320   2.460  22.194  0.0642  0.2506 -0.2430
 6974W        W 9124  22.276   5.594   3.628  0.0509 -0.0055  0.0941
 6975W        W 9125  17.508   1.848   8.272 -0.3198 -0.2147  0.2343
 6976W        W 9126   6.480   2.206   8.208 -0.1714 -0.0102 -0.0395
 6977W        W 9127  14.937   4.379   8.647  0.2853 -0.1044  0.2163
 6978W        W 9128   5.250   2.766  14.245 -0.0943 -0.1805  0.0350
 6979W        W 9129  21.452   2.412   6.854 -0.0402  0.1367 -0.1011
 6980W        W 9130   9.907   0.792   0.370  0.1871  0.1462 -0.1507
 6981W        W 9131  21.279   6.392  26.059 -0.4273 -0.0028 -0.1549
 6982W        W 9132  12.978   0.778   8.706  0.1401  0.0147  0.1291
 6983W        W 9133  12.834   1.358  26.129 -0.0579  0.0750  0.1546
 6984W        W 9134  20.671   5.495  25.769  0.0814 -0.1643  0.1796
 6985W        W 9135  24.916   6.522  35.507 -0.0010 -0.3184  0.2298
 6986W        W 9136  24.052   5.052  31.313 -0.4692 -0.0706  0.0172
 6987W        W 9137  22.443   6.170   0.152 -0.0079 -0.1636 -0.0743
 6988W        W 9138  17.644   0.707  35.476  0.1249  0.1008 -0.0841
 6989W        W 9139   7.878   3.188  12.607  0.0821 -0.1741  0.0064
 6990W        W 9140   1.529   2.202  24.902  0.0188 -0.2311 -0.0038
 6991W        W 9141  13.407   6.212   5.302  0.1919 -0.1651 -0.1484
 6992W        W 9142  11.982   6.141   0.346  0.2436 -0.1634 -0.0877
 6993W        W 9143  19.196   2.548  35.066  0.1194  0.0381 -0.2648
 6994W        W 9144  23.026   3.791   7.115  0.0767  0.2934 -0.0731
 6995W        W 9145   2.553   3.259  24.067  0.0819 -0.0753  0.3284
 6996W        W 9146   7.139   5.114   4.320  0.1671 -0.0347  0.0120
 6997W        W 9147  13.775   0.458  31.804  0.0751  0.2412 -0.0152
 6998W        W 9148   6.601   2.396  20.531  0.1214  0.1251  0.2385
 6999W        W 9149   3.428   3.391  11.981  0.2366 -0.3336  0.1071
 7000W        W 9150   6.911   0.254   1.671 -0.1330  0.1938 -0.2288
 7001W        W 9151  14.190   3.251   9.480  0.0992  0.0361 -0.1192
 7002W        W 9152  22.543   3.456  23.134  0.3294  0.0865  0.0153
 7003W        W 9153  14.732   2.209  13.575 -0.0186  0.2106  0.0717
 7004W        W 9154   8.602   3.482  22.173  0.0048 -0.0170 -0.2675
 7005W        W 9155  22.102   2.843  19.960 -0.0789  0.1305  0.1454
 7006W        W 9156   8.394   2.954   3.810  0.0781  0.0667 -0.2110
 7007W        W 9157  20.738   3.419   6.503  0.1081  0.1410  0.1662
 7008W        W 9158  19.689   0.928   3.710  0.2379 -0.0031 -0.1490
 7009W        W 9159  23.275   4.483  29.084  0.0296 -0.1643 -0.1785
 7010W        W 9160  15.691   4.181  26.892  0.0193 -0.1516  0.0347
 7011W        W 9161   5.231   3.907  24.386 -0.2353 -0.1929 -0.2564
 7012W        W 9162  24.801   0.134  12.589 -0.1812  0.3768  0.1172
 7013W        W 9163  22.961   6.553   9.475 -0.3885  0.0119 -0.2504
 7014W        W 9164   4.002   4.954  32.720 -0.0739  0.1025  0.1711
 7015W        W 9165   4.486   0.218   2.597 -0.0349  0.0507  0.0122
 7016W        W 9166  13.987   4.866  32.928 -0.4077 -0.3412  0.1283
 7017W        W 9167  18.369   5.695   1.626  0.1404 -0.1132 -0.0602
 7018W        W 9168  21.677   2.219  11.857  0.2746 -0.1444 -0.1862
 7019W        W 9169   4.632   0.925  15.161  0.0300  0.0381  0.1814
 7020W        W 9170  21.842   0.597  23.002 -0.2288 -0.1635  0.1600
 7021W        W 9171  14.423   0.471  24.718  0.1689 -0.0557  0.0060
 7022W        W 9172  10.140   5.756  32.165 -0.1578  0.1047 -0.0165
 7023W        W 9173  19.570   5.038   0.336 -0.0850  0.1693 -0.0967
 7024W        W 9174   3.517   3.722  14.587 -0.2075  0.1069  0.0645
 7025W        W 9175  21.311   2.918   0.928  0.0347 -0.0486  0.0407
 7026W        W 9176   9.803   3.095   2.247 -0.0472 -0.1830  0.0837
 7027W        W 9177  24.342   5.139  24.080  0.0439 -0.0928  0.2564
 7028W        W 9178  23.479   4.045   7.188 -0.0905 -0.4232  0.1071
 7029W        W 9179  17.801   3.447  32.261  0.1788 -0.0434  0.0327
 7030W        W 9180  21.348   6.549   8.889  0.0639 -0.0392  0.0677
 7031W        W 9181  22.928   1.305  32.797 -0.0700 -0.1540 -0.0707
 7032W        W 9182  22.091   5.027  11.067 -0.1228 -0.0564  0.1630
 7033W        W 9183  22.314   6.596  14.757  0.0113 -0.0119  0.0672
 7034W        W 9184   7.268   3.339   1.679 -0.0404  0.2798 -0.1404
 7035W        W 9185   8.874   2.910  34.962  0.1551 -0.0331  0.3134
 7036W        W 9186  10.848   5.620  13.377 -0.0143  0.1170 -0.2494
 7037W        W 9187  16.850   5.017   4.628 -0.1060  0.0232  0.0734
 7038W        W 9188  18.517   5.016  36.056  0.0469  0.0847 -0.5424
 7039W        W 9189  25.401   5.047  11.107  0.1423  0.2604 -0.1930
 7040W        W 9190  11.268   2.187  31.698  0.0132  0.0961 -0.0436
 7041W        W 9191  14.324   6.239  13.023  0.0501  0.1380  0.7244
 7042W        W 9192   1.883   5.932  10.510 -0.1272 -0.0142 -0.0787
 7043W        W 9193   9.259   4.324  31.332  0.3201 -0.2970  0.2284
 7044W        W 9194  17.219   3.108  28.728 -0.2755  0.1295 -0.3020
 7045W        W 9195  25.555   5.182  12.967  0.0880  0.1205  0.1188
 7046W        W 9196  19.366   4.575   3.892 -0.2349  0.0586  0.0820
 7047W        W 9197  15.049   2.030  15.632 -0.1924  0.0861  0.0198
 7048W        W 9198  21.222   4.613   0.679  0.2669  0.2372 -0.0055
 7049W        W 9199   7.507   2.217  31.015  0.2908 -0.2065 -0.4154
 7050W        W 9200   4.378   6.599   0.661 -0.1460 -0.0528  0.0211
 7051W        W 9201   4.111   4.629  26.536  0.0211 -0.0818 -0.1545
 7052W        W 9202  21.954   2.393   1.972  0.2501  0.1184  0.2051
 7053W        W 9203  26.066   0.545  35.338  0.4796  0.2443 -0.2161
 7054W        W 9204  15.906   5.475  32.184 -0.1553  0.2897 -0.1970
 7055W        W 9205   8.285   3.333  23.565  0.3675  0.4769  0.0376
 7056W        W 9206  14.506   3.070  12.112 -0.0104 -0.0054 -0.1653
 7057W        W 9207  17.004   3.373  21.225 -0.0773  0.2211 -0.1418
 7058W        W 9208  25.621   4.682  23.127  0.0250 -0.0222 -0.1626
 7059W        W 9209  14.610   3.277  21.624  0.0289  0.0642  0.0277
 7060W        W 9210   6.482   3.721  11.693 -0.0295  0.0657  0.0525
 7061W        W 9211   9.615   5.680  32.064  0.3316 -0.1331 -0.0576
 7062W        W 9212   9.404   3.518  12.638 -0.1033 -0.1045  0.1828
 7063W        W 9213   2.747   1.478   3.663 -0.2352  0.0171  0.0393
 7064W        W 9214   8.021   6.498  10.158  0.3027 -0.0687  0.0967
 7065W        W 9215  25.657   2.984   3.200 -0.3385  0.1334  0.1187
 7066W        W 9216   3.262   4.622  12.433 -0.1502 -0.2971 -0.0803
 7067W        W 9217  26.051   3.299  14.170 -0.0974 -0.1765  0.3281
 7068W        W 9218  17.361   1.695  29.863  0.0196 -0.0832  0.0489
 7069W        W 9219  23.542   2.246  20.851  0.1141 -0.1186  0.2525
 7070W        W 9220   6.436   2.308  10.769 -0.0323 -0.0338 -0.2250
 7071W        W 9221  24.063   4.640  28.317  0.1200 -0.0942  0.0248
 7072W        W 9222  15.987   0.205   8.046 -0.0999  0.2471 -0.0843
 7073W        W 9223   6.092   5.904  32.576 -0.0111 -0.0030 -0.1414
 7074W        W 9224  24.089   0.173  15.380 -0.0491  0.0556  0.0564
 7075W        W 9225  12.142   1.966  32.383  0.0568 -0.0974  0.0689
 7076W        W 9226  23.804   1.952   9.513 -0.2285 -0.0974 -0.0837
 7077W        W 9227  12.004   5.073  21.479 -0.0302 -0.0255  0.2230
 7078W        W 9228  19.369   5.847  22.812 -0.1580 -0.2774 -0.1954
 7079W        W 9229  22.350   2.840  29.885  0.3030 -0.0999 -0.0536
 7080W        W 9230   5.521   3.702  23.988  0.1409  0.3300 -0.1552
 7081W        W 9231  13.699   4.959  34.254 -0.0276 -0.1499  0.2800
 7082W        W 9232  22.054   4.672   9.711 -0.1680  0.2009 -0.0786
 7083W        W 9233  21.652   4.198   1.514  0.1700  0.2471 -0.0235
 7084W        W 9234  25.246   1.120  27.132 -0.4225  0.0013 -0.0595
 7085W        W 9235  14.487   3.202  27.232 -0.1354  0.1245  0.3667
 7086W        W 9236   5.508   3.051  12.271 -0.0589  0.0457 -0.1637
 7087W        W 9237   9.890   3.462  12.453 -0.0469 -0.1026 -0.2605
 7088W        W 9238   7.058   1.530   9.747 -0.3073 -0.0000 -0.0692
 7089W        W 9239  18.262   3.447  30.505 -0.1078  0.4058  0.0602
 7090W        W 9240  23.923   1.739   5.074  0.0647  0.2954  0.0919
 7091W        W 9241  18.282   1.537  15.302  0.0167 -0.2468 -0.0092
 7092W        W 9242   7.043   2.611   7.443  0.1473  0.0597  0.0978
 7093W        W 9243   9.445   5.147  34.088  0.1315 -0.2087 -0.0062
 7094W        W 9244  15.149   6.107  21.978 -0.0933  0.0014  0.1317
 7095W        W 9245  13.797   6.105  29.061  0.1222 -0.0024 -0.0853
 7096W        W 9246  22.465   4.356   7.026 -0.0499  0.1631  0.0672
 7097W        W 9247  24.459   3.597  23.607 -0.1048 -0.0294 -0.3896
 7098W        W 9248  13.945   2.559   4.858 -0.1001  0.2699  0.1463
 7099W        W 9249  20.580   1.098  35.720  0.0562 -0.0859 -0.0032
 7100W        W 9250   0.572   4.704  34.864  0.2192  0.3017  0.2078
 7101W        W 9251  15.816   3.853  15.686  0.0125 -0.0857  0.0330
 7102W        W 9252   4.462   0.240  13.765  0.1448  0.0420 -0.0795
 7103W        W 9253   6.913   2.509   3.640 -0.1985 -0.2298 -0.0583
 7104W        W 9254  10.479   5.405  27.031  0.0872  0.0645  0.1766
 7105W        W 9255   7.460   3.461  33.941  0.3788  0.0560  0.0984
 7106W        W 9256  18.533   6.438  12.321  0.2786  0.0219  0.0781
 7107W        W 9257  20.173   2.476  10.938 -0.0043  0.0196  0.0602
 7108W        W 9258  13.065   5.242  32.877  0.2402 -0.0815  0.1306
 7109W        W 9259   7.307   1.368   6.737  0.2412  0.0897 -0.2815
 7110W        W 9260  19.714   5.284   7.628  0.3325  0.0239  0.1627
 7111W        W 9261   0.886   1.410  13.698 -0.0438  0.0053 -0.0278
 7112W        W 9262   0.040   6.462  27.311 -0.1339 -0.1251  0.0741
 7113W        W 9263  18.166   1.218  26.263  0.2592  0.2823 -0.2122
 7114W        W 9264   7.192   1.020  20.989  0.0383  0.1716  0.2869
 7115W        W 9265   7.471   1.783  34.835  0.1082  0.0656  0.0471
 7116W        W 9266  24.913   4.897  11.367 -0.3374  0.2609  0.0300
 7117W        W 9267  16.692   4.911  35.668  0.0881 -0.4153  0.0741
 7118W        W 9268   1.234   3.694  12.721  0.0167  0.0801 -0.1241
 7119W        W 9269  15.633   2.008   5.223 -0.0552  0.1293  0.4253
 7120W        W 9270   4.612   6.367   4.925  0.1312  0.2458 -0.3070
 7121W        W 9271   1.056   0.700  13.211 -0.2429  0.2690  0.0961
 7122W        W 9272  18.375   5.270  28.523  0.1912 -0.0059  0.0142
 7123W        W 9273   2.474   3.942  34.454  0.0871  0.2022 -0.2067
 7124W        W 9274  13.068   4.200   4.362  0.0552 -0.0755 -0.0131
 7125W        W 9275   3.380   5.025   4.818  0.1520 -0.1243  0.0800
 7126W        W 9276  13.920   5.548   1.201  0.2412  0.0656 -0.1963
 7127W        W 9277  26.408   3.589   5.621  0.0437  0.2324  0.1082
 7128W        W 9278  24.512   0.481  20.809 -0.0132 -0.0700 -0.1122
 7129W        W 9279  13.453   6.006  29.984 -0.0527 -0.2666 -0.3432
 7130W        W 9280  23.223   0.823   8.828  0.0300  0.0682 -0.0654
 7131W        W 9281  18.517   6.604  31.654 -0.0475 -0.0427  0.1303
 7132W        W 9282   5.434   0.874  22.278  0.2667 -0.0214 -0.2207
 7133W        W 9283   8.129   5.313   1.262  0.0649 -0.2546 -0.3318
 7134W        W 9284  20.347   5.966  30.117 -0.2066  0.2771  0.2143
 7135W        W 9285  16.557   1.622  24.500 -0.0741 -0.1192  0.0544
 7136W        W 9286   4.745   0.738  14.392 -0.0203 -0.1234 -0.1065
 7137W        W 9287  16.671   2.595  13.040 -0.2166  0.1217  0.0956
 7138W        W 9288  21.601   2.050  28.847  0.0377  0.2028 -0.1499
 7139W        W 9289   6.270   4.305  22.008 -0.0696 -0.1571 -0.1978
 7140W        W 9290  24.460   4.214  28.470 -0.0033 -0.1494 -0.1804
 7141W        W 9291  24.763   2.168  15.479 -0.2949  0.0436 -0.0380
 7142W        W 9292  17.094   6.034  33.722  0.2429  0.0448 -0.0447
 7143W        W 9293  23.779   0.936   5.869 -0.0468 -0.0642 -0.1345
 7144W        W 9294  14.014   3.585  23.749 -0.1316 -0.0731 -0.0148
 7145W        W 9295  12.131   5.811   0.675  0.0408  0.5176  0.0005
 7146W        W 9296   9.816   0.878   3.150  0.1024 -0.0904  0.3078
 7147W        W 9297   4.394   3.809  24.087 -0.4104 -0.0709  0.0579
 7148W        W 9298  11.501   3.877  25.649 -0.0129 -0.0055  0.0866
 7149W        W 9299  14.270   1.164   0.896 -0.1271  0.3550  0.1994
 7150W        W 9300  26.221   0.593   4.757 -0.2791  0.1200 -0.1133
 7151W        W 9301   5.131   4.233  10.241 -0.2109 -0.0977 -0.5734
 7152W        W 9302  21.906   3.380  13.669 -0.4694  0.1612 -0.4489
 7153W        W 9303  25.673   1.984   1.998 -0.1040  0.1881 -0.0815
 7154W        W 9304  11.623   3.879  11.678  0.1949  0.1919 -0.1414
 7155W        W 9305   3.864   3.852  33.684  0.2686 -0.0828 -0.0809
 7156W        W 9306  20.819   4.035  21.482 -0.0122 -0.0145 -0.2372
 7157W        W 9307   6.845   3.967  36.140  0.0769  0.1117 -0.1450
 7158W        W 9308  21.832   4.528   5.886 -0.0689 -0.3090  0.1467
 7159W        W 9309   8.917   1.631  10.127  0.0568  0.0550  0.0682
 7160W        W 9310  19.086   0.399  31.611 -0.0964 -0.1733  0.0194
 7161W        W 9311  26.008   0.319   9.330 -0.1518  0.2978 -0.0423
 7162W        W 9312  11.569   4.116   6.047 -0.0673 -0.0337  0.3050
 7163W        W 9313   8.828   3.069   1.124 -0.0354 -0.1638  0.1827
 7164W        W 9314   8.932   0.056  29.124  0.2053  0.1917 -0.0574
 7165W        W 9315  15.066   5.472  35.175  0.3924 -0.0366 -0.3431
 7166W        W 9316   4.645   5.887  28.747 -0.0404  0.1192  0.2053
 7167W        W 9317   6.789   2.100  23.382 -0.0915 -0.1135  0.0539
 7168W        W 9318   2.401   3.403   3.729  0.1548  0.2269 -0.1079
 7169W        W 9319   9.955   1.434  11.822 -0.0491 -0.0077  0.1334
 7170W        W 9320   0.310   0.325  30.603 -0.3925 -0.0009  0.0370
 7171W        W 9321   3.675   4.887  26.576  0.2539  0.2024 -0.0299
 7172W        W 9322  13.998   4.092   1.643  0.1621 -0.0250  0.3239
 7173W        W 9323  22.260   6.570  34.133  0.1221 -0.1322  0.1671
 7174W        W 9324  23.688   6.017  35.390 -0.0473 -0.1023 -0.2443
 7175W        W 9325  19.422   3.535   6.635 -0.0990 -0.2071  0.1197
 7176W        W 9326   9.994   5.336  32.410  0.2460  0.0895 -0.0597
 7177W        W 9327  14.179   4.153  34.672 -0.1255  0.0203  0.2309
 7178W        W 9328  23.958   4.581  31.564  0.1456  0.1694 -0.0178
 7179W        W 9329  16.344   4.714  29.108 -0.1342 -0.3132 -0.1058
 7180W        W 9330  16.952   4.898   1.278 -0.1777 -0.1681  0.0544
 7181W        W 9331  18.464   3.056  24.654 -0.1197 -0.1315 -0.0073
 7182W        W 9332  10.413   0.811   0.563  0.0823  0.0806  0.0147
 7183W        W 9333   6.107   2.940  10.251  0.1217  0.2139 -0.2809
 7184W        W 9334  21.034   5.430  33.068 -0.1779 -0.1307 -0.0466
 7185W        W 9335   5.635   3.249  24.254 -0.0377 -0.1665  0.2791
 7186W        W 9336  26.377   5.600   7.934  0.0474 -0.1066  0.0821
 7187W        W 9337  15.751   3.383   5.456  0.3046 -0.0425  0.0869
 7188W        W 9338  11.368   3.038  25.264  0.2523 -0.0641 -0.1657
 7189W        W 9339  22.798   4.363  20.484 -0.3478 -0.2410  0.2792
 7190W        W 9340   3.753   1.406  22.941  0.1128  0.0567 -0.0234
 7191W        W 9341   6.925   3.789  33.911 -0.1854 -0.1731 -0.1720
 7192W        W 9342  12.366   1.407   3.255 -0.2248  0.0129  0.0359
 7193W        W 9343   6.221   3.771  29.998  0.0324 -0.1286 -0.0326
 7194W        W 9344  15.951   5.556   3.703 -0.1456 -0.2342  0.0870
 7195W        W 9345  22.075   0.475  27.378  0.2337  0.2147 -0.1097
 7196W        W 9346   8.452   1.485  31.727 -0.1892  0.1594  0.0901
 7197W        W 9347  25.715   3.258  24.909 -0.0767  0.2943  0.0694
 7198W        W 9348   8.642   5.874  14.405 -0.1818 -0.1201  0.2572
 7199W        W 9349   7.204   4.609  22.105 -0.1670 -0.0011  0.1807
 7200W        W 9350  14.610   3.448   7.487  0.2595  0.0735 -0.0985
 7201W        W 9351  25.270   5.026   3.581  0.0300  0.2486 -0.2312
 7202W        W 9352  18.895   4.423  28.084 -0.1855  0.1740  0.0726
 7203W        W 9353   3.722   0.955   5.589  0.0803  0.0081 -0.0441
 7204W        W 9354  25.765   6.535  15.392  0.2360  0.1223 -0.1239
 7205W        W 9355   6.712   3.122  14.668  0.0035 -0.2962  0.5519
 7206W        W 9356  10.443   4.983   8.994 -0.1104  0.0050 -0.0913
 7207W        W 9357   7.270   3.212   4.383  0.0921 -0.1052 -0.1028
 7208W        W 9358   2.110   0.500  21.370  0.0913 -0.1138 -0.2191
 7209W        W 9359  24.731   3.454   5.796  0.0049 -0.4555 -0.1432
 7210W        W 9360  18.093   3.910  26.176  0.1162  0.0509 -0.2364
 7211W        W 9361  20.376   0.056  11.218  0.0942  0.0148  0.0069
 7212W        W 9362  25.163   2.272   8.516 -0.0914 -0.1421 -0.0894
 7213W        W 9363   3.405   2.084  25.375  0.0340  0.1592 -0.0454
 7214W        W 9364   4.450   1.766   8.559  0.0382 -0.1598 -0.0540
 7215W        W 9365  21.788   4.783   0.890  0.0010 -0.2652 -0.1581
 7216W        W 9366  12.146   4.059  35.744  0.1618  0.2628 -0.0496
 7217W        W 9367  20.537   0.257   1.462  0.1591  0.0576 -0.0597
 7218W        W 9368  14.501   4.319   8.065  0.1656  0.2901 -0.0163
 7219W        W 9369  22.301   6.314  24.423  0.3032  0.1014 -0.1259
 7220W        W 9370  23.884   3.005  30.294  0.0438  0.0905  0.0167
 7221W        W 9371  14.426   1.292  27.857  0.5059 -0.0202 -0.2099
 7222W        W 9372   1.852   5.416  14.922 -0.3887  0.2716  0.1095
 7223W        W 9373  13.496   6.602  11.312  0.0523  0.0808 -0.2107
 7224W        W 9374   4.510   4.217  12.189  0.0019  0.1216  0.3082
 7225W        W 9375  15.145   3.948  35.498 -0.3289  0.2552  0.0104
 7226W        W 9376  24.522   4.976  14.208  0.1260  0.0558 -0.2922
 7227W        W 9377  10.653   1.164  33.206 -0.0442 -0.0011 -0.2021
 7228W        W 9378   4.376   1.770  30.398 -0.1487 -0.0625  0.4171
 7229W        W 9379  15.712   5.706  28.551 -0.0192  0.0668 -0.0263
 7230W        W 9380  19.576   4.525  25.269  0.2496  0.0962 -0.1596
 7231W        W 9381  24.439   4.209  21.502 -0.1837 -0.0424  0.2730
 7232W        W 9382  10.502   0.870  32.293 -0.2699 -0.1425  0.1224
 7233W        W 9383   4.740   0.911  12.404 -0.1348  0.1549  0.0358
 7234W        W 9384  23.381   1.550   7.869  0.3590  0.0284  0.1472
 7235W        W 9385   6.605   4.051   5.320  0.1321 -0.0260  0.1816
 7236W        W 9386  10.819   5.080   4.440  0.2737 -0.0335  0.0204
 7237W        W 9387   8.536   4.045  35.072 -0.0859 -0.0991 -0.1925
 7238W        W 9388  20.199   1.476  21.041  0.0786  0.0016  0.3130
 7239W        W 9389   9.003   4.206  26.491 -0.0016 -0.0606 -0.1679
 7240W        W 9390   1.319   0.873  32.479 -0.3927 -0.0233  0.0996
 7241W        W 9391  10.968   0.211   6.512  0.1744  0.0322 -0.5295
 7242W        W 9392   1.426   4.743  25.951  0.1066 -0.0582 -0.1347
 7243W        W 9393  17.276   5.866   6.091 -0.1198 -0.0160  0.0364
 7244W        W 9394   9.311   5.844  14.004 -0.0995 -0.0817 -0.3717
 7245W        W 9395  18.978   1.275  30.589 -0.1707 -0.2225 -0.3443
 7246W        W 9396   3.835   5.022   2.305 -0.0252  0.0701 -0.1899
 7247W        W 9397  13.925   4.484   2.922  0.0489 -0.3195 -0.0753
 7248W        W 9398   9.487   1.701  11.711  0.1693 -0.2180 -0.0952
 7249W        W 9399  15.568   3.432  21.457 -0.0848 -0.1073  0.1144
 7250W        W 9400   3.590   4.150  29.836 -0.0211 -0.0410 -0.0380
 7251W        W 9401   7.037   2.876  26.804  0.0186 -0.3559 -0.2764
 7252W        W 9402   1.259   5.896   7.910 -0.0701 -0.3879  0.4215
 7253W        W 9403   9.299   3.649  35.534  0.0695 -0.2353  0.2073
 7254W        W 9404  22.034   1.869   4.376 -0.0361  0.0750  0.0993
 7255W        W 9405  24.649   0.654  25.465  0.0575  0.1377  0.0303
 7256W        W 9406  13.719   0.354   0.219  0.2502 -0.2403 -0.3022
 7257W        W 9407   0.287   1.854  24.476 -0.1536  0.2580  0.2976
 7258W        W 9408  19.496   1.644  26.848 -0.0773 -0.1157  0.1163
 7259W        W 9409   1.744   6.024   1.756 -0.0763  0.0831 -0.2196
 7260W        W 9410   7.747   0.280  34.251 -0.0817 -0.1032 -0.1344
 7261W        W 9411  17.677   6.474  21.968 -0.3445  0.2239 -0.0938
 7262W        W 9412  22.346   4.548  11.570  0.0393 -0.1565  0.2228
 7263W        W 9413  20.589   6.136  14.983 -0.1448 -0.2806 -0.0315
 7264W        W 9414  11.297   1.018  22.853 -0.0193 -0.3111 -0.0749
 7265W        W 9415  25.395   5.094  24.498 -0.1001 -0.0139 -0.2607
 7266W        W 9416  13.082   5.800  21.300 -0.0683 -0.2595 -0.2130
 7267W        W 9417  24.017   3.880   0.434  0.1297  0.0989 -0.0068
 7268W        W 9418  14.933   2.051  10.035 -0.0655 -0.0665  0.1131
 7269W        W 9419  16.176   6.222  28.086 -0.0978  0.3544  0.1973
 7270W        W 9420   5.805   2.587  31.246 -0.0541  0.1839 -0.1527
 7271W        W 9421  22.063   2.239  28.239  0.1636 -0.2680 -0.1405
 7272W        W 9422  22.118   3.359  32.545  0.3843 -0.1315 -0.2368
 7273W        W 9423  10.527   2.020   5.858 -0.1377  0.5776  0.0148
 7274W        W 9424   9.187   4.012  12.514 -0.0723 -0.1677 -0.0091
 7275W        W 9425   8.277   0.483  10.200  0.1653 -0.1302 -0.0762
 7276W        W 9426  14.611   2.736  27.471 -0.0811  0.1072 -0.2769
 7277W        W 9427  21.902   3.273  35.954  0.0644 -0.1589  0.0504
 7278W        W 9428   7.616   5.045  21.506  0.3047 -0.0955  0.2485
 7279W        W 9429   1.125   0.194  29.986 -0.2961  0.3781 -0.0604
 7280W        W 9430   3.485   5.913  29.492  0.0125  0.2150  0.2779
 7281W        W 9431   5.288   3.301  31.064 -0.3268  0.0890  0.1298
 7282W        W 9432  23.126   1.387  25.117 -0.5884 -0.1217  0.0045
 7283W        W 9433   1.082   5.259   6.310 -0.2675 -0.0602  0.0021
 7284W        W 9434  22.930   0.715   6.170 -0.0567 -0.2489 -0.0171
 7285W        W 9435  11.558   5.547  31.987  0.1244  0.0520 -0.3444
 7286W        W 9436   9.995   4.150   1.699  0.0484  0.4849  0.1536
 7287W        W 9437  14.735   0.625   2.544  0.1533  0.1535  0.0935
 7288W        W 9438  24.183   1.538  29.392 -0.0816  0.0923  0.0783
 7289W        W 9439   0.580   3.444  36.071  0.2228 -0.0833 -0.2898
 7290W        W 9440  18.093   0.790   8.492 -0.1008  0.1756 -0.1719
 7291W        W 9441  21.239   5.667  27.855  0.0569 -0.0089  0.2069
 7292W        W 9442  18.193   2.606  31.825  0.3562 -0.3369 -0.0972
 7293W        W 9443   8.920   5.927  21.290 -0.1389 -0.0489  0.2258
 7294W        W 9444  21.275   3.628  30.395 -0.0262  0.0632  0.1686
 7295W        W 9445   9.106   5.400  26.998  0.0198 -0.0946  0.2260
 7296W        W 9446  12.826   1.331  21.491  0.1151  0.0912 -0.2043
 7297W        W 9447   7.347   6.239  20.908 -0.0620 -0.0757  0.3097
 7298W        W 9448  14.139   5.567   5.245  0.2470  0.1471  0.2673
 7299W        W 9449  17.710   4.100  23.562 -0.2740 -0.1646  0.0165
 7300W        W 9450  11.614   1.765  28.476 -0.2079  0.0062  0.1922
 7301W        W 9451  26.366   0.507   3.754 -0.0599 -0.1971  0.2712
 7302W        W 9452   7.823   5.949  32.105  0.1005 -0.0435 -0.2877
 7303W        W 9453   5.965   4.264  15.071 -0.2158 -0.0029 -0.2497
 7304W        W 9454   3.801   1.729  32.905 -0.2219  0.0054 -0.1377
 7305W        W 9455  14.790   4.941   8.018  0.0133 -0.0205 -0.2670
 7306W        W 9456  10.180   1.916  13.725  0.3152 -0.3126 -0.0521
 7307W        W 9457  20.514   1.535  20.034 -0.2749 -0.3873  0.0240
 7308W        W 9458  15.795   1.726  24.142  0.0668  0.2935 -0.1947
 7309W        W 9459  10.845   1.666  23.344  0.0180  0.1181 -0.1903
 7310W        W 9460  25.563   4.057   7.885 -0.1799 -0.1563  0.2672
 7311W        W 9461   1.546   5.865  10.121 -0.2167  0.0749  0.0851
 7312W        W 9462   7.257   5.401  13.527 -0.0397  0.0022 -0.3996
 7313W        W 9463  12.230   5.411  26.010  0.1984 -0.2443  0.3983
 7314W        W 9464  22.372   1.872  31.490  0.2140 -0.0124 -0.2381
 7315W        W 9465  22.377   6.292  25.962 -0.2253 -0.0922  0.0001
 7316W        W 9466  10.970   3.644  33.417 -0.3323  0.1481 -0.2609
 7317W        W 9467  22.855   4.951  13.010 -0.1058 -0.0558 -0.1448
 7318W        W 9468  10.325   5.253  12.692  0.3784 -0.0675  0.0025
 7319W        W 9469  16.038   6.232  27.318 -0.1459  0.1373 -0.1023
 7320W        W 9470  15.916   5.950  24.831  0.0803  0.2448 -0.0870
 7321W        W 9471  10.804   5.919  34.642 -0.3167 -0.0996 -0.0628
 7322W        W 9472  17.355   1.774   6.375 -0.2122  0.0065  0.0040
 7323W        W 9473   0.804   2.854  26.925  0.2517 -0.0763  0.1355
 7324W        W 9474   0.172   6.553   2.370 -0.0201 -0.1200  0.0620
 7325W        W 9475   0.757   2.976   9.678 -0.3577  0.2191 -0.0720
 7326W        W 9476  22.517   2.712  14.153  0.3479  0.0648 -0.2095
 7327W        W 9477   3.046   3.923  31.474  0.2183 -0.4652  0.1367
 7328W        W 9478  22.578   2.897   6.679  0.3013  0.2091 -0.2192
 7329W        W 9479   5.645   0.544  32.575 -0.1704  0.2974 -0.2737
 7330W        W 9480   5.752   5.638  30.260 -0.1701 -0.1016  0.0108
 7331W        W 9481  24.101   6.185  35.863  0.0857  0.0654 -0.0262
 7332W        W 9482   8.965   1.359   5.594 -0.1742  0.3023 -0.0103
 7333W        W 9483   9.382   4.791  14.273  0.0264  0.2401 -0.0101
 7334W        W 9484  13.364   5.816  35.799  0.2528  0.2898 -0.2004
 7335W        W 9485   5.575   6.353   6.397  0.4873  0.0875 -0.2815
 7336W        W 9486  18.564   0.855  31.852 -0.1511  0.2679 -0.2166
 7337W        W 9487  14.330   1.490   0.503 -0.1783 -0.0132 -0.3918
 7338W        W 9488   6.807   2.649   7.856  0.2128 -0.1241 -0.2153
 7339W        W 9489   6.253   0.368  26.944 -0.3127 -0.1295  0.2085
 7340W        W 9490  12.499   2.434   6.689  0.1662 -0.0362 -0.0817
 7341W        W 9491   4.974   1.929  25.428 -0.1038  0.2234 -0.2395
 7342W        W 9492   5.253   3.761  35.785  0.1048  0.3110  0.1138
 7343W        W 9493  18.228   1.126  33.793 -0.1720 -0.3028 -0.0978
 7344W        W 9494  11.580   2.156  29.672 -0.3993  0.2039 -0.0201
 7345W        W 9495  24.981   6.442   4.067 -0.1530  0.0196  0.2795
 7346W        W 9496  20.536   2.700   5.991 -0.1680 -0.2852 -0.1543
 7347W        W 9497  13.849   0.000  26.537 -0.0534 -0.0795 -0.2231
 7348W        W 9498  23.695   0.132  29.952 -0.1249 -0.0769  0.2824
 7349W        W 9499  16.362   3.780  14.029 -0.0472 -0.1562  0.0926
 7350W        W 9500   4.296   1.805  24.905 -0.3699 -0.0172 -0.2864
 7351W        W 9501   5.484   0.417  13.751  0.0043 -0.2907 -0.1415
 7352W        W 9502  21.350   6.307  12.973  0.1256  0.2007 -0.0641
 7353W        W 9503   1.264   2.781  23.058 -0.2721  0.3040 -0.0035
 7354W        W 9504   7.014   5.017   2.933 -0.0404 -0.0398  0.0135
 7355W        W 9505  20.725   1.840  30.274 -0.0430 -0.0749  0.1473
 7356W        W 9506   5.568   4.003   7.252 -0.1167  0.0200 -0.0101
 7357W        W 9507  14.817   0.494   7.522 -0.0756 -0.0175  0.1202
 7358W        W 9508   9.610   5.403  25.952 -0.0981 -0.2600  0.0510
 7359W        W 9509  15.807   3.964   7.678  0.1011 -0.1835  0.1553
 7360W        W 9510  17.905   3.813   0.161 -0.5140  0.0290 -0.0265
 7361W        W 9511  16.024   3.831  25.822 -0.0556  0.1758 -0.0215
 7362W        W 9512  24.938   1.556  26.646 -0.2075  0.1576  0.3372
 7363W        W 9513  14.716   4.016  12.133 -0.0396  0.1875  0.1716
 7364W        W 9514   0.806   5.612  13.182 -0.0845 -0.0824 -0.1171
 7365W        W 9515  12.964   5.596  29.942  0.0924  0.1483 -0.0667
 7366W        W 9516   7.661   1.256  30.520 -0.0157 -0.2650  0.0969
 7367W        W 9517   8.325   0.754  26.209 -0.2913  0.3306 -0.2785
 7368W        W 9518   9.387   5.205  23.972 -0.1926  0.0507 -0.1217
 7369W        W 9519   5.859   5.644  21.707  0.1125  0.0570  0.1022
 7370W        W 9520  13.537   1.931  13.697 -0.0333 -0.2707  0.2068
 7371W        W 9521  17.340   0.047  25.779  0.1431  0.2008  0.2259
 7372W        W 9522  18.522   3.169  22.088 -0.0166  0.2381 -0.0661
 7373W        W 9523  10.762   5.618   0.386  0.2662 -0.1746 -0.2269
 7374W        W 9524  16.626   1.768   7.991  0.0253 -0.1448 -0.0533
 7375W        W 9525  25.766   6.469   9.311  0.1115 -0.0767  0.0325
 7376W        W 9526  10.100   5.560   9.664  0.0040 -0.2572 -0.1842
 7377W        W 9527   8.893   6.458  13.633  0.2014 -0.0956  0.0111
 7378W        W 9528  13.436   4.746  22.076  0.1494  0.2922  0.1649
 7379W        W 9529   9.087   5.087  31.976  0.1160 -0.3126 -0.1664
 7380W        W 9530   7.730   4.730  10.181  0.0123  0.0358  0.1789
 7381W        W 9531  21.702   4.303   4.834  0.0736 -0.0153 -0.1166
 7382W        W 9532  25.017   3.857   8.762  0.2225 -0.0073  0.2242
 7383W        W 9533  25.134   4.044  11.548 -0.0843  0.0567  0.2522
 7384W        W 9534  13.414   1.711   5.121 -0.1669  0.0085  0.0700
 7385W        W 9535  13.844   1.679   8.762  0.1680  0.0572  0.1719
 7386W        W 9536  13.511   4.537  11.312 -0.1062 -0.1103  0.0133
 7387W        W 9537  21.239   4.303  21.215 -0.3492 -0.0168  0.1546
 7388W        W 9538  11.539   1.380  25.359  0.3403  0.0023 -0.1225
 7389W        W 9539   1.600   1.569  13.118 -0.2055  0.1746 -0.2068
 7390W        W 9540  24.901   5.456  26.389  0.0400  0.0531  0.3052
 7391W        W 9541  25.753   6.048   4.706  0.0763  0.2944  0.0181
 7392W        W 9542  15.338   4.668  11.873 -0.2150 -0.1558  0.1907
 7393W        W 9543  19.663   6.608  34.159 -0.1105  0.0110 -0.0456
 7394W        W 9544  13.393   3.408  22.006 -0.0287  0.0105 -0.2739
 7395W        W 9545   9.525   4.577  15.075 -0.0845  0.1592  0.0576
 7396W        W 9546  21.898   3.723  12.665  0.0687 -0.1477  0.0295
 7397W        W 9547  20.963   2.992  12.010 -0.0047 -0.0815 -0.3006
 7398W        W 9548  15.613   0.975   5.093  0.0412  0.0794 -0.0353
 7399W        W 9549  17.743   0.070  10.634 -0.2234  0.0613  0.1340
 7400W        W 9550  20.534   6.316   0.698 -0.3069 -0.1101  0.3389
 7401W        W 9551  21.186   1.760  34.264 -0.1939 -0.1458  0.1958
 7402W        W 9552   5.668   3.423  20.844  0.0249 -0.2445 -0.0933
 7403W        W 9553   3.105   3.820   2.084 -0.2984 -0.2738 -0.0456
 7404W        W 9554  24.579   4.948  22.244 -0.1451  0.0527  0.3248
 7405W        W 9555  14.881   6.223  11.321 -0.2769  0.0875 -0.1481
 7406W        W 9556  18.701   4.987  22.964 -0.1573  0.2211  0.1675
 7407W        W 9557   7.849   6.118  15.225 -0.1808 -0.0186 -0.2530
 7408W        W 9558   5.120   2.416   5.676 -0.0400 -0.1847  0.1341
 7409W        W 9559  11.527   6.511   5.767  0.2174  0.3004  0.1234
 7410W        W 9560  24.291   1.771   5.807 -0.2505 -0.1518  0.1567
 7411W        W 9561  19.224   3.545  23.741  0.1882 -0.0985  0.0450
 7412W        W 9562   5.163   4.857  22.293 -0.1244  0.1367 -0.1913
 7413W        W 9563  11.273   3.366  33.685 -0.1010 -0.0469  0.1636
 7414W        W 9564  12.178   4.011  26.265 -0.1786  0.0605 -0.2873
 7415W        W 9565   8.543   2.688   0.979  0.1774  0.0512 -0.2985
 7416W        W 9566   9.061   5.784   6.178  0.0453  0.1118  0.0755
 7417W        W 9567   7.715   1.739   6.934  0.0778 -0.1128 -0.0079
 7418W        W 9568  19.810   5.931  15.695  0.1676  0.4180  0.0246
 7419W        W 9569   8.073   4.089  28.799 -0.3615 -0.0140  0.2177
 7420W        W 9570   7.586   3.110  10.763  0.1733 -0.0639 -0.0444
 7421W        W 9571  10.910   3.540   9.352  0.2855 -0.1764 -0.3600
 7422W        W 9572  23.595   3.956  21.937  0.0057 -0.0883 -0.0199
 7423W        W 9573  18.819   0.408   0.809 -0.0500  0.1511 -0.0992
 7424W        W 9574  15.609   0.215  11.750  0.1228 -0.0112 -0.0448
 7425W        W 9575  21.570   1.850   5.116  0.2716 -0.0278 -0.0699
 7426W        W 9576  11.456   0.002   0.110  0.0270 -0.0149 -0.2939
 7427W        W 9577   1.840   4.340  22.591 -0.0905 -0.1935 -0.0298
 7428W        W 9578  11.337   2.828  21.200  0.2599 -0.0837 -0.1141
 7429W        W 9579  14.732   0.570  23.305  0.2019 -0.3140 -0.1164
 7430W        W 9580   3.402   1.584  31.355 -0.0049  0.1866  0.1695
 7431W        W 9581  10.169   0.531   9.403  0.1041 -0.1341 -0.1569
 7432W        W 9582   8.586   1.372   4.797 -0.0219  0.0360 -0.0020
 7433W        W 9583   8.822   2.759   6.286  0.3071  0.1342  0.0282
 7434W        W 9584   2.672   0.944  23.184  0.2154  0.0330 -0.1784
 7435W        W 9585   3.628   4.615  31.875  0.0347  0.1802  0.2635
 7436W        W 9586   1.826   1.085   4.287 -0.2966 -0.1091  0.0047
 7437W        W 9587  24.330   0.950  25.665  0.2094 -0.0279  0.0624
 7438W        W 9588  24.104   0.174  20.581  0.0294  0.0503 -0.0277
 7439W        W 9589  19.336   2.042   7.545 -0.1378 -0.0506  0.4167
 7440W        W 9590   5.060   5.229   7.306 -0.0541  0.0028  0.0014
 7441W        W 9591  12.728   1.495  34.847  0.0571  0.1737  0.1267
 7442W        W 9592   9.113   3.766   6.336 -0.0189 -0.0252 -0.1830
 7443W        W 9593  11.126   0.325  23.930 -0.0135  0.0286 -0.0945
 7444W        W 9594  23.933   4.318   8.413  0.0774  0.1356  0.1166
 7445W        W 9595  11.027   3.774   4.734  0.1115 -0.0374  0.1344
 7446W        W 9596  23.271   1.754  22.823 -0.0153 -0.1039 -0.0160
 7447W        W 9597  22.807   3.844  10.889  0.0080 -0.2738  0.1130
 7448W        W 9598  17.701   5.108  12.689  0.1982  0.1199  0.0300
 7449W        W 9599  19.926   3.180  31.685  0.0946  0.0123 -0.0133
 7450W        W 9600   3.533   3.057   5.305  0.2660 -0.0851  0.0365
 7451W        W 9601   6.715   3.570  23.596 -0.4022 -0.2319  0.0698
 7452W        W 9602  17.156   0.372  11.032  0.0945 -0.1931  0.3518
 7453W        W 9603  18.423   0.927   7.714  0.0316 -0.1040 -0.1569
 7454W        W 9604   3.205   6.043  12.606 -0.0220 -0.0069 -0.1466
 7455W        W 9605  20.440   4.121   3.809 -0.2333  0.0301 -0.0027
 7456W        W 9606  19.000   5.383  10.973  0.2106 -0.0965  0.1906
 7457W        W 9607  26.210   2.635  21.636 -0.0118  0.2081  0.0894
 7458W        W 9608   4.875   1.391  29.012 -0.0883 -0.1653 -0.0065
 7459W        W 9609  14.360   1.760  28.768 -0.4061 -0.1732 -0.1292
 7460W        W 9610  10.246   0.505  30.115  0.0278 -0.1858  0.2961
 7461W        W 9611  18.184   5.161  25.793 -0.0713 -0.0211  0.0270
 7462W        W 9612  22.829   5.390  13.799  0.0937  0.1320 -0.1059
 7463W        W 9613   5.157   3.799  21.497  0.1785 -0.0816  0.0211
 7464W        W 9614  16.496   2.868   4.942  0.0608  0.1339 -0.2808
 7465W        W 9615  17.841   1.166  14.906 -0.0727  0.1629 -0.0570
 7466W        W 9616  11.816   4.697  27.545  0.2800 -0.1266 -0.1336
 7467W        W 9617  24.756   3.246  13.601  0.2219  0.0786 -0.0222
 7468W        W 9618   4.311   1.642  31.454 -0.1849 -0.0192 -0.0172
 7469W        W 9619   5.835   0.443  11.526  0.0124 -0.2093 -0.2092
 7470W        W 9620  19.874   3.671   6.760  0.1219  0.1271  0.1489
 7471W        W 9621   6.322   6.152  28.689  0.2320  0.1413 -0.0962
 7472W        W 9622  14.002   4.811  24.326 -0.3406 -0.0888 -0.1778
 7473W        W 9623  19.554   3.011  32.469  0.1063 -0.1184 -0.3591
 7474W        W 9624  18.671   3.330  12.388  0.0508 -0.0380 -0.0746
 7475W        W 9625   7.591   5.355  26.136 -0.1891 -0.0854 -0.0130
 7476W        W 9626  12.066   2.506   4.598  0.3555 -0.1419  0.0257
 7477W        W 9627   4.106   0.990  31.876 -0.1978 -0.0087  0.0123
 7478W        W 9628  16.999   4.305   2.652 -0.0696 -0.2398 -0.0696
 7479W        W 9629  20.202   0.964  12.119 -0.1640  0.1061 -0.2221
 7480W        W 9630  24.115   0.980  29.420  0.0799  0.1865  0.2581
 7481W        W 9631  10.745   5.667  22.063  0.1358 -0.1495 -0.0421
 7482W        W 9632  14.322   5.123   7.204  0.1931  0.2514  0.0492
 7483W        W 9633  19.175   1.621  35.468  0.0958 -0.0634  0.3543
 7484W        W 9634   9.549   3.071  13.450  0.0157  0.2631 -0.1279
 7485W        W 9635  25.027   3.170  34.062 -0.1291 -0.3254  0.1619
 7486W        W 9636   0.721   5.792  29.646 -0.1296 -0.0964  0.0824
 7487W        W 9637  18.760   4.000  26.687  0.2108 -0.1852  0.1007
 7488W        W 9638  14.236   0.702  30.891 -0.0106  0.0199  0.2938
 7489W        W 9639  16.611   1.791   4.302  0.3635  0.0741 -0.1138
 7490W        W 9640   4.394   3.719  26.876 -0.3112  0.0953  0.0117
 7491W        W 9641  10.596   4.911  26.970  0.0518  0.4124  0.1831
 7492W        W 9642   2.248   3.361  28.753 -0.0826  0.1033  0.0158
 7493W        W 9643   4.700   0.046  12.637  0.0392 -0.2855 -0.1714
 7494W        W 9644  13.894   2.827  23.978  0.0802 -0.1296  0.3048
 7495W        W 9645  23.132   2.625  30.158 -0.3657  0.0589 -0.3229
 7496W        W 9646  11.187   0.430  35.499 -0.1630 -0.0324  0.0441
 7497W        W 9647  11.631   4.648  32.491 -0.1692 -0.2197 -0.1828
 7498W        W 9648  12.504   5.390  22.326 -0.3629  0.1270 -0.0440
 7499W        W 9649  23.768   0.782  10.861  0.0646  0.0101  0.0877
 7500W        W 9650   4.927   5.571  31.954 -0.0095 -0.0715 -0.0602
 7501W        W 9651  19.335   5.470   3.416  0.1359  0.0847  0.1817
 7502W        W 9652  11.125   1.059  25.495 -0.1220 -0.0777  0.1710
 7503W        W 9653  23.836   4.192  33.809  0.1924 -0.3216  0.0990
 7504W        W 9654  10.119   2.560  24.218 -0.0349 -0.1677  0.2325
 7505W        W 9655  11.315   3.683  31.724  0.0885  0.2333  0.1159
 7506W        W 9656  16.454   0.751  21.987  0.0271 -0.0484 -0.1903
 7507W        W 9657  20.812   5.803  29.913  0.1627  0.2478 -0.0311
 7508W        W 9658  23.110   0.531  29.821  0.1301  0.0617 -0.1249
 7509W        W 9659  25.791   1.533  32.331 -0.1652  0.0372 -0.0149
 7510W        W 9660  25.574   4.910  23.939 -0.0186  0.1230  0.1625
 7511W        W 9661  15.457   6.526  29.161 -0.0996 -0.1345  0.1307
 7512W        W 9662  15.641   5.249   9.510 -0.0020  0.1056  0.0733
 7513W        W 9663   3.839   1.894  33.808 -0.2811 -0.0538  0.0202
 7514W        W 9664   8.639   2.717  35.830 -0.0646 -0.2714  0.2061
 7515W        W 9665  18.925   0.356   9.821  0.1680  0.3600 -0.1404
 7516W        W 9666   0.422   0.903   5.437  0.2226  0.4365  0.0309
 7517W        W 9667   9.672   0.894  13.914  0.0350 -0.0595  0.3066
 7518W        W 9668   0.654   6.498   2.519 -0.2582  0.0595  0.0971
 7519W        W 9669  19.065   2.043   6.824  0.4056 -0.1641 -0.1570
 7520W        W 9670  18.005   5.430   1.943 -0.0937 -0.2520  0.0708
 7521W        W 9671  13.920   4.303  21.618 -0.2610  0.4108 -0.0052
 7522W        W 9672  20.490   4.543  24.576 -0.6214  0.1068  0.1728
 7523W        W 9673  10.982   5.385  30.494  0.2140  0.2139 -0.0730
 7524W        W 9674   7.344   2.576  31.340 -0.0642 -0.0271  0.0558
 7525W        W 9675  12.001   4.541  34.532 -0.1120  0.1822  0.0819
 7526W        W 9676   5.676   3.196  33.708 -0.1396  0.0567 -0.2661
 7527W        W 9677   5.935   5.363   0.188 -0.4210  0.0780 -0.2109
 7528W        W 9678  23.672   2.349   5.907 -0.1552 -0.0574  0.3547
 7529W        W 9679   6.210   0.343  11.238  0.3385  0.0423 -0.4807
 7530W        W 9680   6.049   5.074  26.120 -0.1589  0.2495  0.1657
 7531W        W 9681  19.371   3.872  31.958  0.1287 -0.1646 -0.1467
 7532W        W 9682   5.317   1.779  25.030  0.1025 -0.0243  0.2267
 7533W        W 9683  13.648   1.724   3.042 -0.0220  0.0321 -0.0428
 7534W        W 9684   5.401   3.523   8.000 -0.0583 -0.0580  0.3277
 7535W        W 9685   6.620   2.642  14.398 -0.3374 -0.2677  0.2504
 7536W        W 9686  20.565   4.647  31.084  0.0340 -0.4936 -0.0820
 7537W        W 9687  23.901   0.595  23.622 -0.2259 -0.0186  0.0664
 7538W        W 9688  13.509   3.539   5.367  0.0507 -0.3677  0.1623
 7539W        W 9689  20.818   1.100  20.164 -0.0198 -0.0087  0.0672
 7540W        W 9690  11.546   4.814  34.787  0.2164 -0.1586 -0.4169
 7541W        W 9691  23.044   4.535   1.317 -0.3986  0.1587 -0.2935
 7542W        W 9692   7.692   4.469  25.830  0.0780  0.1570  0.1078
 7543W        W 9693  24.982   0.520  14.221 -0.0187  0.4026 -0.1398
 7544W        W 9694  17.387   3.288  14.302 -0.3056  0.0780 -0.2249
 7545W        W 9695  17.871   5.464  13.562 -0.0889 -0.0230 -0.0234
 7546W        W 9696   7.802   0.124   4.679 -0.0690 -0.1409 -0.4657
 7547W        W 9697   5.249   6.533  25.802 -0.0482 -0.0325  0.1673
 7548W        W 9698   8.596   1.396   3.027  0.2038 -0.1485  0.2581
 7549W        W 9699  10.190   4.698  31.233  0.0904  0.0461  0.0055
 7550W        W 9700  16.349   5.874  12.731  0.1280 -0.0942  0.2326
 7551W        W 9701   9.947   4.371  35.323 -0.0111 -0.0703  0.0531
 7552W        W 9702   1.155   3.996   3.846 -0.1053  0.3023  0.0527
 7553W        W 9703  19.475   4.928  25.643 -0.1510 -0.3198  0.0274
 7554W        W 9704  23.862   6.099   5.865  0.1960  0.0734  0.2157
 7555W        W 9705  26.215   5.993  28.069  0.4774 -0.3351 -0.0453
 7556W        W 9706   4.386   6.405  25.010  0.1440 -0.1206  0.2024
 7557W        W 9707   9.450   1.459  14.931 -0.0307 -0.2196  0.0075
 7558W        W 9708   9.280   4.164  22.399  0.0319 -0.0777 -0.1611
 7559W        W 9709   3.240   0.926  22.233  0.1291 -0.2816  0.3200
 7560W        W 9710  22.659   5.801   3.350  0.0630 -0.0924 -0.2536
 7561W        W 9711  23.871   2.442  31.495  0.2451  0.0924 -0.3172
 7562W        W 9712  17.326   4.211  15.466  0.1771  0.0066  0.4486
 7563W        W 9713  23.679   0.371  11.737  0.0591  0.0642 -0.1339
 7564W        W 9714  26.398   6.275  14.152 -0.0060 -0.6006  0.1198
 7565W        W 9715   5.982   0.735  22.074 -0.5195 -0.2006  0.2064
 7566W        W 9716   0.408   1.187  10.478  0.1306 -0.1315  0.0468
 7567W        W 9717  16.545   5.064  25.942  0.2540  0.0349  0.1587
 7568W        W 9718   4.276   4.341   0.604 -0.0337 -0.0427 -0.1493
 7569W        W 9719  19.112   2.526  31.755 -0.1261  0.0801  0.1255
 7570W        W 9720   6.304   0.946  26.428 -0.0011  0.2236  0.1476
 7571W        W 9721   3.950   0.952  15.344 -0.2128  0.0047 -0.2332
 7572W        W 9722   8.800   2.303  12.176  0.4957 -0.0119  0.4173
 7573W        W 9723   4.667   4.068  21.331  0.1395  0.2263  0.1055
 7574W        W 9724   5.437   6.205  31.862  0.5226 -0.1299 -0.0178
 7575W        W 9725   2.270   6.050   1.679 -0.0595  0.1379  0.0715
 7576W        W 9726  12.241   6.344  24.725  0.3613 -0.0842  0.4502
 7577W        W 9727   0.711   5.356  11.512 -0.2726  0.0202  0.1422
 7578W        W 9728   4.761   0.454  14.772  0.2771 -0.1870 -0.2795
 7579W        W 9729  23.543   1.064  33.862 -0.0727  0.1766  0.4091
 7580W        W 9730   8.045   0.895  23.435 -0.2891  0.1867 -0.1019
 7581W        W 9731  19.140   0.698  33.751 -0.1372  0.1062  0.0622
 7582W        W 9732  13.782   5.407  23.075  0.0459  0.0645 -0.5464
 7583W        W 9733   3.547   5.186  22.319 -0.0279 -0.3162 -0.1177
 7584W        W 9734  22.799   2.680  22.720  0.2279  0.2038 -0.4976
 7585W        W 9735   6.758   2.603   7.058 -0.0769 -0.1804  0.3357
 7586W        W 9736  21.632   2.503  20.934  0.1998  0.2548 -0.1246
 7587W        W 9737  13.430   3.745  33.763  0.0870 -0.2946 -0.1748
 7588W        W 9738   3.486   5.607  24.268  0.1608 -0.1807  0.0251
 7589W        W 9739   6.478   2.393  23.679 -0.0597 -0.3294 -0.1091
 7590W        W 9740   7.952   1.082   8.460 -0.0887  0.2298  0.0933
 7591W        W 9741   1.933   4.467   4.868  0.1744 -0.1234  0.0481
 7592W        W 9742   7.478   4.458   3.861 -0.0689  0.4625  0.1055
 7593W        W 9743   8.016   1.313  21.108 -0.2188 -0.3259  0.1830
 7594W        W 9744   5.364   1.749  12.564  0.1040  0.1227  0.0261
 7595W        W 9745  14.928   0.908  21.526  0.1245  0.1449  0.0837
 7596W        W 9746  25.428   1.401  28.772  0.1339  0.1858 -0.4264
 7597W        W 9747   9.692   2.472  12.094  0.1204  0.1571  0.0791
 7598W        W 9748  11.249   2.944   4.376  0.0227  0.2019 -0.0898
 7599W        W 9749   4.042   2.661  12.434  0.0887 -0.1661 -0.3508
 7600W        W 9750  12.294   0.809  29.488  0.0359 -0.1526  0.3853
 7601W        W 9751  25.372   4.971  21.866  0.0862  0.0668 -0.1506
 7602W        W 9752  11.719   5.522  21.352  0.0533  0.0520  0.0719
 7603W        W 9753   2.746   4.830   9.103  0.1160 -0.3428  0.0093
 7604W        W 9754  23.221   5.202  33.333  0.3963  0.0909  0.2011
 7605W        W 9755  12.651   2.664   6.220 -0.2225 -0.0184 -0.3123
 7606W        W 9756  15.947   0.432  15.736  0.3343 -0.0909  0.0445
 7607W        W 9757  23.384   6.572   0.895  0.0926  0.0334  0.1439
 7608W        W 9758   1.787   1.767   3.839 -0.0298 -0.0204 -0.0146
 7609W        W 9759  15.348   3.043  31.225 -0.2470  0.1262  0.0799
 7610W        W 9760  11.556   2.375  27.866  0.2116  0.0329  0.0735
 7611W        W 9761  11.764   4.684  31.669 -0.0709  0.1928  0.3108
 7612W        W 9762  18.412   0.361  21.597  0.0520 -0.1238 -0.1072
 7613W        W 9763  18.775   5.463   3.675  0.4004 -0.1623 -0.1648
 7614W        W 9764   8.699   0.176   0.791  0.0077  0.1707  0.0776
 7615W        W 9765   2.514   1.023   6.869 -0.0731 -0.2863  0.3447
 7616W        W 9766   9.939   4.621  13.422  0.2958  0.0802 -0.1701
 7617W        W 9767   1.384   2.973  14.381  0.0447 -0.0802  0.0373
 7618W        W 9768   0.838   5.161  34.230  0.3784 -0.1528 -0.2819
 7619W        W 9769  22.769   5.594  35.715  0.1585  0.0561  0.2212
 7620W        W 9770   7.086   5.796  25.905  0.1713  0.0142 -0.1869
 7621W        W 9771  13.993   0.068  28.154  0.1741  0.0285  0.4280
 7622W        W 9772   8.341   6.288  26.979 -0.0569 -0.0835  0.0750
 7623W        W 9773  13.470   2.732   5.056 -0.2003 -0.3489 -0.0005
 7624W        W 9774  10.778   6.318  24.215  0.1405 -0.4642  0.2957
 7625W        W 9775  21.845   4.112  33.586  0.0679 -0.2476 -0.0989
 7626W        W 9776   9.063   2.056  28.964 -0.1766 -0.2862  0.2269
 7627W        W 9777  21.641   0.659  34.120 -0.0561 -0.1905  0.1235
 7628W        W 9778  17.560   1.643  10.220  0.1573  0.1487 -0.1332
 7629W        W 9779  14.650   4.902   9.361 -0.1521  0.2189 -0.2483
 7630W        W 9780   1.885   5.093   9.620 -0.3472  0.0899 -0.0216
 7631W        W 9781   0.331   3.735   7.246 -0.0464 -0.0854  0.0302
 7632W        W 9782   5.929   1.901  11.384 -0.0853 -0.2510  0.1069
 7633W        W 9783   9.026   0.659  14.281  0.0472  0.0237  0.2107
 7634W        W 9784   0.317   6.227  26.996 -0.0204  0.0351  0.0191
 7635W        W 9785  16.159   5.468  28.473 -0.0272 -0.2521 -0.0080
 7636W        W 9786   7.818   5.411  33.837  0.2913  0.1487 -0.4690
 7637W        W 9787  18.989   4.376  34.518  0.0998 -0.1386 -0.0764
 7638W        W 9788  23.458   3.177  30.562  0.0352 -0.0002 -0.1078
 7639W        W 9789  10.050   1.654  15.296 -0.2134 -0.2757  0.0283
 7640W        W 9790  24.792   0.337   5.535 -0.0579  0.1513 -0.0891
 7641W        W 9791   0.671   2.327  34.410 -0.1463  0.0855  0.0846
 7642W        W 9792   6.811   4.189  13.547  0.0257  0.2458 -0.0794
 7643W        W 9793  18.379   4.437  10.674 -0.2616  0.2758  0.0598
 7644W        W 9794  20.462   4.440  14.231 -0.0437 -0.4133 -0.0680
 7645W        W 9795   4.640   2.570   1.803 -0.2255 -0.0590 -0.3857
 7646W        W 9796  25.085   5.457   2.941 -0.2486 -0.1838 -0.2764
 7647W        W 9797   6.501   1.488  33.726 -0.0258 -0.4283 -0.1977
 7648W        W 9798  20.690   6.137  13.826 -0.0518 -0.2718 -0.0084
 7649W        W 9799  13.537   6.222  34.978 -0.1323  0.2436 -0.0872
 7650W        W 9800  15.931   3.051  21.409  0.2293  0.1469  0.0137
 7651W        W 9801  15.877   4.907  30.170  0.0891  0.1017 -0.2153
 7652W        W 9802  23.269   6.534  15.452  0.2066  0.0216  0.1328
 7653W        W 9803   7.127   4.281  14.226  0.1239  0.0429 -0.0711
 7654W        W 9804  21.962   1.286   7.298 -0.2677  0.1129  0.0870
 7655W        W 9805   5.544   1.528  30.475 -0.2080 -0.0212 -0.4714
 7656W        W 9806  10.711   0.179  13.345  0.2297  0.0855 -0.0022
 7657W        W 9807  23.861   1.493  31.830 -0.0843  0.3027  0.2528
 7658W        W 9808  22.554   1.159  33.007 -0.0379  0.1082  0.2741
 7659W        W 9809   0.071   3.405  24.300  0.0266  0.0659  0.3188
 7660W        W 9810  21.798   1.869  22.719  0.2720  0.2636  0.2288
 7661W        W 9811  23.881   2.888  30.921 -0.0569 -0.2071  0.1307
 7662W        W 9812  12.544   5.557  20.620 -0.2390  0.1273 -0.2166
 7663W        W 9813  17.506   5.030  26.390  0.2932 -0.1466 -0.0087
 7664W        W 9814   5.018   3.829  26.248 -0.3189  0.0634  0.1959
 7665W        W 9815   1.329   2.927  31.580  0.0418 -0.0094  0.1412
 7666W        W 9816   8.336   2.806  15.148 -0.1074  0.1660  0.2118
 7667W        W 9817   7.521   5.719   9.014  0.0007  0.1521 -0.1396
 7668W        W 9818   6.143   1.493  34.950  0.0402 -0.0697  0.0615
 7669W        W 9819   9.417   4.525  10.433  0.1291  0.3044 -0.0141
 7670W        W 9820   5.067   2.171  24.213  0.0060  0.1432  0.3354
 7671W        W 9821  19.805   5.938   6.185 -0.1296 -0.1273 -0.1440
 7672W        W 9822  19.288   2.545   9.730  0.0401 -0.3043  0.1811
 7673W        W 9823   4.652   2.271  21.993  0.0365  0.1272  0.1170
 7674W        W 9824   5.047   4.084  29.594 -0.1698 -0.0227 -0.0053
 7675W        W 9825   4.617   1.014  24.125  0.1939 -0.2941 -0.1827
 7676W        W 9826  14.282   4.414  30.585 -0.1591  0.5050  0.1285
 7677W        W 9827   7.856   5.948   3.404  0.1120  0.5301 -0.2008
 7678W        W 9828  14.991   0.406  27.930  0.0569 -0.2814 -0.0087
 7679W        W 9829  10.594   5.325  35.658 -0.0224 -0.1123  0.1895
 7680W        W 9830  11.374   1.750  24.176  0.0582 -0.1191 -0.2419
 7681W        W 9831   8.060   0.539   6.260  0.0083 -0.1538 -0.0471
 7682W        W 9832  22.362   5.315  14.735 -0.3056 -0.0685 -0.2085
 7683W        W 9833   7.152   5.845  24.280  0.0299  0.1071 -0.3764
 7684W        W 9834   3.249   5.090   2.418 -0.0445  0.4782 -0.1110
 7685W        W 9835  25.273   1.844   5.133 -0.3691 -0.3511  0.0382
 7686W        W 9836  10.389   5.965   6.622  0.1472 -0.0336  0.0607
 7687W        W 9837  13.822   0.337  12.998 -0.0507  0.0459 -0.0094
 7688W        W 9838   3.140   4.381   0.331  0.4188 -0.0519  0.0187
 7689W        W 9839   4.435   1.190  34.735  0.0635 -0.0944  0.2077
 7690W        W 9840  25.965   3.590  31.481 -0.0082  0.1004 -0.4234
 7691W        W 9841  13.905   4.811  12.410  0.0488  0.0389  0.3535
 7692W        W 9842  25.213   2.472  31.523 -0.1069  0.3486 -0.0499
 7693W        W 9843  14.864   0.148   2.503 -0.1689 -0.1196 -0.0011
 7694W        W 9844   0.072   0.665   9.543 -0.0892 -0.1387  0.1548
 7695W        W 9845  23.805   1.176  29.057 -0.1037 -0.0484 -0.0280
 7696W        W 9846  14.876   2.988   7.242  0.1174 -0.1863  0.1497
 7697W        W 9847   3.022   5.204  13.960 -0.1954  0.3498 -0.1589
 7698W        W 9848   2.171   4.215  13.502 -0.1934 -0.0515 -0.0620
 7699W        W 9849  15.948   1.631  23.690  0.1759 -0.0209  0.0903
 7700W        W 9850  13.879   0.253  31.082  0.3668  0.1318  0.2568
 7701W        W 9851   3.774   3.357   5.679  0.0777  0.0333  0.1510
 7702W        W 9852   1.865   2.771  15.191 -0.1177  0.0699  0.3786
 7703W        W 9853  14.931   4.810   1.310 -0.0707 -0.0651  0.0459
 7704W        W 9854   7.342   2.004   2.918  0.0358  0.2303 -0.0592
 7705W        W 9855   3.680   3.431  11.241 -0.0863 -0.3360  0.2944
 7706W        W 9856  18.427   6.270  24.343  0.1457  0.4277  0.2301
 7707W        W 9857   6.753   2.039  31.459  0.0211 -0.2089  0.0290
 7708W        W 9858   4.496   4.219  31.871 -0.3360  0.0028  0.0530
 7709W        W 9859  10.174   3.328   8.661  0.1262  0.2509 -0.1397
 7710W        W 9860  15.575   4.612   2.933  0.0710 -0.1453 -0.0671
 7711W        W 9861  12.173   3.198  11.438  0.2975 -0.0747 -0.0455
 7712W        W 9862  20.104   2.989   3.241  0.2771  0.2136 -0.1185
 7713W        W 9863  16.910   1.625  28.476 -0.1954  0.3208  0.1702
 7714W        W 9864   1.602   6.026  11.531 -0.2648 -0.1651 -0.0252
 7715W        W 9865  19.682   2.438   9.459  0.1655  0.1845  0.0098
 7716W        W 9866   6.868   2.029   6.987  0.3158  0.2502  0.1448
 7717W        W 9867   3.139   2.308  27.121  0.1875 -0.2081 -0.0109
 7718W        W 9868  12.222   5.611  12.015  0.2259  0.0389  0.1872
 7719W        W 9869   7.419   0.645  14.830 -0.1111  0.1185  0.0746
 7720W        W 9870   9.300   6.335  24.512  0.1213  0.0037  0.1435
 7721W        W 9871  15.353   6.519  31.073 -0.0845  0.0332  0.3151
 7722W        W 9872  17.128   4.598   0.916  0.3497  0.2456 -0.0482
 7723W        W 9873  14.401   5.885   3.765 -0.1053  0.3585  0.0093
 7724W        W 9874  25.612   4.900  15.279  0.1298 -0.3280 -0.1830
 7725W        W 9875  14.261   2.010  32.146 -0.0476  0.1396  0.2493
 7726W        W 9876   0.255   1.168   6.770 -0.1030  0.0891  0.2823
 7727W        W 9877   0.021   4.064  35.353 -0.1249 -0.0540  0.0929
 7728W        W 9878  22.429   5.940  26.791 -0.0856 -0.1020 -0.1367
 7729W        W 9879   4.465   5.778  14.609  0.1844  0.0937 -0.1352
 7730W        W 9880   2.925   1.058  26.101 -0.1936 -0.0022  0.0158
 7731W        W 9881  10.405   2.307   9.197  0.4095  0.3554  0.0228
 7732W        W 9882  12.143   2.391   6.376 -0.0771 -0.3083 -0.0889
 7733W        W 9883   1.694   5.527  15.563 -0.1008 -0.0821  0.2141
 7734W        W 9884   0.331   1.531  24.015  0.0058  0.0670 -0.0307
 7735W        W 9885  17.908   3.650  26.661 -0.0055  0.1641  0.0792
 7736W        W 9886   6.729   2.498  27.026 -0.3248 -0.4099 -0.2337
 7737W        W 9887  16.785   5.536   2.424 -0.2145 -0.0898 -0.0517
 7738W        W 9888   4.641   6.007  26.157  0.0637  0.0154 -0.1211
 7739W        W 9889   7.992   2.633  15.592 -0.0366 -0.1547  0.1933
 7740W        W 9890   4.739   5.065   3.382  0.0260  0.2629  0.0147
 7741W        W 9891   9.648   5.437  28.786  0.1630  0.1985  0.0463
 7742W        W 9892  23.808   6.090  33.246 -0.3086  0.1587 -0.1521
 7743W        W 9893  13.277   5.780  28.578 -0.2102 -0.0638 -0.3066
 7744W        W 9894  21.558   3.511  23.357 -0.0588 -0.1921  0.0347
 7745W        W 9895  19.449   3.159  29.140 -0.0466  0.1059  0.1995
 7746W        W 9896  24.669   0.896   6.642 -0.1930  0.1795  0.0664
 7747W        W 9897  15.218   3.433   0.207 -0.1964 -0.0219 -0.0957
 7748W        W 9898  23.267   4.299   9.251 -0.0437  0.1829  0.1743
 7749W        W 9899  13.998   4.436  11.479  0.3540 -0.1567 -0.0805
 7750W        W 9900  25.559   3.296  25.387  0.1367  0.2622 -0.1878
 7751W        W 9901  18.664   5.696   6.982  0.1685 -0.1170 -0.3955
 7752W        W 9902  13.029   6.365   5.666  0.0166 -0.0464 -0.1248
 7753W        W 9903  15.481   3.425  29.856  0.3956 -0.3227 -0.0436
 7754W        W 9904  20.478   1.231  33.811  0.0389 -0.1934  0.1106
 7755W        W 9905  21.480   6.436   2.077 -0.1871  0.0583  0.1463
 7756W        W 9906   9.220   2.875   1.411  0.3482 -0.4148  0.1422
 7757W        W 9907  13.073   4.257   1.908 -0.3902  0.2953  0.2411
 7758W        W 9908   8.528   4.604  13.024  0.0826 -0.0861  0.2123
 7759W        W 9909   5.463   1.298   8.572  0.2815 -0.2692 -0.1191
 7760W        W 9910   3.886   2.254   0.793  0.2055  0.0326  0.1831
 7761W        W 9911   5.029   5.307  24.166 -0.2421 -0.2534  0.2839
 7762W        W 9912  14.543   4.717  25.553  0.0817  0.1083 -0.0462
 7763W        W 9913  19.680   2.184  32.377  0.2676 -0.0174 -0.1181
 7764W        W 9914  18.570   0.613  32.360  0.1763 -0.0092 -0.1152
 7765W        W 9915  22.528   3.226  26.044  0.2259  0.0752 -0.1167
 7766W        W 9916  10.006   6.551   0.655 -0.4637  0.1507 -0.2493
 7767W        W 9917   6.671   1.051  21.321  0.2750  0.3240 -0.2279
 7768W        W 9918  25.298   5.932  24.656 -0.0447  0.0189 -0.0926
 7769W        W 9919   7.786   4.102  26.268 -0.1293 -0.0275  0.1432
 7770W        W 9920  26.157   5.468   4.678  0.2330  0.0143  0.0605
 7771W        W 9921   8.447   3.560   8.832 -0.1581  0.0789 -0.1745
 7772W        W 9922  16.600   0.618   2.186 -0.2719  0.0178 -0.3287
 7773W        W 9923  16.215   5.906  32.191  0.0323  0.0766  0.0815
 7774W        W 9924   4.062   0.165  32.220  0.0665  0.0171 -0.1560
 7775W        W 9925  20.105   4.895  31.217 -0.1960  0.0045 -0.2451
 7776W        W 9926  18.011   3.809  13.778 -0.0281  0.1758  0.2249
 7777W        W 9927  18.670   4.151  33.515 -0.2041 -0.0415 -0.2129
 7778W        W 9928   6.490   5.070  26.438 -0.0920 -0.0846 -0.2027
 7779W        W 9929   6.586   0.665  23.418  0.0297 -0.0864 -0.0940
 7780W        W 9930  13.602   1.599  21.960 -0.0744  0.1880  0.0350
 7781W        W 9931  12.933   5.058   1.663 -0.2216  0.1958  0.0993
 7782W        W 9932   1.059   3.791   1.386  0.0385 -0.2036  0.3194
 7783W        W 9933  16.060   1.261   9.362 -0.2044 -0.2738  0.0592
 7784W        W 9934  21.653   1.993  29.689 -0.1488  0.0664 -0.0023
 7785W        W 9935  14.107   5.974  27.787  0.0744 -0.0735  0.0310
 7786W        W 9936  24.933   4.360   0.411  0.0374  0.2571 -0.3749
 7787W        W 9937  19.344   3.882  32.436  0.2329 -0.1253 -0.1935
 7788W        W 9938   8.528   3.141  22.508 -0.0856 -0.1351  0.1724
 7789W        W 9939   7.713   0.421   8.779  0.0587  0.2824  0.0403
 7790W        W 9940  14.977   1.670  12.558  0.1423  0.0590 -0.0096
 7791W        W 9941   8.178   6.198   5.296  0.2392 -0.1879  0.1120
 7792W        W 9942   7.463   1.165  28.162  0.0661  0.3593  0.0546
 7793W        W 9943   0.236   0.454  27.392 -0.2432  0.1224 -0.0357
 7794W        W 9944  21.205   0.200  15.222 -0.2283 -0.2678  0.2704
 7795W        W 9945  21.063   3.059  10.702 -0.0632 -0.1552 -0.1417
 7796W        W 9946  10.842   4.980  11.164 -0.1779  0.3066 -0.1837
 7797W        W 9947  23.673   5.452   0.004 -0.2845 -0.0013 -0.0773
 7798W        W 9948   2.014   0.439   3.993  0.1494 -0.1067 -0.1094
 7799W        W 9949   1.551   6.568  31.612 -0.1568 -0.0008 -0.0932
 7800W        W 9950   5.352   4.115  14.598 -0.2380  0.1836 -0.3818
 7801W        W 9951  20.137   2.144  30.717  0.1098  0.0495  0.0801
 7802W        W 9952  21.369   2.311  32.277  0.0683 -0.0978 -0.4702
 7803W        W 9953  21.930   3.841   7.977  0.1788 -0.0049 -0.0137
 7804W        W 9954  18.513   4.491  12.627  0.1061 -0.2126 -0.0046
 7805W        W 9955   9.481   4.179  32.357 -0.1533 -0.0529 -0.1638
 7806W        W 9956  21.826   1.557  14.007 -0.1636  0.1145 -0.2740
 7807W        W 9957   7.400   0.090   7.806  0.2245  0.1687 -0.2679
 7808W        W 9958  12.738   3.117  14.736  0.0514  0.1381  0.2911
 7809W        W 9959  16.406   2.823  27.597 -0.3277  0.2302 -0.1293
 7810W        W 9960   0.709   3.684  13.911 -0.0185 -0.0818 -0.0291
 7811W        W 9961   9.608   1.188   5.145 -0.2584 -0.0563  0.1397
 7812W        W 9962   4.142   4.575  22.139  0.0014 -0.0487 -0.2554
 7813W        W 9963  24.504   1.334  10.517 -0.5037 -0.1667  0.3290
 7814W        W 9964  15.237   4.212  26.027 -0.0993 -0.4339 -0.1358
 7815W        W 9965  11.255   0.510   3.236  0.0547  0.0655 -0.0080
 7816W        W 9966  16.240   2.027   4.105  0.0730  0.2876 -0.0096
 7817W        W 9967   9.843   0.487   8.014 -0.0023 -0.0685 -0.1116
 7818W        W 9968   1.984   6.344  34.569  0.3449  0.4269  0.0422
 7819W        W 9969  13.883   0.554  10.950  0.1873 -0.0131 -0.1177
 7820W        W 9970  18.228   4.398  32.815 -0.1965 -0.1932  0.1308
 7821W        W 9971  11.029   4.491  34.914 -0.0318  0.1001  0.0675
 7822W        W 9972  16.520   2.558  22.180 -0.1030 -0.1264  0.1605
 7823W        W 9973  19.189   1.969  15.072  0.0227 -0.4935  0.2274
 7824W        W 9974  21.897   2.477   6.425 -0.0349 -0.0705  0.0854
 7825W        W 9975   7.292   3.462   7.519  0.0947 -0.5154 -0.0042
 7826W        W 9976  13.464   3.088  34.361  0.3079 -0.1309  0.3296
 7827W        W 9977  17.542   5.305   2.699 -0.0621 -0.1321  0.0197
 7828W        W 9978   2.916   4.416  27.841  0.1266  0.2017 -0.0138
 7829W        W 9979   5.495   5.961   7.099 -0.1016  0.0048 -0.2572
 7830W        W 9980   4.913   0.817  23.573  0.3006 -0.1318  0.0276
 7831W        W 9981   3.980   5.501  31.420  0.0702 -0.1574 -0.2533
 7832W        W 9982   4.611   4.143  20.288  0.2447 -0.0472 -0.2431
 7833W        W 9983  12.795   5.055   3.201 -0.0221  0.1279 -0.1290
 7834W        W 9984  23.067   6.175  21.252 -0.2420 -0.0928  0.0157
 7835W        W 9985   4.703   4.044  32.331 -0.1142  0.0506 -0.0628
 7836W        W 9986  23.985   3.471  24.550  0.1079  0.0671  0.0739
 7837W        W 9987   6.607   3.282   1.665  0.0312 -0.3408  0.1939
 7838W        W 9988  12.488   0.019  21.210 -0.1236 -0.1601 -0.1447
 7839W        W 9989  25.286   1.725   9.343  0.1353  0.1288  0.2525
 7840W        W 9990   1.945   4.307   7.237 -0.0169 -0.0021 -0.3124
 7841W        W 9991   1.659   1.495  22.343  0.1182 -0.1684 -0.0364
 7842W        W 9992  12.313   6.314   5.181  0.2695 -0.0550 -0.0617
 7843W        W 9993  23.953   6.468   9.039 -0.1093 -0.0335  0.0772
 7844W        W 9994   4.815   2.401   7.302 -0.0583 -0.1231  0.0270
 7845W        W 9995   0.351   4.815  23.340 -0.3420 -0.0931 -0.2415
 7846W        W 9996  25.894   6.577  27.116 -0.2456  0.0601  0.0074
 7847W        W 9997  15.307   3.768   8.427  0.0323  0.1514  0.1284
 7848W        W 9998   7.268   3.721  12.266  0.2303 -0.0680  0.3989
 7849W        W 9999  21.449   1.487  31.130  0.2371  0.3717 -0.1329
 7850W        W10000  15.515   3.979   1.981  0.2702  0.1514 -0.1074
 7851W        W10001  16.126   4.254  15.642 -0.0442  0.5558 -0.0777
 7852W        W10002  10.115   1.936  25.906 -0.2718  0.1327  0.2458
 7853W        W10003  17.638   6.466  22.935  0.0912  0.0052  0.2321
 7854W        W10004  22.350   3.480  12.953 -0.2225 -0.0335  0.1063
 7855W        W10005  14.016   4.185  30.166 -0.0826  0.0186  0.3164
 7856W        W10006  11.278   1.664   2.520  0.0720  0.1905  0.0872
 7857W        W10007  24.856   4.508   7.780  0.0528  0.2578 -0.0272
 7858W        W10008  26.043   2.932  26.695  0.1744 -0.1732 -0.0008
 7859W        W10009  12.782   5.762  31.173  0.0055 -0.3548 -0.2832
 7860W        W10010   6.539   0.554  14.941  0.0766  0.3477 -0.0395
 7861W        W10011  16.466   4.842  29.646  0.0908 -0.0954  0.1281
 7862W        W10012   4.775   3.205  28.745 -0.0027 -0.1415 -0.1162
 7863W        W10013   7.768   5.034   7.913  0.0569 -0.1296  0.2364
 7864W        W10014  18.907   6.206  27.561 -0.1602  0.1642  0.1525
 7865W        W10015  15.171   4.211   9.131  0.1620 -0.2539 -0.0672
 7866W        W10016   4.958   6.062  13.843  0.0134  0.1898 -0.0824
 7867W        W10017   5.347   2.283  23.072 -0.0938 -0.2339 -0.0847
 7868W        W10018  23.955   0.652  26.010 -0.0038 -0.0206  0.0282
 7869W        W10019   7.500   6.032  31.700 -0.0968  0.0668 -0.4223
 7870W        W10020   1.875   2.203   4.077 -0.2663 -0.2547 -0.0518
 7871W        W10021   1.203   6.546  24.700  0.3064  0.0820 -0.0308
 7872W        W10022  23.377   3.956  29.949  0.0525 -0.2352  0.0174
 7873W        W10023   4.754   2.021  30.678  0.0589  0.0169 -0.3119
 7874W        W10024   3.009   4.732  34.800 -0.3528  0.1074 -0.2027
 7875W        W10025   9.519   3.342   1.548  0.1150 -0.3281 -0.1903
 7876W        W10026   5.340   4.151  35.478  0.0584 -0.1861 -0.1354
 7877W        W10027  15.242   4.777   1.694  0.0234  0.2163 -0.1900
 7878W        W10028   2.979   2.694  26.695  0.0249  0.1718  0.0097
 7879W        W10029   0.730   0.388  12.339 -0.0975 -0.0449  0.1246
 7880W        W10030  17.452   6.453  31.819 -0.0170 -0.3055  0.2443
 7881W        W10031  18.102   3.364   8.616 -0.2812 -0.0644 -0.2224
 7882W        W10032  26.073   4.357  34.999 -0.0450  0.0671  0.1940
 7883W        W10033   8.056   2.419  25.205  0.4782 -0.2459  0.0988
 7884W        W10034  24.906   4.092  28.671 -0.1521 -0.1847  0.0130
 7885W        W10035  17.355   1.556  12.387 -0.1360  0.3592 -0.1240
 7886W        W10036   1.746   4.264  35.029  0.0471 -0.3102  0.1702
 7887W        W10037  22.417   5.730  12.581 -0.0593 -0.0285 -0.0595
 7888W        W10038  19.642   6.232   0.701 -0.0206 -0.1819  0.1046
 7889W        W10039  19.810   1.764   7.791 -0.0681  0.3423  0.0779
 7890W        W10040  18.609   0.690  22.354  0.0329 -0.0176  0.0083
 7891W        W10041  21.023   5.478   3.476  0.0250 -0.2711 -0.2212
 7892W        W10042  24.451   0.337  22.515 -0.0466  0.1993 -0.4884
 7893W        W10043  13.355   6.393   0.447  0.0607 -0.1988 -0.3144
 7894W        W10044  13.223   2.645  11.216 -0.1990  0.0742 -0.1378
 7895W        W10045   7.801   1.474  25.087  0.1069 -0.0192  0.0935
 7896W        W10046   9.869   5.492  30.672  0.0078  0.2364 -0.0815
 7897W        W10047  11.958   2.312  22.715  0.1721 -0.2080 -0.1777
 7898W        W10048  20.215   3.508  11.475  0.0057 -0.2158  0.2370
 7899W        W10049  17.267   5.839  21.683 -0.0082  0.1740 -0.0445
 7900W        W10050   8.532   2.647   9.938  0.1611  0.0733 -0.1874
 7901W        W10051  18.562   2.778   4.244  0.0448  0.0445  0.1775
 7902W        W10052  22.633   3.042   5.529  0.0613  0.2066 -0.0999
 7903W        W10053   8.075   1.877  23.391 -0.0704  0.0100  0.1176
 7904W        W10054  25.617   3.828   0.175 -0.1303  0.0617  0.0811
 7905W        W10055  25.744   6.563  33.151  0.2550  0.3481  0.1781
 7906W        W10056  17.183   4.380   1.346 -0.2421 -0.0820  0.2077
 7907W        W10057  12.685   1.043   3.055  0.0395  0.1503 -0.0096
 7908W        W10058   1.934   6.397  28.519 -0.2283  0.0258  0.0408
 7909W        W10059   9.947   4.490  11.328  0.2461  0.0513 -0.0714
 7910W        W10060   9.949   6.583   8.173  0.1384  0.0158 -0.1407
 7911W        W10061   1.534   4.153   8.390  0.0644 -0.1731  0.2144
 7912W        W10062  11.058   3.535   0.956  0.0993 -0.1078  0.0475
 7913W        W10063  19.652   0.636   8.196  0.1628  0.2326 -0.0564
 7914W        W10064  16.361   1.021  12.601  0.0481 -0.1326 -0.1800
 7915W        W10065  17.255   5.677  31.224 -0.1377  0.2155  0.0036
 7916W        W10066   9.035   5.108  12.171  0.0236  0.2043 -0.0750
 7917W        W10067   2.471   4.444   8.704  0.2058 -0.1979  0.0661
 7918W        W10068  22.485   0.723  26.199  0.0440 -0.0270  0.3482
 7919W        W10069   2.069   0.169  12.489 -0.0240 -0.0815 -0.1695
 7920W        W10070  22.580   2.599  30.313  0.2007  0.0826  0.1594
 7921W        W10071  16.121   3.566   9.523 -0.0700 -0.0153  0.0825
 7922W        W10072   8.603   3.489  29.354  0.0561 -0.1484  0.4664
 7923W        W10073   2.392   4.594   8.169 -0.0882  0.2481  0.0397
 7924W        W10074  14.163   2.865   0.922  0.1783 -0.6145  0.0669
 7925W        W10075  23.887   4.814   4.210  0.0108  0.2841 -0.0773
 7926W        W10076  10.307   2.316  28.495  0.0421  0.2313 -0.1925
 7927W        W10077  26.274   5.752   5.610 -0.0701  0.2929  0.0232
 7928W        W10078   8.709   0.773  26.957  0.0579  0.1379  0.1089
 7929W        W10079  19.710   0.940   6.430 -0.0698  0.3084  0.1730
 7930W        W10080   7.479   1.829  11.468 -0.0664 -0.0112  0.1598
 7931W        W10081  24.424   0.427  35.339 -0.0641 -0.1007 -0.2069
 7932W        W10082  25.463   6.542   8.919 -0.1091  0.1813 -0.0888
 7933W        W10083  11.981   2.937   8.993  0.0326  0.5371  0.0516
 7934W        W10084  17.831   3.517   0.620 -0.2481  0.5118  0.3135
 7935W        W10085  24.489   6.315  27.433 -0.1038  0.0039 -0.1694
 7936W        W10086   5.194   3.289  13.139  0.2701  0.2832  0.1947
 7937W        W10087  11.307   3.802   2.117  0.5495 -0.1350 -0.2079
 7938W        W10088  18.549   2.605   7.185 -0.2944  0.1605 -0.1409
 7939W        W10089  23.488   1.727   6.478  0.1047  0.0839 -0.0265
 7940W        W10090   7.323   0.475  25.531  0.1315  0.1057  0.1275
 7941W        W10091  10.723   0.678  34.216 -0.2249 -0.3129 -0.0910
 7942W        W10092  20.683   0.549  35.619 -0.1412  0.3297 -0.0124
 7943W        W10093  12.526   0.220  33.936 -0.1769  0.0784  0.1667
 7944W        W10094   4.011   0.044  23.318  0.0932  0.0566  0.2437
 7945W        W10095   7.623   3.996   4.253 -0.1081  0.0003  0.0315
 7946W        W10096   4.887   3.459  15.207  0.1009  0.3226 -0.0022
 7947W        W10097   0.099   1.921  32.482 -0.0332 -0.1741 -0.0055
 7948W        W10098   6.647   4.170   6.104  0.1553 -0.0708 -0.2715
 7949W        W10099  13.180   4.492  21.335  0.2894 -0.1893  0.0939
 7950W        W10100  11.927   3.603  33.070 -0.5535  0.0444 -0.0088
 7951W        W10101  18.743   4.391  34.998  0.0871  0.0529  0.0037
 7952W        W10102   9.896   3.745  27.365  0.2877 -0.0010  0.0147
 7953W        W10103  12.853   5.426   2.747 -0.1493 -0.0618  0.0630
 7954W        W10104   6.310   5.380   9.148 -0.0400  0.1557 -0.0056
 7955W        W10105   4.465   3.115  14.900  0.0276  0.1566 -0.0305
 7956W        W10106  21.710   1.290   1.634  0.1034 -0.0200  0.1951
 7957W        W10107   2.879   3.544  21.082  0.0025 -0.3248  0.1393
 7958W        W10108  15.151   5.221  22.896  0.0311 -0.2413  0.0231
 7959W        W10109   1.105   1.227  25.784  0.0949  0.3296 -0.3090
 7960W        W10110   2.329   3.913   0.657  0.1134 -0.0207  0.3318
 7961W        W10111  16.871   3.575  11.877 -0.0425  0.1212 -0.1233
 7962W        W10112  21.005   1.037  24.408  0.1351 -0.2300 -0.0539
 7963W        W10113   2.590   2.911  15.023 -0.1461 -0.2428 -0.2252
 7964W        W10114   7.352   2.831   3.268 -0.2612 -0.2737 -0.1090
 7965W        W10115   7.146   4.928  20.595 -0.1094  0.1377 -0.0751
 7966W        W10116   4.196   6.048  20.712 -0.0980  0.0185 -0.0379
 7967W        W10117  15.657   5.447   1.203  0.2470  0.1421 -0.0144
 7968W        W10118  11.204   5.729  30.223  0.1320 -0.0286  0.2974
 7969W        W10119  16.085   5.277   9.810  0.1964  0.1734  0.1667
 7970W        W10120   2.165   2.292  33.005 -0.1783  0.2373 -0.3301
 7971W        W10121   0.810   3.786  21.952 -0.0265 -0.4387 -0.0869
 7972W        W10122  10.419   0.412   2.526 -0.3428  0.0378  0.3147
 7973W        W10123   9.491   0.646  32.754 -0.0134 -0.0060 -0.0436
 7974W        W10124  23.064   5.287  29.659 -0.0041 -0.3798  0.0875
 7975W        W10125  20.272   0.660  28.827 -0.0257  0.0154  0.1061
 7976W        W10126  25.217   3.549  21.539  0.0553 -0.1785 -0.0416
 7977W        W10127  20.362   4.901  20.447  0.0041  0.0287  0.0162
 7978W        W10128  14.352   6.054  21.550  0.0261 -0.0308 -0.0902
 7979W        W10129   9.831   2.096   2.183  0.2591  0.0293  0.0676
 7980W        W10130   1.107   0.102   9.549  0.0139  0.2021  0.0454
 7981W        W10131   8.213   4.356  26.364 -0.1334 -0.0251 -0.1046
 7982W        W10132   0.333   5.631  25.707 -0.0208  0.1136  0.0615
 7983W        W10133   6.318   1.422   6.575 -0.3575 -0.1183  0.0502
 7984W        W10134  17.321   3.935  11.509  0.0934  0.0131  0.0381
 7985W        W10135   2.817   6.111  34.817 -0.0073 -0.1407  0.2268
 7986W        W10136   0.814   5.887   5.556 -0.0286 -0.1046  0.1086
 7987W        W10137   6.940   1.134  25.246 -0.3461 -0.0926 -0.0930
 7988W        W10138  22.843   2.495  10.830  0.2276  0.0640 -0.2723
 7989W        W10139  23.051   6.420  12.113 -0.4225  0.2034  0.0961
 7990W        W10140  11.838   6.428   7.154  0.1805 -0.3261  0.1756
 7991W        W10141  23.739   6.076  27.397  0.2993 -0.2780  0.2011
 7992W        W10142  20.587   5.077   7.131 -0.0592 -0.0761 -0.2817
 7993W        W10143   0.593   4.373  12.735 -0.1356 -0.2244 -0.0949
 7994W        W10144   5.070   4.609   6.874  0.2221  0.0467 -0.2454
 7995W        W10145  14.329   2.615  15.701 -0.1427 -0.1415 -0.0287
 7996W        W10146  21.986   1.947   5.620  0.3511  0.2272  0.4811
 7997W        W10147  23.114   1.229   2.742  0.0356 -0.0384 -0.0232
 7998W        W10148   2.271   2.553  14.210 -0.0568  0.1556  0.0757
 7999W        W10149  16.196   4.308  25.677  0.1298 -0.3778  0.2024
 8000W        W10150  24.910   0.909  22.799 -0.0194  0.0132 -0.0722
 8001W        W10151  24.254   3.789  33.936  0.0893 -0.1603  0.1611
 8002W        W10152   6.379   3.206  22.746 -0.1414  0.3429  0.1147
 8003W        W10153  11.369   3.802  26.125 -0.0837  0.2925  0.2557
 8004W        W10154   1.399   3.935  28.580 -0.2016  0.0427  0.1832
 8005W        W10155  10.770   3.227  33.713 -0.1384 -0.0028 -0.1389
 8006W        W10156  24.428   3.731  13.772  0.3193  0.1330  0.2290
 8007W        W10157   9.929   6.455  23.665  0.0276  0.4705  0.0300
 8008W        W10158  16.148   5.858  23.411 -0.0983  0.1608 -0.1081
 8009W        W10159   7.666   5.839   9.959 -0.0362  0.0452 -0.3583
 8010W        W10160  15.878   0.898   3.311 -0.0715  0.4468 -0.0046
 8011W        W10161  21.239   3.564   4.951 -0.1267  0.0997  0.0603
 8012W        W10162   4.330   0.798  12.649  0.0992  0.0445  0.0857
 8013W        W10163  18.971   4.919  33.257 -0.0338  0.1994 -0.0194
 8014W        W10164   9.486   2.151   7.019  0.0230  0.0443  0.2219
 8015W        W10165  25.196   4.670  26.203 -0.0013  0.0309  0.4385
 8016W        W10166  18.823   6.018  29.021 -0.1090  0.0516  0.1132
 8017W        W10167  16.797   0.628  12.264  0.1205 -0.0968  0.0962
 8018W        W10168  25.402   2.422  23.980  0.2669  0.0728 -0.1575
 8019W        W10169   0.364   4.443   3.845 -0.0850  0.0257 -0.2713
 8020W        W10170   5.575   5.640  14.839 -0.0685 -0.0691 -0.0992
 8021W        W10171  15.811   3.089  28.837 -0.0330 -0.2552  0.0127
 8022W        W10172  19.293   1.933  10.562 -0.0469 -0.1282 -0.1078
 8023W        W10173  12.161   5.058  26.413  0.2873 -0.0023  0.1573
 8024W        W10174  11.836   4.761  13.121 -0.0932 -0.4012  0.0076
 8025W        W10175   5.802   2.142  33.037  0.3893  0.1043 -0.3773
 8026W        W10176   4.995   3.000  34.193 -0.2801 -0.2347  0.1032
 8027W        W10177  12.779   2.656  27.423  0.2894  0.1381  0.2586
 8028W        W10178   2.963   2.399  12.866 -0.3134  0.3228  0.0584
 8029W        W10179   3.211   2.439  28.582 -0.0582  0.1412  0.0996
 8030W        W10180  23.601   4.788  34.064 -0.2504  0.1245 -0.1328
 8031W        W10181  16.797   0.729   5.044  0.3650 -0.2558 -0.0408
 8032W        W10182  12.775   4.540  33.418  0.1768 -0.2001 -0.1467
 8033W        W10183   6.542   3.008  25.965 -0.0160 -0.2907  0.1387
 8034W        W10184   2.151   0.439  15.210  0.2812  0.1379  0.0599
 8035W        W10185  15.640   1.000  14.977  0.0778 -0.1747  0.0675
 8036W        W10186  20.988   1.999  10.040  0.2637  0.0374  0.0515
 8037W        W10187  20.042   0.061   6.662 -0.1041  0.0426  0.2982
 8038W        W10188  19.561   0.058  27.986 -0.2160 -0.2242 -0.0022
 8039W        W10189  18.506   4.572   9.700  0.0578 -0.0513 -0.2721
 8040W        W10190   6.204   5.951  22.892  0.1544 -0.4821 -0.1144
 8041W        W10191   8.129   0.127  26.693  0.0737 -0.2048  0.1803
 8042W        W10192  15.530   4.064  30.471 -0.0797 -0.0118 -0.1059
 8043W        W10193  12.037   6.015  10.491 -0.0655  0.0145  0.0600
 8044W        W10194   9.882   4.632  29.002  0.0130  0.0885 -0.0483
 8045W        W10195  17.486   4.227   6.697  0.3146 -0.1889 -0.2254
 8046W        W10196  15.777   0.119   0.625 -0.1703 -0.2411 -0.0287
 8047W        W10197   9.628   0.194  24.318 -0.0193 -0.1365  0.0013
 8048W        W10198  21.982   0.993  29.966  0.1157  0.1011  0.0044
 8049W        W10199  21.723   5.100  24.153 -0.0163 -0.0171  0.3175
 8050W        W10200  13.898   2.917   7.768 -0.0279  0.4910 -0.0866
 8051W        W10201  15.290   0.283   3.778  0.1496 -0.1809 -0.1107
 8052W        W10202   3.462   6.141  34.173 -0.0400 -0.3546 -0.1284
 8053W        W10203  25.202   5.699  25.766 -0.2811 -0.1649 -0.0713
 8054W        W10204  24.651   0.106  13.266 -0.2194  0.1819  0.0106
 8055W        W10205  25.421   6.515   7.432 -0.0361  0.1309  0.0205
 8056W        W10206  15.465   5.976  11.869 -0.2150  0.1469  0.0388
 8057W        W10207  22.972   2.324  14.570  0.0181 -0.2694  0.0003
 8058W        W10208   0.451   1.972  31.482 -0.1176  0.0657 -0.1742
 8059W        W10209  21.275   6.180   9.346 -0.0922 -0.2120  0.0210
 8060W        W10210  22.211   6.217   8.398  0.1088 -0.1199 -0.1467
 8061W        W10211   0.865   6.091  29.198  0.2574  0.1068 -0.3438
 8062W        W10212  18.243   5.830   2.121  0.1083 -0.1151  0.2028
 8063W        W10213   7.525   0.662  13.936  0.5703  0.2737 -0.0642
 8064W        W10214   0.459   5.570   1.179 -0.3450  0.2579  0.1211
 8065W        W10215  13.837   2.197  26.665  0.2078  0.0340 -0.1048
 8066W        W10216  12.691   1.597  25.398 -0.0558  0.0602 -0.1245
 8067W        W10217   0.223   0.811   8.664 -0.0931 -0.0015 -0.0758
 8068W        W10218   6.967   0.614  14.595 -0.1894  0.0651  0.2751
 8069W        W10219   2.708   6.329   1.517  0.2881  0.2388  0.0155
 8070W        W10220   6.373   3.747  26.467  0.0182  0.0414  0.2830
 8071W        W10221  15.503   3.482   5.024 -0.0731  0.2778  0.0113
 8072W        W10222   3.142   5.688  23.078 -0.0077 -0.1164  0.0613
 8073W        W10223   2.481   0.131  33.781  0.2104 -0.0784 -0.2685
 8074W        W10224   8.096   3.339   4.641  0.1799  0.0950  0.0614
 8075W        W10225  14.973   2.158  25.380  0.0523 -0.2600 -0.3564
 8076W        W10226  13.173   0.677  20.869  0.0484 -0.0238  0.1280
 8077W        W10227  22.676   1.614  15.103  0.0268  0.4369 -0.0995
 8078W        W10228  11.860   4.320   7.465  0.0988  0.0823 -0.1019
 8079W        W10229  11.283   0.080  30.907  0.0978  0.0118  0.2891
 8080W        W10230   4.231   5.052  25.426  0.2899 -0.0074 -0.0287
 8081W        W10231  24.956   3.648   4.021  0.0708  0.3096  0.1384
 8082W        W10232  19.278   0.693   0.111 -0.1211 -0.0934  0.1459
 8083W        W10233   3.996   4.406   8.422 -0.1073 -0.0044  0.1429
 8084W        W10234  19.528   4.187   6.315  0.3860 -0.0634  0.0331
 8085W        W10235   5.176   5.138  25.109 -0.2541 -0.2971 -0.0137
 8086W        W10236  20.862   1.246  11.483 -0.0282  0.0097  0.0919
 8087W        W10237  21.864   1.780  13.004  0.1392 -0.0403  0.1935
 8088W        W10238   6.571   0.710   1.699 -0.1674 -0.2200  0.1911
 8089W        W10239  21.532   5.142  28.852 -0.0084 -0.0539 -0.0399
 8090W        W10240   5.714   6.351   2.715  0.0037 -0.2418 -0.0590
 8091W        W10241   5.655   1.778  29.321  0.2574 -0.1494  0.0969
 8092W        W10242  10.350   3.015  22.488 -0.2603 -0.1475 -0.0007
 8093W        W10243  16.674   5.423  22.171 -0.0298  0.0394  0.1085
 8094W        W10244  19.059   2.362  30.300  0.1608  0.0350 -0.0336
 8095W        W10245  23.289   1.532  24.102  0.1179 -0.1308  0.0678
 8096W        W10246  14.315   2.350  10.627  0.3387 -0.2832 -0.4003
 8097W        W10247   0.956   3.220  22.459 -0.2670 -0.0164 -0.0309
 8098W        W10248  21.358   2.958  26.933 -0.1024 -0.1858  0.1647
 8099W        W10249   7.057   3.014   3.581  0.0617  0.0265 -0.1688
 8100W        W10250   4.567   3.986  33.947 -0.3059 -0.3470 -0.0350
 8101W        W10251  19.038   6.272   1.923  0.2254  0.4173  0.1174
 8102W        W10252  16.081   5.121  22.746 -0.1639 -0.0147 -0.2949
 8103W        W10253  17.566   5.793  25.292 -0.0402  0.1709 -0.0893
 8104W        W10254   5.308   4.604  29.481 -0.2835  0.0465  0.0391
 8105W        W10255  20.813   0.501   1.813 -0.2137  0.0718 -0.3398
 8106W        W10256  11.984   6.577  13.229  0.0994  0.0336 -0.1660
 8107W        W10257  11.603   1.123  15.280 -0.0656 -0.0760  0.0494
 8108W        W10258   3.934   2.006  28.399  0.0015 -0.1240  0.0287
 8109W        W10259   3.213   0.241   3.185  0.0513 -0.0452  0.2697
 8110W        W10260  11.695   2.274  26.416  0.0876  0.0800  0.1636
 8111W        W10261  17.268   6.093  30.941  0.0339  0.2068 -0.0965
 8112W        W10262   7.149   5.896   0.710  0.0078 -0.2627 -0.2181
 8113W        W10263  23.714   3.680  34.575  0.0731 -0.0693  0.1239
 8114W        W10264   0.352   2.530  33.194 -0.1106  0.2429 -0.2281
 8115W        W10265  17.493   1.671   2.984  0.2034 -0.2983 -0.1733
 8116W        W10266   2.233   1.833  10.618  0.0127  0.0158 -0.1312
 8117W        W10267   4.891   1.898   8.924 -0.0722  0.1321  0.0010
 8118W        W10268   3.309   5.825  13.149 -0.3884  0.2593 -0.2652
 8119W        W10269  19.907   0.580   1.686 -0.1508  0.0734  0.1131
 8120W        W10270  10.184   2.693  13.816 -0.3193 -0.1127 -0.0384
 8121W        W10271   0.510   3.059  10.577  0.2401 -0.1939 -0.0762
 8122W        W10272  14.051   1.574  25.377  0.2202  0.0687 -0.1588
 8123W        W10273  22.985   5.771  14.171  0.1567  0.1538  0.2980
 8124W        W10274  14.730   6.100   9.796 -0.2274 -0.2407 -0.0917
 8125W        W10275   8.733   4.669  28.732 -0.2327 -0.1985  0.1514
 8126W        W10276   2.782   2.805  33.265  0.2807 -0.2581  0.1709
 8127W        W10277  16.342   2.231  27.905  0.1452 -0.1767  0.0881
 8128W        W10278  16.664   6.109  14.662  0.3562  0.2469  0.2816
 8129W        W10279  10.555   3.316  29.324  0.2590  0.1169 -0.0816
 8130W        W10280  22.264   2.704  33.817  0.0064  0.2208 -0.1343
 8131W        W10281  11.688   4.049  25.121 -0.2404 -0.1322 -0.1501
 8132W        W10282   6.679   6.254   2.869 -0.4173 -0.1544  0.1676
 8133W        W10283  13.382   4.529   9.702  0.2480 -0.1407  0.1001
 8134W        W10284  16.089   2.621   1.046 -0.3833 -0.0771 -0.1900
 8135W        W10285  12.349   2.766   0.186  0.0875 -0.0126  0.0814
 8136W        W10286  11.479   6.551   4.679 -0.1405 -0.3686  0.0398
 8137W        W10287  13.268   0.008   2.311  0.1107 -0.3138  0.2319
 8138W        W10288  21.766   1.495  23.653  0.1497  0.1524 -0.0029
 8139W        W10289  22.621   4.410  11.998 -0.0391 -0.0172  0.0575
 8140W        W10290  20.510   5.567  27.140  0.0066  0.1014 -0.1125
 8141W        W10291  17.146   6.056  32.000 -0.3070  0.2544 -0.2661
 8142W        W10292  22.025   3.056  24.594 -0.1872  0.3066  0.0057
 8143W        W10293  14.036   2.190   4.455  0.0654  0.2526 -0.1904
 8144W        W10294  25.954   0.843  20.595  0.1654 -0.1425 -0.0640
 8145W        W10295   8.499   0.063  10.036 -0.0269  0.2441  0.1143
 8146W        W10296  20.709   1.621   1.438 -0.1325  0.0027 -0.1013
 8147W        W10297  20.404   3.684  35.133 -0.1811 -0.1386  0.0796
 8148W        W10298  11.988   5.001   5.462  0.0404 -0.0963 -0.2684
 8149W        W10299   5.415   5.119  28.270  0.0826 -0.3361  0.0209
 8150W        W10300   2.354   2.915  29.037  0.2228 -0.2584 -0.2658
 8151W        W10301  21.741   5.178   2.150  0.2111 -0.0092 -0.2083
 8152W        W10302  14.866   2.197  33.187  0.1177  0.1593  0.0055
 8153W        W10303  24.033   6.461   3.217 -0.3021 -0.0833  0.0992
 8154W        W10304  19.602   3.539   7.303 -0.0705  0.0046  0.2007
 8155W        W10305   4.931   5.898   9.616  0.0712  0.0138  0.0473
 8156W        W10306   9.791   1.967   4.299  0.0702 -0.2288 -0.1758
 8157W        W10307  12.501   1.492   1.186  0.1325 -0.1771  0.1496
 8158W        W10308  24.454   2.764  23.680 -0.0329 -0.2910 -0.0269
 8159W        W10309  17.783   3.856   5.825 -0.3596 -0.0850  0.1540
 8160W        W10310  13.320   0.970  27.699 -0.2677 -0.1170 -0.0453
 8161W        W10311   3.040   4.562  30.387 -0.1975 -0.0860 -0.2587
 8162W        W10312  14.892   3.934  32.704  0.0912  0.0805 -0.0529
 8163W        W10313  17.497   4.506  34.498 -0.2101 -0.2353  0.5264
 8164W        W10314  19.020   5.070   2.701  0.1301 -0.2411 -0.0805
 8165W        W10315  15.012   3.481  23.605  0.2461 -0.1498 -0.0050
 8166W        W10316  19.695   1.884  33.100 -0.1087  0.1389  0.0326
 8167W        W10317   7.806   5.474  14.717  0.0635 -0.0295 -0.0798
 8168W        W10318   9.180   4.699  26.503  0.0083 -0.0353  0.0573
 8169W        W10319   2.500   0.939  32.479 -0.4662  0.0028 -0.0737
 8170W        W10320  24.021   5.517  20.465  0.0030  0.1928  0.0649
 8171W        W10321   4.965   5.915  12.978  0.1573 -0.1886  0.0269
 8172W        W10322  25.782   6.114   0.965  0.0081  0.1282  0.1160
 8173W        W10323   2.895   2.559  15.385  0.1195 -0.1781 -0.1083
 8174W        W10324   0.537   0.205  20.549  0.0114  0.1426  0.1676
 8175W        W10325   9.268   0.465   1.210 -0.1850  0.0539 -0.0778
 8176W        W10326   7.786   1.049   2.638 -0.1166  0.0630 -0.0079
 8177W        W10327  11.335   6.405   1.897  0.0128  0.0846 -0.1266
 8178W        W10328   5.249   2.003  35.697 -0.0237  0.1129 -0.1405
 8179W        W10329  25.324   4.263  28.404  0.0860 -0.0485  0.2036
 8180W        W10330  22.605   3.922   4.405 -0.1247  0.1330 -0.0369
 8181W        W10331  11.248   4.477  10.729  0.1392 -0.2580  0.1797
 8182W        W10332   4.244   5.095   5.176 -0.0371 -0.2835 -0.0956
 8183W        W10333  16.137   3.616   1.580  0.0903 -0.1324 -0.1206
 8184W        W10334   7.236   4.139   1.771  0.1253 -0.3959 -0.1370
 8185W        W10335   5.486   1.675  26.304 -0.1585 -0.4016 -0.0439
 8186W        W10336  13.971   0.301  11.403  0.0276  0.4165  0.2402
 8187W        W10337  20.197   6.333   2.102 -0.0048 -0.2946 -0.1637
 8188W        W10338   2.268   5.022  28.353 -0.1151  0.1564 -0.2421
 8189W        W10339   6.063   1.355  28.033  0.1210  0.0083  0.0991
 8190W        W10340  15.103   1.993  25.904 -0.1511 -0.1575  0.0536
 8191W        W10341  16.780   1.482  35.860  0.1583  0.3289 -0.0714
 8192W        W10342  22.332   5.924  30.917  0.0063 -0.0223  0.1546
 8193W        W10343  14.756   5.957   8.410  0.0737  0.0122 -0.0234
 8194W        W10344   2.390   5.778   3.676  0.1022 -0.0696 -0.4122
 8195W        W10345  23.887   6.184  29.299 -0.1302 -0.1114  0.0693
 8196W        W10346  22.683   1.125  23.496 -0.3491 -0.1068  0.0098
 8197W        W10347  16.860   5.585  25.957  0.0325 -0.1888  0.1893
 8198W        W10348  21.164   3.931  11.952  0.0731  0.1581 -0.0626
 8199W        W10349   9.326   6.576   3.892  0.1173  0.1692 -0.2358
 8200W        W10350  15.104   2.504   9.888  0.0423 -0.0055  0.0329
 8201W        W10351   0.022   2.546   9.194  0.0972  0.0018  0.0738
 8202W        W10352  14.908   3.976  23.003  0.1124 -0.2824 -0.2740
 8203W        W10353   1.037   4.818  21.646  0.1301 -0.3590 -0.1331
 8204W        W10354   8.176   1.524  23.835  0.0532  0.1733  0.3338
 8205W        W10355   3.285   0.265  25.905 -0.0573  0.1879 -0.0613
 8206W        W10356  21.308   1.553  33.691 -0.0473  0.0729 -0.2202
 8207W        W10357   3.106   4.174   9.511  0.1204 -0.0555  0.1649
 8208W        W10358   3.124   0.939   7.725 -0.0324 -0.0672  0.3914
 8209W        W10359  19.595   1.965  15.422  0.1483 -0.1223 -0.0921
 8210W        W10360  21.760   1.440  13.490 -0.0690 -0.1502  0.0883
 8211W        W10361  25.067   2.174  30.476  0.0892  0.3069 -0.1606
 8212W        W10362  19.763   5.884   1.082  0.0071 -0.0900 -0.0449
 8213W        W10363  23.621   3.457  24.900  0.3734 -0.2332 -0.3581
 8214W        W10364  10.586   2.909   0.131 -0.0154 -0.0556  0.1580
 8215W        W10365  10.629   6.209  35.038  0.2447  0.0120  0.0542
 8216W        W10366   6.124   4.676  20.240 -0.0208  0.2003 -0.1363
 8217W        W10367   1.292   1.033   2.694 -0.2100 -0.2047  0.2710
 8218W        W10368  23.083   5.029  25.078  0.0536  0.0296  0.3283
 8219W        W10369   3.339   3.952  33.116  0.1017  0.0230  0.1456
 8220W        W10370   4.694   4.847   5.237 -0.2607  0.1901  0.0429
 8221W        W10371  18.250   1.774  26.297 -0.0337 -0.1508 -0.0476
 8222W        W10372  21.219   4.952  27.295 -0.0406  0.1234 -0.0492
 8223W        W10373  24.253   0.916   6.112  0.0360 -0.0101 -0.0063
 8224W        W10374  10.557   5.956  10.443 -0.0510  0.1984 -0.1137
 8225W        W10375  12.142   3.799  25.419 -0.1296  0.1268 -0.0201
 8226W        W10376  13.451   2.836  25.868 -0.1698  0.0423 -0.2063
 8227W        W10377  16.739   2.910   7.243  0.2851 -0.2645  0.1288
 8228W        W10378   0.106   2.666   4.224  0.1054  0.0518 -0.0890
 8229W        W10379   5.011   6.071  23.347  0.2156  0.1033 -0.0704
 8230W        W10380  23.446   2.490  28.340 -0.0374 -0.2442 -0.1587
 8231W        W10381  14.722   1.648   8.646  0.1278 -0.0730 -0.2156
 8232W        W10382   0.271   2.221   7.582  0.1141  0.0106  0.1366
 8233W        W10383   9.086   5.597  31.803  0.3948  0.1289 -0.2726
 8234W        W10384  22.278   5.585   0.800 -0.0944 -0.0046  0.2103
 8235W        W10385  19.586   2.822  25.561  0.1520 -0.0115 -0.0216
 8236W        W10386   9.832   2.936  24.014  0.0662  0.2208 -0.1177
 8237W        W10387  10.780   5.835  30.536  0.0839  0.0228 -0.1050
 8238W        W10388  16.554   4.320   4.006 -0.1715  0.3549 -0.2160
 8239W        W10389  13.490   2.293  34.151  0.2337 -0.1847 -0.1946
 8240W        W10390  11.056   6.061  14.260  0.1152 -0.1104 -0.2795
 8241W        W10391  21.729   1.303  10.989  0.1302 -0.1805  0.0873
 8242W        W10392  23.060   4.868  24.354  0.1226  0.0495  0.2493
 8243W        W10393   4.823   5.858  27.161  0.2790 -0.1314  0.2548
 8244W        W10394   6.090   1.954  12.772  0.0548  0.0948  0.0674
 8245W        W10395  17.448   2.786  22.362  0.1684  0.2609 -0.0065
 8246W        W10396   7.776   5.976  14.742  0.1714  0.3256  0.0859
 8247W        W10397   4.298   0.103  13.271 -0.2571 -0.0713 -0.1808
 8248W        W10398  18.158   3.926   0.702  0.0917 -0.1523  0.3122
 8249W        W10399  25.784   5.190  35.591  0.1333 -0.2041  0.0954
 8250W        W10400  24.223   2.574  24.515 -0.1129 -0.0855  0.0843
 8251W        W10401   9.924   1.562  25.599  0.0172 -0.0973 -0.0231
 8252W        W10402   9.851   3.351   7.212 -0.0992  0.1159  0.0806
 8253W        W10403   8.271   2.754  30.133  0.0363  0.0076  0.0004
 8254W        W10404   9.639   2.052   9.523  0.1977  0.2138  0.0650
 8255W        W10405  26.316   4.590   6.963  0.1967 -0.0971 -0.1209
 8256W        W10406  21.603   2.429  23.107 -0.1763  0.1595 -0.0204
 8257W        W10407  18.506   5.413  29.681  0.1722  0.0678  0.0993
 8258W        W10408  21.261   4.296  13.733  0.2096 -0.0236 -0.0377
 8259W        W10409   7.091   6.555  14.729 -0.1909  0.0628 -0.0780
 8260W        W10410  20.591   6.543  23.305  0.1473 -0.1213  0.2701
 8261W        W10411  19.626   1.147  14.496 -0.2115  0.0146 -0.3810
 8262W        W10412   3.265   3.381   0.414 -0.1129 -0.1293 -0.1481
 8263W        W10413   6.550   0.351   2.038  0.2520 -0.1393  0.1203
 8264W        W10414  24.644   1.204  26.900  0.1225  0.1635 -0.1646
 8265W        W10415  22.071   5.394  21.231 -0.0494 -0.2052 -0.1081
 8266W        W10416   1.245   3.428   9.026  0.0116 -0.1217 -0.0703
 8267W        W10417  25.183   0.547  33.745 -0.1597 -0.0828 -0.1321
 8268W        W10418   5.703   5.617  32.040  0.5256 -0.1399 -0.0919
 8269W        W10419  24.252   0.674   0.774 -0.1021 -0.0705 -0.1032
 8270W        W10420   3.289   1.615   5.405 -0.0680  0.0780 -0.0890
 8271W        W10421  10.858   2.074  31.434  0.0769 -0.1604  0.0320
 8272W        W10422   7.328   1.403  11.132  0.0401 -0.2667  0.2589
 8273W        W10423  22.586   2.831   8.096 -0.2024  0.0336 -0.0207
 8274W        W10424  17.405   4.207  35.351 -0.1344  0.0865 -0.2020
 8275W        W10425  13.250   1.589   7.425 -0.1227  0.0229 -0.1299
 8276W        W10426  19.592   0.550   8.775  0.0026  0.1276  0.2199
 8277W        W10427   7.340   1.815  24.098  0.4581  0.0691 -0.0591
 8278W        W10428   9.948   1.674  35.144  0.4113  0.0583 -0.0361
 8279W        W10429  25.695   4.770  20.788  0.2286  0.2135  0.0827
 8280W        W10430   5.822   1.674   0.365  0.1646  0.2293  0.1139
 8281W        W10431   5.500   6.197  35.111 -0.0671 -0.1515  0.1274
 8282W        W10432  22.002   0.108  31.384  0.0810 -0.1876  0.0391
 8283W        W10433  16.005   1.273   1.172  0.1526 -0.2012 -0.2231
 8284W        W10434  16.373   2.934  23.263  0.0129 -0.1158 -0.3090
 8285W        W10435  22.029   4.789   0.438  0.1973 -0.0080  0.2563
 8286W        W10436   7.958   4.557  30.300 -0.1108 -0.3210 -0.0859
 8287W        W10437  24.366   2.981  21.519  0.2418  0.1444  0.2697
 8288W        W10438  22.358   5.805  29.263  0.0583 -0.0088 -0.1210
 8289W        W10439   5.303   1.257   2.105 -0.1910 -0.0189  0.0595
 8290W        W10440   4.012   4.047   2.778  0.0018  0.1686 -0.0275
 8291W        W10441  11.509   2.087  24.664 -0.3410  0.0447 -0.0279
 8292W        W10442   5.686   2.880  27.897  0.0340  0.0043 -0.0409
 8293W        W10443  20.684   0.468   9.363  0.0206  0.1593 -0.2009
 8294W        W10444  12.404   1.028   6.631  0.1978  0.1119  0.0672
 8295W        W10445   8.134   5.735   2.969 -0.2111 -0.0983 -0.1449
 8296W        W10446  18.467   3.899  31.616  0.1662 -0.1850 -0.0381
 8297W        W10447   5.759   4.376   1.900  0.1477 -0.1590  0.0607
 8298W        W10448  13.859   5.243   6.005 -0.3913 -0.1447  0.1940
 8299W        W10449  18.389   5.555  12.655 -0.2220 -0.1284 -0.1869
 8300W        W10450   9.307   6.087  27.152  0.2446  0.0794  0.0205
 8301W        W10451  24.781   5.000  22.721  0.0783 -0.4000  0.1495
 8302W        W10452  21.906   3.948   3.575 -0.1913  0.1560 -0.0582
 8303W        W10453   9.093   0.372   5.599 -0.0234 -0.0738  0.2558
 8304W        W10454   3.476   2.862  32.822  0.1603 -0.2657  0.3452
 8305W        W10455   8.606   0.962   5.557  0.0830 -0.3352 -0.2540
 8306W        W10456  21.145   2.157   8.828 -0.0701 -0.0243  0.0770
 8307W        W10457  24.193   5.536  27.936  0.1937 -0.0381 -0.0092
 8308W        W10458  23.653   3.924   2.372  0.1458 -0.1393  0.1789
 8309W        W10459  21.171   0.518  23.556  0.1196  0.0975 -0.0003
 8310W        W10460  10.511   3.185  32.862 -0.2951 -0.0579  0.2143
 8311W        W10461   4.845   4.733  13.498 -0.2538  0.0712  0.0947
 8312W        W10462   5.025   5.604  10.020  0.2816 -0.0949  0.0343
 8313W        W10463  18.867   4.732   0.854 -0.2741  0.1691 -0.0743
 8314W        W10464  10.262   1.055  22.525  0.0083 -0.1045  0.1918
 8315W        W10465  10.037   6.265  14.978  0.1684  0.2817  0.1063
 8316W        W10466  18.441   0.428  14.467 -0.0709  0.0358  0.0478
 8317W        W10467  17.326   4.278  24.687  0.3437 -0.0169  0.0935
 8318W        W10468  24.720   0.665   6.213  0.1381 -0.0156  0.1212
 8319W        W10469  15.189   0.730   7.835 -0.2030  0.0000  0.0716
 8320W        W10470  11.315   4.922   1.296  0.0500 -0.0701 -0.0773
 8321W        W10471   2.284   0.171  29.641 -0.0444  0.0467  0.1206
 8322W        W10472  17.476   3.234  34.557  0.1199  0.1809 -0.0007
 8323W        W10473  12.808   2.876   0.430  0.0143  0.0727 -0.1722
 8324W        W10474  16.097   5.549  35.068 -0.0307 -0.0700 -0.0842
 8325W        W10475  11.401   6.106  13.914 -0.1591 -0.0595 -0.0538
 8326W        W10476   0.722   0.420   1.116 -0.0569 -0.0328  0.0498
 8327W        W10477  12.670   4.432   7.630 -0.1740 -0.1359  0.2520
 8328W        W10478  23.982   6.447  30.236  0.1730  0.3088  0.0087
 8329W        W10479  24.769   2.117  10.388  0.2632 -0.1786 -0.1430
 8330W        W10480   9.974   6.529  33.166  0.0638 -0.4038 -0.0657
 8331W        W10481   9.338   6.031  29.961  0.0572 -0.0124  0.1265
 8332W        W10482  21.356   6.445  11.495 -0.3556  0.2697  0.2736
 8333W        W10483  13.425   1.401   6.385  0.0006  0.2554 -0.0750
 8334W        W10484   2.854   0.065   5.621  0.1476 -0.3532 -0.0731
 8335W        W10485   0.479   6.348  32.322 -0.1886  0.0663 -0.0053
 8336W        W10486  12.924   5.716  13.754 -0.2196 -0.1900 -0.2332
 8337W        W10487   7.826   0.932   1.792  0.0429  0.1116  0.1601
 8338W        W10488   6.556   2.045  34.728  0.1364 -0.2974  0.1930
 8339W        W10489  23.562   1.835  33.218 -0.1467  0.1397  0.1398
 8340W        W10490  14.710   5.308  30.151  0.2116 -0.0534 -0.0076
 8341W        W10491  21.179   4.438   9.235  0.2856 -0.0426  0.0890
 8342W        W10492  14.265   5.363  35.380  0.0262  0.0830 -0.0756
 8343W        W10493  23.824   0.755  30.177  0.2652  0.1991  0.0449
 8344W        W10494   4.152   1.457  32.676  0.0812 -0.0140  0.0396
 8345W        W10495  14.811   3.552  35.621 -0.0859 -0.0126  0.0012
 8346W        W10496  23.763   5.284   0.501 -0.2982 -0.2654 -0.3021
 8347W        W10497  25.239   3.232  33.611  0.2549 -0.3220 -0.1574
 8348W        W10498   6.481   3.923   1.494  0.2037 -0.0920 -0.0513
 8349W        W10499   9.737   1.866  21.588  0.1536 -0.0551 -0.0751
 8350W        W10500  18.869   2.430  13.877 -0.2059 -0.0767 -0.1289
 8351W        W10501  11.155   3.470  25.581  0.0860  0.1231  0.0189
 8352W        W10502   9.102   1.909   6.650 -0.2934 -0.2687  0.1296
 8353W        W10503   5.446   5.095  10.180  0.1909  0.0200 -0.1069
 8354W        W10504  25.927   3.927  35.356 -0.2852  0.1156 -0.0353
 8355W        W10505   4.019   0.835  10.164  0.2055 -0.1502  0.1243
 8356W        W10506   8.036   5.190   3.958 -0.2135 -0.0357  0.1424
 8357W        W10507  10.780   2.308   2.811  0.1798  0.1463 -0.0491
 8358W        W10508  17.468   5.818  12.349  0.0747  0.1283  0.0477
 8359W        W10509  10.709   4.797  11.713 -0.3403  0.0308  0.2192
 8360W        W10510   4.635   3.023  20.610  0.0846 -0.0975  0.0858
 8361W        W10511  19.775   6.402  27.394  0.0946  0.1039 -0.0605
 8362W        W10512  18.630   0.009   4.357  0.2581 -0.1841  0.2698
 8363W        W10513  18.836   2.458   9.952 -0.1767  0.0463 -0.0268
 8364W        W10514  10.770   5.785  14.598  0.1145  0.0507 -0.0618
 8365W        W10515  21.863   3.677   1.912  0.1276 -0.0144 -0.2723
 8366W        W10516  22.702   6.260   8.170  0.0788  0.2835 -0.1404
 8367W        W10517  15.750   2.926   9.860 -0.1102 -0.1137  0.1630
 8368W        W10518  11.056   4.092  20.900  0.0826  0.1214  0.0459
 8369W        W10519   2.042   5.400  25.006 -0.0947  0.1268 -0.2106
 8370W        W10520  20.744   4.825   7.918  0.1033  0.1614 -0.0832
 8371W        W10521  13.945   2.169  10.995 -0.2248  0.2260  0.0367
 8372W        W10522   2.884   0.209   4.592 -0.1043 -0.0451  0.1253
 8373W        W10523   1.822   1.647  29.686 -0.1537 -0.0219 -0.0620
 8374W        W10524  11.222   1.367  11.494  0.0719 -0.1090 -0.1022
 8375W        W10525   7.957   4.340  10.336  0.1205 -0.1936 -0.1720
 8376W        W10526  24.211   6.143  12.700  0.3413 -0.0131 -0.0874
 8377W        W10527   2.121   4.171  33.290  0.0009  0.1148 -0.1216
 8378W        W10528  11.164   1.561  33.878  0.1766  0.2684 -0.0415
 8379W        W10529   2.216   4.109  28.282  0.0767  0.0262 -0.1016
 8380W        W10530  16.032   1.116  34.583 -0.1367 -0.0570 -0.0645
 8381W        W10531   1.050   0.945  28.513 -0.0125 -0.0504 -0.0880
 8382W        W10532  10.045   4.603  30.744  0.2375  0.1422  0.0868
 8383W        W10533   1.946   3.774  30.803 -0.1442  0.3175  0.0060
 8384W        W10534  22.885   3.007  26.986  0.2860  0.0478 -0.0545
 8385W        W10535   4.995   2.656   8.543 -0.0339 -0.1030  0.1735
 8386W        W10536  15.336   2.835  26.415 -0.0785 -0.0058  0.0286
 8387W        W10537  16.520   3.337   4.042  0.1600  0.1445 -0.2678
 8388W        W10538  22.523   0.873  31.629 -0.3252  0.0369 -0.1811
 8389W        W10539  21.332   0.682  13.633  0.1840 -0.0285  0.3220
 8390W        W10540  25.332   5.752  22.852  0.3542  0.3543 -0.1228
 8391W        W10541   4.072   2.713  28.266 -0.1854  0.0424  0.0725
 8392W        W10542  23.799   0.759  28.619 -0.0512  0.1985 -0.0769
 8393W        W10543  25.600   0.773  35.002  0.3298 -0.0180 -0.1504
 8394W        W10544  24.841   5.506  31.061  0.0249  0.1921 -0.1601
 8395W        W10545  21.720   2.475  13.669  0.0111 -0.1232  0.1562
 8396W        W10546  11.575   2.645  21.853 -0.0099  0.1253 -0.0264
 8397W        W10547  26.299   4.878  24.112 -0.0159 -0.1754 -0.2578
 8398W        W10548   5.663   0.515  24.550  0.1581 -0.0709  0.1271
 8399W        W10549   7.650   3.572   4.545  0.1801  0.0333  0.1874
 8400W        W10550  10.337   3.672   0.809 -0.0060  0.0705 -0.0665
 8401W        W10551   0.602   1.709  30.762  0.1774 -0.3515  0.0498
 8402W        W10552   4.073   1.530  35.290 -0.1979 -0.2186  0.2124
 8403W        W10553   3.431   6.010   2.044  0.0918 -0.1938  0.0096
 8404W        W10554  16.227   3.348   4.517 -0.1398  0.0937  0.5147
 8405W        W10555   0.192   4.712  12.879 -0.1871 -0.2541 -0.0850
 8406W        W10556   8.848   2.361  33.707 -0.1096  0.0838 -0.0860
 8407W        W10557   7.838   0.563  29.663 -0.1089  0.0409  0.0621
 8408W        W10558  23.089   3.876  31.444  0.0898 -0.1989  0.0856
 8409W        W10559  20.049   2.196   0.002 -0.0595  0.0907  0.2705
 8410W        W10560  14.298   0.801  34.692 -0.0413 -0.1009  0.0281
 8411W        W10561  10.459   1.253  23.373  0.0827  0.2121  0.0938
 8412W        W10562  10.484   4.111  28.470  0.1049  0.2875 -0.0273
 8413W        W10563  12.948   3.578   5.509  0.0972  0.0015  0.2907
 8414W        W10564   9.880   2.259  13.936 -0.1272 -0.1142 -0.0034
 8415W        W10565  21.602   1.081  31.611 -0.1729 -0.2231 -0.0318
 8416W        W10566  23.698   0.225   9.178  0.1224  0.2199 -0.1083
 8417W        W10567  25.458   1.325  35.809  0.0127 -0.1224  0.1036
 8418W        W10568  17.039   1.763  24.348  0.1178 -0.0146  0.3395
 8419W        W10569   8.664   2.030   5.774  0.0537 -0.2711  0.3058
 8420W        W10570  22.352   2.895  24.270 -0.0165  0.0841  0.0643
 8421W        W10571  18.236   1.730  35.327 -0.0560  0.0128 -0.1420
 8422W        W10572  17.731   3.080   0.875 -0.1101 -0.2716  0.0282
 8423W        W10573  23.487   6.469  32.415  0.2178  0.2152  0.2461
 8424W        W10574  14.522   0.666  12.158 -0.3392  0.0121  0.1400
 8425W        W10575  16.631   3.340  27.697  0.0752 -0.1145 -0.1917
 8426W        W10576  12.795   4.120  21.052  0.0775  0.1654 -0.0126
 8427W        W10577   8.492   0.990  12.002  0.1146 -0.1160  0.2208
 8428W        W10578  21.398   1.348  28.002  0.0472  0.0358  0.0827
 8429W        W10579  13.168   6.447  12.577  0.1508  0.0808 -0.4360
 8430W        W10580   0.085   2.714  28.087 -0.1470 -0.1915 -0.2388
 8431W        W10581   2.492   3.591  23.278  0.0458  0.0995  0.2375
 8432W        W10582  20.830   2.217   0.049  0.4928  0.0085  0.1126
 8433W        W10583  19.314   0.687  35.102  0.1845  0.3309  0.1269
 8434W        W10584  15.418   1.560  29.633  0.0333 -0.0895 -0.3756
 8435W        W10585  13.739   0.825   0.346  0.2832 -0.1370 -0.2185
 8436W        W10586  26.266   1.451   0.002 -0.1089 -0.3458  0.1728
 8437W        W10587   5.453   1.899  28.768  0.1081 -0.2074  0.1414
 8438W        W10588   6.202   1.051   5.415  0.1060 -0.1463 -0.0874
 8439W        W10589  24.923   3.556  35.919  0.3157  0.1833  0.1078
 8440W        W10590   5.806   4.251  14.517 -0.0957  0.1026  0.0699
 8441W        W10591  18.892   0.880   6.133  0.4331 -0.3022 -0.3834
 8442W        W10592  10.133   2.856  29.736 -0.0003  0.2026 -0.0344
 8443W        W10593  18.908   6.607  31.378  0.3335  0.0793 -0.2483
 8444W        W10594  10.738   1.522  11.912 -0.3757 -0.0768 -0.0370
 8445W        W10595  11.064   1.988  29.669  0.1825 -0.0440  0.0359
 8446W        W10596   4.125   1.141  11.872  0.1292  0.3249 -0.2205
 8447W        W10597  21.815   6.558  32.373  0.2532 -0.1679  0.0622
 8448W        W10598  14.436   6.021   7.160 -0.0018 -0.2817  0.0139
 8449W        W10599  23.972   0.583  29.701 -0.1691 -0.0992  0.2418
 8450W        W10600  22.078   1.053   2.973  0.2432 -0.1968  0.3082
 8451W        W10601   1.031   5.879  14.478 -0.4209  0.2339  0.1636
 8452W        W10602  22.358   4.587  33.875 -0.2535 -0.1094  0.1819
 8453W        W10603  14.063   0.852  10.576  0.2155  0.1794 -0.2118
 8454W        W10604  21.106   4.067   7.453  0.1054  0.1876 -0.1464
 8455W        W10605  10.009   0.318  10.707 -0.1630 -0.2247  0.1862
 8456W        W10606  13.799   6.420  12.901 -0.1092 -0.0192  0.2778
 8457W        W10607  16.880   0.353   8.255 -0.2464  0.1153 -0.1465
 8458W        W10608  19.247   4.905   8.522  0.1869 -0.0653 -0.0537
 8459W        W10609   5.274   4.808  12.331  0.0882 -0.2891 -0.1852
 8460W        W10610  24.648   6.392  31.815 -0.0831 -0.1007  0.0429
 8461W        W10611  22.008   5.025  26.260 -0.0559  0.1205 -0.2157
 8462W        W10612  12.326   3.831  21.714 -0.3198 -0.0273 -0.2881
 8463W        W10613  14.290   1.836   8.831  0.0212  0.0055  0.0181
 8464W        W10614   1.011   5.425  14.697  0.0174 -0.0811  0.1455
 8465W        W10615  22.764   0.810  24.567 -0.0200  0.0099 -0.0155
 8466W        W10616   1.008   5.692   1.215 -0.2809 -0.1109 -0.4177
 8467W        W10617  10.707   4.043  14.082  0.0091 -0.2302  0.2021
 8468W        W10618  15.575   4.185  32.948  0.1567  0.0153 -0.1195
 8469W        W10619  11.689   1.374  28.114 -0.4317  0.1454 -0.1139
 8470W        W10620   7.759   0.047  21.764  0.0316  0.0119 -0.2773
 8471W        W10621  26.075   5.041  13.725 -0.0124 -0.2674  0.3003
 8472W        W10622  21.074   4.261  10.657 -0.0680 -0.3879  0.1574
 8473W        W10623  10.575   1.024  29.439  0.0900 -0.1862 -0.0470
 8474W        W10624   6.136   2.737   1.186  0.1974 -0.0649  0.0868
 8475W        W10625  22.927   3.831   7.937 -0.0578 -0.2336 -0.1305
 8476W        W10626  10.858   0.634  14.960  0.0909 -0.0770  0.2256
 8477W        W10627  24.607   3.161  10.629 -0.3869  0.1074 -0.0535
 8478W        W10628   6.714   1.509  13.225  0.0703 -0.1030 -0.0008
 8479W        W10629   7.646   6.321  35.146 -0.1766 -0.0997  0.1671
 8480W        W10630  18.966   5.798   8.711 -0.1844  0.0000 -0.1823
 8481W        W10631   2.485   4.670  15.263  0.1584  0.1184 -0.0570
 8482W        W10632  25.478   1.585  25.497 -0.0501  0.2092  0.1377
 8483W        W10633   8.706   1.293  33.954  0.2160 -0.0883  0.1240
 8484W        W10634  13.374   5.960  10.128  0.2290 -0.2352  0.2335
 8485W        W10635  23.841   1.468   4.288 -0.1078 -0.2655  0.3549
 8486W        W10636  11.749   3.677   6.244  0.1788  0.4219  0.1351
 8487W        W10637  22.188   2.868  36.044 -0.2010  0.0748  0.0062
 8488W        W10638   5.940   0.434  10.238 -0.1015 -0.1295 -0.4330
 8489W        W10639   6.300   4.321   4.787 -0.0947 -0.0380  0.1703
 8490W        W10640  20.594   2.761  11.259  0.2484  0.1182  0.0473
 8491W        W10641  21.158   2.701  31.383  0.2014  0.0072  0.1717
 8492W        W10642   0.016   1.944  26.377 -0.1810 -0.1455  0.1760
 8493W        W10643   3.652   3.929  28.773  0.3461  0.0667  0.0538
 8494W        W10644  20.291   5.975  10.306 -0.1783 -0.2061  0.4646
 8495W        W10645  18.128   0.064  22.006  0.2176 -0.1455  0.1787
 8496W        W10646  18.090   0.195  30.110  0.0854 -0.3552  0.0731
 8497W        W10647   7.990   0.109   9.063  0.2048 -0.2083  0.0388
 8498W        W10648  25.684   5.945  23.725 -0.0313  0.1179  0.0739
 8499W        W10649   2.473   1.630  15.152  0.0377  0.0116 -0.3708
 8500W        W10650  15.194   2.851   4.306  0.3978  0.0257  0.0835
 8501W        W10651   2.604   2.542  11.691 -0.4045  0.2900 -0.0495
 8502W        W10652   7.073   4.961  34.909  0.1174  0.0911 -0.2314
 8503W        W10653  11.314   4.992   4.594  0.2068  0.4670  0.2125
 8504W        W10654  25.233   3.436  35.013  0.1311 -0.2633  0.1348
 8505W        W10655   1.402   6.363  25.114 -0.1956  0.2796  0.1606
 8506W        W10656  26.348   0.405   2.371  0.1339  0.0912  0.2047
 8507W        W10657   4.222   3.975  33.096 -0.1564 -0.0054 -0.2240
 8508W        W10658   2.345   6.445  27.352 -0.0919 -0.1262 -0.0523
 8509W        W10659  14.795   0.784  31.784 -0.0152 -0.1992  0.0335
 8510W        W10660  10.960   2.886  26.723 -0.3170  0.0684 -0.0268
 8511W        W10661  14.490   4.031  12.567 -0.0096  0.0204 -0.4077
 8512W        W10662  17.134   0.286  28.844  0.0109 -0.1864 -0.0324
 8513W        W10663   3.622   2.556  11.561  0.0794 -0.1274 -0.1206
 8514W        W10664  20.847   6.097  23.528 -0.2102 -0.0395 -0.1655
 8515W        W10665  19.394   3.269   8.002 -0.1861  0.1895 -0.0019
 8516W        W10666  21.383   1.119  14.799 -0.0303  0.0475 -0.0154
 8517W        W10667   2.333   1.866   0.285  0.0881 -0.2312 -0.0850
 8518W        W10668   7.131   4.999  14.998 -0.2163  0.1727 -0.2529
 8519W        W10669   3.151   3.730  36.025  0.0041  0.1744  0.0449
 8520W        W10670  17.613   2.017   8.728  0.4293  0.1255 -0.4465
 8521W        W10671  17.329   0.141   8.399  0.1221  0.2906 -0.2131
 8522W        W10672  10.231   1.462  10.141 -0.2643 -0.0639 -0.2652
 8523W        W10673  26.124   6.000  22.731 -0.0263  0.0606  0.1097
 8524W        W10674  15.686   0.644  28.975  0.0560 -0.2426 -0.1155
 8525W        W10675  17.958   2.812   8.443 -0.1481 -0.3771 -0.1091
 8526W        W10676  19.698   1.594  31.804  0.2193 -0.0370 -0.0443
 8527W        W10677  20.155   5.116  27.305 -0.0359  0.3315  0.0605
 8528W        W10678  26.089   6.056  32.701  0.1373 -0.1255 -0.3495
 8529W        W10679  20.387   4.651   7.314  0.0459  0.0871 -0.0324
 8530W        W10680   7.049   0.081  30.068 -0.3466 -0.0493  0.1643
 8531W        W10681  23.062   4.893  28.886 -0.0886  0.0896  0.0578
 8532W        W10682  23.839   3.682   5.566  0.1762  0.0480  0.0566
 8533W        W10683   8.511   2.323   9.375 -0.1400 -0.3700 -0.0872
 8534W        W10684   6.859   5.193  29.337  0.2204  0.1302 -0.0181
 8535W        W10685   1.122   4.621  26.337  0.1015 -0.0813 -0.1642
 8536W        W10686   1.914   2.727   0.515 -0.1605 -0.1811 -0.2155
 8537W        W10687   0.994   5.586  34.558 -0.0525  0.1592  0.1772
 8538W        W10688  14.919   6.469   0.803 -0.0455 -0.3214  0.1204
 8539W        W10689   2.054   1.487   5.116  0.1141 -0.0038  0.2881
 8540W        W10690   9.828   5.226  15.095 -0.1047  0.1575  0.1594
 8541W        W10691  16.192   0.866   0.909 -0.1190  0.1088  0.2078
 8542W        W10692   5.878   1.131  12.816 -0.0239  0.0255 -0.1644
 8543W        W10693  17.103   0.702  11.471  0.1619 -0.1008 -0.1191
 8544W        W10694  12.718   3.188   9.871 -0.0700 -0.1254 -0.1963
 8545W        W10695  10.999   3.432  34.140  0.3147  0.0332 -0.0106
 8546W        W10696   6.504   0.434  24.638  0.0469 -0.1684  0.0001
 8547W        W10697   4.065   0.116   9.830 -0.0023  0.0675 -0.3409
 8548W        W10698   5.786   2.242  34.278 -0.1746  0.3087  0.0852
 8549W        W10699   3.545   5.841  31.682  0.1474 -0.1425 -0.1487
 8550W        W10700   6.587   4.052  24.800  0.2144 -0.3289  0.2687
 8551W        W10701   7.874   1.781  33.681  0.0017 -0.3201 -0.0209
 8552W        W10702   3.542   0.014   0.861 -0.3137  0.1927 -0.1826
 8553W        W10703  10.918   1.427   3.736  0.1037 -0.1765  0.0878
 8554W        W10704  20.107   4.119   6.354 -0.0007 -0.2969  0.2280
 8555W        W10705  13.638   3.645  15.214 -0.0156 -0.1796 -0.0651
 8556W        W10706   3.059   2.055  28.854 -0.1998  0.3651  0.3321
 8557W        W10707  24.486   1.781  33.587  0.1593  0.2085 -0.0919
 8558W        W10708   5.739   1.935   1.977 -0.2762  0.1732  0.1841
 8559W        W10709  13.290   5.797   2.650 -0.2494  0.2947 -0.0841
 8560W        W10710  20.107   6.263  34.951 -0.4019  0.2125  0.0980
 8561W        W10711   4.994   5.674  23.782  0.3253  0.2761  0.0889
 8562W        W10712  14.927   1.327  22.863  0.0314  0.0093  0.1841
 8563W        W10713  16.425   2.911  21.540  0.1852  0.0612  0.0402
 8564W        W10714  23.875   1.352   8.513 -0.0237  0.1817 -0.3343
 8565W        W10715  15.641   3.411  34.053  0.2859  0.0120 -0.4451
 8566W        W10716  12.582   5.585  12.420 -0.2234  0.0204  0.0899
 8567W        W10717   2.861   0.891  25.558  0.0679 -0.1305  0.1255
 8568W        W10718   6.830   4.313  21.932 -0.0465 -0.1133 -0.1234
 8569W        W10719  20.484   2.262   4.750 -0.0589  0.2874  0.0417
 8570W        W10720  10.851   2.803  15.112  0.0072 -0.0344  0.1885
 8571W        W10721  12.563   0.244   4.332  0.0001 -0.0395  0.2104
 8572W        W10722   0.154   2.090  11.023  0.1012  0.0574 -0.2889
 8573W        W10723  22.296   0.890   3.475 -0.2699 -0.0678  0.2267
 8574W        W10724  21.958   5.362  24.669  0.1000  0.0357 -0.1849
 8575W        W10725  13.192   1.220   9.986  0.2249  0.0685  0.1766
 8576W        W10726   0.040   4.895   3.609  0.0618 -0.2431  0.1677
 8577W        W10727  17.822   4.330   0.048  0.2106  0.3733 -0.1899
 8578W        W10728  19.500   4.966  28.614  0.1400 -0.2639 -0.0223
 8579W        W10729  21.212   1.344   0.799  0.1603 -0.1731  0.0497
 8580W        W10730  25.054   2.612  21.810  0.0034  0.2457  0.0648
 8581W        W10731  23.460   6.591   4.296  0.1248 -0.4111  0.1491
 8582W        W10732   3.604   0.340  24.401  0.0157 -0.0470 -0.0657
 8583W        W10733   0.468   0.601  31.633 -0.2762  0.1849 -0.1690
 8584W        W10734  18.938   0.550   8.571 -0.0130 -0.1077  0.3352
 8585W        W10735  22.095   0.231  22.649  0.2430  0.1354  0.2011
 8586W        W10736  15.560   0.393  33.586  0.1708 -0.0163 -0.0806
 8587W        W10737  23.612   3.473   0.063 -0.1699  0.0210  0.1208
 8588W        W10738   0.498   2.014  24.034 -0.2238  0.0918 -0.1817
 8589W        W10739  19.845   5.268   9.626 -0.0542 -0.0744 -0.1929
 8590W        W10740  15.244   0.357  28.393  0.0615 -0.0777 -0.0109
 8591W        W10741   1.636   1.885   9.436 -0.4181  0.0126 -0.3165
 8592W        W10742   4.320   4.153  24.634  0.2579 -0.2231 -0.2247
 8593W        W10743  26.107   1.741   3.571 -0.1670  0.0646 -0.0582
 8594W        W10744  13.279   3.528  31.702 -0.1850  0.0045  0.0045
 8595W        W10745   3.816   3.987   3.527 -0.0184  0.2558 -0.2885
 8596W        W10746  20.070   2.348   1.765 -0.1250 -0.0596  0.0931
 8597W        W10747   2.276   2.581  22.390  0.1631  0.0333  0.1453
 8598W        W10748   7.649   6.132  30.425  0.5000  0.0658  0.1064
 8599W        W10749  16.998   5.513  12.044  0.0481  0.0146 -0.1654
 8600W        W10750   7.788   1.771  25.457  0.1619  0.0055 -0.0740
 8601W        W10751   0.918   1.017  30.325 -0.0023 -0.2557  0.0158
 8602W        W10752  13.314   2.861  12.524 -0.1639 -0.0494  0.1535
 8603W        W10753  23.121   0.301   1.212 -0.0241 -0.1818 -0.3447
 8604W        W10754  24.916   6.468  20.782  0.0599  0.2093 -0.2032
 8605W        W10755   7.231   2.921  32.871  0.0345 -0.0700  0.1867
 8606W        W10756  14.888   6.349  10.791 -0.0218  0.1630  0.0125
 8607W        W10757  24.413   0.923  33.809  0.0483  0.1092  0.0977
 8608W        W10758  22.701   1.005  27.112  0.1983  0.0470  0.2937
 8609W        W10759  15.139   5.421  14.590  0.0904 -0.1497 -0.0617
 8610W        W10760  14.653   3.149  10.710  0.1973 -0.0841 -0.2787
 8611W        W10761  15.996   3.440   4.946  0.0576  0.2461  0.1591
 8612W        W10762  11.067   5.357  13.792  0.0973 -0.1189 -0.2988
 8613W        W10763   2.532   1.136  24.645 -0.2546  0.0945  0.0316
 8614W        W10764  10.119   6.049  12.176 -0.5240 -0.4159 -0.1061
 8615W        W10765  23.633   3.980   6.426 -0.2965 -0.0521  0.2221
 8616W        W10766  10.757   1.691  32.897 -0.1037 -0.0547  0.1473
 8617W        W10767   1.640   3.358  25.975  0.1177  0.0528 -0.0049
 8618W        W10768  21.171   6.445  25.264 -0.0486  0.0026 -0.1005
 8619W        W10769  16.406   1.092  34.978  0.0787 -0.1633  0.0571
 8620W        W10770  10.637   2.840   9.427  0.0907  0.2849 -0.0387
 8621W        W10771   3.931   3.571  20.598  0.0351  0.1655 -0.0422
 8622W        W10772  14.660   0.644  34.028  0.0483 -0.0718  0.0686
 8623W        W10773  10.404   5.896   4.423 -0.1351  0.0935  0.1025
 8624W        W10774   2.333   0.169   7.128 -0.1489 -0.0736 -0.0420
 8625W        W10775   5.828   5.753  26.765  0.4025  0.1595 -0.1334
 8626W        W10776  19.381   0.955  10.867 -0.0215 -0.2140  0.0402
 8627W        W10777  17.438   2.478  24.794 -0.0732  0.3231 -0.1612
 8628W        W10778   5.048   5.812   6.772 -0.2872  0.1158  0.0038
 8629W        W10779   7.240   2.443   6.830  0.2551  0.2813  0.1231
 8630W        W10780  24.299   0.345   7.181  0.0407 -0.0962  0.3810
 8631W        W10781  18.102   0.949  10.655 -0.1413  0.0690 -0.0617
 8632W        W10782   6.230   0.976  33.645  0.1869  0.1324 -0.2049
 8633W        W10783   8.149   3.451  22.379  0.2483 -0.2394 -0.0058
 8634W        W10784  20.231   2.747   8.216 -0.0003  0.1069 -0.0620
 8635W        W10785  16.632   4.161   2.252 -0.2263 -0.1962 -0.0134
 8636W        W10786   9.309   1.758  28.665 -0.0447  0.2154  0.3161
 8637W        W10787   0.835   5.809   3.212  0.1592 -0.1216  0.1462
 8638W        W10788   7.389   2.406  12.653  0.1486 -0.1022 -0.0809
 8639W        W10789   2.500   3.681  31.586 -0.0466  0.0223 -0.0306
 8640W        W10790   0.071   2.367  22.815 -0.0703 -0.0132  0.3319
 8641W        W10791  17.247   2.390   5.487  0.3206  0.1300 -0.0794
 8642W        W10792  14.943   1.076  13.222  0.3067 -0.1828 -0.1144
 8643W        W10793  11.062   0.853  30.966  0.4631  0.4207 -0.2229
 8644W        W10794   5.976   2.064   3.853 -0.2821  0.0546  0.4600
 8645W        W10795   9.131   4.945  22.461 -0.1536  0.1173 -0.0938
 8646W        W10796   6.009   3.863  11.755 -0.0533 -0.2402  0.2046
 8647W        W10797  26.125   3.701  15.032 -0.1595 -0.2378 -0.0726
 8648W        W10798  22.974   6.199  33.562  0.0987 -0.0073  0.1564
 8649W        W10799   6.820   3.314  11.862 -0.3208 -0.1816 -0.0329
 8650W        W10800  22.573   3.159  10.334  0.1836 -0.2132  0.1715
 8651W        W10801   6.037   2.329  35.565 -0.2903 -0.0527  0.0451
 8652W        W10802  14.105   1.311   6.891 -0.1789 -0.0209  0.1800
 8653W        W10803   7.621   5.012  34.057  0.0434  0.0781  0.0260
 8654W        W10804  23.033   4.605   2.111  0.0196  0.0193  0.0464
 8655W        W10805  24.342   5.654   9.701 -0.0223  0.2567 -0.3355
 8656W        W10806  18.887   0.393  21.966 -0.2263 -0.1601 -0.1309
 8657W        W10807  18.424   5.752  25.374 -0.3247  0.1570  0.3462
 8658W        W10808   7.249   2.976  11.699 -0.2096  0.2719 -0.0380
 8659W        W10809  21.992   2.788  35.319 -0.2480  0.0580 -0.0187
 8660W        W10810  21.595   5.653  33.680 -0.2465 -0.0405 -0.1267
 8661W        W10811  17.673   5.623  30.111  0.2540  0.2078  0.3256
 8662W        W10812  23.780   2.056   0.921  0.2545 -0.0810  0.1332
 8663W        W10813   5.119   2.674  16.099  0.1144 -0.0588 -0.3820
 8664W        W10814   0.155   2.294   9.725 -0.0713  0.2258 -0.0590
 8665W        W10815  25.999   3.496  25.269  0.5134  0.0953 -0.1521
 8666W        W10816  13.492   5.025  10.581  0.2314  0.1036 -0.2992
 8667W        W10817  10.560   4.553  32.060  0.0661  0.0060 -0.3098
 8668W        W10818   4.459   0.481   1.546  0.0167  0.2652  0.0503
 8669W        W10819  14.655   2.951   1.564  0.1782 -0.1788  0.0705
 8670W        W10820  16.348   4.721   8.398  0.1691  0.3076  0.0105
 8671W        W10821   8.264   5.758   8.340 -0.0411 -0.3433 -0.1650
 8672W        W10822   4.123   4.850  11.515  0.0880 -0.0316 -0.0452
 8673W        W10823  13.801   4.937  30.692 -0.3088  0.0207 -0.2423
 8674W        W10824  21.672   1.747   1.378 -0.2384 -0.1193  0.1388
 8675W        W10825   8.590   0.584   6.189  0.4090 -0.0811  0.1687
 8676W        W10826   0.382   2.695   9.920  0.4647 -0.0190  0.0897
 8677W        W10827  10.067   2.499  12.483 -0.0422  0.0924  0.0101
 8678W        W10828   1.541   5.235   0.421 -0.0219  0.2106  0.2008
 8679W        W10829  15.978   4.075   5.873  0.2558 -0.1411 -0.1246
 8680W        W10830   9.547   1.711  33.916 -0.0824  0.0182  0.1917
 8681W        W10831  21.061   1.039   9.055  0.1135 -0.2428  0.1180
 8682W        W10832   0.671   4.353   1.212 -0.1140 -0.2006 -0.0025
 8683W        W10833  20.964   4.101  31.133  0.1008  0.1870 -0.2381
 8684W        W10834   1.199   0.503   9.826  0.0461 -0.0355 -0.3550
 8685W        W10835  10.024   2.747  21.999  0.2594  0.0663 -0.2504
 8686W        W10836  22.484   2.826  35.582 -0.3797  0.0490 -0.1853
 8687W        W10837  12.411   5.671  34.919 -0.1597  0.0335  0.0132
 8688W        W10838  16.761   0.238  35.234 -0.0192  0.3012  0.2832
 8689W        W10839  17.247   4.744  32.435 -0.1708 -0.0690  0.0299
 8690W        W10840  22.646   3.218  29.136  0.0380 -0.0024  0.0926
 8691W        W10841   4.921   6.078   8.071 -0.1715 -0.2904 -0.2752
 8692W        W10842  20.052   5.368   3.894 -0.3263  0.2053 -0.0403
 8693W        W10843  12.353   0.648   6.243 -0.0223 -0.2225  0.0393
 8694W        W10844  21.105   5.286   7.200 -0.0549 -0.3345 -0.0040
 8695W        W10845  12.202   6.048  23.521 -0.1610 -0.0527 -0.0777
 8696W        W10846  25.177   5.720  31.398 -0.2463  0.2130  0.1613
 8697W        W10847  15.170   1.769   0.920  0.4964  0.0938  0.1106
 8698W        W10848   4.312   4.159  32.655  0.0837 -0.2336  0.2182
 8699W        W10849  19.451   2.369  34.357 -0.1228 -0.0391 -0.1179
 8700W        W10850  10.807   1.020   4.075  0.0893 -0.0249 -0.2596
 8701W        W10851   8.406   3.939  27.584 -0.0692 -0.0535  0.3210
 8702W        W10852   6.219   6.337   1.493  0.2346 -0.0703  0.0675
 8703W        W10853  20.935   3.244   0.940 -0.0976  0.0918 -0.0206
 8704W        W10854  12.019   5.653  10.968 -0.2054 -0.1398 -0.0609
 8705W        W10855   2.870   2.348   6.457 -0.1536 -0.0549  0.4287
 8706W        W10856  22.821   5.739  29.106  0.0117  0.1221  0.0751
 8707W        W10857   2.826   1.975  13.448  0.2730  0.1474 -0.0088
 8708W        W10858  24.373   2.965   5.029 -0.1581 -0.0785 -0.4090
 8709W        W10859  18.914   2.494  31.273  0.0468  0.1558 -0.2562
 8710W        W10860   7.085   3.736   8.368  0.0826  0.3501 -0.0695
 8711W        W10861  12.155   1.821  14.088  0.1861 -0.3974  0.1390
 8712W        W10862  25.500   5.346  28.454 -0.2323 -0.0910  0.1948
 8713W        W10863  10.547   5.360  26.083 -0.1097 -0.0559  0.1146
 8714W        W10864  24.063   0.106  25.973  0.4820  0.0484 -0.0190
 8715W        W10865  23.842   0.711  25.046  0.0413  0.2231 -0.3318
 8716W        W10866  17.666   4.071  25.320 -0.0095 -0.0241 -0.0360
 8717W        W10867  18.199   0.479  23.404 -0.1925 -0.0274 -0.0233
 8718W        W10868   9.116   2.412  27.767 -0.0478 -0.2341 -0.3859
 8719W        W10869  20.086   4.867   2.957 -0.2884 -0.0437 -0.1379
 8720W        W10870  17.494   2.328  31.311  0.0150  0.0994 -0.2194
 8721W        W10871   2.822   1.341  33.825  0.1706 -0.0712 -0.1350
 8722W        W10872  18.185   4.168   7.356 -0.0007 -0.2028  0.0627
 8723W        W10873   9.921   6.384  11.838 -0.0727  0.0487 -0.3616
 8724W        W10874   2.569   6.055  35.278  0.0225 -0.1204 -0.1119
 8725W        W10875  12.771   3.555  21.272  0.0769 -0.1737  0.1743
 8726W        W10876  14.828   5.928  27.514 -0.2746  0.0243  0.1818
 8727W        W10877  26.146   2.750   2.253  0.1042 -0.0434  0.1282
 8728W        W10878   2.837   1.152   4.170  0.1089  0.2065 -0.2796
 8729W        W10879  10.691   6.391  10.642  0.0091 -0.0222  0.2866
 8730W        W10880  18.185   0.845   9.327  0.0526 -0.0022  0.0361
 8731W        W10881  13.493   0.599  15.132  0.4986  0.0421 -0.0538
 8732W        W10882   2.815   5.604  15.967 -0.0884 -0.0264  0.2493
 8733W        W10883   4.390   2.273  12.466 -0.0368 -0.5493 -0.1287
 8734W        W10884  17.695   3.721  35.611  0.1126  0.1496  0.1024
 8735W        W10885   5.190   0.445  27.504  0.2991 -0.2598 -0.2844
 8736W        W10886  18.118   1.324   8.428  0.0545 -0.2201  0.2114
 8737W        W10887   3.592   3.595  24.281 -0.0769  0.1267 -0.1959
 8738W        W10888   2.667   1.725  20.373  0.0577 -0.3278  0.1292
 8739W        W10889   8.365   1.891   6.195  0.2680  0.0192  0.0246
 8740W        W10890   9.915   1.752   7.658  0.0248  0.2559 -0.0561
 8741W        W10891   7.398   0.657  34.589 -0.0900 -0.2550 -0.1156
 8742W        W10892   6.218   2.397  22.688 -0.1322  0.0353 -0.2244
 8743W        W10893  16.233   5.642  32.623 -0.0666 -0.3094  0.3136
 8744W        W10894  20.913   3.800   2.530 -0.3566  0.0119  0.3224
 8745W        W10895   8.941   5.670   9.869  0.0536 -0.0981  0.1324
 8746W        W10896  23.625   4.352  26.747 -0.0890 -0.5134 -0.3287
 8747W        W10897  12.683   0.703  24.853 -0.1193  0.1556  0.2743
 8748W        W10898  16.760   1.178   2.853  0.0546 -0.2096  0.0674
 8749W        W10899  11.299   6.339  31.738  0.0093  0.0535  0.0218
 8750W        W10900   9.479   3.285  13.969 -0.0878  0.2322  0.0993
 8751W        W10901   7.992   3.755   1.657  0.1484  0.0187 -0.2993
 8752W        W10902  17.968   5.613   3.907 -0.3706 -0.0489 -0.1857
 8753W        W10903   7.505   2.196  28.318  0.1396 -0.1941 -0.0987
 8754W        W10904  21.433   5.377  22.497 -0.2422  0.0825 -0.1092
 8755W        W10905  15.599   3.219  33.112  0.1433 -0.2858 -0.1207
 8756W        W10906  22.241   0.837  14.520  0.0174 -0.0890  0.0011
 8757W        W10907  21.754   5.866  21.866 -0.0016  0.0868  0.1039
 8758W        W10908   4.136   3.310  26.455 -0.0821  0.1277 -0.1395
 8759W        W10909  24.125   5.941  22.613 -0.0366  0.0317 -0.0715
 8760W        W10910   0.590   1.948  26.170 -0.1246 -0.1407  0.1211
 8761W        W10911  19.158   5.021  32.714  0.1903  0.1526 -0.1713
 8762W        W10912   7.571   2.367   9.733  0.0697  0.0715  0.0898
 8763W        W10913  21.191   5.801  15.393 -0.0910 -0.1315 -0.1628
 8764W        W10914  14.218   2.405  25.565 -0.0276  0.1674 -0.3653
 8765W        W10915   7.461   3.563  23.894  0.4509 -0.1349  0.1409
 8766W        W10916   6.775   4.646  23.037 -0.0411 -0.4117  0.1777
 8767W        W10917  21.645   0.757   2.361 -0.1286  0.0747  0.1450
 8768W        W10918  19.518   0.448   5.021 -0.1497  0.1796  0.0592
 8769W        W10919   5.147   3.826  28.838 -0.2456  0.1815 -0.0855
 8770W        W10920   1.904   2.305   1.989 -0.1035  0.0610 -0.2069
 8771W        W10921  23.634   0.183  27.206  0.1695  0.1118  0.0906
 8772W        W10922  21.581   2.464  24.128 -0.2452 -0.0275 -0.2258
 8773W        W10923  13.772   1.704  11.939 -0.1085  0.2210  0.0724
 8774W        W10924   2.337   4.961  23.379 -0.0391 -0.2103  0.0000
 8775W        W10925  11.148   1.917  34.266 -0.2712 -0.0506  0.2687
 8776W        W10926  19.513   2.231  34.892  0.2246  0.0496 -0.0922
 8777W        W10927  21.071   1.205   2.435  0.2563 -0.1567  0.0370
 8778W        W10928  14.988   3.861  32.196  0.2322 -0.2091  0.1210
 8779W        W10929   9.687   2.964  12.362  0.7093 -0.1271  0.0692
 8780W        W10930   5.038   5.945  29.297  0.4242  0.2056  0.1578
 8781W        W10931  17.114   2.091  30.679  0.0551  0.1939  0.2194
 8782W        W10932  25.690   5.718  21.993  0.0957 -0.2118  0.2455
 8783W        W10933   9.436   5.028   0.735 -0.0209 -0.0360 -0.0397
 8784W        W10934  15.870   2.135  27.798  0.1897 -0.2639 -0.0352
 8785W        W10935   2.134   1.803   8.560 -0.0709  0.2461 -0.1887
 8786W        W10936  11.069   2.934  33.983 -0.0349 -0.0359 -0.1798
 8787W        W10937  18.216   1.559   7.093 -0.1038  0.2880  0.0224
 8788W        W10938  23.047   6.240   0.753 -0.0327 -0.1878 -0.1441
 8789W        W10939  22.053   2.288   1.461  0.0814 -0.4278 -0.2236
 8790W        W10940  19.049   3.759   0.058  0.0061 -0.0213  0.2531
 8791W        W10941  10.217   0.471   3.005 -0.2638 -0.0690  0.2554
 8792W        W10942  18.408   1.066  22.719 -0.1213  0.0596  0.0276
 8793W        W10943   6.638   1.168   7.456 -0.0722  0.1359 -0.1914
 8794W        W10944   5.109   4.679  33.503  0.2053  0.1191  0.2316
 8795W        W10945   1.459   3.379   4.264  0.2780  0.0087 -0.1790
 8796W        W10946  16.810   6.054  33.267 -0.1278 -0.0774 -0.3510
 8797W        W10947   2.537   0.273  23.286  0.1375 -0.0975 -0.0509
 8798W        W10948  23.714   3.362  26.584  0.1698 -0.0809  0.0668
 8799W        W10949  17.981   5.257  28.860  0.0520  0.0955  0.0276
 8800W        W10950   1.352   1.671  21.901  0.2301 -0.0603 -0.2142
 8801W        W10951  14.085   1.293  12.057  0.0745  0.0907  0.3916
 8802W        W10952  21.474   4.736  13.591  0.0928  0.0210  0.2757
 8803W        W10953   9.573   6.202  35.540 -0.0917  0.1275  0.1269
 8804W        W10954   0.194   0.227  24.831  0.3136  0.0586 -0.1223
 8805W        W10955   7.829   1.344  20.408  0.1168  0.1863  0.0180
 8806W        W10956  18.168   1.773  11.944 -0.0684 -0.1613  0.0348
 8807W        W10957   7.341   4.009  11.358  0.1236 -0.1569  0.2487
 8808W        W10958   1.852   3.725  29.528 -0.1414  0.3720 -0.0178
 8809W        W10959   1.892   4.926  32.567  0.1507  0.1169 -0.1714
 8810W        W10960  15.329   1.949  14.181 -0.0652 -0.0371  0.3337
 8811W        W10961  11.950   3.298  26.673  0.2031 -0.1741 -0.0246
 8812W        W10962  25.218   6.005   3.894 -0.1363 -0.0363  0.0711
 8813W        W10963   3.810   5.016  10.159  0.3679 -0.2224 -0.0941
 8814W        W10964  24.079   6.267  25.645 -0.1495  0.1643 -0.2765
 8815W        W10965  23.247   5.796  15.647  0.1379  0.0524  0.1191
 8816W        W10966   5.825   0.893  21.331 -0.2692 -0.0367 -0.1217
 8817W        W10967  14.708   5.229  21.811 -0.0123 -0.2607 -0.0984
 8818W        W10968  12.651   5.558  32.172  0.3257 -0.0726  0.1090
 8819W        W10969  25.496   6.576   5.871 -0.3573 -0.1733  0.1796
 8820W        W10970   2.331   0.916  33.202 -0.2591 -0.0069 -0.1241
 8821W        W10971  16.381   2.979   8.750 -0.2825  0.1422  0.3170
 8822W        W10972   8.889   2.156   1.928  0.2751  0.2499  0.1550
 8823W        W10973  16.002   2.443   9.964  0.3340  0.0716 -0.0713
 8824W        W10974  14.257   2.787  13.733  0.0333  0.0036 -0.1401
 8825W        W10975   1.773   2.705  22.434  0.3502 -0.2476 -0.0885
 8826W        W10976  26.252   6.481  25.938 -0.0420 -0.2304  0.2789
 8827W        W10977  12.268   6.001  31.029  0.0919 -0.1987  0.3200
 8828W        W10978  19.540   4.070  21.622 -0.1943  0.0589 -0.2162
 8829W        W10979  21.430   0.670  30.104  0.2476 -0.0264  0.1403
 8830W        W10980   7.470   2.791  25.069 -0.2685 -0.1621  0.1440
 8831W        W10981  24.369   0.691  12.150  0.1347 -0.2102 -0.0065
 8832W        W10982  13.237   1.578  13.555 -0.0317  0.2717  0.0385
 8833W        W10983  22.668   2.628  34.828  0.0207 -0.0667  0.0218
 8834W        W10984   8.220   3.605  35.347 -0.4772 -0.2561 -0.0938
 8835W        W10985   6.893   3.279  32.160 -0.1214 -0.0470 -0.1253
 8836W        W10986  19.243   5.499  25.199 -0.0259 -0.0300  0.0406
 8837W        W10987   4.240   5.291  28.192  0.1074  0.0961  0.0594
 8838W        W10988  18.859   3.927  29.657 -0.0684  0.1032  0.3790
 8839W        W10989   1.775   4.849   3.664 -0.3410 -0.0696 -0.0166
 8840W        W10990   5.467   5.282  29.076  0.0769 -0.0027  0.0326
 8841W        W10991  25.990   5.515   4.185 -0.1148 -0.3326  0.3126
 8842W        W10992  18.206   0.071   7.070  0.1070  0.1225 -0.1878
 8843W        W10993   1.871   3.609   9.421 -0.2684  0.0351  0.0902
 8844W        W10994   8.135   3.746  26.278  0.1577 -0.1926  0.2872
 8845W        W10995  21.931   6.159  15.064 -0.3020  0.0626 -0.0623
 8846W        W10996   5.251   4.428  30.569 -0.0030 -0.0429 -0.0385
 8847W        W10997  11.954   5.079  15.241  0.1763  0.2421  0.0505
 8848W        W10998   9.982   1.689   4.955 -0.0317 -0.0517  0.0616
 8849W        W10999  18.964   0.311  11.723  0.2300  0.0861  0.0492
 8850W        W11000   0.339   5.913  30.588 -0.0652 -0.0024  0.1345
 8851W        W11001  17.514   5.198   4.711 -0.1140  0.0921 -0.1046
 8852W        W11002  14.369   4.279   3.095 -0.0208  0.3889 -0.1685
 8853W        W11003   7.214   6.596  35.145  0.1006 -0.1446  0.0845
 8854W        W11004   9.262   1.403  29.671 -0.0177 -0.1713  0.1158
 8855W        W11005   7.985   5.177  35.866  0.2454  0.0443  0.1437
 8856W        W11006   8.308   0.916  14.952 -0.1647 -0.1179 -0.2465
 8857W        W11007  10.045   0.026  11.074 -0.2298  0.1898  0.1417
 8858W        W11008  11.870   2.768   7.838 -0.0558  0.1477  0.2034
 8859W        W11009   2.487   2.817   7.247  0.4335 -0.1180  0.1470
 8860W        W11010  13.301   2.246   3.673  0.0382  0.2290  0.2111
 8861W        W11011   6.153   3.255  24.417  0.0195 -0.1516 -0.0619
 8862W        W11012   2.570   6.156  13.097 -0.2455  0.1742  0.0388
 8863W        W11013  13.030   1.460  27.177  0.0140  0.3357  0.1685
 8864W        W11014  19.805   6.407  21.510 -0.1024 -0.1408  0.1090
 8865W        W11015   0.794   4.929  35.302 -0.3187  0.2229 -0.0132
 8866W        W11016   1.251   2.188  27.070  0.1299 -0.0859  0.1004
 8867W        W11017  17.044   6.071  24.400  0.1331  0.1241 -0.3491
 8868W        W11018   7.357   5.090  25.187 -0.1000  0.0306  0.0199
 8869W        W11019  22.950   4.698  33.400  0.1297  0.1406 -0.1918
 8870W        W11020   0.737   1.478  27.743 -0.2926  0.0463 -0.0572
 8871W        W11021   4.683   2.884   9.317 -0.0584 -0.0135  0.6035
 8872W        W11022  26.223   6.212  28.919  0.3052  0.0709  0.0714
 8873W        W11023   9.743   2.683  30.098 -0.1181 -0.1537 -0.0622
 8874W        W11024  23.811   0.312  14.914  0.1113  0.0717  0.0913
 8875W        W11025   9.238   6.450  13.258  0.0973 -0.0156  0.3705
 8876W        W11026  22.024   4.339  10.136  0.2389 -0.0024 -0.2799
 8877W        W11027   3.738   3.961  15.344 -0.0655  0.1459  0.0391
 8878W        W11028   4.536   0.984  13.609  0.1394  0.1377 -0.1063
 8879W        W11029  17.286   2.954  15.030 -0.1958 -0.0731  0.0118
 8880W        W11030  24.434   5.604  12.957 -0.0587 -0.1956 -0.1311
 8881W        W11031  10.300   3.984   5.884 -0.2272  0.2844 -0.0037
 8882W        W11032  20.676   2.817   9.251 -0.1125 -0.0128 -0.0286
 8883W        W11033   8.923   5.521  14.121 -0.4807  0.3670  0.0836
 8884W        W11034  23.950   1.187  11.441  0.0170 -0.0485 -0.0432
 8885W        W11035  23.351   2.147  26.004 -0.0586  0.0171  0.0537
 8886W        W11036   7.788   1.468   0.646  0.2006 -0.1404  0.1231
 8887W        W11037   7.454   1.950   3.420  0.0240  0.1496 -0.3103
 8888W        W11038  22.096   4.648  30.214  0.1273 -0.1739  0.0823
 8889W        W11039  18.795   2.065  13.187 -0.3428 -0.0216 -0.1434
 8890W        W11040  14.693   1.502  23.717 -0.1535  0.0018  0.3468
 8891W        W11041  13.785   1.421   2.283 -0.0816  0.1572 -0.0791
 8892W        W11042  18.497   0.884   5.360 -0.1640  0.3010 -0.0482
 8893W        W11043   0.725   0.540  36.102 -0.1653  0.1226  0.1233
 8894W        W11044  24.687   0.846  29.294  0.4094  0.2811 -0.2277
 8895W        W11045   6.479   0.133  24.218 -0.1080 -0.1323 -0.1801
 8896W        W11046  26.136   5.133  32.059  0.1817  0.1048 -0.0570
 8897W        W11047  23.763   0.695  10.132 -0.0510 -0.5302 -0.0932
 8898W        W11048   3.928   4.593   2.127 -0.4654  0.0222  0.1570
 8899W        W11049   8.536   5.733  29.736 -0.1275 -0.0047 -0.0667
 8900W        W11050  17.776   0.273  35.173 -0.1879 -0.1422 -0.1080
 8901W        W11051  10.850   5.440   3.486 -0.4304 -0.1805  0.0164
 8902W        W11052  11.844   3.631  27.486  0.0685 -0.1399  0.2448
 8903W        W11053   8.244   4.893  32.858  0.0683  0.2855  0.0381
 8904W        W11054  19.852   6.429  20.895  0.3099 -0.2340  0.0259
 8905W        W11055   5.337   5.841   5.407 -0.1460 -0.1957  0.0222
 8906W        W11056  13.312   0.997  12.901 -0.0004 -0.0027  0.0861
 8907W        W11057  20.962   1.281  30.649  0.1359 -0.1496  0.1322
 8908W        W11058  11.314   4.317   2.949  0.1978 -0.2904 -0.0483
 8909W        W11059   5.582   4.156   3.603  0.1247  0.0122 -0.2573
 8910W        W11060   6.868   1.697  30.724  0.0130 -0.0896  0.1546
 8911W        W11061  15.595   6.214   8.721  0.0289 -0.0112  0.1942
 8912W        W11062  25.587   1.825  31.926  0.1345 -0.0159  0.2296
 8913W        W11063   1.707   6.009  35.784 -0.0139 -0.2423  0.1320
 8914W        W11064  16.107   0.042  34.939  0.1688 -0.1291 -0.1906
 8915W        W11065  13.706   4.733   3.276  0.1144  0.0804  0.0227
 8916W        W11066  15.685   0.942   0.629 -0.0864  0.0688  0.1156
 8917W        W11067  13.988   5.942  22.000  0.0954 -0.1750 -0.0672
 8918W        W11068  25.606   0.131   1.519 -0.0208 -0.2036 -0.1369
 8919W        W11069  17.701   5.064   9.993  0.0700 -0.0167 -0.0387
 8920W        W11070  15.788   0.689  32.562 -0.3457 -0.0679  0.0535
 8921W        W11071   5.985   3.356   9.335  0.2370  0.0706 -0.2512
 8922W        W11072   2.354   5.035  12.091  0.0347 -0.3376  0.1331
 8923W        W11073   6.953   3.183  33.992 -0.3026  0.1548  0.0296
 8924W        W11074  20.805   0.320  14.797 -0.0495 -0.3278 -0.1749
 8925W        W11075  13.095   1.063   8.340 -0.4357 -0.2401  0.0617
 8926W        W11076  17.212   1.775  15.735  0.0577 -0.2145  0.0178
 8927W        W11077  23.723   2.548  22.307  0.0411 -0.0147 -0.2304
 8928W        W11078  18.613   3.515  31.307  0.0959  0.0044  0.2127
 8929W        W11079  25.058   2.809  33.687  0.3854 -0.1519 -0.0076
 8930W        W11080  20.362   0.674  29.336  0.1542 -0.0100  0.2020
 8931W        W11081   4.182   3.042  30.176  0.0075 -0.3188  0.1119
 8932W        W11082  21.148   3.807  13.997  0.2012  0.0100  0.2769
 8933W        W11083  13.237   1.508  25.388  0.0357  0.1944  0.1958
 8934W        W11084   3.512   2.792   3.119 -0.3510 -0.2843 -0.0734
 8935W        W11085   8.350   0.018   5.521  0.1922 -0.3115 -0.0524
 8936W        W11086   1.577   2.024  23.556 -0.1538  0.0245  0.1779
 8937W        W11087  25.148   1.148  29.101  0.2241  0.1417  0.0700
 8938W        W11088   2.309   2.560  21.880 -0.0312  0.0284 -0.0049
 8939W        W11089   2.241   4.452  22.107 -0.4055 -0.1010 -0.2479
 8940W        W11090  15.384   1.676  12.929  0.1271 -0.1527 -0.2237
 8941W        W11091  19.718   2.709  11.397  0.0823 -0.0978 -0.1058
 8942W        W11092   5.194   5.058   0.314 -0.0212 -0.3223  0.0387
 8943W        W11093  20.894   3.935   9.522 -0.0378  0.1886 -0.1422
 8944W        W11094  12.009   0.961   8.503  0.0126 -0.1962 -0.2119
 8945W        W11095   9.067   1.202  25.798  0.0322  0.5488 -0.0083
 8946W        W11096  11.062   2.486   5.415 -0.0057  0.0437 -0.2842
 8947W        W11097  26.246   3.599  35.140 -0.1813  0.1153 -0.2142
 8948W        W11098  24.590   5.337  11.335 -0.0389 -0.0754 -0.0912
 8949W        W11099   3.796   4.195  14.407  0.0164  0.1982 -0.1786
 8950W        W11100   6.610   6.083  34.422  0.2168  0.1085 -0.1804
 8951W        W11101   3.794   4.745  22.523 -0.1526 -0.0970 -0.3939
 8952W        W11102  21.308   5.629  34.865  0.2758  0.1574  0.2022
 8953W        W11103   0.948   0.457  26.898 -0.1199 -0.2415 -0.0544
 8954W        W11104  26.195   3.013  25.371  0.0750 -0.1199  0.0456
 8955W        W11105  19.070   5.566  14.437  0.3215  0.0051 -0.1906
 8956W        W11106   2.009   6.415  10.130  0.2549 -0.0548 -0.1130
 8957W        W11107   2.546   0.918  26.566  0.1397  0.0575  0.1047
 8958W        W11108  22.984   3.604  29.114 -0.1304  0.1750  0.1804
 8959W        W11109  22.534   2.662   9.038  0.0017 -0.1598  0.0261
 8960W        W11110   4.274   6.325   7.522 -0.0656  0.0064  0.1308
 8961W        W11111  19.703   5.831   7.836 -0.0299 -0.0837  0.4138
 8962W        W11112   6.255   3.826  22.260  0.1013 -0.1125 -0.1260
 8963W        W11113  20.216   1.704  23.574  0.1699  0.0716  0.0889
 8964W        W11114  18.306   5.956  35.791 -0.0025  0.1463 -0.2698
 8965W        W11115  14.694   0.776  30.991 -0.0602  0.1560 -0.1242
 8966W        W11116  16.065   1.671  24.636 -0.1696  0.3220  0.0650
 8967W        W11117   7.149   4.227  26.994 -0.4193  0.2551 -0.0832
 8968W        W11118   6.493   2.860  24.348 -0.3893  0.1436 -0.0047
 8969W        W11119   1.969   1.405  33.924  0.4306 -0.0764 -0.1392
 8970W        W11120  16.617   5.128  31.438 -0.1228  0.0056 -0.0818
 8971W        W11121   2.906   1.719  32.556 -0.0119 -0.1799  0.0470
 8972W        W11122  10.245   5.117  32.851 -0.2119 -0.3470  0.0118
 8973W        W11123  25.968   2.589   1.788 -0.0434  0.2745 -0.1417
 8974W        W11124  19.253   6.607   1.626 -0.0230  0.2885  0.0435
 8975W        W11125  10.940   5.007  33.559  0.0446 -0.0081  0.0433
 8976W        W11126   4.324   5.876  13.065 -0.0105 -0.0558 -0.0578
 8977W        W11127   0.384   3.658   1.885  0.2193  0.3258 -0.0323
 8978W        W11128   3.284   4.742  21.276  0.1820 -0.0873 -0.0772
 8979W        W11129  14.256   5.800  32.977 -0.3164  0.0775  0.1013
 8980W        W11130   2.422   2.417  31.235  0.0466  0.2556  0.1758
 8981W        W11131   8.718   3.704  14.976 -0.1150 -0.4948  0.1134
 8982W        W11132   4.920   0.558  24.032  0.2966  0.0411 -0.2514
 8983W        W11133   9.148   3.459  33.779 -0.1732  0.0872  0.4405
 8984W        W11134   5.302   3.950  26.644 -0.0760  0.1097  0.1771
 8985W        W11135   7.754   0.878  31.993 -0.1891 -0.0980  0.0274
 8986W        W11136   8.794   4.171  31.857 -0.0325 -0.0428  0.2423
 8987W        W11137  14.568   0.760   4.326  0.0407  0.0891 -0.1040
 8988W        W11138   2.906   0.398  21.294 -0.0816  0.0623 -0.0122
 8989W        W11139   8.054   0.494   2.456  0.1381  0.1282 -0.1586
 8990W        W11140   3.656   1.975  14.226 -0.1641 -0.0412 -0.0241
 8991W        W11141  13.407   5.822  11.921 -0.1643 -0.0309  0.1097
 8992W        W11142   2.817   4.590  12.609  0.2069 -0.0835  0.1403
 8993W        W11143  11.039   6.453  24.731  0.0628 -0.0270  0.1768
 8994W        W11144  12.141   0.410  27.705 -0.2268  0.0629 -0.2245
 8995W        W11145   1.925   5.953  33.325 -0.1929 -0.0924 -0.0789
 8996W        W11146   0.432   1.139   2.626 -0.2186 -0.0756  0.0680
 8997W        W11147   4.353   6.124  27.098  0.0289 -0.0938 -0.2378
 8998W        W11148   5.875   3.408  27.148  0.0245  0.0330  0.0031
 8999W        W11149   2.801   3.368  35.735 -0.1552 -0.1469 -0.0473
 9000W        W11150   2.246   6.396   4.657  0.1623 -0.2143 -0.2545
 9001W        W11151  17.111   1.813  34.408 -0.1065 -0.3434 -0.0738
 9002W        W11152   5.012   1.514   6.210  0.2289 -0.0677 -0.0317
 9003W        W11153  17.781   6.515  13.760 -0.2871  0.0405  0.4908
 9004W        W11154   0.707   4.675  34.338 -0.2515 -0.0725  0.3184
 9005W        W11155  17.087   4.181  21.462 -0.0082  0.0223  0.2040
 9006W        W11156  23.164   4.929  12.570 -0.1105 -0.2327 -0.0059
 9007W        W11157  25.656   3.071   5.086  0.1603  0.0043  0.0842
 9008W        W11158  22.868   0.870  32.513  0.2315 -0.0515 -0.1344
 9009W        W11159  15.864   5.398  21.764 -0.1867 -0.1280 -0.1910
 9010W        W11160  23.522   2.268  16.035  0.2013  0.3100  0.2262
 9011W        W11161  21.125   3.566   5.499 -0.0705  0.0603 -0.0430
 9012W        W11162  10.186   3.518   4.316 -0.0057 -0.1646  0.0816
 9013W        W11163  17.116   5.159  24.312  0.0113 -0.2448 -0.1524
 9014W        W11164  21.392   6.531  24.811  0.2088  0.1343 -0.1591
 9015W        W11165  13.302   4.237  29.931 -0.0124 -0.0159  0.0367
 9016W        W11166  11.817   4.236  34.871  0.2098 -0.1007 -0.2242
 9017W        W11167  24.574   3.806  12.797 -0.0123 -0.1029 -0.0752
 9018W        W11168   6.311   5.506   7.157  0.1184 -0.0800  0.2108
 9019W        W11169  24.229   3.189  32.437 -0.0889 -0.1222 -0.1702
 9020W        W11170   7.988   1.806   8.799 -0.1178 -0.0072  0.0006
 9021W        W11171  22.878   2.983  25.501  0.0466  0.0236 -0.1010
 9022W        W11172  12.015   4.766  12.139  0.6133 -0.1159 -0.0854
 9023W        W11173   9.701   3.329  32.536  0.0795  0.0501 -0.2575
 9024W        W11174  21.846   5.144  12.215  0.0598  0.2855  0.0614
 9025W        W11175  13.235   3.893  31.206  0.0102 -0.0977 -0.0578
 9026W        W11176  20.720   4.408   0.537 -0.0447 -0.3261  0.1765
 9027W        W11177  22.404   3.191  26.937  0.2740 -0.0271 -0.1718
 9028W        W11178   1.707   5.683   4.468 -0.1871  0.1376 -0.0108
 9029W        W11179   4.337   4.347   1.120  0.0067  0.2182 -0.1962
 9030W        W11180   9.112   6.487   7.704 -0.0170 -0.1075 -0.0601
 9031W        W11181  21.836   0.104   6.833 -0.0867 -0.3350 -0.2186
 9032W        W11182   4.503   5.076  26.232 -0.4534  0.1008 -0.0034
 9033W        W11183   3.159   5.707  25.625 -0.0933 -0.1716 -0.0690
 9034W        W11184   3.658   3.417  32.724  0.0788 -0.0263  0.0840
 9035W        W11185   1.653   0.862   3.891 -0.1515  0.1526  0.2830
 9036W        W11186   0.273   3.106  28.870 -0.0140 -0.1058  0.0550
 9037W        W11187  25.158   2.001   1.661 -0.0962  0.0393 -0.0809
 9038W        W11188  20.410   3.872  34.164 -0.0050  0.1187 -0.0025
 9039W        W11189   8.458   3.373  15.808  0.0694 -0.0875 -0.1674
 9040W        W11190   5.148   6.309  22.235 -0.0045 -0.0335 -0.1873
 9041W        W11191   8.764   6.021  28.464 -0.0849  0.1751 -0.2120
 9042W        W11192   6.035   3.723  15.683  0.0660 -0.0626 -0.4129
 9043W        W11193  25.312   1.085  27.673 -0.0303  0.0295 -0.2018
 9044W        W11194  17.319   6.097   2.050  0.0129 -0.0447 -0.1936
 9045W        W11195  23.801   2.082   6.653 -0.1954 -0.0421  0.1636
 9046W        W11196  24.716   0.700   1.936 -0.0532  0.0859 -0.2646
 9047W        W11197  18.470   5.268   3.309 -0.0090  0.0796 -0.0868
 9048W        W11198  19.483   2.260  27.494 -0.1746  0.0241  0.2969
 9049W        W11199  14.632   5.322   1.306  0.0961  0.1810  0.0320
 9050W        W11200  16.699   6.467  30.204  0.3282 -0.1292 -0.0801
 9051W        W11201   7.156   6.317  28.607  0.0180 -0.2219  0.1008
 9052W        W11202  24.778   0.431   8.381 -0.0141 -0.0297  0.1842
 9053W        W11203   8.281   2.149   9.767 -0.2102 -0.0037  0.0089
 9054W        W11204   7.207   4.897  23.870  0.1387  0.4196  0.2517
 9055W        W11205  24.162   2.213  13.433  0.3680 -0.0436 -0.0660
 9056W        W11206   7.466   1.651  30.205 -0.0211 -0.3196  0.1232
 9057W        W11207  25.289   3.527  23.008 -0.0443  0.0124  0.0744
 9058W        W11208  11.601   3.213   4.989 -0.1937 -0.1560  0.1383
 9059W        W11209   2.708   6.013  30.057 -0.2809  0.1668  0.0538
 9060W        W11210   4.954   0.714   6.655 -0.2893  0.2063 -0.1755
 9061W        W11211  11.555   1.287  11.930 -0.1890 -0.1050  0.1026
 9062W        W11212  13.099   6.118  12.240  0.5394  0.1403  0.0762
 9063W        W11213  11.515   4.488  36.045  0.2570  0.1039 -0.0826
 9064W        W11214  10.577   3.442   4.771 -0.2354 -0.1549 -0.1597
 9065W        W11215  17.043   5.984   0.866  0.2725 -0.2181  0.0261
 9066W        W11216  20.705   1.939   5.377  0.0915  0.2538  0.0655
 9067W        W11217   5.986   4.024   8.505  0.1593  0.0097 -0.1793
 9068W        W11218  22.495   2.034  30.141 -0.2319 -0.1996  0.0409
 9069W        W11219   8.860   1.634  11.381 -0.0050  0.2177  0.2162
 9070W        W11220   4.712   0.152   0.238 -0.0688 -0.0607  0.1668
 9071W        W11221  19.626   2.922  10.934 -0.2986  0.2912 -0.0716
 9072W        W11222  21.799   4.777  13.004  0.1137  0.1701 -0.0792
 9073W        W11223   9.616   0.243  30.447 -0.0230 -0.1646 -0.0943
 9074W        W11224  25.358   1.957  33.100 -0.1030 -0.0594  0.0569
 9075W        W11225  21.825   6.099   2.264 -0.2027 -0.1671  0.1177
 9076W        W11226  22.656   1.094  14.214  0.5415 -0.0080  0.0412
 9077W        W11227  13.379   2.596  21.879 -0.0414 -0.1286 -0.0592
 9078W        W11228   6.328   0.318  21.881  0.0092  0.1154  0.1464
 9079W        W11229  13.401   0.365  35.829  0.0871  0.1882 -0.1669
 9080W        W11230  17.662   1.690  11.701  0.1991  0.2565  0.3525
 9081W        W11231  15.382   4.297  29.334 -0.2391 -0.1510  0.1086
 9082W        W11232  22.520   5.499   9.267 -0.0028  0.0493  0.0056
 9083W        W11233   4.267   1.813  27.684  0.0511  0.0407  0.0899
 9084W        W11234   1.530   2.481  29.504 -0.0739  0.0716  0.3839
 9085W        W11235  15.095   4.643   5.987  0.0303 -0.0538  0.0178
 9086W        W11236   5.638   5.371  25.314 -0.0433  0.1989  0.0241
 9087W        W11237   7.440   5.719  35.156  0.3567 -0.4749 -0.2247
 9088W        W11238  21.402   5.943  30.689 -0.0268  0.0963 -0.3518
 9089W        W11239   3.348   3.500  12.501 -0.3417  0.0323  0.1436
 9090W        W11240   1.970   1.585  29.174 -0.0611 -0.1989 -0.3054
 9091W        W11241  12.112   1.336  34.109  0.1008 -0.0169 -0.3420
 9092W        W11242   9.795   6.271  23.164  0.0153  0.1771  0.2066
 9093W        W11243   2.859   6.074  14.054 -0.1651  0.2498  0.2341
 9094W        W11244  17.489   2.091   5.793 -0.1567 -0.3627 -0.0226
 9095W        W11245  17.031   0.712   8.695 -0.0510 -0.0938  0.1229
 9096W        W11246  12.306   4.460  35.408 -0.1604  0.1644  0.0948
 9097W        W11247  14.293   0.197  32.788  0.0568  0.0910 -0.0133
 9098W        W11248   8.265   6.542  15.201  0.1230 -0.1392 -0.1252
 9099W        W11249   6.258   3.965   2.947  0.1166  0.2427 -0.0348
 9100W        W11250  16.696   6.475   3.804 -0.0229 -0.0778 -0.0669
 9101W        W11251   7.941   2.634  34.028 -0.2502  0.0877 -0.0214
 9102W        W11252  18.400   1.955   3.025  0.0548 -0.0407  0.0780
 9103W        W11253  16.896   0.405  34.290  0.0697  0.1340 -0.1709
 9104W        W11254  13.910   1.119  30.960  0.0809  0.1384  0.3511
 9105W        W11255  13.339   3.212  34.831  0.1325  0.3957  0.1006
 9106W        W11256  18.176   0.268  30.620 -0.1130 -0.1244 -0.0269
 9107W        W11257  25.313   5.347  35.343 -0.2278 -0.0745  0.0583
 9108W        W11258  14.213   4.836  30.906 -0.0467 -0.1688 -0.1981
 9109W        W11259   8.737   3.035  11.599  0.3068 -0.0298  0.0387
 9110W        W11260  20.212   3.635  24.680 -0.2706  0.2098  0.0084
 9111W        W11261  22.972   3.523  28.158 -0.1027  0.1684  0.2877
 9112W        W11262  14.233   1.291  20.434  0.2515  0.3312 -0.1568
 9113W        W11263   2.586   1.595  24.864 -0.0577 -0.0259 -0.0567
 9114W        W11264   5.116   6.408  12.908  0.2771  0.0612  0.0809
 9115W        W11265   3.550   2.176  29.030 -0.0291 -0.0220 -0.2733
 9116W        W11266  26.410   4.669   5.901  0.1736  0.1602  0.1157
 9117W        W11267  11.541   3.365   0.813 -0.0228 -0.0848  0.0088
 9118W        W11268  12.213   1.266   3.809 -0.2020  0.1946  0.0179
 9119W        W11269   9.520   2.968   1.868  0.1359  0.1123  0.1456
 9120W        W11270   4.994   0.712  12.766 -0.0023 -0.1284 -0.1628
 9121W        W11271   9.657   0.657  10.627 -0.1696 -0.1730  0.2504
 9122W        W11272   3.664   6.296   6.311  0.0343 -0.0443  0.1430
 9123W        W11273  24.390   4.616  29.250 -0.2714 -0.0671  0.0444
 9124W        W11274  23.703   2.240  10.811 -0.1401 -0.2715 -0.3342
 9125W        W11275   7.324   5.370  23.110 -0.1166  0.0288  0.0570
 9126W        W11276  16.666   2.531  15.408 -0.0964  0.1473  0.0953
 9127W        W11277  25.580   5.125   5.695  0.1140  0.0976  0.1168
 9128W        W11278  13.673   6.293   9.856 -0.1610  0.1424 -0.0282
 9129W        W11279  14.509   3.656  21.366  0.0934 -0.3968  0.0457
 9130W        W11280  13.156   2.418  10.235  0.3456 -0.1810  0.0400
 9131W        W11281  14.163   3.970  31.714 -0.1130 -0.1774  0.0249
 9132W        W11282  16.799   4.399  33.587  0.1856 -0.0294 -0.1450
 9133W        W11283   6.528   5.588  34.323 -0.1938  0.0093  0.0209
 9134W        W11284  17.635   6.125   7.700  0.0056 -0.2839 -0.0359
 9135W        W11285  13.669   1.889  13.191 -0.0000 -0.2512  0.2166
 9136W        W11286   6.587   0.239  30.015  0.2312  0.1162 -0.2713
 9137W        W11287  19.216   0.852   2.357 -0.1937  0.2322  0.0483
 9138W        W11288  20.535   4.950  24.850  0.1924  0.0829  0.0816
 9139W        W11289   2.013   5.815  34.366 -0.0426 -0.2371  0.1032
 9140W        W11290  23.594   1.601  33.833 -0.1456  0.1115 -0.2280
 9141W        W11291  21.263   6.015  10.207 -0.0146 -0.0695 -0.2333
 9142W        W11292   3.752   4.176   6.267 -0.4054 -0.1630  0.0179
 9143W        W11293   7.635   5.269   2.116  0.1623  0.0431 -0.1892
 9144W        W11294  26.293   2.705  12.401 -0.1310  0.0945 -0.2451
 9145W        W11295  18.129   6.261   7.668 -0.0990 -0.1759  0.1869
 9146W        W11296  23.900   5.585  22.316  0.0263 -0.3742 -0.0995
 9147W        W11297  19.207   0.894  24.510  0.0443 -0.1821 -0.1648
 9148W        W11298  15.676   4.254  23.757  0.0516 -0.1999  0.1047
 9149W        W11299   1.959   5.675  10.923  0.0014 -0.0357  0.0314
 9150W        W11300  13.116   4.820  12.503  0.0250 -0.1369 -0.0869
 9151W        W11301  22.453   1.464  10.247 -0.3256 -0.3719  0.2176
 9152W        W11302   5.062   3.249  35.893  0.0232  0.2667 -0.0007
 9153W        W11303   0.337   4.195  14.929 -0.0570  0.0095  0.0413
 9154W        W11304   3.712   0.990  33.866  0.0802 -0.2674  0.1276
 9155W        W11305   4.522   0.252  14.316  0.0214  0.0259 -0.1557
 9156W        W11306   0.629   3.540   7.950  0.0569 -0.2275  0.1923
 9157W        W11307  12.743   2.716  10.198 -0.1314 -0.0152 -0.1091
 9158W        W11308  17.177   6.551   1.025  0.0641  0.0722 -0.1868
 9159W        W11309  10.189   1.034   6.862  0.1237 -0.0144 -0.4160
 9160W        W11310   3.340   0.625  23.790 -0.2322  0.2658 -0.2638
 9161W        W11311   0.620   0.291   1.671  0.3795 -0.1673  0.2279
 9162W        W11312  17.026   0.230   3.087 -0.1989  0.1587  0.3101
 9163W        W11313  18.796   1.508  31.490 -0.1179 -0.1086  0.0036
 9164W        W11314  25.366   2.508  27.497 -0.0598  0.2380 -0.0888
 9165W        W11315  11.230   4.205  22.850  0.2196 -0.1521 -0.1420
 9166W        W11316  22.835   2.946   8.706  0.2321  0.1515 -0.1832
 9167W        W11317  10.213   4.126  11.637  0.1241  0.2882 -0.0829
 9168W        W11318   8.282   4.484   2.498  0.3465  0.1201  0.0693
 9169W        W11319  14.597   2.432  10.017  0.0038  0.1343  0.2236
 9170W        W11320   4.375   0.862  31.037 -0.0193  0.0223  0.1182
 9171W        W11321  23.956   4.994  35.376  0.0291 -0.1291 -0.2636
 9172W        W11322   6.405   0.542  12.368  0.3185  0.1178 -0.0642
 9173W        W11323   9.267   4.775  25.244  0.0294 -0.0951  0.0871
 9174W        W11324  15.848   5.773  10.535 -0.1158 -0.0339  0.0780
 9175W        W11325  17.823   2.067  11.278 -0.1332  0.3961 -0.1203
 9176W        W11326  23.524   4.627  25.100 -0.2475 -0.0615 -0.0123
 9177W        W11327  18.006   3.618   3.252 -0.0029  0.1077 -0.0591
 9178W        W11328   4.708   3.234  10.967  0.0745  0.1408  0.0899
 9179W        W11329  15.044   5.499  24.166 -0.2191  0.3202 -0.0819
 9180W        W11330   4.425   3.613  20.514 -0.0061 -0.0793 -0.0669
 9181W        W11331  22.989   5.051  23.627 -0.1203  0.0188 -0.2873
 9182W        W11332  15.200   4.294  25.505  0.0425  0.2728  0.4148
 9183W        W11333  22.427   5.959  34.631 -0.1900  0.0648  0.1307
 9184W        W11334  23.701   5.073   3.256 -0.1324 -0.2455 -0.1496
 9185W        W11335  18.350   3.399   9.929  0.2307  0.1618  0.3064
 9186W        W11336  20.870   1.774   0.341 -0.3167 -0.2875  0.1830
 9187W        W11337  25.168   5.638   2.423  0.2191  0.1736 -0.1385
 9188W        W11338  24.559   2.306   9.727  0.2332 -0.1147 -0.2383
 9189W        W11339  20.282   4.931  29.614 -0.1579  0.1096  0.0313
 9190W        W11340  12.230   3.319   1.982  0.0353 -0.1693 -0.1210
 9191W        W11341   0.233   2.040  10.150 -0.0568  0.0797  0.2219
 9192W        W11342  16.766   2.209   6.487 -0.1744 -0.0384 -0.1555
 9193W        W11343  11.884   6.309   8.061 -0.0288 -0.1463  0.2350
 9194W        W11344  15.959   2.367   6.956 -0.3089 -0.0741  0.3389
 9195W        W11345  13.349   3.363  35.365  0.1483  0.0364  0.0056
 9196W        W11346  25.128   5.355  33.199  0.0059  0.2831 -0.0964
 9197W        W11347  23.239   5.717  29.825 -0.2432  0.4084  0.3311
 9198W        W11348  18.053   1.772  10.332 -0.2527  0.3211  0.1750
 9199W        W11349  24.617   0.489  12.955 -0.2398  0.0836  0.0057
 9200W        W11350   7.910   5.555   1.717 -0.0253 -0.0757  0.0769
 9201W        W11351   9.098   4.974  11.167  0.0042 -0.2446  0.3015
 9202W        W11352  24.215   0.437  24.116 -0.2115  0.1472  0.0588
 9203W        W11353  10.006   3.170  28.486 -0.1687 -0.0212 -0.1183
 9204W        W11354  24.105   2.520  21.497 -0.1482  0.0718  0.1539
 9205W        W11355  21.184   3.811  22.410 -0.0737  0.0499 -0.1144
 9206W        W11356   2.552   0.495  24.090  0.1783 -0.1033 -0.2727
 9207W        W11357   8.487   3.749   1.869 -0.2289 -0.2958  0.0154
 9208W        W11358  21.654   4.321   2.492 -0.0715 -0.0765 -0.0366
 9209W        W11359  19.964   5.065  20.673  0.0242 -0.0709 -0.0196
 9210W        W11360   5.565   2.458   7.883  0.1644 -0.0673 -0.1491
 9211W        W11361  15.114   0.599  25.463  0.0807  0.1555  0.3525
 9212W        W11362  10.290   3.565  28.308  0.0259  0.2589 -0.0715
 9213W        W11363  15.753   6.298  28.863  0.1846  0.1607 -0.0714
 9214W        W11364  17.179   4.448  12.997 -0.0575  0.2000 -0.0086
 9215W        W11365  26.220   4.528  21.738  0.0982 -0.2894 -0.0833
 9216W        W11366  16.742   6.461  35.726 -0.0680 -0.0463 -0.1029
 9217W        W11367   9.876   0.904  30.041  0.3125  0.0205  0.1888
 9218W        W11368  24.779   4.036  32.254 -0.0782 -0.0326 -0.0893
 9219W        W11369  20.936   4.896  22.956 -0.2787 -0.0831 -0.0295
 9220W        W11370  16.877   1.630  21.615  0.0965  0.1649 -0.1127
 9221W        W11371   3.537   4.194  14.902  0.0560 -0.1610 -0.3107
 9222W        W11372   5.216   5.924  30.917  0.2541  0.4865 -0.1584
 9223W        W11373  12.905   3.912  26.065 -0.2368 -0.1095  0.1899
 9224W        W11374  11.164   4.926  20.725 -0.0102  0.3187 -0.2390
 9225W        W11375  18.850   1.727   2.199  0.3815  0.1308 -0.2807
 9226W        W11376  24.426   0.187  27.669  0.1103  0.3928  0.1215
 9227W        W11377   1.061   3.189  12.625 -0.2214  0.0337 -0.1197
 9228W        W11378   9.309   6.104  12.388 -0.1986  0.1548  0.0115
 9229W        W11379  16.564   2.068   7.574 -0.1406 -0.0478 -0.0262
 9230W        W11380   7.974   0.369   3.162  0.0926  0.0859 -0.0844
 9231W        W11381  10.650   5.874   6.213 -0.0681  0.2607  0.0588
 9232W        W11382  21.714   4.661  12.065  0.3387 -0.5099  0.0924
 9233W        W11383  17.452   3.230   1.209  0.1988  0.0257  0.2456
 9234W        W11384   0.449   3.559  27.565  0.1474 -0.0354 -0.0839
 9235W        W11385  17.991   3.033  22.151 -0.1782  0.0368 -0.2399
 9236W        W11386   7.017   1.998   4.929 -0.0014 -0.3453  0.1420
 9237W        W11387  14.274   3.224  35.777  0.1303 -0.0893  0.1794
 9238W        W11388  11.273   1.536  23.174 -0.3135 -0.0176 -0.1766
 9239W        W11389  20.805   0.825   1.450  0.1816  0.0907  0.1433
 9240W        W11390   1.257   0.647  22.120 -0.1954 -0.4268  0.1477
 9241W        W11391  17.550   3.406   8.524  0.1123  0.1098  0.1890
 9242W        W11392  23.984   2.536  12.107  0.1099  0.1079  0.0109
 9243W        W11393   8.233   3.191  27.110  0.1838 -0.1015  0.1431
 9244W        W11394  11.898   1.393   7.321 -0.1559 -0.1562 -0.1044
 9245W        W11395   7.447   4.580  26.313  0.2131  0.3815 -0.1607
 9246W        W11396  22.213   2.718   1.622 -0.0300 -0.5698  0.0672
 9247W        W11397   9.633   0.620  11.272 -0.1181 -0.0001 -0.0440
 9248W        W11398  11.548   4.356  22.005 -0.0495 -0.4531  0.2285
 9249W        W11399  20.925   4.653   2.934 -0.0228  0.0283  0.0745
 9250W        W11400  17.670   2.942  33.466  0.1656 -0.2855 -0.0857
 9251W        W11401  18.369   4.938  30.968  0.0530  0.1066 -0.1315
 9252W        W11402   7.983   1.362   3.174  0.1023  0.1517  0.2333
 9253W        W11403  12.363   0.507   0.819  0.2400  0.0636  0.1305
 9254W        W11404  14.154   5.276  30.634  0.0565  0.1337 -0.0465
 9255W        W11405   8.967   1.898   0.199 -0.0403  0.2130 -0.3495
 9256W        W11406  23.008   2.091  25.363  0.0857  0.2930  0.1388
 9257W        W11407   4.859   3.813  29.973 -0.3521  0.0588 -0.0169
 9258W        W11408  20.435   5.703   3.815  0.1127 -0.2842  0.1023
 9259W        W11409   7.097   2.960  29.529 -0.0696 -0.0827  0.1300
 9260W        W11410  17.970   5.273   3.434  0.2738  0.1109 -0.0089
 9261W        W11411   5.744   2.503  22.714 -0.1405 -0.0043  0.0541
 9262W        W11412   5.878   1.967  34.726  0.2102  0.0982 -0.2701
 9263W        W11413  18.302   1.501   8.911 -0.0488  0.1816  0.1995
 9264W        W11414   1.056   0.258  14.139 -0.0946 -0.2268  0.1407
 9265W        W11415  22.089   1.713   9.998  0.0249 -0.2567  0.0854
 9266W        W11416   2.382   0.439  12.988 -0.2810  0.0842  0.1679
 9267W        W11417  23.227   2.131  29.595 -0.0288  0.1355  0.0762
 9268W        W11418   9.224   2.145  34.037  0.1912  0.0644  0.1348
 9269W        W11419   6.695   6.126   9.501 -0.0702  0.2278  0.1888
 9270W        W11420  18.268   0.296  27.950 -0.1738  0.2057  0.2210
 9271W        W11421  11.385   0.212  23.052 -0.1367 -0.1721  0.2643
 9272W        W11422  19.235   4.202  29.020 -0.3215  0.1112  0.0454
 9273W        W11423  25.870   0.270   3.853 -0.0376 -0.0052  0.0079
 9274W        W11424   1.890   3.004  12.598  0.1015  0.0091  0.1044
 9275W        W11425  13.796   4.760  13.380  0.1490 -0.0726 -0.1315
 9276W        W11426  22.611   2.324   4.332 -0.3392  0.0701 -0.2105
 9277W        W11427  15.998   0.421  10.042  0.0543 -0.0912  0.1258
 9278W        W11428  17.737   1.255  28.696  0.3229  0.1420  0.0532
 9279W        W11429   7.308   1.846   4.492 -0.0477 -0.0019  0.2035
 9280W        W11430  25.310   0.361   7.644 -0.1413  0.2945  0.1252
 9281W        W11431  25.854   6.205   9.886 -0.1713  0.0304  0.2676
 9282W        W11432   0.650   5.677   4.270  0.2767  0.2408  0.1090
 9283W        W11433   3.017   5.035  31.266 -0.0830  0.0419 -0.0309
 9284W        W11434  22.402   4.136  29.165 -0.0788  0.2085 -0.1003
 9285W        W11435  18.936   2.733   6.511  0.0763  0.1198 -0.1081
 9286W        W11436   5.419   6.329   0.100 -0.2725 -0.1513 -0.1991
 9287W        W11437  10.102   2.301   3.058 -0.2248 -0.0972 -0.1361
 9288W        W11438  25.759   1.711   8.086 -0.1037 -0.0296 -0.0895
 9289W        W11439  14.051   6.383   3.831 -0.3140  0.1095  0.0101
 9290W        W11440  21.135   3.365  15.546 -0.1471  0.0931  0.1301
 9291W        W11441   4.188   0.237  25.643 -0.0165 -0.1006  0.0630
 9292W        W11442   9.581   6.379   1.830  0.1827 -0.2053 -0.2023
 9293W        W11443   0.211   3.505   0.931 -0.0153 -0.0483  0.3720
 9294W        W11444  26.170   2.803  11.539 -0.2529  0.1328  0.0508
 9295W        W11445  18.907   1.527  29.890 -0.0321  0.0632 -0.1883
 9296W        W11446  19.437   3.725  24.230 -0.1261 -0.1219  0.1496
 9297W        W11447  13.171   3.400  21.521  0.0768  0.1225  0.1679
 9298W        W11448  14.944   4.602  34.784  0.1193  0.0331 -0.4083
 9299W        W11449  22.260   4.244  25.946 -0.1391 -0.1557  0.0635
 9300W        W11450  24.382   0.173   7.754 -0.0794 -0.1706 -0.1707
 9301W        W11451  19.034   1.382   6.873  0.3218 -0.0256 -0.4571
 9302W        W11452   0.821   0.905   2.517 -0.1176  0.4902  0.0680
 9303W        W11453  22.189   1.505   6.349  0.2299  0.1365  0.2320
 9304W        W11454  14.881   4.109  12.986  0.0628 -0.0422  0.0020
 9305W        W11455  20.592   1.707  11.189 -0.0112  0.0597 -0.2263
 9306W        W11456  12.998   0.504  30.181  0.0501  0.4252  0.1569
 9307W        W11457   1.036   6.174   3.746 -0.2200 -0.1019  0.0533
 9308W        W11458  16.190   2.487  29.017 -0.4560  0.0215  0.2337
 9309W        W11459  13.491   0.853  33.095 -0.0401 -0.2425 -0.2103
 9310W        W11460  17.366   1.232  11.340  0.1616  0.3014 -0.2297
 9311W        W11461   8.199   0.719  30.791  0.0391 -0.0436 -0.0290
 9312W        W11462  16.808   4.669   3.003 -0.2316  0.1373 -0.1858
 9313W        W11463  25.046   2.557   6.371  0.0713  0.0823  0.1237
 9314W        W11464  15.849   3.152   9.354  0.1281 -0.1273 -0.1969
 9315W        W11465   7.780   5.340  30.268 -0.0727  0.0489  0.3300
 9316W        W11466  20.904   1.061  33.586  0.1245  0.2088  0.1574
 9317W        W11467  24.943   0.786  26.954 -0.1023  0.1363 -0.0110
 9318W        W11468   1.909   6.343   7.116 -0.1021 -0.0136  0.2403
 9319W        W11469  13.091   3.032  22.451 -0.1006 -0.2464 -0.0538
 9320W        W11470  23.940   2.674  13.158 -0.0633 -0.2752 -0.1495
 9321W        W11471  20.214   5.300  26.429  0.2211 -0.1189 -0.0338
 9322W        W11472  19.309   2.526  10.787 -0.0745  0.1365  0.1754
 9323W        W11473  17.086   1.387  10.280  0.0492  0.2170  0.0137
 9324W        W11474   7.706   1.084  34.224 -0.1194 -0.0566 -0.1470
 9325W        W11475  11.046   3.326  26.352  0.1754  0.0760  0.0137
 9326W        W11476   3.402   3.381   4.117 -0.0257  0.1165 -0.0060
 9327W        W11477  15.018   4.506   8.113 -0.2454  0.1996  0.0813
 9328W        W11478  21.448   5.220  31.699  0.0824  0.1623 -0.0309
 9329W        W11479   2.038   1.208  24.263 -0.1334 -0.0313 -0.2290
 9330W        W11480   5.620   3.539  25.601 -0.2752  0.1908  0.1443
 9331W        W11481  13.608   3.843  30.826  0.3537  0.1696 -0.0699
 9332W        W11482  21.511   0.248  25.162  0.0560  0.1428  0.3574
 9333W        W11483   5.568   0.749  12.916  0.0052  0.1445 -0.3494
 9334W        W11484   1.249   6.381  32.457 -0.0579 -0.0491  0.1529
 9335W        W11485   9.769   6.087  13.925  0.2147 -0.1622 -0.2263
 9336W        W11486  23.916   3.126   6.330 -0.1820 -0.0056  0.0320
 9337W        W11487   0.491   1.498  28.252  0.3536 -0.1863 -0.1091
 9338W        W11488  11.522   1.973  10.135 -0.1043  0.1034 -0.1754
 9339W        W11489   4.717   4.049  26.587  0.0463 -0.1765  0.0521
 9340W        W11490  22.871   1.249  34.483 -0.2012 -0.1227  0.0811
 9341W        W11491  13.890   1.982  34.866 -0.3126 -0.3177  0.3641
 9342W        W11492  20.421   3.098   5.203 -0.0189 -0.1316  0.0558
 9343W        W11493  19.227   0.034   2.652 -0.3077  0.3513  0.2351
 9344W        W11494  10.833   4.200  31.811 -0.0337 -0.2618 -0.3342
 9345W        W11495  20.594   1.496   4.058 -0.0158 -0.2371  0.0874
 9346W        W11496   9.552   1.205  29.208 -0.1675 -0.4398 -0.0312
 9347W        W11497  24.278   4.471  32.881 -0.0200 -0.1314 -0.1665
 9348W        W11498  11.443   5.001  15.133  0.2237 -0.3396  0.1480
 9349W        W11499   3.173   0.723   5.630 -0.2789 -0.0492  0.1748
 9350W        W11500  16.284   0.370  13.492 -0.2348 -0.0318  0.3013
 9351W        W11501   6.995   3.727  30.401 -0.1822  0.0732 -0.2725
 9352W        W11502  11.852   4.832   7.643  0.1796 -0.1202  0.0527
 9353W        W11503  14.507   6.416   5.785 -0.3714 -0.1721  0.0856
 9354W        W11504  19.707   1.631  33.620 -0.3578  0.0086  0.2943
 9355W        W11505  11.240   0.679  34.192  0.0361  0.0223  0.2600
 9356W        W11506  22.386   3.215  25.572 -0.0476 -0.0615  0.4346
 9357W        W11507  23.572   4.793  29.526 -0.1811 -0.0600 -0.0690
 9358W        W11508   4.496   4.561  11.301  0.2326  0.0087  0.2861
 9359W        W11509  13.585   1.243   1.849  0.1934 -0.2821  0.0212
 9360W        W11510  14.225   4.151  35.722  0.0663  0.2751  0.1398
 9361W        W11511  14.925   2.376   4.193  0.2675 -0.1226 -0.3256
 9362W        W11512   8.049   1.396   7.612  0.2552 -0.0769 -0.3065
 9363W        W11513  19.741   5.086  14.177 -0.0212 -0.1864  0.2328
 9364W        W11514  20.518   0.808   6.023 -0.1645  0.0643  0.1242
 9365W        W11515  11.659   6.015  34.566 -0.1782 -0.2996 -0.0980
 9366W        W11516  19.417   3.640  20.730  0.2235  0.1782 -0.0356
 9367W        W11517  22.732   5.765  21.512 -0.0025  0.0184 -0.2596
 9368W        W11518   3.400   2.468   1.605  0.3586 -0.0929  0.0702
 9369W        W11519  24.948   1.260  10.323  0.2153  0.0792 -0.3006
 9370W        W11520  11.055   2.165   6.746 -0.0573 -0.2906  0.0123
 9371W        W11521   8.338   0.828  21.852  0.1640  0.0358  0.1309
 9372W        W11522  13.211   0.521   0.121 -0.0100 -0.0274  0.1328
 9373W        W11523  12.996   2.162  21.298 -0.0661 -0.2722  0.0811
 9374W        W11524  17.421   3.764   8.013 -0.0639  0.2120 -0.1639
 9375W        W11525   4.244   4.629   5.981 -0.0535 -0.1970  0.0431
 9376W        W11526   8.120   0.369  24.439  0.0400 -0.0136  0.0836
 9377W        W11527  10.553   4.737  35.885 -0.0281  0.0749 -0.1467
 9378W        W11528  16.886   0.768  12.731  0.2206 -0.3014  0.2524
 9379W        W11529  11.774   4.188  12.159  0.3531  0.1761  0.0073
 9380W        W11530  19.933   1.407  26.824  0.1478  0.0950  0.1008
 9381W        W11531   1.889   0.866  21.642 -0.1583  0.3510 -0.1643
 9382W        W11532  24.464   4.878  34.643 -0.0357 -0.1404  0.1403
 9383W        W11533  10.442   1.544  29.752  0.1705 -0.1129 -0.1400
 9384W        W11534  16.676   6.046   9.324 -0.5445 -0.1533 -0.0304
 9385W        W11535  14.431   4.214  11.720  0.1031  0.0702  0.1435
 9386W        W11536  19.082   0.532  25.667 -0.4548 -0.1031 -0.0368
 9387W        W11537   4.450   4.875  34.403  0.3570  0.4559 -0.1660
 9388W        W11538  18.238   2.888  26.166  0.1377 -0.3721  0.3314
 9389W        W11539  22.067   3.574   5.949 -0.0272 -0.0011 -0.1875
 9390W        W11540  18.199   5.523  33.426  0.0999 -0.1076 -0.0307
 9391W        W11541  13.467   3.890   6.249 -0.0715 -0.0373  0.2290
 9392W        W11542  24.883   2.715   9.871 -0.2848  0.0060 -0.1404
 9393W        W11543  19.679   0.960  26.967  0.0295  0.1836 -0.2566
 9394W        W11544   8.069   2.024   1.500  0.1592 -0.1138  0.0141
 9395W        W11545  21.514   1.416   5.373 -0.2385 -0.3280  0.0765
 9396W        W11546   4.721   4.602  10.088  0.0712  0.3267 -0.1004
 9397W        W11547  12.644   2.188   5.199 -0.2002 -0.0577  0.1917
 9398W        W11548  23.238   1.800  20.703 -0.2757  0.1447 -0.0479
 9399W        W11549  21.180   6.471  15.719  0.1458 -0.2000 -0.0324
 9400W        W11550  17.342   5.595   1.904  0.2884  0.2038  0.2122
 9401W        W11551   5.998   2.835  32.279 -0.0145  0.0500  0.3533
 9402W        W11552  23.332   6.597  28.624 -0.0298 -0.3450  0.2642
 9403W        W11553   4.084   3.425  27.053  0.3009 -0.0601  0.1557
 9404W        W11554  13.795   4.965   1.865 -0.1759  0.0011 -0.1576
 9405W        W11555   8.086   6.296  14.214  0.0312 -0.0712  0.1454
 9406W        W11556  24.568   5.996  22.340 -0.1200 -0.2207  0.2168
 9407W        W11557  24.226   4.575   2.733 -0.2895  0.1461  0.1464
 9408W        W11558  23.043   4.289  28.631  0.3167 -0.1612 -0.2499
 9409W        W11559  11.879   3.078  31.526  0.0518 -0.4736  0.0281
 9410W        W11560  26.260   4.760   7.806 -0.2791 -0.1210 -0.0575
 9411W        W11561   2.079   5.972  29.366 -0.0060 -0.1072  0.1199
 9412W        W11562   8.070   2.255  30.104  0.1381 -0.1313 -0.4052
 9413W        W11563  14.798   0.634  26.594  0.2216  0.0292  0.0873
 9414W        W11564   8.162   5.717  10.773 -0.2996 -0.0733 -0.0167
 9415W        W11565   1.182   6.038  21.316  0.1338  0.3276 -0.2148
 9416W        W11566  14.115   4.178   4.148 -0.1365  0.1444 -0.0121
 9417W        W11567   9.866   2.031  28.567  0.1066 -0.2516 -0.1373
 9418W        W11568  10.572   0.622  21.403  0.2363 -0.1344  0.0572
 9419W        W11569   3.958   4.064  25.761  0.1375 -0.0919  0.2126
 9420W        W11570  20.145   0.373  22.432  0.2548  0.1486  0.2915
 9421W        W11571  19.026   3.239  33.047 -0.2162  0.0048  0.2529
 9422W        W11572  20.507   4.381  21.689 -0.2228  0.1793  0.0547
 9423W        W11573  17.870   6.294   2.161  0.5397 -0.3546  0.0614
 9424W        W11574  16.722   6.489  22.147 -0.0881 -0.0758  0.2646
 9425W        W11575  17.976   4.275   9.052 -0.1237 -0.0150  0.1262
 9426W        W11576  13.681   3.862  29.949  0.3537 -0.1455  0.0709
 9427W        W11577  22.049   4.337  28.849 -0.0370  0.0553 -0.0208
 9428W        W11578  13.675   5.401  20.813  0.3081 -0.1774  0.0634
 9429W        W11579  13.446   5.773   1.763  0.6433  0.1449  0.0321
 9430W        W11580  18.849   3.014  21.726  0.2929  0.1566 -0.0586
 9431W        W11581  20.240   0.460  14.393  0.0150  0.0186 -0.3608
 9432W        W11582   4.214   3.900  10.666 -0.3101  0.2061  0.0596
 9433W        W11583   7.227   1.350  14.152  0.3326  0.1238 -0.0987
 9434W        W11584  24.772   4.311  31.829 -0.0115  0.2929 -0.1998
 9435W        W11585  22.161   2.368  12.983 -0.3163  0.0993  0.0696
 9436W        W11586  19.142   0.956  31.595  0.0734 -0.3555  0.1136
 9437W        W11587  26.422   6.526  10.347 -0.3230  0.2686 -0.0605
 9438W        W11588  21.966   6.153  22.775 -0.1019 -0.0287  0.1686
 9439W        W11589   1.651   1.415  27.763  0.0388 -0.2774  0.1086
 9440W        W11590  10.309   1.619  12.115  0.3089  0.1345 -0.1489
 9441W        W11591   6.377   4.612  34.377  0.1569  0.1851 -0.0136
 9442W        W11592  13.055   3.515  35.783  0.3331 -0.1778 -0.1292
 9443W        W11593  12.645   3.566  27.410 -0.0951  0.0882  0.0822
 9444W        W11594  16.042   0.632  27.108 -0.0464  0.2118  0.0310
 9445W        W11595  19.073   4.273  10.894 -0.0888  0.3189 -0.1662
 9446W        W11596   7.305   1.916  12.291  0.0742 -0.0065 -0.1115
 9447W        W11597  15.405   3.260   7.135 -0.2487  0.1630  0.0096
 9448W        W11598   3.648   5.802   8.729  0.2756 -0.3435 -0.1975
 9449W        W11599   0.960   5.951   8.328 -0.0999 -0.0426 -0.1137
 9450W        W11600  21.742   5.077  29.269  0.1405  0.1163 -0.0217
 9451W        W11601  18.204   1.910  14.422 -0.1094  0.1910 -0.2257
 9452W        W11602   7.504   0.026  29.789  0.1722  0.0272  0.4063
 9453W        W11603   0.422   2.779  13.691  0.0345  0.0018  0.1700
 9454W        W11604  14.339   0.184  29.384  0.1452  0.1364  0.1501
 9455W        W11605   1.072   4.513  27.973 -0.1612 -0.2906  0.0291
 9456W        W11606   8.614   3.187   6.678 -0.0343  0.0706  0.1853
 9457W        W11607  18.027   0.808  28.487 -0.3072 -0.2339  0.1044
 9458W        W11608  25.014   1.733   4.383 -0.2364 -0.0946 -0.2753
 9459W        W11609  15.112   0.940  23.507  0.2788 -0.2198 -0.2293
 9460W        W11610   3.091   3.024  31.383 -0.0413 -0.2069 -0.1827
 9461W        W11611   2.073   1.735  33.572  0.2535 -0.1501  0.1197
 9462W        W11612   0.384   6.338  22.798  0.0380 -0.1748  0.0049
 9463W        W11613   7.819   1.310  21.645  0.1978  0.0103 -0.1321
 9464W        W11614   9.125   0.538  20.694  0.4697 -0.0880 -0.2059
 9465W        W11615   8.783   4.205  11.144  0.0261 -0.1692 -0.1207
 9466W        W11616   4.156   2.472  25.371  0.0487 -0.3951  0.1705
 9467W        W11617   6.822   5.416   2.645 -0.0446  0.1034 -0.4386
 9468W        W11618   5.510   6.021  13.019 -0.0288 -0.2520 -0.0853
 9469W        W11619  18.538   4.973   2.914  0.3300 -0.1400  0.0776
 9470W        W11620   7.951   3.193   3.915  0.0288  0.2256 -0.0977
 9471W        W11621   2.888   2.973  25.021  0.1012  0.0738  0.1993
 9472W        W11622   4.262   0.914   0.546  0.1359 -0.1719  0.0956
 9473W        W11623  25.521   5.546  10.622 -0.0910 -0.0825 -0.0497
 9474W        W11624   7.998   3.426   7.875 -0.0672  0.0718 -0.2731
 9475W        W11625  12.629   1.141   4.978 -0.1635 -0.3344 -0.0957
 9476W        W11626  24.019   3.454   3.224 -0.2000 -0.0724 -0.0048
 9477W        W11627   3.044   2.384   4.296  0.1083  0.1636  0.1964
 9478W        W11628  14.699   1.299   2.564 -0.1926 -0.0524 -0.2032
 9479W        W11629   7.589   5.651  31.093 -0.0046  0.2571 -0.1958
 9480W        W11630  20.335   0.458  10.940 -0.1608  0.1619  0.3121
 9481W        W11631  24.406   5.300  21.706 -0.4306  0.1031  0.0285
 9482W        W11632  20.708   2.211  12.683 -0.2892  0.1272  0.2009
 9483W        W11633   3.515   5.538  35.372  0.1380  0.1481  0.0674
 9484W        W11634   9.197   3.107  29.957  0.0923  0.2301  0.1981
 9485W        W11635   0.578   0.050  27.559 -0.0631 -0.1171 -0.1957
 9486W        W11636   6.937   4.994  23.375 -0.1164  0.1892  0.0541
 9487W        W11637  12.643   4.268  33.917  0.4394 -0.0237 -0.1005
 9488W        W11638  11.798   3.061   2.066  0.1475 -0.0320 -0.2490
 9489W        W11639   6.276   5.127   0.440  0.1337 -0.1091 -0.3361
 9490W        W11640   9.567   3.518  11.118  0.0581  0.0062  0.2319
 9491W        W11641   8.048   1.933  25.018  0.0788  0.1733  0.0505
 9492W        W11642  25.906   0.758  34.001  0.0136  0.1005  0.1746
 9493W        W11643   3.000   1.305   6.703 -0.0195  0.0838 -0.0974
 9494W        W11644   5.677   3.979  12.686 -0.3882 -0.2353  0.0643
 9495W        W11645  17.039   0.765   9.541 -0.0303  0.1640 -0.1332
 9496W        W11646   1.542   5.299   8.935  0.1825 -0.2140  0.2367
 9497W        W11647  11.257   6.007  29.726  0.3215  0.3724  0.1011
 9498W        W11648  15.431   5.705  21.688 -0.4441  0.2851 -0.1736
 9499W        W11649  16.826   3.753  26.213 -0.0271  0.1179  0.1386
 9500W        W11650   8.617   0.375  35.965 -0.0090  0.4411  0.0145
 9501W        W11651  18.632   2.061  13.642 -0.3559 -0.1542  0.1462
 9502W        W11652  21.306   0.891  32.405 -0.1820  0.2252  0.0306
 9503W        W11653  23.796   2.495  12.588  0.1989  0.3080 -0.1707
 9504W        W11654   9.260   5.412  22.315  0.0274 -0.1329  0.2118
 9505W        W11655  17.975   5.138   6.985  0.2904 -0.1721  0.0835
 9506W        W11656   1.418   5.806  33.744  0.1193  0.1649  0.0477
 9507W        W11657  11.252   5.742  25.656  0.1395 -0.0063 -0.0735
 9508W        W11658  12.575   1.123  32.606  0.0084 -0.1257  0.0804
 9509W        W11659  16.917   3.391   3.722 -0.2574 -0.0151  0.0779
 9510W        W11660  21.595   3.143  15.183  0.0422 -0.0313 -0.0908
 9511W        W11661   9.708   4.889   3.669  0.0776  0.0949 -0.0434
 9512W        W11662  14.088   2.516  29.229  0.0462 -0.1468 -0.0363
 9513W        W11663  11.929   5.506   7.397 -0.0025  0.0929 -0.2382
 9514W        W11664   2.440   3.630  32.597  0.2612 -0.0349 -0.1362
 9515W        W11665  12.817   3.887  31.428  0.0633  0.0132 -0.0318
 9516W        W11666   0.048   4.901  21.060 -0.0133  0.1310 -0.2288
 9517W        W11667   4.076   2.349   4.415  0.1214 -0.2615  0.2248
 9518W        W11668  16.678   2.374   8.051  0.3785 -0.0259  0.1030
 9519W        W11669  19.623   3.327   0.534  0.1597 -0.1652  0.0452
 9520W        W11670   1.083   2.856  32.258 -0.2231 -0.0687  0.1526
 9521W        W11671  23.878   4.631   9.392  0.2985 -0.0540  0.1043
 9522W        W11672  15.053   1.117   4.748 -0.2541 -0.2455  0.3305
 9523W        W11673   8.626   3.627   6.373 -0.0004  0.1131  0.0782
 9524W        W11674   7.621   5.475  21.206  0.0764  0.0621 -0.1280
 9525W        W11675  18.508   4.438  30.705 -0.1014  0.0932 -0.0295
 9526W        W11676   1.884   3.248  28.293 -0.1386 -0.2458 -0.2769
 9527W        W11677   5.522   5.595   8.838 -0.0113  0.2459  0.0054
 9528W        W11678  25.238   6.357   6.227  0.0179  0.1773 -0.0447
 9529W        W11679   0.406   1.635  26.552 -0.1066 -0.0675 -0.1425
 9530W        W11680  24.504   3.847   2.441  0.0288  0.0650 -0.1703
 9531W        W11681  11.962   6.123  13.982  0.3335 -0.2543  0.1484
 9532W        W11682  12.415   3.406  28.341 -0.0691  0.0535  0.3579
 9533W        W11683   0.081   3.567   2.319  0.0924 -0.0712  0.0375
 9534W        W11684   7.860   2.223  32.154 -0.1019 -0.1910  0.2778
 9535W        W11685  22.847   5.668  32.585  0.1102  0.5084  0.0485
 9536W        W11686  18.007   6.528   9.112 -0.1174 -0.0559 -0.0329
 9537W        W11687   2.805   0.072  28.739 -0.1578 -0.2964  0.1711
 9538W        W11688  12.000   3.544  12.762 -0.0050  0.0570  0.1661
 9539W        W11689  13.494   0.378  21.335 -0.0186  0.1679 -0.1965
 9540W        W11690  18.005   2.618   3.525  0.1412  0.2503 -0.0336
 9541W        W11691   1.312   0.829  25.560  0.1458  0.1320  0.1208
 9542W        W11692   5.274   3.663   1.108 -0.1412  0.0064 -0.0424
 9543W        W11693  14.795   2.245  16.366  0.1682 -0.1647 -0.0717
 9544W        W11694  22.837   2.424  33.342 -0.0076 -0.0484 -0.2915
 9545W        W11695   4.285   6.377  24.512  0.0488 -0.3064 -0.1233
 9546W        W11696  11.307   4.797  20.129 -0.1815 -0.1163  0.1146
 9547W        W11697  16.818   0.218  31.566 -0.3664 -0.1433 -0.0367
 9548W        W11698  16.606   1.042  25.196  0.1492  0.1035  0.0371
 9549W        W11699  17.873   2.295   0.471  0.3061  0.0636 -0.0394
 9550W        W11700   6.918   2.943   0.800  0.2045 -0.2134  0.2503
 9551W        W11701   1.218   2.093   5.653  0.1081 -0.0233 -0.1717
 9552W        W11702  23.845   0.223  32.644 -0.0414 -0.0226  0.2229
 9553W        W11703   5.747   5.994  33.726 -0.1761  0.2353 -0.1546
 9554W        W11704  25.953   3.128  29.975 -0.5600 -0.0017 -0.2490
 9555W        W11705  23.206   3.717   9.218  0.1477 -0.2667 -0.0904
 9556W        W11706   5.483   2.838  30.195 -0.0177  0.1076  0.0765
 9557W        W11707   8.219   0.403  20.517  0.0999 -0.0466  0.0425
 9558W        W11708  21.415   4.268  29.189 -0.1198 -0.3054  0.1580
 9559W        W11709  21.329   1.617  35.016  0.1399 -0.0427  0.2765
 9560W        W11710  25.331   1.889  10.808 -0.1340 -0.1281  0.1121
 9561W        W11711  23.560   0.934  31.051 -0.1510 -0.0346  0.1348
 9562W        W11712   3.811   4.629  25.814  0.0444 -0.1533 -0.1474
 9563W        W11713  13.618   5.377  24.215 -0.1689 -0.0203 -0.1032
 9564W        W11714   4.407   5.781  21.688  0.0993 -0.2702 -0.3372
 9565W        W11715  18.833   5.765   1.447  0.3587 -0.0135  0.0956
 9566W        W11716  21.566   5.142  15.371  0.0340  0.1129  0.1292
 9567W        W11717  17.833   4.792   0.900  0.1087  0.0987 -0.1032
 9568W        W11718   8.884   4.278  12.785 -0.0540  0.1580  0.0252
 9569W        W11719   9.278   3.765   1.481  0.2104 -0.2088 -0.1638
 9570W        W11720  20.872   0.590  29.483 -0.1551 -0.1243 -0.1217
 9571W        W11721  14.873   6.111  15.604  0.0711 -0.0438  0.0007
 9572W        W11722  17.649   5.740  26.512 -0.1925 -0.0133 -0.2315
 9573W        W11723  19.063   5.316  12.714 -0.3240  0.3793  0.0545
 9574W        W11724  20.705   2.949  14.342 -0.0146  0.1399  0.4377
 9575W        W11725  20.350   6.009   1.717 -0.1919 -0.1455  0.0975
 9576W        W11726  17.379   6.361  27.733 -0.0244  0.0567  0.2750
 9577W        W11727  23.143   3.831  13.540 -0.0565 -0.2505 -0.1040
 9578W        W11728  20.796   0.919   6.393 -0.0795  0.1547  0.0199
 9579W        W11729   4.154   4.307   0.127  0.1231  0.0761 -0.2705
 9580W        W11730  19.924   0.340  32.175 -0.3427 -0.0482 -0.3356
 9581W        W11731  11.404   0.706  15.272 -0.1540  0.1928 -0.2771
 9582W        W11732  25.531   3.168  10.913  0.1076 -0.0067 -0.0332
 9583W        W11733  14.866   0.490   5.620 -0.1747 -0.2619  0.0903
 9584W        W11734  20.554   6.235   8.735 -0.0555 -0.1950  0.3928
 9585W        W11735   1.808   4.219  20.629 -0.1664  0.1233  0.2215
 9586W        W11736  18.705   1.729   7.095  0.0340 -0.2372  0.0173
 9587W        W11737   3.734   5.212   1.022  0.2424 -0.1539  0.4135
 9588W        W11738   7.743   6.095  31.166 -0.3561 -0.0203  0.1536
 9589W        W11739  18.352   5.391  31.668 -0.3167  0.1296 -0.0298
 9590W        W11740  26.226   1.198  27.754 -0.0965 -0.2271 -0.1164
 9591W        W11741   9.639   3.419  10.642 -0.0275  0.0121  0.0815
 9592W        W11742  26.131   1.894  11.014 -0.0525  0.0203 -0.0872
 9593W        W11743   6.164   1.024  25.247 -0.1263 -0.1746  0.0365
 9594W        W11744   5.243   4.110   0.897 -0.0860  0.3404  0.0653
 9595W        W11745   1.035   3.916  35.526  0.3551 -0.4328 -0.0543
 9596W        W11746  20.108   3.160   1.438  0.1066  0.1626  0.1699
 9597W        W11747  13.077   1.336   1.283  0.0324  0.2829  0.1646
 9598W        W11748  12.302   6.100  26.452  0.0460  0.0692 -0.0739
 9599W        W11749  20.700   5.118   2.897 -0.2526  0.0668 -0.2456
 9600W        W11750  11.756   5.471  25.825  0.0357 -0.3242 -0.0698
 9601W        W11751   1.367   6.074  24.598 -0.1213 -0.1869  0.2808
 9602W        W11752  12.414   0.433   3.259 -0.0765  0.2887 -0.0731
 9603W        W11753   9.860   5.802  35.408 -0.0851  0.2207  0.0459
 9604W        W11754   4.105   6.128  21.194 -0.1730 -0.1777  0.1684
 9605W        W11755  11.877   5.976  11.730  0.0486  0.1178  0.1675
 9606W        W11756   2.784   4.024   8.689  0.0456 -0.0260  0.0535
 9607W        W11757   0.766   2.755  29.262  0.1812 -0.0235  0.2612
 9608W        W11758  20.102   3.518   0.654 -0.0116  0.0631 -0.1932
 9609W        W11759  14.117   5.283   2.607 -0.0838 -0.0118  0.0065
 9610W        W11760  15.732   1.303  24.564  0.0557  0.0572 -0.1521
 9611W        W11761  25.580   2.337  12.629  0.1100 -0.0430  0.0927
 9612W        W11762  21.916   4.901  30.604  0.2567 -0.0431 -0.0389
 9613W        W11763   4.260   5.780  10.484 -0.0187  0.3157 -0.0143
 9614W        W11764   5.388   5.586  25.819 -0.0297 -0.1756  0.0811
 9615W        W11765  21.828   2.928  14.628 -0.3378 -0.1510 -0.0400
 9616W        W11766   2.800   4.758   7.427  0.0358 -0.1641 -0.0025
 9617W        W11767   2.700   0.460  25.264  0.1799  0.0800 -0.0966
 9618W        W11768   6.025   4.850  31.440  0.0952  0.1068  0.0746
 9619W        W11769   0.501   6.539   4.514 -0.2997  0.0447  0.1876
 9620W        W11770  10.559   2.877  14.749  0.3637 -0.3736  0.3095
 9621W        W11771  13.884   0.529  30.076  0.2913  0.0013  0.0388
 9622W        W11772  16.201   1.015  28.974 -0.1606  0.1265 -0.3451
 9623W        W11773  10.407   1.482  33.659  0.1366  0.1251  0.0287
 9624W        W11774   0.504   2.531  23.047  0.0475 -0.3315  0.1080
 9625W        W11775  15.688   5.824  25.334 -0.1506  0.1984 -0.0643
 9626W        W11776  16.792   5.013  29.029 -0.1575  0.1300  0.0762
 9627W        W11777  13.440   4.202  25.901  0.1894 -0.0794 -0.0090
 9628W        W11778  11.923   2.450   3.616  0.0525 -0.1691  0.3070
 9629W        W11779  11.393   5.117  13.412  0.1737 -0.0261 -0.2712
 9630W        W11780  25.132   0.966  35.742  0.2044  0.1684  0.1735
 9631W        W11781  17.872   6.432  15.638 -0.2487  0.2038 -0.1577
 9632W        W11782   8.942   4.961  14.206  0.0378  0.0600 -0.0196
 9633W        W11783  13.059   4.358  22.870 -0.0346 -0.2089 -0.0230
 9634W        W11784   0.170   4.737   1.892 -0.0874  0.1217  0.2070
 9635W        W11785   2.552   2.654  10.918  0.0397 -0.0576  0.1899
 9636W        W11786   6.991   0.085  21.749 -0.1122  0.0643  0.1196
 9637W        W11787   3.009   2.814  36.005  0.2929  0.2743  0.2295
 9638W        W11788  19.289   0.234  14.038  0.1763 -0.1618 -0.1689
 9639W        W11789   3.989   6.474  22.298  0.0472 -0.1681 -0.4864
 9640W        W11790   1.522   1.629  20.993 -0.0378 -0.1888  0.3901
 9641W        W11791   7.488   0.287  11.778 -0.1174  0.0806  0.0075
 9642W        W11792  16.135   2.254  16.270 -0.1623 -0.2551  0.1182
 9643W        W11793  26.057   4.717   9.858  0.1818  0.0617  0.0722
 9644W        W11794   0.875   6.208  32.112  0.1814  0.2251  0.0495
 9645W        W11795  21.928   3.153  14.185  0.2085  0.0426  0.2996
 9646W        W11796   3.486   2.452  15.175  0.3769  0.0577  0.2094
 9647W        W11797   6.924   4.147  26.156 -0.5932  0.2162 -0.1226
 9648W        W11798   0.835   6.211  14.731 -0.0410 -0.0991 -0.0563
 9649W        W11799  13.499   0.856   8.624 -0.1018  0.0677  0.0788
 9650W        W11800   5.714   3.136   4.770  0.1947  0.3160  0.0522
 9651W        W11801  17.193   5.786   7.059  0.3043  0.2667 -0.2552
 9652W        W11802   8.508   4.441   4.017 -0.1131 -0.1014 -0.0625
 9653W        W11803  15.486   0.888  34.609 -0.1809 -0.1877  0.1879
 9654W        W11804   6.575   4.074  28.330  0.4136  0.1598 -0.1540
 9655W        W11805   1.309   2.810  21.718 -0.1709 -0.1050 -0.0598
 9656W        W11806  24.345   6.591  12.826 -0.0914 -0.0432  0.0890
 9657W        W11807  15.247   3.271  35.457 -0.0532 -0.3661  0.0522
 9658W        W11808   1.247   2.393  23.376 -0.1407 -0.2554 -0.2954
 9659W        W11809   7.082   3.093   7.871  0.0310 -0.1418 -0.2277
 9660W        W11810   3.957   3.385  10.711  0.1497 -0.1748 -0.1508
 9661W        W11811   8.671   0.251   8.365  0.0836  0.1067 -0.0998
 9662W        W11812  22.143   0.856  21.351  0.3793  0.2604 -0.0055
 9663W        W11813  17.064   6.140  31.439 -0.0367  0.0776  0.0080
 9664W        W11814  16.839   2.278  31.371 -0.4268  0.0305  0.2915
 9665W        W11815  22.390   1.432  28.820  0.1960  0.1150  0.1855
 9666W        W11816  21.688   1.640  28.311 -0.2515 -0.0180  0.0623
 9667W        W11817  20.957   0.265  10.292 -0.0061  0.2246 -0.1355
 9668W        W11818  20.617   3.662   9.121  0.3426 -0.2259  0.0821
 9669W        W11819  23.957   4.525   6.231  0.2206  0.1028  0.1362
 9670W        W11820  22.058   2.937   8.169  0.0023  0.3742  0.0929
 9671W        W11821  22.299   3.326  32.082 -0.0016 -0.1019 -0.1116
 9672W        W11822   4.351   1.046   8.040  0.0874 -0.1487 -0.1346
 9673W        W11823  17.250   6.575  30.777 -0.0882 -0.0533 -0.0189
 9674W        W11824   4.312   3.715  25.496  0.3888 -0.1884  0.2793
 9675W        W11825  26.038   4.948  23.172  0.1313  0.2345 -0.1499
 9676W        W11826   8.191   1.755   5.484  0.3435  0.2288  0.2575
 9677W        W11827  23.816   6.257  31.479 -0.1588 -0.2064  0.0894
 9678W        W11828  21.120   1.110  10.786 -0.2076 -0.1813  0.2039
 9679W        W11829  10.056   4.336   0.988  0.2077 -0.1159 -0.2272
 9680W        W11830  25.148   2.812  35.530 -0.0782  0.0179  0.1537
 9681W        W11831   5.007   3.779  33.603 -0.3598  0.0688  0.1013
 9682W        W11832  25.479   3.141  10.338 -0.0184 -0.2490  0.0205
 9683W        W11833  16.586   2.587  24.499 -0.0185 -0.2028  0.2026
 9684W        W11834   0.207   2.308  36.130 -0.3677 -0.0685  0.1261
 9685W        W11835  18.102   6.145  21.158 -0.1471  0.2955 -0.2813
 9686W        W11836  17.137   6.317   5.984 -0.1329 -0.4004 -0.3533
 9687W        W11837  24.595   2.301  34.211  0.2824 -0.0049  0.1274
 9688W        W11838  17.860   4.932   5.047 -0.0506  0.0819  0.1782
 9689W        W11839   3.850   0.240  23.739  0.1872  0.2065 -0.1543
 9690W        W11840   2.582   0.715  33.545  0.0284  0.0452  0.0389
 9691W        W11841  10.529   1.543  26.416  0.1552  0.1511 -0.2101
 9692W        W11842   9.779   3.227   5.150  0.1313 -0.2045 -0.1822
 9693W        W11843  17.663   5.615  33.483  0.0728 -0.2192 -0.1149
 9694W        W11844  14.858   4.253   4.936 -0.1328  0.0649  0.3271
 9695W        W11845  11.471   4.298  12.571  0.1310  0.0355 -0.4149
 9696W        W11846   0.813   5.237  15.612  0.0110  0.1346  0.1860
 9697W        W11847   8.272   4.988   4.787 -0.1420 -0.0575  0.2606
 9698W        W11848   5.082   2.535  34.225  0.1952 -0.0713  0.1036
 9699W        W11849  16.202   0.146  11.537 -0.1091 -0.0012  0.0891
 9700W        W11850  17.414   0.488   2.749  0.4091 -0.0943 -0.1524
 9701W        W11851  13.379   4.143  15.315  0.0226  0.1893 -0.0561
 9702W        W11852  11.339   5.690  24.383  0.1142  0.1275 -0.2079
 9703W        W11853  10.404   1.370   4.830  0.2648 -0.0844 -0.0343
 9704W        W11854  20.529   6.270  11.592 -0.1958 -0.0025  0.0879
 9705W        W11855   0.026   3.380  27.973 -0.1340  0.0776 -0.3365
 9706W        W11856  21.876   5.202  10.546  0.0332  0.1958 -0.1035
 9707W        W11857  25.321   3.927  25.892  0.1001  0.0130 -0.2801
 9708W        W11858  10.173   0.253  35.699 -0.1125  0.3150  0.0326
 9709W        W11859   6.184   5.859  27.475 -0.1591 -0.0835 -0.0721
 9710W        W11860  24.388   4.648   6.438  0.0601  0.2736  0.0017
 9711W        W11861  22.668   1.046  10.034 -0.1515 -0.0019  0.2288
 9712W        W11862   4.468   3.834  14.443  0.1041 -0.0609  0.0645
 9713W        W11863  15.203   3.886   0.461  0.1158 -0.0862 -0.1736
 9714W        W11864  17.526   3.531  31.866  0.0525 -0.1059 -0.1612
 9715W        W11865  14.283   2.385  21.204 -0.1095 -0.1242 -0.1358
 9716W        W11866   3.512   6.517  35.594  0.2579  0.0999  0.1516
 9717W        W11867  16.451   5.959   1.615 -0.0244 -0.2027 -0.1021
 9718W        W11868   1.369   6.536  26.067  0.1318  0.1898  0.0276
 9719W        W11869   9.797   5.871  29.907  0.0655  0.2858 -0.0842
 9720W        W11870  17.700   2.147  28.725 -0.3182  0.0407  0.2253
 9721W        W11871   8.426   4.984   2.694 -0.0071 -0.0031  0.4045
 9722W        W11872  23.608   5.640  13.650  0.1731 -0.0436 -0.0077
 9723W        W11873  23.172   1.749  29.287  0.2275 -0.0227  0.2494
 9724W        W11874   3.134   3.221  26.868  0.1838 -0.2216  0.1207
 9725W        W11875   1.761   0.527  24.413  0.2180 -0.0560  0.2536
 9726W        W11876  16.292   4.928   0.692  0.0850  0.0864 -0.1964
 9727W        W11877   2.958   3.727  14.743 -0.0979  0.0159  0.0803
 9728W        W11878  10.011   4.009   9.815  0.2755  0.1086 -0.0238
 9729W        W11879   1.915   6.522   0.489  0.1183 -0.0264  0.0454
 9730W        W11880  26.041   5.727   0.675 -0.1689 -0.1675  0.3471
 9731W        W11881  14.609   4.751   3.178 -0.1791  0.2604  0.0746
 9732W        W11882   5.408   4.905   7.085 -0.0509  0.0677  0.0410
 9733W        W11883  11.606   4.127  29.948  0.0630 -0.2978 -0.1280
 9734W        W11884  25.415   1.215   3.688 -0.1800 -0.0143 -0.0616
 9735W        W11885   1.584   2.645  24.560 -0.0730 -0.1710 -0.2105
 9736W        W11886  21.817   5.647   8.875 -0.1724  0.1121 -0.1326
 9737W        W11887   1.581   1.769  31.133 -0.0316 -0.1265 -0.1200
 9738W        W11888   5.498   1.636  21.096  0.1066  0.0743 -0.0253
 9739W        W11889  13.224   4.133   9.392  0.1905  0.0320 -0.0939
 9740W        W11890  13.725   0.745  24.961  0.1844  0.3195  0.0917
 9741W        W11891  26.202   4.164  24.091  0.0205  0.0832  0.0875
 9742W        W11892  10.747   6.441   9.731 -0.0234 -0.0762 -0.1065
 9743W        W11893   8.635   3.219  15.345  0.0821 -0.1498  0.1695
 9744W        W11894   2.500   1.242  22.387 -0.1233 -0.1066  0.4642
 9745W        W11895  10.647   1.222   6.959 -0.3134  0.0360 -0.0645
 9746W        W11896  23.538   1.830  13.486 -0.0606 -0.1595 -0.0717
 9747W        W11897  10.431   3.461   7.616 -0.0839 -0.0699  0.0441
 9748W        W11898  25.209   4.947  13.558 -0.0614  0.1069  0.0289
 9749W        W11899  23.678   4.118  11.364  0.3424  0.2059 -0.1425
 9750W        W11900  12.895   3.138   3.766  0.0679 -0.0357 -0.1183
 9751W        W11901   8.692   4.916  30.071 -0.2608  0.0613 -0.0785
 9752W        W11902  19.433   3.632  13.096 -0.0275  0.2601  0.1823
 9753W        W11903  20.732   3.324  12.469  0.1514 -0.1066  0.2598
 9754W        W11904   9.691   2.479   6.663 -0.0009  0.1201 -0.0525
 9755W        W11905   0.981   3.222  23.735 -0.0344 -0.1331 -0.3451
 9756W        W11906  18.919   0.173   5.661 -0.0345  0.0663  0.1069
 9757W        W11907  11.468   4.910  10.537  0.2463 -0.1479  0.2861
 9758W        W11908  22.128   6.492  36.088 -0.2711 -0.1109  0.0006
 9759W        W11909   0.591   3.373  14.392 -0.1864  0.2758  0.3615
 9760W        W11910   6.187   1.386  24.581 -0.3088  0.1296  0.0644
 9761W        W11911   7.897   4.556  22.375 -0.3144 -0.1391 -0.0362
 9762W        W11912   9.467   6.604  31.066 -0.0313 -0.1907 -0.0982
 9763W        W11913  23.544   5.061   8.100 -0.0664 -0.1953  0.2021
 9764W        W11914  16.967   4.996   5.314 -0.1994  0.1530  0.0291
 9765W        W11915  14.706   4.399  32.896 -0.0206 -0.5990 -0.0396
 9766W        W11916   0.100   1.264  24.653  0.0976 -0.0671 -0.2901
 9767W        W11917  24.066   0.991   9.319  0.0659  0.0164  0.1788
 9768W        W11918  12.316   4.318  33.509 -0.1131 -0.1156 -0.1603
 9769W        W11919  23.360   2.586  10.927 -0.1119  0.0181  0.2403
 9770W        W11920   2.190   1.221  15.326  0.0982 -0.0105 -0.0190
 9771W        W11921   8.235   0.963  32.728  0.2450 -0.1106  0.0935
 9772W        W11922   5.073   3.759  13.266 -0.2457  0.1020  0.2865
 9773W        W11923  22.107   1.764  14.402 -0.2778  0.1510 -0.0278
 9774W        W11924   5.953   5.412  24.711 -0.1047  0.1640  0.0323
 9775W        W11925  11.329   0.520  10.814  0.2097  0.1987  0.0256
 9776W        W11926  22.345   0.775   7.957  0.0899  0.0967  0.2126
 9777W        W11927  24.851   3.360   9.730  0.1265  0.2124  0.1993
 9778W        W11928   0.048   0.746   5.183 -0.1093  0.2151  0.2184
 9779W        W11929  12.599   3.253  23.248 -0.3322  0.0295  0.0751
 9780W        W11930  10.723   3.997  24.525  0.2160  0.1902  0.2257
 9781W        W11931  17.051   1.503  26.291  0.1705  0.2375  0.2713
 9782W        W11932  18.650   6.018   3.829  0.0894  0.1874  0.3115
 9783W        W11933  23.079   0.025  14.599 -0.2366  0.0850  0.2113
 9784W        W11934   1.054   4.611  13.323 -0.0680  0.0012  0.1967
 9785W        W11935  18.163   6.446   0.375 -0.1350 -0.0160 -0.0785
 9786W        W11936  23.834   5.696  32.905 -0.0161  0.2346  0.1190
 9787W        W11937   1.654   1.502  24.387  0.2365 -0.1800 -0.2464
 9788W        W11938   6.304   1.925  23.053 -0.0917  0.0943  0.2607
 9789W        W11939  21.494   2.686  15.388 -0.0505  0.0284 -0.0058
 9790W        W11940  24.364   1.552  27.169  0.0909 -0.0972 -0.1325
 9791W        W11941   0.233   1.620  20.225 -0.1378  0.1937  0.3264
 9792W        W11942  16.261   6.592   5.083  0.1795 -0.2124  0.1179
 9793W        W11943   6.900   2.956   9.679 -0.0496  0.3919  0.0822
 9794W        W11944   2.382   4.895   0.549 -0.2801  0.3461  0.1192
 9795W        W11945   8.655   0.592  22.864 -0.0944  0.2579  0.1944
 9796W        W11946  10.337   3.259   7.099 -0.0310  0.2839 -0.0500
 9797W        W11947  26.080   1.821  35.500 -0.0586 -0.3183 -0.0198
 9798W        W11948  25.097   3.768  32.590  0.0050  0.1812 -0.0520
 9799W        W11949   6.739   4.064  21.493  0.1035 -0.2057  0.1298
 9800W        W11950   3.081   4.588   1.751 -0.3197  0.1863 -0.4113
 9801W        W11951  24.262   1.764   0.884 -0.0097 -0.2695 -0.1131
 9802W        W11952   7.139   5.688  33.278  0.2241  0.0237  0.3937
 9803W        W11953  23.165   5.876  26.736 -0.0209  0.0310 -0.1657
 9804W        W11954  22.116   1.881  28.581 -0.0437  0.5551 -0.1934
 9805W        W11955   7.798   4.924  26.081  0.0438 -0.0827 -0.1444
 9806W        W11956  16.700   0.265   5.556 -0.1006 -0.3584  0.2327
 9807W        W11957  20.308   4.954  35.464  0.0771  0.1451 -0.0866
 9808W        W11958  10.474   0.619  26.946 -0.2297  0.0548  0.1003
 9809W        W11959   9.809   2.218  36.155 -0.1493 -0.0028 -0.1041
 9810W        W11960   0.685   3.666  21.470  0.0812 -0.0733 -0.0616
 9811W        W11961   1.104   6.147  11.700 -0.0676  0.2292  0.1581
 9812W        W11962  26.099   0.235  33.671  0.0034  0.3556 -0.2323
 9813W        W11963  17.340   1.187  25.030  0.1771  0.0903 -0.1034
 9814W        W11964   4.413   3.397  30.462 -0.1812 -0.0858 -0.2672
 9815W        W11965  16.091   3.240  34.320 -0.2841 -0.1920 -0.0371
 9816W        W11966   1.492   3.859   2.266  0.1356  0.2056  0.2107
 9817W        W11967  11.559   4.120   1.834  0.2395 -0.1123 -0.2882
 9818W        W11968   6.282   6.403   9.649  0.2177  0.1583  0.2797
 9819W        W11969  19.136   2.998  35.700 -0.0526 -0.1720 -0.2931
 9820W        W11970   1.650   5.774  24.835  0.0168 -0.0892 -0.0179
 9821W        W11971   6.106   1.061  22.570 -0.3941  0.1831  0.0327
 9822W        W11972  15.212   4.623  24.841 -0.1367  0.1518  0.1361
 9823W        W11973  16.047   2.101   7.331 -0.0812 -0.0164 -0.2982
 9824W        W11974   1.306   1.580   4.476 -0.0957 -0.0317  0.1047
 9825W        W11975   5.189   6.579   8.840  0.0192 -0.0210  0.1423
 9826W        W11976  15.029   0.966  22.548 -0.3398  0.0716 -0.0624
 9827W        W11977  10.750   0.629  25.511  0.2703 -0.0152 -0.2022
 9828W        W11978   2.292   4.929   7.683  0.3342 -0.0255 -0.0236
 9829W        W11979  24.645   2.924   6.066  0.1650 -0.2033  0.0729
 9830W        W11980   7.156   6.411  25.101  0.0058  0.2144 -0.0567
 9831W        W11981  14.460   3.910  33.026  0.2826  0.1042  0.0195
 9832W        W11982   7.136   6.223  33.268  0.2066 -0.0798 -0.1177
 9833W        W11983  19.865   5.274   4.911 -0.1104 -0.0120  0.1678
 9834W        W11984  10.876   1.105   1.973 -0.1425 -0.1368  0.1183
 9835W        W11985   3.013   4.079  31.001 -0.0966  0.0921  0.1666
 9836W        W11986   0.397   4.232   5.909  0.1603  0.0579  0.2447
 9837W        W11987  18.644   2.865  22.460 -0.3015  0.1105 -0.1376
 9838W        W11988  21.796   0.353  11.533 -0.0066  0.1763  0.1434
 9839W        W11989   9.385   4.146  25.141 -0.1416 -0.0349  0.2809
 9840W        W11990   5.709   5.974  14.481  0.1490 -0.0688 -0.1268
 9841W        W11991   3.261   0.725  23.237  0.1548 -0.3959 -0.2111
 9842W        W11992  11.151   5.912  22.196 -0.0532 -0.2435 -0.0487
 9843W        W11993  13.419   4.258  21.966  0.0914 -0.1708 -0.0882
 9844W        W11994   9.859   3.130   8.215  0.0442 -0.1050  0.0023
 9845W        W11995  15.893   1.931  14.992  0.0414 -0.2135 -0.2036
 9846W        W11996  19.161   5.363  13.980  0.1684 -0.2872 -0.0461
 9847W        W11997   3.104   5.969  11.197 -0.0828 -0.4198  0.0469
 9848W        W11998   0.962   6.340   5.317 -0.0430  0.2233 -0.1221
 9849W        W11999  26.167   0.534  22.754 -0.2951 -0.1163 -0.4199
 9850W        W12000  18.600   5.702  28.310  0.0634 -0.0730 -0.2602
 9851W        W12001   9.558   5.340  10.930  0.2139  0.0030  0.1894
 9852W        W12002  17.028   3.412  12.972 -0.1681 -0.0215  0.1116
 9853W        W12003   6.402   1.480  34.268 -0.0065  0.0996 -0.0865
 9854W        W12004   9.490   5.965  33.519  0.0824 -0.2643  0.0608
 9855W        W12005  11.307   5.251   0.957  0.0607 -0.2154  0.0339
 9856W        W12006  18.833   0.405   6.947  0.1622  0.3066  0.0540
 9857W        W12007   3.474   3.629   3.371  0.1680  0.1508  0.0401
 9858W        W12008   5.734   6.347  12.260 -0.3273  0.0338 -0.0880
 9859W        W12009  24.901   2.889  32.507  0.0776 -0.1997  0.1980
 9860W        W12010  13.948   1.815   0.579  0.4383 -0.0327  0.1068
 9861W        W12011   0.128   3.021   5.624 -0.0481  0.0683 -0.0829
 9862W        W12012   0.643   0.072   0.723 -0.1029 -0.0844  0.2942
 9863W        W12013  17.858   5.995  33.175  0.0952  0.2335 -0.1713
 9864W        W12014  20.299   1.141  32.390 -0.2557 -0.0701  0.1582
 9865W        W12015   2.717   2.678  12.537 -0.1375  0.1660  0.0970
 9866W        W12016   9.329   3.920  35.965  0.0279  0.1509 -0.0074
 9867W        W12017  25.820   5.487   7.369 -0.1664 -0.2409 -0.2837
 9868W        W12018  19.340   2.706  36.105  0.2400 -0.1201  0.0069
 9869W        W12019   9.636   4.986  22.417 -0.2814  0.0970 -0.3263
 9870W        W12020  19.947   4.377  33.542 -0.0887 -0.2479  0.4531
 9871W        W12021   6.803   4.067   9.834  0.0586 -0.0262 -0.1905
 9872W        W12022  20.140   5.187  24.555  0.4699  0.2607 -0.0905
 9873W        W12023  10.702   6.577  21.955 -0.0072  0.2620 -0.2873
 9874W        W12024  11.691   6.440   7.621 -0.0104 -0.1523 -0.2101
 9875W        W12025   6.769   5.190  20.583  0.2241 -0.0356  0.1477
 9876W        W12026   8.804   4.376  27.746  0.0629  0.0348 -0.2360
 9877W        W12027   4.636   5.730  24.208  0.0030  0.0177 -0.0393
 9878W        W12028  16.296   2.529  12.450 -0.1003  0.0917  0.2053
 9879W        W12029  19.878   5.694   1.581 -0.1330  0.0911  0.1874
 9880W        W12030  21.530   0.504   9.566  0.4879 -0.0899 -0.0993
 9881W        W12031   8.616   2.134  30.446 -0.1186 -0.0690  0.0941
 9882W        W12032   4.465   2.197   2.135 -0.0217 -0.3726  0.0687
 9883W        W12033  12.597   3.535  33.994 -0.2990  0.2901  0.1962
 9884W        W12034   6.850   3.188   9.199 -0.1629 -0.3871 -0.5252
 9885W        W12035   0.566   6.281  29.605  0.0605 -0.0363 -0.0365
 9886W        W12036   8.118   1.217   9.532  0.1504 -0.1313  0.1250
 9887W        W12037   6.522   3.123  14.203 -0.1154  0.2671 -0.3034
 9888W        W12038  25.822   6.474   7.089 -0.0101  0.1669 -0.1415
 9889W        W12039   7.907   3.048  31.900 -0.0524  0.0107  0.1072
 9890W        W12040  23.075   3.824  15.032 -0.1282 -0.2478 -0.4350
 9891W        W12041  22.013   1.830  32.926 -0.0504 -0.1069  0.0809
 9892W        W12042  23.942   1.376   1.028  0.0843  0.0306  0.0970
 9893W        W12043   5.309   1.070  23.646 -0.2244  0.1051 -0.1759
 9894W        W12044  11.808   5.792   9.084  0.0272  0.1415  0.3334
 9895W        W12045  21.232   0.687  28.242 -0.1627 -0.0463  0.0160
 9896W        W12046  12.416   5.930   4.337  0.0895  0.0324 -0.2539
 9897W        W12047  17.574   3.720  15.641  0.1565  0.0373  0.0894
 9898W        W12048   4.508   5.952   5.924  0.4182  0.1647  0.1469
 9899W        W12049   6.031   5.849   1.931  0.0848  0.2015 -0.1256
 9900W        W12050   9.815   2.631  31.642  0.0478 -0.1944  0.5099
 9901W        W12051  10.185   0.878   7.411 -0.0604  0.2130  0.0953
 9902W        W12052  15.378   3.381  24.816 -0.0363  0.1732  0.1248
 9903W        W12053  13.226   4.581  25.661 -0.2108 -0.0942  0.0506
 9904W        W12054   1.593   5.043  25.435 -0.2548  0.1000 -0.0168
 9905W        W12055   2.677   2.022   2.803 -0.1510  0.2862  0.2728
 9906W        W12056  17.166   6.324  32.922 -0.0734 -0.0181  0.0335
 9907W        W12057  15.834   5.049   2.732 -0.3526 -0.2983  0.4297
 9908W        W12058  14.996   0.993  14.167  0.3070 -0.4962  0.0194
 9909W        W12059   8.850   5.751  27.916  0.1162 -0.3421  0.0270
 9910W        W12060  14.612   1.988   7.742 -0.3369 -0.1921 -0.2948
 9911W        W12061  22.266   1.491  10.758 -0.2902 -0.1203 -0.0101
 9912W        W12062  12.982   2.245  27.670 -0.1764  0.0520  0.0847
 9913W        W12063  20.848   3.150  24.312  0.0263 -0.1037 -0.2057
 9914W        W12064  26.124   5.439   8.671  0.0926  0.1938 -0.0424
 9915W        W12065   7.591   3.197   5.233  0.1184  0.0888  0.0744
 9916W        W12066   4.025   4.385   1.496 -0.0722 -0.2705  0.0410
 9917W        W12067  10.345   3.434  15.462 -0.0361 -0.3898 -0.2934
 9918W        W12068  10.163   2.872  34.221 -0.0922  0.0039  0.1754
 9919W        W12069   0.753   0.904  35.091  0.2120 -0.0829  0.0401
 9920W        W12070  10.997   5.756  26.163  0.0718  0.1107  0.2970
 9921W        W12071   8.050   4.929   0.665 -0.1965  0.0066  0.0083
 9922W        W12072  17.981   6.548  12.010  0.1991  0.0006 -0.0881
 9923W        W12073  25.186   1.318   8.644  0.2618  0.1057  0.1815
 9924W        W12074   9.837   2.060  34.781  0.3493  0.2700 -0.3038
 9925W        W12075   0.281   3.498  34.151  0.0315 -0.1577 -0.0667
 9926W        W12076  17.651   1.434   0.791 -0.0129 -0.0091 -0.0081
 9927W        W12077   1.922   3.680  33.125  0.1528 -0.0232  0.1128
 9928W        W12078  21.289   2.359   8.409 -0.2181  0.1841  0.0923
 9929W        W12079   0.957   0.335   8.273  0.0502  0.0279  0.0071
 9930W        W12080  23.028   0.406  24.934  0.2296  0.2609 -0.3430
 9931W        W12081  19.124   0.261  35.369  0.1600 -0.0727 -0.1085
 9932W        W12082   7.711   6.522   1.520  0.3054 -0.1631 -0.3295
 9933W        W12083   1.754   0.443  31.906  0.1508  0.3006  0.0865
 9934W        W12084  20.727   5.583   1.140 -0.0625  0.2824 -0.0487
 9935W        W12085   8.081   0.154   5.093 -0.0371 -0.3924 -0.4045
 9936W        W12086  20.008   0.768  14.789  0.0084 -0.2189  0.0194
 9937W        W12087  10.385   1.895  11.244  0.0664 -0.0916  0.2474
 9938W        W12088  23.661   5.263   5.862 -0.1206  0.1527 -0.0651
 9939W        W12089  15.096   4.792  32.902  0.1520 -0.1105  0.0407
 9940W        W12090  20.271   2.382  22.987  0.0702  0.0547  0.0012
 9941W        W12091  18.249   5.925   0.205 -0.0730 -0.1144  0.1945
 9942W        W12092   6.733   3.047  29.168 -0.0181 -0.1274  0.0390
 9943W        W12093  18.227   3.582  12.512  0.2930 -0.1389  0.2454
 9944W        W12094  22.179   5.044   4.848  0.0063 -0.4875 -0.0517
 9945W        W12095   0.200   2.331  32.751  0.0392 -0.2600  0.0723
 9946W        W12096  15.810   2.379  35.880  0.2593  0.2669  0.1307
 9947W        W12097   4.251   2.744  35.162 -0.3039 -0.1315 -0.2457
 9948W        W12098  16.463   1.108  23.899 -0.1321 -0.1418 -0.0392
 9949W        W12099  13.266   1.165   5.645  0.0655 -0.1477 -0.1335
 9950W        W12100   5.622   1.534  14.119  0.0800  0.0657 -0.0052
 9951W        W12101  22.553   0.680   2.021 -0.1657 -0.0356 -0.1805
 9952W        W12102  21.070   4.555   2.119 -0.0361 -0.0344 -0.1660
 9953W        W12103   8.910   0.704  13.778 -0.3323 -0.0968  0.3145
 9954W        W12104   6.494   4.377  10.880 -0.1377  0.1615 -0.1988
 9955W        W12105  23.823   1.519   2.129  0.2165 -0.1884 -0.2293
 9956W        W12106   1.187   2.886  24.337 -0.1236  0.0439 -0.2958
 9957W        W12107  10.111   2.297  30.184  0.0373  0.4373  0.2471
 9958W        W12108  15.683   0.076   5.515  0.0554 -0.2222 -0.0777
 9959W        W12109  17.564   0.816   7.673 -0.4280  0.0998 -0.0794
 9960W        W12110  16.742   3.636  25.092 -0.2964  0.0938  0.0145
 9961W        W12111  18.775   4.716  33.660  0.5269 -0.1710  0.0950
 9962W        W12112  20.037   5.745  29.680  0.1595  0.0471 -0.1314
 9963W        W12113  10.918   1.425  34.319 -0.1668 -0.0770  0.2587
 9964W        W12114  19.013   1.400  20.148  0.0429  0.1406 -0.1519
 9965W        W12115   3.561   1.899  36.138  0.0720 -0.3060  0.0584
 9966W        W12116  13.348   5.606   7.100  0.0422 -0.1660 -0.0838
 9967W        W12117  14.808   3.820  31.644  0.0798  0.1817  0.1173
 9968W        W12118  16.477   0.692  31.608  0.0144  0.0364 -0.1467
 9969W        W12119  18.049   5.184  22.728  0.1729  0.0002 -0.0320
 9970W        W12120  17.672   4.400  27.698  0.0480 -0.2276  0.2209
 9971W        W12121  13.926   2.395  15.452 -0.4145  0.1559  0.1557
 9972W        W12122  16.539   1.501  10.788  0.2286  0.2454 -0.0507
 9973W        W12123  25.044   1.663  11.699  0.1371  0.0471 -0.0260
 9974W        W12124  22.098   5.755   6.364  0.0432 -0.2337 -0.1483
 9975W        W12125  25.184   0.521  23.148  0.1743  0.2382  0.1547
 9976W        W12126  13.970   2.660  10.433 -0.0665  0.1248 -0.0119
 9977W        W12127  10.183   2.901  31.876 -0.0164 -0.0473 -0.0305
 9978W        W12128  24.850   0.128   0.275  0.0027  0.1062 -0.0179
 9979W        W12129  14.834   4.777  27.143  0.0838  0.1777  0.1793
 9980W        W12130   9.728   5.475  29.660 -0.0271  0.1450  0.2633
 9981W        W12131  16.361   1.509  30.008  0.1684 -0.1008  0.1461
 9982W        W12132  22.170   1.859   0.631  0.1261  0.1479  0.0906
 9983W        W12133  20.288   1.305  29.404 -0.0063 -0.0164 -0.1214
 9984W        W12134  18.519   1.416   4.178 -0.0848  0.4348 -0.0150
 9985W        W12135   4.443   1.641  14.619 -0.1691  0.0119  0.1361
 9986W        W12136   3.888   0.970  21.430  0.2745  0.1042 -0.3024
 9987W        W12137  25.644   3.519  23.955 -0.0569 -0.1711 -0.0641
 9988W        W12138  21.952   3.057  22.021  0.0745 -0.0922 -0.2470
 9989W        W12139   2.861   3.659  24.108  0.0468  0.0337 -0.0765
 9990W        W12140  18.023   3.187   8.018  0.0279 -0.0729  0.0510
 9991W        W12141  11.440   3.473  14.898  0.0689 -0.3537  0.0316
 9992W        W12142  11.031   3.353   5.903 -0.2931 -0.1166 -0.0143
 9993W        W12143  15.558   3.067   6.510  0.0734  0.1219 -0.1048
 9994W        W12144  12.093   0.714   2.332 -0.1258  0.1878  0.1014
 9995W        W12145  12.449   2.401  25.903 -0.0395  0.0626  0.2528
 9996W        W12146   0.601   3.264  11.203  0.1513  0.0064  0.1216
 9997W        W12147   6.194   3.802  13.415 -0.3921 -0.1883  0.0575
 9998W        W12148  17.683   3.297  35.839 -0.2665  0.1046 -0.0404
 9999W        W12149  10.677   5.610  32.044 -0.2279 -0.1387  0.0158
10000W        W12150  24.884   0.194   1.975  0.0256  0.0577  0.3820
10001W        W12151  11.048   0.754  13.373  0.1676 -0.0218  0.3249
10002W        W12152  16.175   3.287  32.887 -0.3394 -0.1663  0.1801
10003W        W12153  26.206   1.215  33.739  0.0447 -0.0908 -0.0327
10004W        W12154  11.396   5.922   9.312  0.1306 -0.0999 -0.1634
10005W        W12155   9.786   5.677   0.327 -0.0316 -0.3464 -0.1872
10006W        W12156  19.315   5.694  31.947  0.2411  0.0980  0.0554
10007W        W12157  23.205   5.444  10.925  0.1792 -0.2828 -0.1164
10008W        W12158  22.298   2.695  14.644  0.1775  0.2958 -0.1699
10009W        W12159   3.149   5.559  13.641 -0.0878 -0.0161 -0.1962
10010W        W12160   0.784   1.987   4.993  0.2832 -0.3691 -0.3093
10011W        W12161  25.307   0.030  23.004 -0.0690 -0.2088  0.1055
10012W        W12162  16.220   2.009  13.443 -0.0365 -0.2341  0.0292
10013W        W12163   1.124   0.501  28.224  0.2361  0.0920  0.0128
10014W        W12164  11.196   0.232  27.247 -0.0482 -0.0500  0.4686
10015W        W12165  23.804   3.098  20.627 -0.2016  0.1994 -0.1764
10016W        W12166   9.493   2.379   4.205  0.2077 -0.0908  0.1242
10017W        W12167   9.997   5.609  25.485 -0.0927 -0.2374 -0.1018
10018W        W12168   5.518   3.898  21.162  0.0934  0.1095  0.2690
10019W        W12169  11.050   3.271   1.975 -0.1316 -0.0213 -0.0458
10020W        W12170  18.392   5.495   0.437  0.1527  0.0746  0.3636
10021W        W12171  14.095   3.785   7.380 -0.0323 -0.3256  0.1836
10022W        W12172   8.106   6.242   3.036 -0.0535  0.2865  0.2521
10023W        W12173  12.963   3.813  24.616 -0.2264 -0.3490  0.3924
10024W        W12174   5.267   1.415   9.606  0.0199 -0.0230  0.5116
10025W        W12175  24.038   4.911  32.852 -0.0535 -0.0123  0.1012
10026W        W12176  18.664   4.128  36.047 -0.0722  0.0980  0.2106
10027W        W12177  15.184   5.235  22.374  0.0741  0.0850 -0.1864
10028W        W12178  17.536   6.606  33.171  0.1024 -0.2704 -0.2520
10029W        W12179  17.065   3.191   1.641 -0.0605  0.2012 -0.2156
10030W        W12180  19.358   0.236   9.580  0.2735 -0.2427 -0.4579
10031W        W12181   5.777   0.587   7.959 -0.4033 -0.1572  0.3441
10032W        W12182  13.307   3.849  30.359  0.0011 -0.2148 -0.0808
10033W        W12183  22.786   6.317   6.934 -0.0748  0.0222  0.0068
10034W        W12184   8.521   1.557   5.898  0.0127  0.1628  0.3159
10035W        W12185  14.995   3.270  26.356  0.0214  0.1600 -0.3947
10036W        W12186  24.228   1.134  22.628  0.1832 -0.0855 -0.1637
10037W        W12187  25.856   0.649  12.563  0.4151 -0.2045  0.1410
10038W        W12188  16.646   4.622  30.736  0.1949  0.1713 -0.0383
10039W        W12189  20.610   5.811  35.388 -0.3199  0.2189  0.1779
10040W        W12190   1.054   1.565   7.053  0.3875 -0.0687  0.0718
10041W        W12191   9.896   1.288   8.445  0.0366 -0.0616 -0.3673
10042W        W12192   6.235   0.219  25.991  0.2379 -0.2109 -0.2470
10043W        W12193  16.192   0.450   3.140  0.0490 -0.1703  0.0796
10044W        W12194  15.064   2.894  12.967 -0.0242  0.1763  0.4042
10045W        W12195  25.397   4.870   9.045 -0.0415 -0.0841 -0.0981
10046W        W12196   0.918   4.610  22.625  0.1301  0.0529  0.0945
10047W        W12197  19.322   4.760  15.074 -0.0892 -0.1376  0.1461
10048W        W12198  14.640   1.584  33.326 -0.1549 -0.0752 -0.0416
10049W        W12199  24.019   0.274   8.088  0.1905  0.1195 -0.3073
10050W        W12200  14.689   2.211  20.380  0.0989 -0.1493 -0.0543
10051W        W12201  22.370   3.317   4.440 -0.2293  0.0646  0.0675
10052W        W12202  13.607   1.236  28.045  0.0061 -0.1457 -0.3871
10053W        W12203  16.718   1.100  27.736 -0.0232 -0.0558 -0.1506
10054W        W12204  13.147   0.473  12.669 -0.1520 -0.1110  0.3153
10055W        W12205  17.030   0.480  14.086 -0.1175 -0.1708 -0.0146
10056W        W12206  14.418   2.993   0.473 -0.1873 -0.1333  0.1181
10057W        W12207  17.396   6.406   6.403 -0.0371 -0.3719 -0.1191
10058W        W12208   9.448   5.571  29.244  0.0169  0.2137  0.1892
10059W        W12209  15.280   3.942   6.956 -0.1295 -0.0489  0.0832
10060W        W12210  17.022   0.634  27.522 -0.0044 -0.0493  0.1695
10061W        W12211  13.473   4.550  12.342  0.1121  0.0405  0.1859
10062W        W12212  11.282   2.233  11.075  0.1348  0.2249  0.3149
10063W        W12213   3.644   2.833   8.171  0.1120  0.0446  0.0621
10064W        W12214   6.655   2.436  10.335  0.1936  0.0765  0.1164
10065W        W12215  10.647   3.723  12.465 -0.1274 -0.0112 -0.0016
10066W        W12216  23.990   6.560   6.152  0.1770 -0.3991  0.0864
10067W        W12217  18.332   3.831  33.684  0.2968 -0.1393 -0.0985
10068W        W12218  15.814   0.442  16.212  0.1131 -0.1407  0.1793
10069W        W12219   9.869   6.328  26.204 -0.0543 -0.2919 -0.0495
10070W        W12220  16.915   2.489   3.247  0.5047  0.1914  0.1228
10071W        W12221   2.700   2.166  26.908  0.0306 -0.1517 -0.0619
10072W        W12222  21.454   1.970  32.641  0.0540  0.3207  0.1356
10073W        W12223  14.906   1.917  12.003 -0.1829 -0.2817 -0.2127
10074W        W12224  21.666   0.127  26.083 -0.4193 -0.1845 -0.3326
10075W        W12225   3.558   3.809  10.006 -0.0461  0.0900  0.0002
10076W        W12226   7.357   4.599   9.762  0.0452  0.0810 -0.0179
10077W        W12227  22.025   4.831   2.333 -0.0928 -0.0413 -0.1418
10078W        W12228  13.543   0.869  35.064  0.2117 -0.2127 -0.1159
10079W        W12229   3.573   2.047   7.538  0.2252  0.0688 -0.0477
10080W        W12230  11.288   2.862  26.321  0.0769  0.0091  0.0250
10081W        W12231   6.273   1.997  25.102 -0.0673 -0.5418 -0.0337
10082W        W12232  14.999   3.824  26.541  0.0677  0.0439 -0.1909
10083W        W12233   8.497   6.349  11.873  0.0742  0.2568 -0.0215
10084W        W12234  22.567   3.646  27.191 -0.2586 -0.0652  0.1801
10085W        W12235   2.602   4.185  13.910 -0.4958 -0.0870 -0.0054
10086W        W12236  10.769   3.842   0.655  0.0038 -0.0146 -0.1018
10087W        W12237  24.210   3.321  27.068  0.1455  0.2833  0.0127
10088W        W12238   6.069   3.214   6.390 -0.1507 -0.1692  0.0532
10089W        W12239   3.007   2.031  34.467  0.4546  0.1210  0.2965
10090W        W12240   0.757   1.494   7.737 -0.1819  0.2354 -0.2066
10091W        W12241  15.769   3.074   2.846 -0.3110  0.0661 -0.0894
10092W        W12242  23.472   6.165   3.979  0.1998  0.1724 -0.1505
10093W        W12243  24.937   1.651  23.896 -0.2362  0.0244 -0.0828
10094W        W12244   0.460   0.288   0.285 -0.1206 -0.1522  0.0737
10095W        W12245   6.034   4.107  29.627 -0.3154 -0.0667  0.1531
10096W        W12246   9.342   5.802   1.631 -0.0314 -0.1428  0.0336
10097W        W12247   1.367   2.518  22.189  0.1791 -0.0535  0.3356
10098W        W12248  12.682   2.143  30.336  0.1444  0.1246 -0.3930
10099W        W12249  19.311   5.487   0.061  0.2481 -0.0418  0.2357
10100W        W12250  17.998   5.058  26.753  0.2833 -0.0874 -0.1062
10101W        W12251  25.345   6.438  15.070  0.1142 -0.0924 -0.2164
10102W        W12252   2.432   1.479   8.792 -0.0549 -0.1627  0.0338
10103W        W12253  19.641   4.213  10.653  0.0505  0.0023 -0.1280
10104W        W12254  13.150   4.025  35.873  0.1167  0.2362 -0.1213
10105W        W12255   6.098   0.420  30.789 -0.1156  0.1457 -0.2458
10106W        W12256  25.562   5.967  10.223  0.0335  0.0261  0.0324
10107W        W12257  15.287   3.911  24.146 -0.2599 -0.1614  0.0864
10108W        W12258  25.858   4.318  20.811 -0.2557 -0.0845  0.5159
10109W        W12259   9.219   2.661  27.330 -0.0850  0.2475  0.0646
10110W        W12260   8.624   1.560   6.598  0.1722  0.1034  0.2289
10111W        W12261   8.270   1.524  29.075 -0.0802  0.1051  0.0513
10112W        W12262  12.600   2.296   8.998  0.0092 -0.2735  0.1012
10113W        W12263  23.144   0.853   6.643 -0.2176  0.0630  0.0418
10114W        W12264  11.217   4.770   8.385 -0.2067 -0.2448 -0.0933
10115W        W12265  22.643   1.374   4.786  0.0616  0.0254  0.2634
10116W        W12266  17.194   5.666  26.608 -0.1016 -0.3502 -0.1057
10117W        W12267  24.209   2.830  10.488  0.0204  0.1359 -0.0859
10118W        W12268  10.148   5.830  14.084 -0.2829 -0.2102  0.0489
10119W        W12269   3.397   3.879  34.595 -0.1135  0.0698  0.2489
10120W        W12270  25.231   4.424  21.904  0.0566  0.1220 -0.1506
10121W        W12271  19.621   6.364   8.204  0.2616 -0.3055  0.0502
10122W        W12272   7.948   1.491  14.908  0.1897 -0.2367  0.3880
10123W        W12273  12.937   1.311   7.921  0.0477  0.1454 -0.0126
10124W        W12274   5.434   3.468   8.911  0.0598 -0.0710  0.3739
10125W        W12275  11.800   5.182   3.679  0.1364 -0.0243  0.2759
10126W        W12276  26.377   5.465  32.413 -0.4879 -0.0285 -0.1813
10127W        W12277  17.822   5.189  24.843 -0.1313 -0.1083  0.0219
10128W        W12278   9.364   0.929   4.373 -0.2878  0.0231  0.0922
10129W        W12279  17.652   6.276  11.579  0.0142 -0.0657  0.3982
10130W        W12280  13.858   5.682  28.720 -0.1033  0.0868  0.1530
10131W        W12281   2.893   0.988  22.599  0.2030 -0.1895 -0.1856
10132W        W12282  22.675   2.517  12.763 -0.0425  0.2300 -0.0347
10133W        W12283   8.674   3.179  34.530  0.1549  0.1066  0.2851
10134W        W12284  23.235   5.357  35.970  0.0366 -0.0318  0.2610
10135W        W12285   1.011   0.332  13.530 -0.1207  0.0023 -0.3884
10136W        W12286  11.930   3.963   9.224  0.3370  0.0197 -0.2837
10137W        W12287  17.552   2.965   0.177 -0.1190 -0.1909  0.2151
10138W        W12288  13.050   4.530  15.116 -0.1706 -0.0586  0.2376
10139W        W12289  17.449   4.611  29.286 -0.2235  0.4303 -0.0608
10140W        W12290   8.689   6.572  23.972  0.0639  0.1329  0.0333
10141W        W12291   2.195   5.563  35.354  0.2320  0.1037  0.2593
10142W        W12292  23.461   3.054   2.483  0.0676 -0.2030 -0.2178
10143W        W12293   8.670   6.247  27.962  0.4446  0.0480 -0.0062
10144W        W12294  16.325   4.341  29.545 -0.0618 -0.2506 -0.0342
10145W        W12295   8.685   5.130  28.005  0.2526  0.1143 -0.0324
10146W        W12296  20.725   5.688  30.426 -0.0110 -0.1331  0.0899
10147W        W12297  22.476   3.950   5.375 -0.0730 -0.0621 -0.1868
10148W        W12298   3.255   3.951  33.589  0.1044 -0.2877  0.0165
10149W        W12299  18.718   0.581  29.605 -0.1650  0.0558 -0.0740
10150W        W12300  21.459   2.525  32.792 -0.0015  0.0400  0.1362
10151W        W12301  17.442   6.300  10.805 -0.0277 -0.2518 -0.1850
10152W        W12302   6.135   1.767   1.110  0.1334 -0.0005 -0.2415
10153W        W12303  22.725   3.390  26.527  0.0042  0.3471 -0.2620
10154W        W12304   5.827   3.976  31.243  0.0511 -0.2350  0.0625
10155W        W12305  14.782   4.887  28.225 -0.1119  0.0592 -0.1116
10156W        W12306   5.275   4.187  12.948  0.0220 -0.0648  0.1444
10157W        W12307  12.984   3.927   0.533 -0.1012 -0.1980 -0.0952
10158W        W12308  24.453   0.174   2.226  0.1066 -0.1054 -0.0756
10159W        W12309  26.161   6.036  11.834  0.1670  0.0530  0.1590
10160W        W12310  19.235   4.415  27.569 -0.1632 -0.4408  0.3220
10161W        W12311  14.519   4.322  13.353  0.1699 -0.0482 -0.1585
10162W        W12312  13.850   0.246   4.735  0.2615  0.3686  0.0611
10163W        W12313  15.253   0.951   0.894  0.1086 -0.0556  0.1513
10164W        W12314   7.747   3.147  25.756 -0.1125  0.0905  0.2787
10165W        W12315  25.882   6.192   6.618 -0.0951 -0.0972  0.4196
10166W        W12316  12.313   4.769  33.251 -0.0120  0.0266  0.0765
10167W        W12317  21.823   0.770   5.816 -0.2184 -0.0511  0.0002
10168W        W12318  16.525   0.117  28.046 -0.2036  0.0515  0.0055
10169W        W12319   7.319   3.126  25.531 -0.2586  0.0687  0.0326
10170W        W12320  23.505   0.266  10.972  0.2584 -0.2343 -0.0027
10171W        W12321   8.296   0.126  21.762  0.2881  0.4575 -0.2841
10172W        W12322   0.645   3.126  32.674  0.3718  0.0398  0.1087
10173W        W12323   7.707   0.795   6.538 -0.0724  0.2904 -0.0179
10174W        W12324   0.407   5.865  33.827  0.2185 -0.2028 -0.0638
10175W        W12325   4.853   0.594  13.601  0.0530 -0.0100  0.1752
10176W        W12326   7.002   5.021  14.459  0.0108  0.3154 -0.3917
10177W        W12327  11.131   6.186  36.019 -0.0035 -0.0033  0.2007
10178W        W12328   6.119   4.710  26.505  0.1596 -0.0027  0.1811
10179W        W12329  22.106   2.230  22.072 -0.0927 -0.1076  0.4410
10180W        W12330  18.550   0.065  24.080  0.0402  0.0404 -0.1060
10181W        W12331   8.810   1.856  24.144  0.0542 -0.2292  0.1301
10182W        W12332  11.177   3.855  31.262  0.4347 -0.2034  0.1788
10183W        W12333   0.401   5.280  32.579  0.0058  0.3558  0.3345
10184W        W12334   0.499   2.619  30.542  0.1701  0.1868 -0.1316
10185W        W12335  14.191   6.516  26.006  0.1396  0.0848  0.1439
10186W        W12336  13.054   1.132  10.976 -0.0137 -0.1387 -0.2168
10187W        W12337   5.791   5.384  31.581  0.3166 -0.0782  0.0078
10188W        W12338  13.040   2.465  25.686  0.1058  0.2659  0.1263
10189W        W12339  15.451   6.210  11.427 -0.2874  0.0547  0.2358
10190W        W12340  11.545   0.472  31.241  0.3138  0.0625  0.0285
10191W        W12341  13.267   4.733  33.437 -0.1209 -0.2599 -0.0625
10192W        W12342  13.480   4.942  35.565  0.1820 -0.1744  0.1454
10193W        W12343  22.245   6.093  28.266 -0.0376  0.2051  0.1147
10194W        W12344   4.139   2.725  23.248 -0.0257 -0.0390  0.0197
10195W        W12345  12.114   4.061  33.132  0.3197  0.0619 -0.2603
10196W        W12346  12.278   3.620   7.218 -0.1466  0.0270 -0.1332
10197W        W12347  20.136   1.915  27.995  0.1094  0.0521 -0.0647
10198W        W12348  17.363   2.768  12.373  0.1897 -0.4434 -0.2387
10199W        W12349  19.322   3.853  15.483 -0.0133 -0.1230  0.2447
10200W        W12350   5.334   3.955   3.172 -0.0857  0.0200 -0.1805
10201W        W12351  25.955   2.924  29.478 -0.4283 -0.0124  0.1648
10202W        W12352   9.872   5.730  14.859  0.0793  0.1024 -0.1048
10203W        W12353   7.088   2.983  10.955  0.1372  0.1125  0.1946
10204W        W12354  16.157   3.707  34.203  0.0183  0.1291 -0.0416
10205W        W12355   1.185   1.804  31.417  0.1118 -0.0238  0.0043
10206W        W12356   8.340   2.470  14.265  0.0482 -0.2783 -0.4919
10207W        W12357   4.329   3.002  32.674  0.1127  0.0006 -0.1525
10208W        W12358  21.995   3.106   3.481  0.0715  0.0780 -0.0570
10209W        W12359  14.341   0.751  25.708 -0.2363 -0.2736  0.1119
10210W        W12360  16.527   2.702  29.447 -0.0749  0.0933 -0.4608
10211W        W12361  22.549   5.525  30.177  0.0541 -0.1938 -0.0523
10212W        W12362   7.367   3.431  34.932  0.0041 -0.1520  0.0258
10213W        W12363  23.548   3.971  24.846  0.1142 -0.2189 -0.0840
10214W        W12364   4.142   3.888   4.458  0.1201 -0.1015 -0.1068
10215W        W12365   5.439   4.284  25.210  0.1164 -0.2060  0.1231
10216W        W12366   1.042   3.896  34.579 -0.2579  0.0814  0.0557
10217W        W12367  15.219   6.214  27.246  0.2057  0.1095 -0.3315
10218W        W12368  15.572   5.590  26.643 -0.2641 -0.0850  0.0809
10219W        W12369  23.359   2.246  22.180 -0.0538  0.1824 -0.0232
10220W        W12370   4.981   1.495  35.726  0.1060 -0.2939  0.1660
10221W        W12371  21.584   1.517   7.607  0.0015 -0.1513 -0.1316
10222W        W12372  11.603   1.744  13.933  0.1395 -0.0763  0.2422
10223W        W12373  18.209   2.085   0.200 -0.2062 -0.1591  0.2232
10224W        W12374   8.277   2.283  28.270 -0.2060  0.2584  0.1913
10225W        W12375  17.562   2.642  28.693 -0.2688 -0.0002 -0.1587
10226W        W12376  23.250   5.382  15.976 -0.1042 -0.2494  0.0867
10227W        W12377  18.460   4.410  34.539 -0.1206  0.3657 -0.0519
10228W        W12378   5.145   4.905  23.283 -0.1271 -0.1245 -0.0540
10229W        W12379  17.568   1.562  23.765 -0.0888 -0.1345  0.2413
10230W        W12380  14.244   5.129  22.062 -0.3082  0.0031 -0.1469
10231W        W12381   1.012   3.847   8.022  0.0838  0.2537 -0.2753
10232W        W12382   8.217   4.800  32.341 -0.0716  0.0645  0.2028
10233W        W12383  22.261   2.256  15.192  0.3374 -0.2133 -0.0272
10234W        W12384  22.628   4.737  22.702  0.2152  0.2158  0.1922
10235W        W12385  22.165   0.686  29.546 -0.0478  0.1716 -0.0305
10236W        W12386  23.678   3.730   3.545 -0.2180  0.0818  0.1445
10237W        W12387  23.459   5.155  11.276 -0.0932 -0.0560  0.1252
10238W        W12388  12.293   0.022   4.685  0.0241  0.0959 -0.0996
10239W        W12389   4.296   0.735   9.451 -0.2005 -0.1668  0.0185
10240W        W12390  20.109   5.781  33.969  0.0607  0.2459  0.2865
10241W        W12391   7.975   2.150   0.305 -0.0721 -0.0704  0.0234
10242W        W12392  25.848   4.899  14.722  0.1849 -0.2125 -0.3945
10243W        W12393   5.363   5.133   4.664  0.2614 -0.1398  0.0304
10244W        W12394   0.651   0.461   8.774  0.0250  0.2465  0.0646
10245W        W12395   2.580   4.942  25.831 -0.0314  0.0881 -0.1576
10246W        W12396  17.193   5.681   8.446  0.0625 -0.3943  0.1583
10247W        W12397  12.806   4.078  27.429 -0.3008 -0.1747  0.0990
10248W        W12398  15.769   4.347  27.724  0.0757 -0.1636 -0.2744
10249W        W12399  12.175   5.296  11.223  0.3709 -0.0618  0.1829
10250W        W12400   5.234   6.031  33.737 -0.0567 -0.0641  0.2054
10251W        W12401  10.516   1.012  26.462 -0.0719  0.1358  0.1228
10252W        W12402  26.054   5.284  34.946  0.0251 -0.4043 -0.0054
10253W        W12403  21.672   1.053  26.740 -0.3569  0.1525 -0.0090
10254W        W12404  15.156   5.367   0.801  0.1866  0.0838 -0.0971
10255W        W12405   3.110   1.048  15.162 -0.0730  0.0141 -0.0369
10256W        W12406  11.674   2.734  22.796 -0.5798 -0.3229  0.2923
10257W        W12407  11.676   5.106  28.935 -0.0401  0.0263  0.0308
10258W        W12408  23.985   2.711  23.188 -0.1794  0.2406  0.2583
10259W        W12409  24.585   1.664  31.231 -0.1091  0.2278  0.1164
10260W        W12410   7.501   5.415  29.839  0.0676 -0.2390 -0.1008
10261W        W12411  19.201   1.000  13.406 -0.1344  0.1473 -0.1971
10262W        W12412   7.565   4.203  14.532 -0.1086 -0.0664 -0.2476
10263W        W12413  16.373   3.056   1.145  0.1140  0.4515 -0.1020
10264W        W12414   0.091   1.710   9.200  0.0711 -0.0295 -0.0378
10265W        W12415  13.673   5.483   2.931 -0.1959 -0.0453 -0.3825
10266W        W12416  19.120   4.934  28.255 -0.0395  0.2701 -0.0756
10267W        W12417  10.705   3.293   5.534 -0.0183  0.0089  0.2627
10268W        W12418  12.393   4.009  35.205  0.0421 -0.0180  0.3769
10269W        W12419  13.395   2.731   9.035 -0.1863 -0.1421  0.4237
10270W        W12420  10.071   6.284  32.202  0.2840  0.0865  0.0853
10271W        W12421  15.808   0.209  29.367  0.1084 -0.0172  0.2433
10272W        W12422  10.603   4.309   7.768  0.3278  0.0502 -0.0630
10273W        W12423   6.616   1.121   7.968  0.2305 -0.0720  0.1358
10274W        W12424  19.330   2.716   5.584  0.1188 -0.1445  0.0269
10275W        W12425  13.287   3.335  15.684 -0.1646  0.0269  0.1782
10276W        W12426   1.751   2.388  35.140 -0.0074  0.1027 -0.1527
10277W        W12427  10.277   5.286   2.032 -0.2921  0.2164  0.1090
10278W        W12428  18.412   2.096   7.175  0.2443  0.0148 -0.0101
10279W        W12429   9.030   3.211  32.539  0.0436 -0.0090  0.0519
10280W        W12430   2.812   5.063   4.775  0.1411 -0.2341  0.0378
10281W        W12431  13.627   0.434  10.044  0.4224  0.0488  0.1918
10282W        W12432   4.581   3.043   4.908  0.0024 -0.0964  0.0815
10283W        W12433   9.783   6.327   6.084  0.1714 -0.1011  0.0936
10284W        W12434  21.419   6.573   4.331 -0.2628  0.0263 -0.2869
10285W        W12435   0.771   1.390  22.661  0.0582 -0.0446 -0.1857
10286W        W12436   4.895   5.595  27.619 -0.2749  0.0105  0.0043
10287W        W12437  15.452   3.234  23.478 -0.0350  0.1224 -0.1329
10288W        W12438   1.916   0.537  28.619  0.1197  0.1821 -0.2731
10289W        W12439  13.640   4.452   1.606  0.1944 -0.0861 -0.1155
10290W        W12440   7.381   5.542  28.738 -0.0714 -0.0832  0.3105
10291W        W12441  11.041   4.707   6.485  0.2324 -0.1110 -0.0893
10292W        W12442   0.167   2.466  33.688 -0.1499  0.1121  0.1670
10293W        W12443  23.454   5.702   2.404 -0.0312  0.0198 -0.0838
10294W        W12444  22.013   1.630  24.057 -0.0418  0.2423 -0.3187
10295W        W12445   3.216   5.187  29.678  0.0542 -0.0998  0.0987
10296W        W12446   0.991   4.890   4.436 -0.2091 -0.1879 -0.0190
10297W        W12447  21.077   0.142   7.679 -0.1122  0.0739 -0.0776
10298W        W12448  19.926   0.466  27.321 -0.1435 -0.0678  0.0852
10299W        W12449  12.963   4.070  14.045 -0.0846  0.0056  0.2080
10300W        W12450  17.420   5.410  33.042  0.0242 -0.2424 -0.1532
10301W        W12451  24.232   4.592   9.737  0.0977  0.0575 -0.0437
10302W        W12452   8.512   3.733  12.017  0.1050  0.1540 -0.2188
10303W        W12453  20.236   0.145   9.471  0.1444 -0.2909  0.3260
10304W        W12454  10.749   3.890   1.242 -0.0500  0.1394 -0.1204
10305W        W12455  13.352   3.985  14.360 -0.0643 -0.1249  0.2308
10306W        W12456   7.099   0.235  34.678  0.1079  0.0817 -0.0030
10307W        W12457   5.303   4.272   2.057  0.1601 -0.3578  0.0721
10308W        W12458  25.279   2.889  25.597  0.3247  0.3499 -0.1169
10309W        W12459  22.428   3.135  20.777 -0.1061 -0.2504 -0.2385
10310W        W12460  24.183   4.812  27.855 -0.3317  0.1176 -0.1625
10311W        W12461  12.438   0.355  31.776  0.0643  0.0941  0.0108
10312W        W12462  19.878   6.421  32.167 -0.2127  0.1522 -0.1862
10313W        W12463   2.862   3.579  12.557  0.0919  0.1321  0.0406
10314W        W12464   7.720   2.901  33.176  0.2826 -0.1413 -0.0154
10315W        W12465  23.621   0.085  27.985  0.0078  0.2749  0.1245
10316W        W12466  14.373   0.764  13.292  0.1703  0.0346  0.0252
10317W        W12467   2.270   2.513  12.103  0.1103  0.0255 -0.1126
10318W        W12468   9.694   4.852  35.885 -0.0602  0.2035  0.1833
10319W        W12469  21.911   4.191  29.283  0.1029  0.3101  0.2918
10320W        W12470   4.901   2.510   2.241  0.2767  0.3702 -0.0951
10321W        W12471  26.358   4.775  26.175  0.0495 -0.1073  0.2004
10322W        W12472  22.381   6.529  32.257  0.1318 -0.0426 -0.1766
10323W        W12473   4.202   2.324  12.967  0.0020 -0.0542  0.0552
10324W        W12474   3.972   1.108  12.406 -0.2919 -0.1775  0.2240
10325W        W12475  16.723   2.171  15.737 -0.1810  0.3310  0.2794
10326W        W12476  17.262   1.162  23.237 -0.0479  0.1958 -0.0970
10327W        W12477   0.513   3.135  35.714  0.0265 -0.1464  0.1321
10328W        W12478   5.484   0.161  29.944 -0.0951 -0.0893 -0.0565
10329W        W12479  26.032   5.649  21.621  0.3145 -0.0618  0.3422
10330W        W12480  14.571   2.105  12.466  0.2162  0.2149  0.1587
10331W        W12481  13.402   5.053  11.572 -0.1664 -0.0197 -0.0386
10332W        W12482  24.047   0.429  28.917  0.0631  0.1162 -0.1398
10333W        W12483   9.565   4.860   1.854  0.2836 -0.5379  0.0396
10334W        W12484   4.719   5.348   5.150  0.1530 -0.1242  0.2314
10335W        W12485   8.384   5.839  26.317  0.1361  0.2247  0.0259
10336W        W12486   3.679   3.571  22.890 -0.0562 -0.0704 -0.0612
10337W        W12487  22.130   0.368  32.240 -0.3001 -0.0734 -0.0079
10338W        W12488  26.293   5.841  14.446  0.3370 -0.2326  0.4496
10339W        W12489  15.363   5.648  13.734 -0.2829 -0.0463  0.3500
10340W        W12490  14.812   4.352  15.022  0.2866 -0.3993 -0.1053
10341W        W12491  20.754   0.603   4.126  0.1934 -0.0558  0.2564
10342W        W12492  19.055   5.371   1.620 -0.2841  0.2189 -0.1563
10343W        W12493   0.538   5.176  13.278 -0.2337  0.1469 -0.2277
10344W        W12494  19.755   4.013  32.823 -0.1357 -0.0680  0.3482
10345W        W12495  23.914   1.956  24.485 -0.0203 -0.0042 -0.0567
10346W        W12496   7.903   0.013  24.718 -0.0462 -0.0501  0.3364
10347W        W12497   0.854   5.052  26.464 -0.1083  0.0638  0.1215
10348W        W12498  14.172   4.327  34.170  0.2708  0.0260 -0.2523
10349W        W12499   3.216   4.584  14.974 -0.1031 -0.1878  0.1457
10350W        W12500   1.853   5.275   4.222  0.0003 -0.0296  0.1306
10351W        W12501   2.296   5.563   9.080 -0.1076  0.0159  0.3523
10352W        W12502   1.925   3.803  35.020 -0.1087 -0.0018  0.0847
10353W        W12503  26.299   2.143  21.570  0.0577  0.1048  0.0952
10354W        W12504  19.500   6.394  12.941 -0.0695  0.0494 -0.2837
10355W        W12505  10.477   2.780  22.893  0.0984 -0.0344  0.0729
10356W        W12506   1.866   6.313  26.061 -0.0445  0.0474 -0.1126
10357W        W12507   3.414   5.033   6.342  0.1195  0.1098  0.0311
10358W        W12508  14.617   4.233   4.029 -0.2091 -0.2477  0.0758
10359W        W12509  10.447   2.358   0.182 -0.3236  0.0997 -0.2155
10360W        W12510  17.929   2.303  10.806 -0.1240  0.1016 -0.0069
10361W        W12511   8.077   3.374  34.613  0.0709 -0.1104 -0.1145
10362W        W12512   0.613   5.297   3.964 -0.0993 -0.2293  0.0102
10363W        W12513  15.654   3.671  24.368  0.1227  0.1243 -0.1618
10364W        W12514  25.658   4.252  23.320  0.2739 -0.4219 -0.2104
10365W        W12515  26.057   4.080  11.604 -0.0734  0.1238  0.2210
10366W        W12516   9.091   5.856  33.837  0.4826 -0.2109 -0.2853
10367W        W12517  25.239   0.475   8.145 -0.1224 -0.1684  0.3318
10368W        W12518   9.379   3.621  27.343 -0.0139 -0.0518 -0.0677
10369W        W12519  23.494   0.683  26.808 -0.1689 -0.0546 -0.0832
10370W        W12520   8.317   1.425   0.726  0.0731  0.1030  0.1656
10371W        W12521   5.604   6.054   8.887 -0.3208  0.1417 -0.2845
10372W        W12522  24.608   1.493  13.250  0.1703 -0.1561  0.1716
10373W        W12523  23.442   5.800   5.935 -0.1973 -0.0020 -0.0221
10374W        W12524  19.533   3.050  33.023 -0.2592  0.0209 -0.2304
10375W        W12525  16.246   2.179  15.348 -0.0000  0.2655 -0.0003
10376W        W12526  13.419   0.903  30.832  0.1812  0.0976  0.0472
10377W        W12527   1.602   4.771   1.650  0.4044  0.1652  0.0008
10378W        W12528  18.437   3.978  12.725  0.1923  0.1749  0.0250
10379W        W12529  21.939   5.042  27.696 -0.1931  0.0641 -0.0694
10380W        W12530   5.725   4.414   5.042  0.5500 -0.0036  0.1084
10381W        W12531  17.499   4.404  11.565 -0.3485  0.0942  0.1310
10382W        W12532  19.499   1.060   4.182  0.0603  0.2996 -0.2346
10383W        W12533   2.228   0.284  24.378 -0.0988  0.2872  0.2989
10384W        W12534  20.554   1.303   2.217  0.0318  0.1952  0.3405
10385W        W12535  20.075   6.494  14.496 -0.1368 -0.2235 -0.1381
10386W        W12536   1.539   3.131  10.702  0.2293 -0.1169  0.0597
10387W        W12537   3.669   0.934   4.662 -0.1166  0.0671 -0.0315
10388W        W12538   3.162   1.464  14.901  0.3828  0.0698  0.3364
10389W        W12539  23.847   4.832  21.680 -0.1583  0.1859  0.0215
10390W        W12540   8.725   0.276  25.231 -0.2188  0.0421 -0.0455
10391W        W12541   9.915   0.097  12.868 -0.1805 -0.0764 -0.1039
10392W        W12542  16.442   6.032  22.818 -0.0272 -0.0894  0.0502
10393W        W12543  19.942   0.961  29.091  0.0271  0.2050 -0.2212
10394W        W12544  12.826   5.693   7.894  0.1986  0.0558  0.0132
10395W        W12545   9.202   5.996   1.165  0.2960  0.0185 -0.2220
10396W        W12546  12.076   4.032  13.855  0.0237 -0.4166 -0.1022
10397W        W12547  13.702   2.796  13.786 -0.0491 -0.1342  0.1941
10398W        W12548  19.006   6.212   1.397 -0.0042 -0.0300  0.0786
10399W        W12549   9.438   0.821  26.664 -0.1957 -0.1226 -0.5027
10400W        W12550  25.442   3.705  10.985  0.0654  0.0321 -0.0783
10401W        W12551  20.569   6.126  27.044 -0.0044  0.0150  0.2259
10402W        W12552  17.892   2.108   7.301 -0.1766 -0.1551 -0.0164
10403W        W12553   0.216   5.560  24.940 -0.1357  0.0369  0.1031
10404W        W12554   7.152   0.782  12.964 -0.1958  0.1448  0.1846
10405W        W12555   6.184   4.925   8.001  0.0620  0.2655 -0.1718
10406W        W12556   8.978   0.938   7.132 -0.1057 -0.2541 -0.5416
10407W        W12557  24.828   5.387  35.160  0.1634  0.2644 -0.0543
10408W        W12558  19.518   2.533  25.123  0.0508 -0.1203  0.2321
10409W        W12559   1.730   4.257  21.149  0.2415  0.1543  0.0978
10410W        W12560  18.822   2.630  22.039  0.0515 -0.1535  0.0327
10411W        W12561   8.517   3.622  24.895 -0.0269 -0.0618 -0.0006
10412W        W12562  18.609   2.505  29.001 -0.1728 -0.1130  0.1265
10413W        W12563  23.157   1.684  11.274 -0.0519 -0.1300 -0.0952
10414W        W12564  10.030   0.971  13.476  0.0616 -0.0523 -0.0394
10415W        W12565  21.460   3.206  21.743 -0.3148  0.0731  0.0125
10416W        W12566   0.192   6.357  27.932  0.0271  0.2696  0.1521
10417W        W12567  16.108   2.042   3.118 -0.0025 -0.0870 -0.1311
10418W        W12568  25.786   3.054   0.972 -0.2468 -0.1712 -0.0340
10419W        W12569  18.386   1.056   7.090  0.0352 -0.2840 -0.1235
10420W        W12570   9.825   3.932  31.118 -0.0166 -0.1917  0.0030
10421W        W12571   1.387   5.293  21.035 -0.0543  0.0658  0.2069
10422W        W12572   2.085   2.184  21.639  0.1297  0.0216  0.0536
10423W        W12573  20.632   3.416   2.354 -0.1564  0.0059 -0.1375
10424W        W12574   6.977   4.984  25.713 -0.0808  0.1815 -0.3395
10425W        W12575  21.532   3.227  30.721 -0.0734 -0.0470  0.1068
10426W        W12576  14.799   2.498   9.109 -0.2425 -0.0421 -0.0326
10427W        W12577  11.074   3.564  22.141 -0.1423  0.1430 -0.1049
10428W        W12578  26.070   1.835  15.393  0.2975 -0.0611 -0.0250
10429W        W12579  20.910   4.211  35.374  0.1151 -0.0825  0.1232
10430W        W12580   9.688   3.351  35.157  0.3605 -0.1206  0.0301
10431W        W12581  26.368   2.558   5.623 -0.0276 -0.1416 -0.2580
10432W        W12582  24.531   5.480   1.730  0.1292  0.0126  0.0657
10433W        W12583  15.053   3.790  30.401  0.0163 -0.3240 -0.1787
10434W        W12584   4.470   1.474  23.920 -0.2646 -0.0189  0.0253
10435W        W12585   5.388   2.195   2.220  0.1853  0.0730  0.2464
10436W        W12586   7.986   4.509  28.400  0.2862  0.3501 -0.1015
10437W        W12587  21.663   3.308  12.604  0.0185 -0.0928 -0.2226
10438W        W12588  11.654   2.701   4.331  0.0410 -0.0916  0.0172
10439W        W12589  25.503   1.654  27.973 -0.0863  0.2157  0.1712
10440W        W12590  10.045   2.647   0.046  0.4274 -0.0236  0.0408
10441W        W12591  19.336   2.922   3.865  0.2162  0.1642  0.0399
10442W        W12592   4.522   2.159   3.182  0.0573 -0.1113 -0.0198
10443W        W12593  12.354   5.485  31.617 -0.0366  0.5920 -0.2030
10444W        W12594   4.038   6.498   3.662  0.1639  0.0525 -0.0279
10445W        W12595   4.528   5.757  31.588  0.0326  0.1945 -0.0512
10446W        W12596  26.006   6.477   5.264 -0.0344  0.3004  0.2788
10447W        W12597  18.943   6.243  30.989  0.1807  0.1496 -0.1908
10448W        W12598  12.664   1.659   6.198 -0.1425  0.0500  0.1555
10449W        W12599   0.938   2.774  11.802  0.0439  0.2427  0.1007
10450W        W12600  13.110   0.131  26.144  0.2116  0.0078  0.1210
10451W        W12601   5.205   2.731  35.193 -0.2296  0.2477 -0.1462
10452W        W12602  16.209   2.452   7.669  0.0124  0.0986  0.1541
10453W        W12603  20.300   6.443  24.224 -0.0283 -0.1030  0.0729
10454W        W12604   9.636   3.123  30.429 -0.1535  0.1885  0.0255
10455W        W12605  11.701   6.150  28.628 -0.0198 -0.0013  0.0102
10456W        W12606  11.050   4.490  32.181 -0.0379  0.1011 -0.0733
10457W        W12607  15.747   0.271   7.419  0.0198 -0.0058 -0.0459
10458W        W12608  16.662   2.174  11.280 -0.0378  0.3155 -0.1927
10459W        W12609  24.298   2.805  11.484 -0.1573 -0.1088 -0.0497
10460W        W12610   6.978   1.630   2.656 -0.0525 -0.3705 -0.0249
10461W        W12611  10.853   1.584  27.032  0.0275 -0.0096  0.1840
10462W        W12612   9.585   0.244  29.557  0.0856 -0.1757 -0.1765
10463W        W12613  23.963   5.080   6.412  0.1996  0.1522 -0.0322
10464W        W12614   6.715   2.258  14.080  0.2272  0.0015  0.3238
10465W        W12615  15.570   1.636  29.141 -0.0566  0.3388 -0.4195
10466W        W12616  18.728   1.524  12.492 -0.1218 -0.2376 -0.0270
10467W        W12617  23.012   6.391  27.651  0.3513 -0.1023 -0.1029
10468W        W12618   5.571   5.362  11.709 -0.3001  0.0418 -0.1518
10469W        W12619  14.420   4.668   2.086  0.0481 -0.0204 -0.1738
10470W        W12620  16.220   2.026   4.586  0.0955  0.0442  0.0750
10471W        W12621   6.961   2.765  27.830  0.2398 -0.1846 -0.3119
10472W        W12622  23.464   2.221  30.118 -0.1251 -0.1110  0.1068
10473W        W12623   0.866   2.756  29.751 -0.0211 -0.0353  0.1860
10474W        W12624  12.758   2.355  12.088  0.0689 -0.0035  0.0436
10475W        W12625  21.934   0.900  25.411  0.2233 -0.0104  0.0829
10476W        W12626  16.102   1.978  36.026  0.0813 -0.0059  0.0788
10477W        W12627  24.451   1.043  34.305  0.3071 -0.1602 -0.1316
10478W        W12628   9.042   6.020   3.422 -0.0219 -0.2033 -0.1693
10479W        W12629  20.316   4.766  26.255  0.1348 -0.0106 -0.0910
10480W        W12630   4.758   0.093  21.686 -0.1014 -0.1943 -0.1752
10481W        W12631  14.656   6.448   7.342  0.3856  0.1342  0.1830
10482W        W12632  16.208   2.769  12.884  0.1391 -0.1310 -0.1431
10483W        W12633   3.240   6.154   6.520  0.2283 -0.3150  0.0312
10484W        W12634  18.566   4.531  14.037 -0.1011  0.1985  0.0244
10485W        W12635   9.533   3.401  25.723 -0.0940 -0.0904  0.3768
10486W        W12636  15.896   3.745  26.629 -0.0080 -0.1496  0.0367
10487W        W12637  23.958   6.319  14.210 -0.1012  0.2362 -0.0722
10488W        W12638   5.159   4.173  20.620  0.0079  0.0975  0.5161
10489W        W12639   8.944   0.016   5.221 -0.1320  0.1621 -0.1032
10490W        W12640  22.087   5.655  31.248  0.0755  0.0481 -0.0707
10491W        W12641   0.839   2.841  10.981  0.1184  0.0469  0.3869
10492W        W12642   9.781   3.409  21.388  0.0143  0.0941  0.0734
10493W        W12643   2.587   3.170   5.202 -0.0814 -0.1183  0.2519
10494W        W12644  12.512   6.478  32.356 -0.1660 -0.2570  0.3811
10495W        W12645  18.530   1.487  26.692  0.0702  0.2063  0.0382
10496W        W12646  20.567   0.781  14.665  0.0532  0.0296  0.1220
10497W        W12647  14.281   1.220  22.302 -0.1793 -0.0307  0.0901
10498W        W12648  17.958   4.096   5.432 -0.1283  0.0375  0.0278
10499W        W12649   2.193   5.651   9.587 -0.0940 -0.2791  0.3846
10500W        W12650  17.970   6.191  35.451 -0.0418  0.1404 -0.2738
10501W        W12651   7.623   3.563  13.408  0.2316 -0.1251  0.0447
10502W        W12652   1.699   3.335  13.907 -0.1185  0.0377  0.0786
10503W        W12653  24.584   5.320  25.981 -0.0073 -0.3014 -0.0924
10504W        W12654  12.558   5.369  34.003  0.2817 -0.0449  0.2365
10505W        W12655  18.594   3.466  31.806  0.0922  0.3015  0.0900
10506W        W12656   7.185   3.345   0.649  0.0629  0.0196  0.1559
10507W        W12657   5.622   0.082  33.056  0.1005 -0.1496  0.0006
10508W        W12658  10.678   3.960  25.011  0.0540 -0.0263 -0.0497
10509W        W12659   3.786   2.604  31.010  0.0734  0.2050 -0.1323
10510W        W12660  23.063   4.162   4.465 -0.2924 -0.0308  0.1817
10511W        W12661   2.002   6.357  33.022 -0.3640  0.0488  0.1346
10512W        W12662  20.860   1.267  23.839  0.1286 -0.0640  0.0036
10513W        W12663   1.948   2.281   9.349  0.1420 -0.1084 -0.0658
10514W        W12664  23.803   3.028  35.310  0.3505  0.0439 -0.0226
10515W        W12665  18.392   1.477   0.023  0.0414  0.0311 -0.0394
10516W        W12666  12.469   4.117   3.693 -0.1971 -0.0594 -0.0985
10517W        W12667  24.090   3.425  13.578  0.5504  0.0550  0.0148
10518W        W12668  16.869   4.320  23.320  0.2477 -0.1093 -0.1340
10519W        W12669  16.663   3.159  22.843  0.2245 -0.0090 -0.0813
10520W        W12670  16.896   0.143  12.351  0.2804  0.3699 -0.1275
10521W        W12671  19.719   1.613  15.144 -0.0968 -0.1663  0.0938
10522W        W12672   3.750   1.503  20.787  0.0575  0.1357  0.0714
10523W        W12673  24.828   6.596  10.717 -0.2944 -0.0328  0.1547
10524W        W12674   2.591   0.522   4.827  0.2356  0.0738  0.1125
10525W        W12675  22.514   5.402   2.419  0.1168  0.2440  0.2298
10526W        W12676  10.852   0.294   6.054 -0.1962  0.2130 -0.1004
10527W        W12677  22.013   0.256   9.644  0.1598  0.0686  0.0302
10528W        W12678  26.377   1.020   2.028  0.1512 -0.1765 -0.1683
10529W        W12679  23.147   3.823  10.172  0.2130  0.2692  0.2300
10530W        W12680   7.422   5.848  29.602  0.1527  0.4407  0.2906
10531W        W12681   9.059   1.582  14.093  0.1235  0.3986 -0.5209
10532W        W12682  16.882   4.132  15.266 -0.0606  0.2318  0.1432
10533W        W12683   0.986   6.327   4.628 -0.0952 -0.4252  0.0115
10534W        W12684  14.747   6.227  13.231 -0.1855  0.2616 -0.0343
10535W        W12685   2.490   2.690  32.858  0.2042 -0.0675 -0.0008
10536W        W12686  21.657   5.189  21.322  0.1294 -0.2947 -0.3227
10537W        W12687  26.093   1.100   4.629  0.1451 -0.0752 -0.0100
10538W        W12688  21.249   1.938  29.334 -0.4233 -0.0848  0.3464
10539W        W12689  11.721   3.770  29.120 -0.4324  0.1449  0.0913
10540W        W12690  18.264   4.715   0.213 -0.0965  0.0557  0.2909
10541W        W12691  17.034   2.717  30.537  0.2648  0.0499  0.1754
10542W        W12692  23.085   1.389  24.585 -0.1088  0.1252 -0.0722
10543W        W12693  16.246   0.023   3.700  0.0895  0.1066  0.0114
10544W        W12694   5.490   2.374  11.910 -0.2969 -0.2993  0.2709
10545W        W12695  10.741   3.816   5.716 -0.1612 -0.2530  0.3503
10546W        W12696  26.421   3.136  31.189  0.0595 -0.2651  0.3468
10547W        W12697  17.930   0.820  27.998  0.1461  0.3007  0.2307
10548W        W12698  17.695   2.010   3.497 -0.0910 -0.0978  0.2248
10549W        W12699   3.396   2.141  11.427 -0.1574 -0.0932  0.2068
10550W        W12700  26.053   5.906  26.596 -0.1340  0.0273  0.2012
10551W        W12701  22.292   2.395  32.229  0.1162  0.0070 -0.1250
10552W        W12702   9.228   4.524  35.940  0.1758 -0.1887  0.0107
10553W        W12703  14.013   5.997   1.133  0.2728 -0.0041 -0.0665
10554W        W12704  22.539   0.529  10.773 -0.0693  0.1160 -0.0106
10555W        W12705   8.902   6.265   3.851 -0.2400 -0.0832  0.2839
10556W        W12706  10.084   6.198   2.490 -0.0377  0.3831  0.0600
10557W        W12707  15.068   4.285  24.502  0.0623 -0.1487  0.0165
10558W        W12708   7.022   3.698  21.644  0.0567  0.1111 -0.2261
10559W        W12709  16.507   6.400   2.581 -0.3190  0.1907 -0.1665
10560W        W12710  16.494   1.095  22.370 -0.2090  0.0124  0.0320
10561W        W12711   0.127   5.230  33.082 -0.0457  0.0713  0.1769
10562W        W12712   9.532   3.470  26.427 -0.2315 -0.0234  0.0992
10563W        W12713  18.573   5.056  12.563 -0.2369 -0.2289 -0.1427
10564W        W12714   0.771   0.978  28.045  0.1979  0.0347  0.0733
10565W        W12715   3.496   1.805   5.804  0.1364 -0.2822  0.0650
10566W        W12716  19.092   0.317   3.589  0.3577  0.0049  0.1902
10567W        W12717   5.998   1.765   2.496 -0.1000 -0.1086 -0.1974
10568W        W12718   2.618   1.969  28.001 -0.0386 -0.0491 -0.2016
10569W        W12719  15.447   4.711  21.870  0.2015 -0.3780 -0.1464
10570W        W12720   7.650   0.708   1.195 -0.1400 -0.0094 -0.0005
10571W        W12721  17.580   4.562   8.140  0.0584  0.1638  0.0238
10572W        W12722  15.742   2.609  10.666 -0.2417  0.3715  0.0793
10573W        W12723  18.468   3.197  14.432  0.2753  0.0991 -0.1697
10574W        W12724  15.330   0.994  32.875  0.0537  0.1274 -0.1175
10575W        W12725  15.450   6.209  21.383  0.2361 -0.0100  0.1119
10576W        W12726   8.203   0.217  34.574 -0.1865 -0.4164  0.1932
10577W        W12727   5.054   5.357   8.895 -0.2677 -0.0032 -0.1507
10578W        W12728  25.132   0.034  22.016  0.2531  0.0178 -0.0255
10579W        W12729  26.139   2.470  26.275  0.1881 -0.1984  0.1854
10580W        W12730  19.702   4.646  22.191  0.3357  0.0069  0.1404
10581W        W12731  16.207   3.802  33.739 -0.2264 -0.1967 -0.2139
10582W        W12732   9.464   2.388   4.732  0.3953  0.1180 -0.0932
10583W        W12733  17.661   2.660  35.338 -0.1415  0.3633  0.3049
10584W        W12734  18.932   3.936  34.674 -0.1528 -0.2530 -0.5296
10585W        W12735  21.901   0.243   6.303  0.2046  0.1487 -0.2666
10586W        W12736  13.262   4.903   3.514  0.1245 -0.2310  0.3671
10587W        W12737   3.620   5.864  32.338 -0.0923 -0.1387  0.4667
10588W        W12738   2.320   3.741  10.864  0.0019 -0.0154  0.1706
10589W        W12739  11.472   1.943   5.962  0.0350 -0.0579 -0.0707
10590W        W12740  26.315   3.527   7.780  0.1955  0.0710  0.0950
10591W        W12741  18.695   1.694  12.036 -0.0974 -0.0641 -0.0429
10592W        W12742  23.690   2.908   7.760 -0.1990 -0.0302  0.1652
10593W        W12743  21.940   5.491  12.506 -0.2509 -0.0267  0.2373
10594W        W12744   6.594   5.050  32.011 -0.0335 -0.1258 -0.1129
10595W        W12745  22.153   3.682  33.463 -0.1884 -0.0324  0.1069
10596W        W12746  13.788   5.202  13.939  0.0103 -0.0202 -0.1576
10597W        W12747   4.975   1.963  28.516  0.0658  0.0269  0.0363
10598W        W12748  14.456   0.970  14.221 -0.3346 -0.3662 -0.1524
10599W        W12749   7.465   0.432  10.705  0.0391 -0.1342 -0.2084
10600W        W12750  24.598   1.525  11.910 -0.2544 -0.0148 -0.1111
10601W        W12751   4.706   4.814  21.658 -0.2716  0.0364 -0.2479
10602W        W12752  12.687   4.898   5.155 -0.1426  0.1613 -0.1735
10603W        W12753  15.335   2.180  10.457  0.0783 -0.2639  0.0416
10604W        W12754  25.147   5.873   6.231 -0.0554  0.0943 -0.2132
10605W        W12755  21.972   2.591  11.608 -0.1195  0.0486 -0.0014
10606W        W12756   8.005   4.630  33.211  0.2607 -0.2688 -0.0843
10607W        W12757   1.426   3.532  25.575 -0.0208  0.0237  0.0425
10608W        W12758  21.982   1.186  20.936 -0.0146  0.0744 -0.0336
10609W        W12759  24.672   0.846  34.857 -0.0531 -0.1009  0.3142
10610W        W12760  17.751   5.812   9.526 -0.0991 -0.2268  0.2501
10611W        W12761   9.354   1.245   1.170 -0.2394 -0.1126  0.2285
10612W        W12762   1.848   4.991  12.864  0.0182  0.1585  0.2461
10613W        W12763  19.301   2.560  13.544  0.0576  0.0279  0.1665
10614W        W12764   3.418   5.073   8.209  0.3227  0.2713 -0.1323
10615W        W12765  13.046   0.970   2.214  0.0592  0.2145 -0.1943
10616W        W12766  23.217   6.166  35.334  0.0757  0.0249 -0.0048
10617W        W12767  24.194   1.959   8.482 -0.1637  0.0893 -0.0813
10618W        W12768   4.487   5.631  23.777  0.5113  0.1935  0.0747
10619W        W12769   1.111   5.841   6.143  0.0100  0.1021 -0.1239
10620W        W12770   1.742   1.947  28.356  0.1940 -0.4559 -0.0073
10621W        W12771  24.472   0.455  31.408  0.3088 -0.1967 -0.0889
10622W        W12772  24.919   2.572  23.792 -0.1503 -0.0416 -0.0817
10623W        W12773  20.236   0.876  31.337 -0.1066  0.2190  0.0598
10624W        W12774  25.653   3.072  34.870 -0.0589 -0.0536 -0.2364
10625W        W12775  23.218   4.951  22.692 -0.2053  0.4856 -0.0656
10626W        W12776  25.850   4.919  31.120 -0.2147 -0.0332 -0.1133
10627W        W12777  22.356   0.310  36.131 -0.0448 -0.1624 -0.2206
10628W        W12778   7.961   4.065  22.326  0.0954  0.1846 -0.1379
10629W        W12779  20.610   4.749  34.231  0.0378 -0.0777 -0.1479
10630W        W12780  16.823   2.724  23.130  0.1059 -0.0215  0.1346
10631W        W12781  15.370   2.586  12.584  0.0198 -0.0835 -0.0204
10632W        W12782   3.682   3.288   6.977  0.3591 -0.0710  0.4275
10633W        W12783   5.442   3.621  32.125 -0.2786 -0.2672  0.0108
10634W        W12784   7.000   0.564   3.295  0.2096 -0.2589  0.2808
10635W        W12785  22.648   2.316  13.906 -0.1085  0.1797 -0.0348
10636W        W12786   0.935   1.881  22.745 -0.0561  0.1278  0.1192
10637W        W12787   9.223   1.935   3.964 -0.0668 -0.1149  0.1610
10638W        W12788   0.437   5.496  23.445 -0.0240 -0.0988  0.0708
10639W        W12789   8.047   0.153   4.102  0.1022  0.1933  0.1853
10640W        W12790  18.882   0.117   8.830  0.0764 -0.0957  0.0832
10641W        W12791   2.228   6.380  23.658  0.2900  0.1280  0.2042
10642W        W12792   1.563   2.617   1.739 -0.1487  0.2426 -0.1844
10643W        W12793   0.509   4.432  22.904 -0.2022 -0.0592 -0.0242
10644W        W12794  13.237   3.401  24.494 -0.0218  0.0762  0.0929
10645W        W12795   7.458   1.092  27.649 -0.0686  0.2740 -0.1503
10646W        W12796  11.932   0.723   5.373  0.3653  0.0298  0.0220
10647W        W12797   6.356   3.825  23.901 -0.0433  0.0096  0.1195
10648W        W12798   8.307   2.336  34.268  0.2817 -0.1393  0.1308
10649W        W12799   5.036   6.591  31.946  0.0720  0.0777  0.4034
10650W        W12800  23.339   0.012  26.270 -0.1308 -0.0465 -0.1460
10651W        W12801  14.920   5.742  24.688  0.3537 -0.1889 -0.0980
10652W        W12802  16.950   2.709  22.519 -0.0577  0.0997  0.2770
10653W        W12803   1.869   0.106   4.363  0.0232 -0.1071 -0.2659
10654W        W12804  22.520   4.172  28.516 -0.1442 -0.0815  0.0583
10655W        W12805   1.575   1.229  25.392 -0.2815 -0.1293  0.3318
10656W        W12806   5.503   3.493  32.807  0.0323  0.0449  0.3216
10657W        W12807  12.464   4.933   1.746  0.1427  0.2517 -0.0059
10658W        W12808  22.217   0.134   9.053  0.0399  0.3564 -0.2326
10659W        W12809   0.808   5.228  27.788 -0.2965  0.0619 -0.0215
10660W        W12810  17.578   0.161  15.464 -0.0049 -0.1058  0.2054
10661W        W12811  24.320   5.917  12.064  0.0059 -0.0612 -0.0324
10662W        W12812  15.520   1.381   4.824 -0.0675 -0.0096  0.2360
10663W        W12813   1.704   5.473   1.654  0.1826 -0.1429 -0.0352
10664W        W12814   5.892   3.213  31.986 -0.2629  0.1452 -0.3037
10665W        W12815   6.298   5.971   4.747 -0.1270 -0.0549  0.0716
10666W        W12816  11.819   0.568  35.083  0.1380 -0.2329 -0.2229
10667W        W12817  16.858   3.393   0.695 -0.0218  0.3366  0.0576
10668W        W12818  19.589   1.299  29.182  0.2019 -0.1370  0.0492
10669W        W12819  16.841   3.700   2.425  0.0069 -0.0355  0.0650
10670W        W12820   4.238   4.330   6.360 -0.0441  0.0239 -0.2170
10671W        W12821  25.896   3.531  20.257  0.1075  0.3391  0.1430
10672W        W12822  16.230   5.611  33.994 -0.1482 -0.1723 -0.0381
10673W        W12823  15.882   3.332   0.363  0.0377  0.2470  0.0045
10674W        W12824  18.462   1.017   5.841  0.0759 -0.2307 -0.2612
10675W        W12825  23.056   1.510  12.761  0.1826 -0.0505 -0.0182
10676W        W12826   0.623   0.853   2.981  0.0493 -0.3459  0.2171
10677W        W12827  15.492   6.598  32.237 -0.1458 -0.1316 -0.1756
10678W        W12828  21.131   2.436  12.533 -0.4921 -0.1197 -0.0287
10679W        W12829  21.178   4.917  29.861  0.1628  0.1711  0.0746
10680W        W12830  10.332   0.527  14.402 -0.0541 -0.0560  0.0274
10681W        W12831  14.767   0.031  24.715 -0.2262 -0.0203 -0.0730
10682W        W12832   1.142   5.190   0.140  0.0357 -0.0116  0.0590
10683W        W12833  18.647   2.716  22.951 -0.1130  0.2434  0.1926
10684W        W12834   8.435   1.652  11.015  0.0728 -0.2712 -0.2102
10685W        W12835   6.237   5.567  26.273 -0.2724  0.1354  0.1023
10686W        W12836  22.056   5.536   2.338  0.1811 -0.1189  0.1448
10687W        W12837  24.231   2.914   4.184 -0.2426  0.0701  0.2161
10688W        W12838  17.459   1.273  20.669 -0.0494  0.1815  0.0385
10689W        W12839   4.243   4.822  30.428  0.1720  0.1401 -0.0136
10690W        W12840  14.675   4.833   7.553  0.1098 -0.0846  0.0203
10691W        W12841  24.295   1.299  14.169 -0.3949 -0.0776 -0.1489
10692W        W12842   4.422   0.168  32.970 -0.0539  0.5994 -0.0303
10693W        W12843   2.337   5.582  31.438 -0.1589 -0.1477 -0.0184
10694W        W12844   5.807   3.007   1.576 -0.0499 -0.0243  0.2216
10695W        W12845  23.494   1.948   0.046  0.1231 -0.0888 -0.2048
10696W        W12846  26.257   5.288  34.417  0.0794  0.0368 -0.2591
10697W        W12847  16.753   1.437   1.458  0.1214  0.1695 -0.0619
10698W        W12848  12.055   5.967  29.785  0.1088 -0.1425 -0.0822
10699W        W12849  12.198   1.466   6.429 -0.0384 -0.3168 -0.2285
10700W        W12850  16.156   0.450  34.723 -0.1832  0.0134  0.1329
10701W        W12851   8.702   0.265  13.657  0.2366 -0.1602 -0.0991
10702W        W12852   3.149   4.336  14.040  0.3077 -0.3670 -0.1840
10703W        W12853  17.869   0.116   9.509 -0.1210  0.1105 -0.1280
10704W        W12854   5.813   3.748   9.707  0.3327  0.2337 -0.1907
10705W        W12855   2.532   3.169   3.017  0.0432 -0.0985  0.1794
10706W        W12856   6.301   4.453   7.727  0.0306 -0.1765 -0.1110
10707W        W12857  25.947   4.304   4.618 -0.1902  0.4038  0.0481
10708W        W12858   5.529   6.357   3.208  0.3456 -0.1536 -0.2396
10709W        W12859   2.829   5.282   4.302 -0.3139 -0.0991  0.0877
10710W        W12860  17.833   5.070  23.942  0.0841 -0.0527 -0.0255
10711W        W12861  18.419   6.263  25.152 -0.1381  0.1265 -0.0654
10712W        W12862  24.785   2.757  12.700 -0.0930 -0.1917 -0.2100
10713W        W12863  17.072   2.864  33.915  0.0943  0.0202  0.0463
10714W        W12864  11.426   5.939  26.540  0.2573  0.2243 -0.0686
10715W        W12865   4.894   0.368  26.592 -0.1240  0.2233 -0.1838
10716W        W12866   7.095   6.264   0.328  0.2426  0.1099  0.0022
10717W        W12867  14.278   0.006  28.915 -0.0230 -0.2010 -0.0726
10718W        W12868  15.224   5.965  26.640 -0.0458  0.1096  0.1163
10719W        W12869   6.655   1.882  34.027 -0.0858 -0.1666 -0.3165
10720W        W12870   4.472   5.054   0.432 -0.1014 -0.4263  0.2637
10721W        W12871  14.251   4.421   6.132 -0.1341 -0.0052  0.1084
10722W        W12872  17.516   0.361  14.091 -0.0619 -0.0685  0.0102
10723W        W12873  12.926   0.372  28.960  0.1413  0.0787  0.1965
10724W        W12874  18.182   2.922  30.910 -0.0604  0.2424  0.1129
10725W        W12875  17.971   6.553  14.851 -0.2097 -0.0880  0.1211
10726W        W12876  26.263   2.202   6.940 -0.0261 -0.0832 -0.1030
10727W        W12877  24.888   5.765  13.746 -0.0796  0.2165 -0.1314
10728W        W12878  17.395   2.951   7.121 -0.1166  0.0103  0.2466
10729W        W12879  20.571   2.452  15.311  0.0201  0.1621  0.1044
10730W        W12880   4.952   3.850  23.961 -0.1193 -0.0035 -0.0156
10731W        W12881  14.266   1.081  11.545  0.0383 -0.1072 -0.0512
10732W        W12882  20.282   0.849  27.131 -0.2740 -0.0821 -0.0400
10733W        W12883  16.991   3.458  25.722  0.0471  0.0599 -0.1818
10734W        W12884  21.111   2.914   1.937  0.3120  0.0842  0.0199
10735W        W12885  17.649   0.523   0.444  0.4107 -0.0413  0.1631
10736W        W12886   3.443   3.090  33.857  0.0668 -0.2664 -0.0046
10737W        W12887   8.173   0.772  31.281  0.3176 -0.4432 -0.1050
10738W        W12888  18.343   1.177  21.216 -0.0578  0.0091 -0.0201
10739W        W12889   7.630   0.995  12.215  0.1771 -0.0122  0.1622
10740W        W12890   8.519   4.143  27.062 -0.1376  0.0255  0.3287
10741W        W12891  16.775   0.603  30.782  0.4126  0.0691  0.0732
10742W        W12892  25.075   2.073  27.582  0.0311  0.0137 -0.1452
10743W        W12893   9.290   4.977  12.774 -0.0443  0.0866 -0.0239
10744W        W12894  12.915   0.287   8.634  0.0299 -0.0138 -0.2209
10745W        W12895   5.087   0.072   6.223  0.2466  0.0897 -0.3006
10746W        W12896   4.927   1.879   2.871 -0.0203 -0.0851 -0.0616
10747W        W12897   1.173   0.333  11.440 -0.0553 -0.1464  0.0263
10748W        W12898  22.522   0.249  22.338  0.1141  0.1680 -0.2005
10749W        W12899  19.128   1.302  31.039  0.0155  0.1018 -0.1411
10750W        W12900  17.775   1.175   9.779  0.1968  0.0865  0.0118
10751W        W12901  23.548   1.119  28.152 -0.0952 -0.4562  0.2085
10752W        W12902  16.139   3.018  29.590 -0.0426 -0.0705  0.1465
10753W        W12903  17.688   5.120  33.386 -0.1222  0.0689  0.2790
10754W        W12904  11.117   2.898  13.436 -0.1818  0.0723  0.0575
10755W        W12905  15.734   4.383  21.015 -0.2288  0.1129  0.3760
10756W        W12906  26.000   4.407  31.762 -0.1093 -0.4661  0.1424
10757W        W12907  21.698   5.211  35.319  0.1343  0.2642  0.0809
10758W        W12908   4.046   2.450  26.247  0.1569  0.0172  0.2475
10759W        W12909  24.941   1.907   1.242 -0.1534  0.1309 -0.3570
10760W        W12910  21.373   5.019   9.257  0.3609 -0.1491  0.1952
10761W        W12911   3.730   0.139   4.997 -0.0921  0.0414 -0.1914
10762W        W12912   8.597   5.139  25.023 -0.3814 -0.0141 -0.1162
10763W        W12913   9.051   2.603   4.511 -0.1715  0.1245 -0.4396
10764W        W12914   9.828   5.930   3.397 -0.0061  0.2217 -0.0191
10765W        W12915  16.220   5.956  14.397  0.1924 -0.0992 -0.1445
10766W        W12916   2.816   6.077   1.077  0.3587 -0.0057 -0.2334
10767W        W12917  22.492   4.984  33.509  0.1195  0.1411  0.2193
10768W        W12918   6.056   2.431  12.096  0.0317  0.3966  0.0907
10769W        W12919  17.530   3.357  33.210 -0.0647  0.2684  0.0009
10770W        W12920  14.825   4.899  23.044  0.0574  0.2990 -0.1170
10771W        W12921  12.769   4.849  33.001 -0.1983 -0.1386 -0.0636
10772W        W12922  10.177   3.060   1.266 -0.2560 -0.2606  0.0760
10773W        W12923  11.204   6.563  23.525  0.0330 -0.0331 -0.1994
10774W        W12924  23.365   4.532   8.834 -0.0598  0.2410  0.1759
10775W        W12925  20.076   2.040  13.252 -0.0016  0.0111  0.1428
10776W        W12926  25.913   6.256   5.750 -0.1159 -0.2587 -0.2414
10777W        W12927  20.705   0.779  12.952  0.1781 -0.1973 -0.0603
10778W        W12928   6.133   1.238   7.385  0.4037 -0.0397  0.1975
10779W        W12929  13.907   1.471   3.950  0.0608  0.1655 -0.5628
10780W        W12930  16.843   5.360  31.039  0.0925  0.0628  0.2067
10781W        W12931  16.566   1.330  29.563 -0.1429  0.4472 -0.0956
10782W        W12932  20.471   6.604  27.297 -0.1934 -0.2295 -0.1249
10783W        W12933   4.300   2.043  33.797 -0.3764 -0.4482  0.0106
10784W        W12934  18.975   2.321  28.217  0.1113  0.1576  0.1000
10785W        W12935  24.775   6.550  32.278 -0.0647 -0.1776  0.0023
10786W        W12936  18.703   5.926   2.284 -0.1135 -0.1376  0.0630
10787W        W12937  25.702   4.752  35.719  0.3231  0.1281  0.0827
10788W        W12938   6.629   4.930   6.670 -0.2157 -0.2303  0.1737
10789W        W12939  16.025   5.499   1.883 -0.0631 -0.1781  0.2300
10790W        W12940  21.155   1.855  26.952 -0.1722 -0.2369 -0.2768
10791W        W12941   8.968   2.873  33.639  0.0931  0.1204 -0.1976
10792W        W12942  18.424   6.198  27.396  0.0073 -0.1835 -0.0974
10793W        W12943  18.402   3.030  15.105 -0.2670  0.0195 -0.3150
10794W        W12944  13.557   0.020  27.900  0.0302  0.1952 -0.0521
10795W        W12945  10.020   5.268  35.217  0.1160 -0.1684  0.0188
10796W        W12946  14.846   6.279  32.783  0.0248  0.0869 -0.4317
10797W        W12947  23.959   1.120   0.432 -0.0413  0.2642 -0.0651
10798W        W12948  25.095   3.253   8.239 -0.0562 -0.1089  0.1263
10799W        W12949  12.041   2.174  21.150  0.0340  0.0662 -0.1629
10800W        W12950   8.744   3.185  32.090 -0.1483  0.1148 -0.0060
10801W        W12951  13.312   0.096  14.974 -0.0091  0.2735 -0.2263
10802W        W12952   9.888   0.126  28.331  0.0725 -0.0674  0.1661
10803W        W12953  13.945   1.091  13.504 -0.0596 -0.2752 -0.3674
10804W        W12954  14.412   2.444  13.054 -0.1742  0.3476  0.2521
10805W        W12955  11.896   6.145  32.480  0.0041 -0.2202  0.1081
10806W        W12956  24.907   3.914  13.189 -0.0736 -0.2261  0.2797
10807W        W12957  11.517   5.939   7.492  0.1414 -0.1189  0.2865
10808W        W12958  13.900   0.809   3.058  0.1174  0.0421  0.3939
10809W        W12959  13.178   4.414  13.834  0.0293  0.0234  0.0442
10810W        W12960  22.113   4.329  11.960  0.2933 -0.1350 -0.1209
10811W        W12961  25.679   3.550  10.567  0.1280 -0.0811  0.1144
10812W        W12962  19.695   2.685  35.124  0.0963 -0.2708  0.2338
10813W        W12963  17.381   0.128  25.019  0.0564  0.0068 -0.0085
10814W        W12964   5.761   3.947   2.712  0.3218 -0.0090  0.5306
10815W        W12965  23.644   6.368   7.346  0.2371 -0.1027  0.0797
10816W        W12966   6.209   4.980  24.461  0.1100 -0.1632 -0.3166
10817W        W12967  21.836   0.926  27.390  0.0927  0.2784  0.2446
10818W        W12968  21.454   5.399  27.097 -0.2040  0.1969  0.0966
10819W        W12969  17.659   2.718  29.914 -0.2332 -0.0315  0.0150
10820W        W12970  26.373   5.706  21.195  0.1177 -0.1521  0.3837
10821W        W12971   6.213   0.037  32.003 -0.0795  0.3148  0.2917
10822W        W12972   0.407   5.418  30.401 -0.2433  0.1564  0.2081
10823W        W12973   8.832   1.529  28.928 -0.1827  0.0136 -0.0805
10824W        W12974  20.573   5.415  33.135 -0.2455 -0.1545 -0.1656
10825W        W12975  12.504   5.961   9.736  0.0167  0.0788 -0.0478
10826W        W12976  13.533   3.802  15.728  0.4209 -0.1694  0.1685
10827W        W12977   3.047   0.381   9.967 -0.0565  0.0969 -0.0972
10828W        W12978  24.904   1.955  29.862 -0.4046  0.0904  0.0679
10829W        W12979  11.452   3.639   5.840  0.1931 -0.1800 -0.1071
10830W        W12980  15.959   4.374   6.337 -0.0064  0.0167  0.3155
10831W        W12981  15.414   4.031  12.877  0.2057  0.1338 -0.1653
10832W        W12982  25.936   5.952  34.299 -0.3447 -0.2028 -0.1293
10833W        W12983   0.310   5.868  28.463 -0.0954 -0.1232 -0.2179
10834W        W12984   9.558   3.236  22.229 -0.2294  0.1561 -0.0802
10835W        W12985   4.785   0.755  30.250  0.1485  0.0760  0.2399
10836W        W12986   1.439   0.845  25.019  0.2051 -0.0704 -0.1559
10837W        W12987   3.991   2.985  14.906  0.3994  0.5120  0.1587
10838W        W12988  15.044   0.469  33.038  0.0508 -0.1266 -0.0816
10839W        W12989   9.481   4.081  10.107  0.3928 -0.2969 -0.1811
10840W        W12990   9.242   6.071  35.094  0.2989 -0.2844  0.1454
10841W        W12991  25.639   3.620  14.459 -0.2385 -0.1413  0.0035
10842W        W12992   0.926   0.165   0.330 -0.0741 -0.1843  0.2017
10843W        W12993   0.917   2.042  25.632  0.2873 -0.2640  0.1088
10844W        W12994  11.237   4.170  14.030  0.3939 -0.0039 -0.1946
10845W        W12995   1.618   3.853   4.055  0.1100 -0.1078 -0.0046
10846W        W12996  10.384   3.412   6.627 -0.1964  0.2354  0.1462
10847W        W12997  19.877   5.698  32.513 -0.3803 -0.2400 -0.2200
10848W        W12998  18.490   3.081  10.408 -0.0488 -0.1405 -0.0436
10849W        W12999   0.744   3.414  30.951  0.0458  0.0085 -0.0396
10850W        W13000   5.825   4.756  22.791  0.1494  0.1551 -0.1809
10851W        W13001  21.498   5.752  25.918 -0.0431 -0.0696 -0.1205
10852W        W13002  19.500   0.137  31.852 -0.3207 -0.3236  0.0304
10853W        W13003  13.626   1.366   8.420 -0.0564 -0.2601 -0.1853
10854W        W13004  21.347   1.639  13.889  0.1136 -0.1358  0.0163
10855W        W13005  18.426   2.204  29.424  0.1848 -0.0299  0.0851
10856W        W13006   9.329   0.875  33.613 -0.0525  0.1858  0.1351
10857W        W13007  18.276   5.084  11.841  0.2137  0.1047 -0.1456
10858W        W13008   9.678   2.205   3.784 -0.0603 -0.0397  0.3853
10859W        W13009  10.762   2.628   6.363 -0.1652 -0.2747  0.0573
10860W        W13010  18.548   2.125   1.617  0.1563  0.1788 -0.1034
10861W        W13011  19.483   6.338   1.321  0.1088 -0.2381 -0.0218
10862W        W13012  16.596   1.185  10.324 -0.1259 -0.0939 -0.1030
10863W        W13013  19.262   3.863  10.643 -0.0130  0.0747 -0.2228
10864W        W13014  14.761   5.724  32.980 -0.0941  0.5201  0.2693
10865W        W13015   3.558   4.732   9.603  0.2733  0.0351  0.2093
10866W        W13016  20.839   4.775  26.667 -0.0247  0.0028  0.2512
10867W        W13017   4.035   2.565   8.447 -0.0695  0.2483  0.2605
10868W        W13018  20.288   1.857   9.170  0.2490  0.0920 -0.2052
10869W        W13019   1.259   4.439   3.198 -0.1496 -0.0712  0.0178
10870W        W13020  13.677   0.680   6.050  0.0304 -0.0551 -0.2377
10871W        W13021  21.364   1.810  36.074 -0.0141  0.2162 -0.0875
10872W        W13022  23.348   5.198  13.036  0.0616  0.3137 -0.2890
10873W        W13023   2.282   6.312  14.621 -0.2616  0.0232 -0.0320
10874W        W13024   6.973   4.832   2.460  0.0439 -0.0356 -0.2009
10875W        W13025   8.696   3.951   2.406 -0.1107  0.1425  0.1524
10876W        W13026  18.379   4.970  33.879 -0.2040  0.0383  0.1019
10877W        W13027  17.991   4.275  12.601  0.1997  0.1289  0.2304
10878W        W13028  22.155   0.980  22.807  0.2039 -0.4784 -0.1195
10879W        W13029  16.576   6.281  10.080 -0.2477 -0.2341  0.1157
10880W        W13030  16.394   2.110  33.252  0.0672  0.0193 -0.0450
10881W        W13031  22.517   3.607  30.507  0.0377  0.0041  0.2547
10882W        W13032   2.163   3.344  13.680  0.0093  0.1536  0.1772
10883W        W13033  23.438   3.028  29.919  0.2942 -0.1666 -0.0170
10884W        W13034   2.707   5.126  11.685 -0.1696 -0.0956  0.2513
10885W        W13035  26.127   2.655  10.614  0.1344  0.1639  0.0261
10886W        W13036  23.482   0.513  10.500 -0.1212 -0.0661  0.2383
10887W        W13037  21.104   5.283  28.543 -0.0629 -0.0086  0.2485
10888W        W13038   6.477   5.644   6.209  0.0376  0.1107  0.3242
10889W        W13039   9.070   5.514   8.040  0.0124  0.1534  0.0141
10890W        W13040   9.191   3.358   6.723  0.1639 -0.0763  0.0816
10891W        W13041   1.877   3.317   1.286  0.1289  0.2661  0.0965
10892W        W13042   1.193   6.412   3.335  0.0908  0.1517  0.1192
10893W        W13043  17.446   3.259   5.028 -0.2951  0.1232  0.1337
10894W        W13044   6.499   3.591  30.331  0.3315  0.1223 -0.0122
10895W        W13045  23.958   1.728  33.524  0.1296  0.0055 -0.0317
10896W        W13046  13.380   2.022  35.815 -0.1971  0.1160 -0.1410
10897W        W13047  21.018   5.591   1.944 -0.0927 -0.1517  0.1336
10898W        W13048   1.664   1.397   1.831 -0.1834 -0.2287 -0.2175
10899W        W13049   6.207   6.599   1.897  0.1260  0.0905  0.1159
10900W        W13050  24.981   0.725  25.888 -0.1065  0.0826  0.2226
10901W        W13051  25.844   2.399  32.355  0.1812  0.0001  0.0616
10902W        W13052   9.336   2.497   2.996  0.0689 -0.0266 -0.1116
10903W        W13053   2.450   5.547  27.981  0.0802 -0.0575  0.1857
10904W        W13054  12.023   4.072   5.817  0.0508  0.1294 -0.1579
10905W        W13055   1.249   5.977   0.054 -0.0526 -0.1059 -0.0730
10906W        W13056   5.048   5.780  14.628  0.0668  0.0595 -0.0933
10907W        W13057   0.317   4.363  10.878  0.0309  0.1104  0.2068
10908W        W13058  14.062   5.717  15.289  0.0919 -0.0750  0.1054
10909W        W13059  18.951   5.664  24.803 -0.3355 -0.0837  0.0883
10910W        W13060  12.102   2.142  25.241 -0.2996 -0.0726  0.0443
10911W        W13061  20.419   5.925   7.165 -0.1381 -0.0307 -0.2531
10912W        W13062  10.845   3.220  25.918  0.1410  0.2180  0.0194
10913W        W13063  18.990   6.429  34.556  0.1418  0.1498  0.2771
10914W        W13064  10.333   2.742  21.515 -0.0138  0.0152 -0.1200
10915W        W13065  11.471   1.945   4.794  0.3298  0.2154  0.3270
10916W        W13066   4.657   2.919   3.866 -0.0396 -0.1853 -0.1433
10917W        W13067  24.494   4.581   0.580  0.0956  0.1810 -0.1062
10918W        W13068  22.051   3.713  12.058  0.2598 -0.1398 -0.0500
10919W        W13069  12.861   4.364  12.396 -0.1429  0.0629 -0.2828
10920W        W13070  23.767   3.247  33.196  0.2820  0.1126 -0.3634
10921W        W13071  14.841   0.357   4.095 -0.3744 -0.2553 -0.3211
10922W        W13072  25.397   2.786  23.475  0.0380  0.0099  0.0313
10923W        W13073  22.393   1.211   7.769 -0.2257  0.1488  0.0258
10924W        W13074  19.459   1.714  32.256  0.2118  0.1984  0.1740
10925W        W13075  21.484   5.260  28.121 -0.0707  0.2747  0.1661
10926W        W13076  25.520   2.256   8.108  0.0908  0.2080  0.0207
10927W        W13077   7.635   5.992  24.544 -0.1651 -0.0046 -0.1447
10928W        W13078  15.801   6.485  31.254 -0.2005 -0.0480 -0.5154
10929W        W13079  20.526   1.647  32.536  0.1094 -0.0960 -0.2202
10930W        W13080  12.562   4.299  14.296 -0.0953  0.3319  0.1394
10931W        W13081  14.007   5.760  35.001 -0.0653 -0.1056  0.0279
10932W        W13082   8.446   3.558   0.888  0.2112 -0.1447  0.2107
10933W        W13083  16.044   6.548   8.847  0.0647  0.1945 -0.0192
10934W        W13084   4.636   1.904  24.149 -0.0289  0.1248 -0.3883
10935W        W13085  10.352   1.714  33.164  0.0206  0.2109  0.3277
10936W        W13086  23.736   5.416  30.744 -0.2312  0.1697  0.0769
10937W        W13087  21.453   0.369   6.101  0.3468 -0.0728 -0.0028
10938W        W13088   4.894   0.472  21.137  0.1281  0.3921 -0.1135
10939W        W13089  11.029   0.426  23.422 -0.4203 -0.2802  0.3797
10940W        W13090  25.076   0.721   5.044 -0.1153  0.4834 -0.1773
10941W        W13091  19.148   3.079   0.481 -0.2097 -0.1282 -0.1153
10942W        W13092  11.903   5.344   8.012  0.1468  0.1074 -0.1581
10943W        W13093   3.026   5.091   1.515 -0.1817 -0.1667  0.2507
10944W        W13094   8.949   5.793   5.568  0.0190  0.1595  0.1253
10945W        W13095  24.289   5.944   2.520 -0.1268  0.1601  0.0940
10946W        W13096   0.300   4.808  33.341  0.1633 -0.2083 -0.0628
10947W        W13097  19.716   5.183   4.260 -0.2138  0.0427 -0.0706
10948W        W13098  18.396   3.331  27.430 -0.0085 -0.2334 -0.2864
10949W        W13099  24.631   2.388   8.466 -0.0331 -0.3569 -0.2213
10950W        W13100   3.375   1.419  32.912  0.1505  0.3628 -0.0583
10951W        W13101  16.948   4.573   4.649  0.1914  0.2580  0.0965
10952W        W13102   7.432   1.774   0.251  0.0147 -0.1586  0.0019
10953W        W13103   2.142   2.888  11.060  0.0616  0.0744 -0.0012
10954W        W13104   6.231   6.497  13.439  0.1776  0.0361 -0.0936
10955W        W13105  25.340   1.252  11.742  0.2013 -0.0475  0.0662
10956W        W13106   5.133   1.512  21.480 -0.0145  0.1698  0.2260
10957W        W13107  17.038   5.518  10.501 -0.1567 -0.2903  0.3351
10958W        W13108  17.734   1.976  12.141 -0.1220  0.2603  0.0674
10959W        W13109  20.909   2.688  20.900  0.0741  0.1401 -0.0967
10960W        W13110  24.257   1.482  20.638  0.2086  0.0176  0.2168
10961W        W13111   9.633   3.735  25.275 -0.0436  0.2919  0.1068
10962W        W13112  10.506   4.858   2.371 -0.2215  0.2344  0.0431
10963W        W13113  22.235   1.997  34.446  0.0575 -0.1785  0.0237
10964W        W13114  20.369   5.084  25.302  0.0834  0.0118  0.0241
10965W        W13115  24.968   4.381  27.428  0.3125  0.1151 -0.2341
10966W        W13116   8.814   2.578  31.260 -0.2001 -0.0931 -0.1097
10967W        W13117   7.018   2.113  30.955  0.1065 -0.0466  0.0380
10968W        W13118   6.680   1.724  12.407 -0.0728  0.0653 -0.0156
10969W        W13119   3.104   4.684   7.809 -0.1680 -0.0161 -0.0529
10970W        W13120  24.516   4.090  23.712 -0.1693  0.0328  0.1903
10971W        W13121  11.105   0.918   8.732  0.1942  0.1933  0.1218
10972W        W13122  17.966   5.645  22.563 -0.0830 -0.0926  0.1294
10973W        W13123  17.031   5.199  27.602  0.0604  0.3827  0.2305
10974W        W13124  24.682   6.303   4.836  0.0091  0.2115  0.0760
10975W        W13125  12.842   1.886  20.808  0.3706  0.0283 -0.3816
10976W        W13126   1.266   3.681  32.007  0.2086  0.0122 -0.1036
10977W        W13127   4.372   3.484  34.556  0.4844  0.2815  0.1007
10978W        W13128   0.312   0.572   9.118  0.4875 -0.1104 -0.1194
10979W        W13129  12.805   2.317   7.763  0.2781  0.1034  0.1253
10980W        W13130  16.424   4.159   7.530 -0.0691  0.0399  0.0245
10981W        W13131  25.173   1.215  34.996 -0.1440 -0.1504  0.2692
10982W        W13132  10.202   4.459   5.336  0.0983  0.0662 -0.1300
10983W        W13133  23.167   4.741  22.219  0.1799 -0.0465  0.0855
10984W        W13134  17.799   1.972  14.829  0.0616 -0.1254  0.1055
10985W        W13135   5.806   6.100  10.639  0.0992  0.1275 -0.1220
10986W        W13136  19.277   2.971  22.049  0.0651  0.0979 -0.0856
10987W        W13137   4.489   2.979  28.307 -0.2084  0.0580  0.1653
10988W        W13138   3.726   0.029   7.666  0.1341  0.1598  0.1965
10989W        W13139   6.970   3.371   6.525  0.0662  0.1467 -0.1348
10990W        W13140   6.682   0.917  11.683  0.2108  0.2150  0.3087
10991W        W13141   6.072   1.765   4.765  0.0162 -0.1606 -0.5138
10992W        W13142   0.671   0.871  25.467  0.3304 -0.4868 -0.0251
10993W        W13143   4.036   2.522  31.617 -0.1790  0.0646  0.2120
10994W        W13144  17.823   3.077  31.778  0.0259 -0.0049 -0.0456
10995W        W13145  10.222   4.230  31.819  0.2371 -0.0629 -0.3921
10996W        W13146  22.644   5.461  34.567  0.1638  0.1341 -0.1160
10997W        W13147   4.735   4.663  23.031  0.3055 -0.2059 -0.0581
10998W        W13148  19.152   6.166   2.476  0.0799  0.1318 -0.2243
10999W        W13149  18.005   4.516  34.601 -0.1382  0.2284  0.2105
11000W        W13150  19.255   0.419  28.097  0.1751 -0.0441  0.0027
11001W        W13151   0.503   4.481  30.456 -0.0389  0.0165  0.1092
11002W        W13152   9.289   2.450   5.693 -0.0320 -0.1830 -0.1340
11003W        W13153   4.363   2.155   4.906 -0.0500  0.0433  0.0210
11004W        W13154  22.868   4.138  11.669  0.1640  0.1791 -0.0655
11005W        W13155  17.842   5.608  12.578 -0.2245 -0.0440  0.0694
11006W        W13156  21.944   5.659   4.377 -0.1310  0.2049 -0.4247
11007W        W13157  25.358   4.546  33.185  0.0004  0.0276 -0.1347
11008W        W13158  12.737   3.605  14.910  0.0973 -0.0568  0.1478
11009W        W13159   5.076   4.210  21.120  0.2234 -0.0987 -0.0757
11010W        W13160  19.372   1.312  27.753  0.2257 -0.0453  0.2898
11011W        W13161   3.341   4.319   1.400  0.0774 -0.0828 -0.0456
11012W        W13162   4.502   0.561   7.281 -0.0080 -0.3217 -0.2041
11013W        W13163  20.754   0.978  35.259 -0.0677 -0.0878 -0.2339
11014W        W13164   3.829   4.349   3.155 -0.2683 -0.0064  0.1433
11015W        W13165   3.440   2.516  35.744  0.6204 -0.2458 -0.0268
11016W        W13166   8.544   0.981   0.521  0.3407  0.0260 -0.1966
11017W        W13167  21.335   1.186  35.369  0.1650  0.0901 -0.2499
11018W        W13168  18.523   4.955  25.478 -0.2288 -0.2449  0.2871
11019W        W13169  21.728   3.845  35.926  0.0870  0.1735  0.0736
11020W        W13170   3.782   3.562  34.302 -0.1266 -0.1818  0.2354
11021W        W13171  21.466   5.960   2.555 -0.0281  0.1034  0.0599
11022W        W13172  16.861   5.036   0.816 -0.0393 -0.0910 -0.0288
11023W        W13173  15.975   0.294  31.383  0.2708 -0.0493  0.2307
11024W        W13174  17.281   4.882   4.940  0.2610  0.1909  0.2726
11025W        W13175  11.087   5.771  12.386 -0.2479  0.2680 -0.2934
11026W        W13176   5.269   0.943   9.740 -0.1309  0.0802 -0.0852
11027W        W13177  20.605   1.731  12.596  0.1145 -0.0196 -0.0184
11028W        W13178   2.331   2.782  13.325 -0.1817  0.1212  0.4033
11029W        W13179   5.638   6.461  12.726 -0.3716  0.0175  0.1089
11030W        W13180   0.727   0.542  22.975  0.1443  0.1111  0.0463
11031W        W13181   7.372   5.375  30.662 -0.2068 -0.1544 -0.0375
11032W        W13182   3.229   4.443  13.568  0.2537 -0.0671 -0.0697
11033W        W13183  12.158   5.356   1.929  0.1778 -0.0795  0.2180
11034W        W13184   9.825   2.554  24.718  0.1819 -0.1486  0.2289
11035W        W13185   9.958   3.048  34.929 -0.0238  0.1834  0.0656
11036W        W13186  23.173   1.728  32.921 -0.0261  0.4675  0.0798
11037W        W13187  16.948   5.999  24.956 -0.1314 -0.1652 -0.1968
11038W        W13188   1.468   6.184  33.396  0.0104 -0.1200  0.2142
11039W        W13189  23.469   1.238  26.387  0.1222  0.3131  0.0467
11040W        W13190  22.766   2.986   0.908  0.1186 -0.4428 -0.1674
11041W        W13191  11.857   2.512  33.712 -0.0006  0.0568  0.0885
11042W        W13192  10.664   4.931  22.280  0.1473 -0.3821  0.0739
11043W        W13193   8.596   2.843   8.438 -0.0198 -0.2672  0.1499
11044W        W13194  18.646   2.549  29.722 -0.1772  0.2179 -0.4903
11045W        W13195  24.823   2.300   4.714  0.2372  0.1380 -0.1682
11046W        W13196  21.402   5.023  13.031  0.0938 -0.0363 -0.0738
11047W        W13197   7.711   4.338  11.416 -0.3141  0.1006 -0.0579
11048W        W13198  17.361   1.381  28.386 -0.0713  0.1260 -0.0072
11049W        W13199  23.685   3.665  25.355 -0.0090  0.1243 -0.1897
11050W        W13200  11.904   6.390  30.053 -0.0690  0.1752 -0.0435
11051W        W13201  10.245   3.682  34.798 -0.1529  0.2497  0.2031
11052W        W13202  11.499   2.017   6.489  0.0365 -0.4340 -0.0598
11053W        W13203   9.999   3.414  33.504 -0.0415 -0.0470 -0.1568
11054W        W13204  16.359   2.024  21.441  0.1184 -0.0735 -0.2048
11055W        W13205  16.032   3.156  28.392 -0.2921 -0.1839  0.2479
11056W        W13206   4.625   0.074  34.386  0.3233 -0.0840  0.0061
11057W        W13207  12.918   2.806   4.996 -0.2226 -0.0867 -0.3178
11058W        W13208   5.940   0.058  31.262  0.0931 -0.1283 -0.1873
11059W        W13209  16.560   3.841  14.988 -0.0652 -0.0263  0.0086
11060W        W13210  16.399   1.171  15.554 -0.0128 -0.0440 -0.0334
11061W        W13211  21.350   5.004   8.016 -0.2234  0.1258  0.1037
11062W        W13212   6.084   0.600  34.932  0.1132  0.3049 -0.0794
11063W        W13213   8.628   5.664  32.452  0.1206 -0.2746 -0.4730
11064W        W13214  13.510   3.507  32.159 -0.0399  0.1939 -0.0260
11065W        W13215  12.356   4.675  28.242  0.0227 -0.0734  0.1885
11066W        W13216  13.904   0.333  35.903  0.2736 -0.3931 -0.3197
11067W        W13217  24.994   4.719  10.832 -0.1017  0.1490  0.3636
11068W        W13218   9.127   4.368   5.145  0.0049  0.1188  0.0128
11069W        W13219  11.970   4.262  32.302 -0.2294 -0.3518  0.1287
11070W        W13220  23.158   1.033  14.379 -0.0432  0.1050  0.2181
11071W        W13221   8.847   0.744   9.245 -0.1013 -0.1871  0.0029
11072W        W13222  16.485   0.407  31.193 -0.0005  0.1587  0.4124
11073W        W13223  17.682   3.599   4.698 -0.2465  0.1229  0.0138
11074W        W13224   5.478   2.721  23.428  0.1461 -0.1577 -0.1787
11075W        W13225  23.542   5.918  10.154  0.2106 -0.0478  0.1356
11076W        W13226  22.649   3.554  36.119 -0.3416  0.0181  0.0280
11077W        W13227   7.445   0.806  10.096 -0.2503  0.2635 -0.2040
11078W        W13228  11.492   0.671  27.096 -0.0083 -0.0924 -0.1041
11079W        W13229   3.421   1.807  26.366 -0.0151 -0.0685 -0.0071
11080W        W13230  14.685   1.900  32.550 -0.0788  0.0021 -0.1277
11081W        W13231   8.229   5.870  22.818  0.0807  0.1504 -0.1350
11082W        W13232   8.841   2.250   8.106  0.0654 -0.0855 -0.1171
11083W        W13233  13.780   4.258  35.881 -0.2141  0.1028  0.2163
11084W        W13234   2.277   6.091  10.860 -0.3662 -0.2448 -0.0194
11085W        W13235   1.876   1.481  30.137  0.1334  0.2333  0.0862
11086W        W13236   3.156   2.281   0.126 -0.0156 -0.0284 -0.2063
11087W        W13237  19.862   1.848  27.461  0.0090  0.0471 -0.1263
11088W        W13238  24.218   6.570  14.929  0.1204  0.5210 -0.1482
11089W        W13239   4.910   6.052   1.084  0.1251  0.0737 -0.1451
11090W        W13240   7.403   3.969   3.613 -0.0336  0.1315  0.2035
11091W        W13241  21.038   1.257   3.010  0.1575  0.2532 -0.2366
11092W        W13242   3.801   6.327  33.725  0.3305  0.0287  0.1663
11093W        W13243  13.259   2.613  23.384  0.1486  0.1272 -0.2365
11094W        W13244  23.066   0.804   1.571  0.2962 -0.1205 -0.1149
11095W        W13245  18.895   5.790  12.734 -0.2966  0.0070  0.1851
11096W        W13246  25.257   5.102   1.531  0.1068  0.2325 -0.0758
11097W        W13247   3.736   3.974  20.856  0.2847  0.2702  0.0590
11098W        W13248   7.187   0.797  31.050  0.0579 -0.0926 -0.4798
11099W        W13249  13.015   4.643   9.358  0.0689 -0.0054  0.0291
11100W        W13250  15.595   3.884   5.542 -0.0334  0.1281 -0.0233
11101W        W13251   8.029   5.404  27.260  0.2668 -0.2345 -0.1150
11102W        W13252  11.374   4.794   2.789 -0.1019 -0.1332  0.0232
11103W        W13253  21.944   1.488  31.341 -0.0567  0.0361 -0.1447
11104W        W13254   4.517   3.707  32.792 -0.2619 -0.1385  0.1731
11105W        W13255   2.459   2.599  13.737  0.0068 -0.0339 -0.0643
11106W        W13256  13.788   1.392   5.939 -0.0372  0.2378  0.1784
11107W        W13257  13.728   6.045  34.570  0.1162  0.1368 -0.3042
11108W        W13258  25.591   5.672   9.841  0.2235 -0.0125 -0.0962
11109W        W13259  22.671   6.209  12.507  0.0007  0.0543 -0.0175
11110W        W13260   2.626   6.186  23.918 -0.1983  0.1972 -0.3583
11111W        W13261  19.027   0.106  23.857 -0.3293 -0.2279 -0.2600
11112W        W13262   6.258   3.672  35.705 -0.0957 -0.0375  0.1985
11113W        W13263  19.020   2.816   2.826 -0.0140 -0.1212 -0.0088
11114W        W13264   8.523   1.543   0.226  0.0081 -0.2391 -0.0347
11115W        W13265  20.524   5.163  27.610  0.2804 -0.0786  0.2573
11116W        W13266  15.344   5.608  32.681  0.0041  0.0050 -0.1323
11117W        W13267  12.118   4.399  23.868 -0.1231 -0.1023 -0.0034
11118W        W13268   7.984   6.526  13.776  0.2966  0.2324 -0.2382
11119W        W13269   3.756   2.840   6.792  0.1956  0.1424 -0.2588
11120W        W13270   4.388   1.909  13.683 -0.0150 -0.3076  0.1062
11121W        W13271  21.487   2.632   5.830  0.1111  0.2987  0.2770
11122W        W13272  17.530   1.208  13.918 -0.0951  0.1185  0.2729
11123W        W13273  15.522   1.066   2.443  0.2439 -0.0598  0.0617
11124W        W13274   7.022   1.352   7.734 -0.0539  0.2001  0.1086
11125W        W13275   2.302   3.770  35.416  0.1930  0.2003 -0.3257
11126W        W13276  25.971   2.150   6.400 -0.0716  0.1065  0.0665
11127W        W13277  11.898   0.951  26.815 -0.0452  0.2622 -0.3795
11128W        W13278  13.844   3.485   2.990 -0.2086  0.0261  0.0961
11129W        W13279  19.326   1.135  32.867  0.1112  0.0014 -0.1648
11130W        W13280  17.566   2.460   0.093 -0.1899  0.0727  0.0323
11131W        W13281  18.643   1.964  29.024 -0.0797  0.0607 -0.1394
11132W        W13282  19.506   1.369  31.355 -0.1192 -0.2292 -0.1391
11133W        W13283  18.088   2.016  13.911  0.1900 -0.0770 -0.0666
11134W        W13284   0.798   4.981   9.386  0.2493  0.2860 -0.1615
11135W        W13285  15.989   6.439  26.768  0.0178  0.0036  0.0833
11136W        W13286  20.850   4.215  33.545 -0.0987  0.1130  0.0304
11137W        W13287   7.509   0.256  15.187 -0.2107 -0.0784 -0.1493
11138W        W13288   7.044   3.255  21.221  0.0767  0.0153 -0.1037
11139W        W13289  10.172   5.155   6.669 -0.0498 -0.1354  0.0896
11140W        W13290   8.659   5.284  28.925  0.0449 -0.1446  0.3887
11141W        W13291   8.967   4.075  32.373  0.1769  0.1436 -0.0348
11142W        W13292  18.113   5.686  22.055 -0.1353 -0.0447 -0.5112
11143W        W13293   2.849   1.225  32.860 -0.0083  0.0679  0.2363
11144W        W13294   5.175   4.818   5.128  0.0633  0.2263  0.1617
11145W        W13295  21.357   2.519   0.657  0.0381 -0.0721 -0.2213
11146W        W13296  21.127   0.515  35.379  0.4884 -0.5135 -0.1046
11147W        W13297  22.481   5.770  27.870  0.2575 -0.0225  0.0412
11148W        W13298   9.407   4.161  14.682 -0.1868  0.1512  0.0220
11149W        W13299  12.585   0.263   7.340  0.0901 -0.2565  0.1950
11150W        W13300  25.621   2.499   6.397 -0.0891 -0.1261 -0.2121
11151W        W13301   0.464   3.443  20.958  0.1974 -0.0142 -0.1040
11152W        W13302   7.464   1.157   8.346  0.0260 -0.1071  0.3204
11153W        W13303  20.299   1.871  10.796  0.0233 -0.0550 -0.2728
11154W        W13304   9.805   1.486   1.607  0.1709  0.0168 -0.0118
11155W        W13305  15.743   2.738  25.257 -0.0203  0.1054 -0.0470
11156W        W13306  13.609   4.536   8.209  0.0006 -0.0666 -0.1525
11157W        W13307  18.876   2.675  28.646 -0.3396 -0.3412 -0.1539
11158W        W13308   3.235   3.815  24.580 -0.0771 -0.1997  0.0726
11159W        W13309   8.699   0.908  14.617  0.1108 -0.2741 -0.0226
11160W        W13310   7.113   0.501  13.694  0.2834 -0.0950  0.0369
11161W        W13311  10.025   4.731  14.964  0.2066 -0.0948 -0.2326
11162W        W13312  20.326   0.411   8.139  0.1507 -0.0056 -0.0537
11163W        W13313   1.675   5.429  10.400  0.1446 -0.0447  0.0709
11164W        W13314  11.571   5.800  23.146  0.3820 -0.1023  0.1829
11165W        W13315   9.418   3.988   1.999  0.1328  0.2537 -0.1127
11166W        W13316  11.396   3.008  34.412 -0.1854 -0.0200 -0.0181
11167W        W13317  25.490   0.172  11.651 -0.2045 -0.2673  0.3752
11168W        W13318  25.044   6.335  28.907  0.2115 -0.2474 -0.4066
11169W        W13319   9.867   5.930   5.716 -0.0243  0.0863  0.0280
11170W        W13320  10.165   1.099   0.005 -0.3961  0.1180  0.1596
11171W        W13321   6.676   6.575  25.420 -0.0937  0.2956  0.0622
11172W        W13322  12.431   1.077  34.685 -0.1372  0.0094 -0.1011
11173W        W13323   2.461   0.953  14.486 -0.0844  0.0461 -0.0166
11174W        W13324   3.197   1.623  30.146 -0.2795  0.3441  0.0655
11175W        W13325  20.219   2.275   5.955 -0.1526  0.1061  0.2736
11176W        W13326   0.436   0.495  22.510 -0.1367 -0.1008  0.3475
11177W        W13327  14.837   4.131   0.770  0.1373 -0.4752  0.1936
11178W        W13328   1.343   2.253  25.826  0.0943 -0.0350  0.2423
11179W        W13329  23.276   5.229  12.170  0.1527  0.2334 -0.2481
11180W        W13330   0.209   3.540  28.469 -0.0420 -0.0647 -0.1049
11181W        W13331  15.871   4.336   4.803 -0.1295 -0.1859  0.1887
11182W        W13332  16.211   3.514  33.317 -0.0529  0.0249 -0.0203
11183W        W13333  10.534   3.032  24.733  0.0732  0.0285  0.1210
11184W        W13334   4.577   0.387  27.950 -0.0778 -0.1457 -0.1569
11185W        W13335  14.665   2.213  22.458  0.0123  0.0219 -0.0385
11186W        W13336   1.815   5.380   7.453 -0.3811  0.2332 -0.0712
11187W        W13337  20.116   5.414  10.066  0.0034  0.1406  0.3138
11188W        W13338  18.995   0.558   4.803  0.0922 -0.0410 -0.2208
11189W        W13339  17.109   2.090  30.097  0.0877  0.0766 -0.2162
11190W        W13340  11.008   3.258  10.836 -0.0569 -0.2192  0.0442
11191W        W13341  24.919   3.692  29.029 -0.1185 -0.0457 -0.2413
11192W        W13342  25.767   4.635   4.189 -0.0003  0.0812 -0.2035
11193W        W13343  13.147   2.616   5.416 -0.1474  0.0582  0.0514
11194W        W13344  22.539   1.149  32.032 -0.3337 -0.2424 -0.1885
11195W        W13345   2.615   0.452  11.149 -0.0464 -0.3522  0.0027
11196W        W13346  14.270   6.351  23.875  0.0495  0.3668  0.2201
11197W        W13347  22.550   1.484  23.859 -0.4074  0.0833 -0.0020
11198W        W13348  15.929   6.557   6.975  0.2727  0.2177  0.2792
11199W        W13349  22.071   2.879   6.719  0.0554 -0.3554  0.1360
11200W        W13350  14.642   0.399   2.088 -0.2563  0.1437  0.2282
11201W        W13351   9.793   4.474  34.377  0.1556  0.1245 -0.1289
11202W        W13352   6.658   4.783   7.692 -0.2180 -0.0757 -0.1623
11203W        W13353  13.950   0.282   7.852 -0.1255 -0.0874  0.0796
11204W        W13354   9.478   6.169  31.246 -0.1179 -0.2053  0.3080
11205W        W13355  22.171   6.077  26.365 -0.0221 -0.1580 -0.0801
11206W        W13356  17.522   1.142  27.885 -0.0663  0.0154  0.3552
11207W        W13357   6.234   0.477  14.527  0.2343 -0.0537  0.3539
11208W        W13358   0.444   0.699  20.105 -0.1595  0.1856 -0.0957
11209W        W13359   8.393   3.198   7.632 -0.0606  0.0371  0.1138
11210W        W13360  22.275   1.737  22.922  0.1490  0.2284 -0.2337
11211W        W13361  22.418   3.914   1.155 -0.2523  0.0097 -0.1389
11212W        W13362  20.337   1.310  22.215  0.1209 -0.0863  0.0717
11213W        W13363  18.745   2.000  12.678 -0.1109  0.0636 -0.2106
11214W        W13364   6.800   0.097   8.580  0.1263  0.1429  0.0760
11215W        W13365  24.314   2.147  35.557 -0.2770  0.2176 -0.0705
11216W        W13366  21.991   0.394  35.275 -0.0714 -0.4049  0.3658
11217W        W13367  20.755   3.928   6.783  0.1881  0.3328 -0.0856
11218W        W13368   7.172   2.580   9.565  0.2929  0.0726 -0.0486
11219W        W13369  25.710   5.023  34.173 -0.1687  0.4220  0.1249
11220W        W13370  12.743   3.985   5.157 -0.2061  0.1735 -0.2778
11221W        W13371   3.461   5.305   0.580 -0.0751  0.0914  0.0309
11222W        W13372  11.802   1.167  24.954  0.1371 -0.3827 -0.2224
11223W        W13373   4.428   6.480   2.974  0.0155 -0.0589 -0.0401
11224W        W13374  10.142   0.384  34.319  0.1638 -0.1710  0.0025
11225W        W13375  20.315   6.428  25.657 -0.0190  0.2621  0.0948
11226W        W13376   6.569   0.985  25.543  0.1884 -0.1040 -0.0104
11227W        W13377  12.123   1.228  15.578  0.1224 -0.1678  0.2682
11228W        W13378   3.028   5.494   4.695  0.1363  0.1784  0.0008
11229W        W13379   3.668   1.813   1.796  0.2462 -0.0595  0.2035
11230W        W13380  23.294   1.601  21.504 -0.5081 -0.0611  0.0007
11231W        W13381  10.193   3.016   9.197 -0.0017  0.0466 -0.3439
11232W        W13382   7.320   2.648   0.496  0.0799  0.2376  0.3028
11233W        W13383  18.335   3.112  31.380 -0.2384 -0.1992  0.1613
11234W        W13384   2.398   3.322  28.247 -0.3863 -0.0254  0.1565
11235W        W13385   1.803   3.930   8.880  0.0190  0.3056 -0.0221
11236W        W13386  23.489   4.242   2.053 -0.0000 -0.2189 -0.1149
11237W        W13387  10.087   6.250  30.066  0.0815 -0.1164 -0.3623
11238W        W13388  12.029   0.185  31.613  0.1028  0.0616 -0.0605
11239W        W13389   6.056   2.844   1.974 -0.1963  0.0543  0.0435
11240W        W13390  11.625   5.307   0.529  0.3967  0.1115 -0.0682
11241W        W13391  17.900   4.866  27.590  0.2171  0.0516 -0.3618
11242W        W13392   0.041   3.709   6.111 -0.1236  0.4657 -0.0227
11243W        W13393  23.296   4.478  10.199  0.3643  0.2718 -0.0842
11244W        W13394   7.692   3.691  22.523 -0.3378 -0.0122  0.2203
11245W        W13395   5.551   0.404  31.273  0.0378  0.0795 -0.1870
11246W        W13396   7.339   2.090   7.166  0.3720  0.0387 -0.1247
11247W        W13397  23.322   2.099  34.690  0.0790  0.0539  0.1163
11248W        W13398  25.043   3.183  11.108 -0.0258  0.0860  0.0176
11249W        W13399  21.447   3.780  20.285  0.0419  0.0963 -0.0629
11250W        W13400   3.363   2.259  23.631  0.0231  0.3250  0.3068
11251W        W13401  11.972   0.943   2.752 -0.1525 -0.0665  0.1609
11252W        W13402  18.390   3.852  27.419  0.1659  0.0196  0.0848
11253W        W13403  18.177   4.676  25.642  0.0187 -0.2949 -0.2273
11254W        W13404  24.679   6.292  34.496  0.2937 -0.3374  0.2094
11255W        W13405  23.279   4.005   2.807 -0.1214  0.4168  0.1879
11256W        W13406  13.396   5.105  30.474  0.1019 -0.1321 -0.1570
11257W        W13407  10.419   3.409   9.452  0.1198  0.2936 -0.2226
11258W        W13408   9.129   4.164  35.499 -0.3325  0.2480 -0.1440
11259W        W13409  14.980   6.357  21.556 -0.3128 -0.0487 -0.2364
11260W        W13410   0.652   0.687  33.925  0.0330 -0.0502 -0.1063
11261W        W13411   5.677   1.668   0.839  0.1279 -0.1323  0.2777
11262W        W13412  14.109   3.462  25.352  0.1960 -0.0684  0.0979
11263W        W13413   2.533   6.095   2.182 -0.1881 -0.0075  0.1000
11264W        W13414  25.066   0.044  27.516 -0.0534  0.0463 -0.2409
11265W        W13415  19.303   2.920  15.269 -0.1642  0.0081  0.2295
11266W        W13416  14.660   5.556  11.021  0.4052  0.0249 -0.0676
11267W        W13417   3.449   2.060  30.014  0.1212  0.1965  0.3157
11268W        W13418   2.349   1.346  34.221  0.2249 -0.3775  0.1187
11269W        W13419  21.892   6.406   4.617 -0.1766 -0.0947  0.0696
11270W        W13420   1.636   5.389  30.094 -0.1685  0.2439  0.1425
11271W        W13421  20.818   2.610   9.719  0.2523 -0.0888 -0.1189
11272W        W13422  14.865   2.948  25.053 -0.0589  0.0020  0.0353
11273W        W13423  12.664   3.983   1.962 -0.0257  0.1983  0.0203
11274W        W13424  26.306   2.209  27.148 -0.0406 -0.0371 -0.0169
11275W        W13425  13.088   2.456  24.110  0.0354 -0.1201 -0.0274
11276W        W13426   9.763   5.516   3.990  0.1378  0.2502  0.0502
11277W        W13427  22.564   3.081  27.401 -0.5904 -0.0602  0.1246
11278W        W13428  26.022   0.895  13.004  0.2559  0.0948  0.1562
11279W        W13429   8.832   3.433  21.220 -0.0485  0.1637  0.2120
11280W        W13430  14.525   2.006  10.294  0.0392 -0.0737 -0.2844
11281W        W13431  20.234   5.471  22.480  0.0508 -0.2847 -0.0683
11282W        W13432  15.776   3.631   8.546 -0.0985  0.2121 -0.0313
11283W        W13433  11.755   1.705  11.465 -0.0826  0.3115 -0.1690
11284W        W13434   7.822   4.958  27.087 -0.0223 -0.0169 -0.1693
11285W        W13435  24.008   5.027   8.441  0.0267  0.2469  0.2405
11286W        W13436   8.848   2.564  33.224 -0.1344 -0.1483  0.0858
11287W        W13437  25.999   1.832  27.200  0.1956  0.2135  0.2186
11288W        W13438   8.132   3.477  10.136 -0.0606 -0.0352 -0.3217
11289W        W13439  23.704   3.905  22.449 -0.2720 -0.0606  0.0019
11290W        W13440  22.660   1.876  36.140  0.2828 -0.0553 -0.0041
11291W        W13441   3.449   1.891  25.859 -0.0393  0.0883 -0.0811
11292W        W13442  21.995   2.257  33.951  0.0382 -0.5882  0.0143
11293W        W13443  14.806   1.047  11.299 -0.0155  0.1532 -0.2176
11294W        W13444   2.804   3.338  33.400  0.2339 -0.3653  0.0050
11295W        W13445   8.094   1.139  31.664  0.0346  0.0404 -0.0884
11296W        W13446   1.876   5.162  11.924  0.1720  0.1061 -0.1149
11297W        W13447   0.515   5.420  28.611 -0.0388 -0.1873  0.2378
11298W        W13448  17.583   3.675   1.063 -0.2662 -0.1604 -0.2349
11299W        W13449   8.454   3.694  25.385 -0.1864 -0.0326  0.0288
11300W        W13450  15.812   1.552  25.687  0.0809  0.1333 -0.0727
11301W        W13451   3.810   3.581   8.588 -0.1012  0.1213  0.2583
11302W        W13452  24.856   0.454   8.863  0.0497 -0.1497 -0.1559
11303W        W13453  22.335   1.795   2.694  0.0773  0.1945  0.0262
11304W        W13454  21.306   0.154  26.381 -0.2124 -0.0221 -0.4209
11305W        W13455  16.193   3.740  15.423  0.0345  0.3129 -0.0059
11306W        W13456  10.424   1.220  24.424 -0.0261  0.3581  0.0643
11307W        W13457   6.352   0.418  31.329 -0.0981 -0.0823  0.2856
11308W        W13458  16.000   0.284  26.348  0.0504  0.1232 -0.0711
11309W        W13459  16.358   2.710  32.657  0.1288  0.0837  0.0342
11310W        W13460  25.650   1.742  28.451  0.1285  0.0623  0.0516
11311W        W13461   7.786   0.518  22.577 -0.0374 -0.1760 -0.0377
11312W        W13462  14.333   3.254  29.712  0.0106 -0.0914 -0.1656
11313W        W13463  10.457   1.642  14.080  0.2420  0.0500  0.0967
11314W        W13464  13.306   0.456   7.284 -0.1879 -0.1634 -0.1792
11315W        W13465   1.313   6.199  20.906 -0.0289  0.1837  0.1252
11316W        W13466  24.655   2.382  13.317 -0.1056  0.0071  0.0210
11317W        W13467  11.697   4.680   7.119 -0.0924 -0.1036 -0.0921
11318W        W13468   1.106   6.202   5.801 -0.2628  0.0470  0.1054
11319W        W13469   7.804   6.462  30.817  0.1239 -0.1655 -0.0318
11320W        W13470  10.301   5.920  14.652 -0.1032 -0.2867  0.1635
11321W        W13471  23.884   3.946  11.918 -0.0556 -0.0323 -0.1836
11322W        W13472   1.529   3.687  14.936  0.2509 -0.0209 -0.1610
11323W        W13473  24.534   3.824  36.139 -0.0236  0.0494  0.2379
11324W        W13474  10.983   4.757   0.922  0.0468  0.1524 -0.1843
11325W        W13475   5.592   4.298  13.713 -0.1644  0.0689  0.0121
11326W        W13476   8.219   1.605  15.306 -0.1806  0.2320  0.0163
11327W        W13477  13.245   0.588  24.984 -0.0618 -0.1298 -0.1151
11328W        W13478   1.905   4.463  24.664 -0.0158  0.1313 -0.4641
11329W        W13479  23.837   2.956  11.682  0.2306 -0.0051 -0.1799
11330W        W13480  23.534   1.537  12.633  0.1173  0.0642  0.0307
11331W        W13481  10.512   0.181  10.939  0.0689 -0.1584  0.0094
11332W        W13482   4.665   5.118  25.734  0.0416 -0.3380  0.0496
11333W        W13483  24.172   0.887  12.873 -0.0120  0.0760 -0.0416
11334W        W13484   7.805   1.058  23.822 -0.0553 -0.1729  0.4544
11335W        W13485   7.471   5.822  13.290  0.1019  0.0408 -0.0906
11336W        W13486  10.537   5.783  34.105  0.0133  0.1375  0.1448
11337W        W13487   5.718   1.066  28.782  0.0203 -0.1573 -0.2625
11338W        W13488  25.076   0.439  21.703 -0.1913  0.1440  0.2441
11339W        W13489   7.528   6.452   2.868 -0.1436 -0.2761  0.1215
11340W        W13490  13.646   1.913   1.010  0.2084  0.0427  0.1207
11341W        W13491  23.609   5.338  35.571  0.4167  0.0039 -0.1767
11342W        W13492   4.901   2.831  29.904  0.0990  0.0576 -0.2952
11343W        W13493  23.851   2.256  30.952  0.0478  0.2648  0.0722
11344W        W13494  22.129   0.305   0.445 -0.1453  0.2363  0.0182
11345W        W13495  16.542   4.009  27.073  0.0307 -0.2133 -0.0092
11346W        W13496  14.867   6.445  33.588  0.2440  0.2745  0.0282
11347W        W13497  13.741   0.568  22.131 -0.2136 -0.1376 -0.2568
11348W        W13498  20.318   4.060  14.613 -0.0358  0.0594  0.1926
11349W        W13499  10.870   1.158  35.810  0.3964  0.1373 -0.0831
11350W        W13500   1.566   4.085  21.625  0.1452  0.1335 -0.2682
11351W        W13501  19.913   4.172  22.495 -0.0555 -0.0288 -0.0548
11352W        W13502   7.162   5.087  35.790 -0.0084 -0.2260 -0.1091
11353W        W13503  11.073   0.991  34.555  0.4333 -0.1774  0.4500
11354W        W13504  23.443   3.453  30.998  0.2225  0.1401  0.0383
11355W        W13505   8.900   2.662  23.433 -0.1165 -0.0676 -0.0294
11356W        W13506  24.135   0.747  21.853  0.1607 -0.0005 -0.0649
11357W        W13507   6.807   3.810  12.076  0.1411 -0.1948  0.3083
11358W        W13508  13.768   1.478  20.568 -0.0194  0.0308 -0.0419
11359W        W13509   1.712   4.399  23.733 -0.0459 -0.1657 -0.1490
11360W        W13510  16.228   3.560  13.049 -0.1482  0.2672  0.2103
11361W        W13511   3.694   0.175  30.785 -0.2614  0.0283  0.1105
11362W        W13512  12.088   1.008   1.625  0.2823  0.0278 -0.2748
11363W        W13513   5.195   1.575   2.564  0.2560  0.3552 -0.3566
11364W        W13514  23.711   0.586  14.455 -0.3403  0.0060 -0.0356
11365W        W13515   8.527   0.778  32.311  0.2359  0.1948  0.2806
11366W        W13516  21.465   4.146  22.799  0.3080 -0.0013 -0.1929
11367W        W13517  17.588   0.240  34.690  0.0747 -0.0842 -0.2184
11368W        W13518  18.834   1.939  23.842  0.3408 -0.0814 -0.3094
11369W        W13519  13.901   1.513  15.492  0.0630 -0.1562 -0.0551
11370W        W13520  26.188   0.980  12.486 -0.0039  0.1058 -0.0317
11371W        W13521   9.048   4.678  13.095  0.0526  0.0513 -0.1936
11372W        W13522   1.950   6.156  26.565 -0.3008  0.0806 -0.0923
11373W        W13523   6.823   4.304   4.909  0.0330  0.1041 -0.1434
11374W        W13524  16.583   0.067  11.060 -0.0013  0.2181 -0.2312
11375W        W13525  17.167   2.691   3.917 -0.2847  0.0366 -0.1114
11376W        W13526  26.081   2.994   4.827  0.0389  0.3023  0.1289
11377W        W13527  11.459   3.120  35.436 -0.2670 -0.0492 -0.0058
11378W        W13528   7.202   2.232   2.152 -0.0673  0.0200  0.1585
11379W        W13529  13.606   5.477  32.355  0.0486  0.0454 -0.2249
11380W        W13530  12.410   4.712   6.368 -0.1765  0.0924 -0.0241
11381W        W13531   7.797   3.742  33.564 -0.3050  0.0190 -0.0021
11382W        W13532   4.153   5.231  15.801 -0.3844  0.1615 -0.3107
11383W        W13533  26.084   1.417  12.216 -0.1754  0.2220 -0.1959
11384W        W13534  11.607   0.872  25.396  0.3394 -0.0043  0.3750
11385W        W13535  23.787   0.114  23.736  0.1512  0.0616 -0.0019
11386W        W13536   7.916   3.091  35.565  0.1183 -0.1164  0.1880
11387W        W13537  14.960   3.379  27.680 -0.2113  0.0382  0.4684
11388W        W13538  17.015   2.257   6.017 -0.0741  0.0632  0.0709
11389W        W13539   2.644   1.803  13.922  0.1956 -0.0418  0.1534
11390W        W13540  15.278   4.965  34.990  0.0879  0.1047  0.1416
11391W        W13541   0.389   5.433  22.951  0.0340  0.2526 -0.1245
11392W        W13542  22.402   1.816   5.307 -0.1248 -0.2291  0.2766
11393W        W13543   8.963   1.327   6.173 -0.3207 -0.1667 -0.0783
11394W        W13544   8.865   0.139  20.791  0.0514  0.0009 -0.0181
11395W        W13545  10.773   6.335  14.571 -0.0406 -0.0514  0.2330
11396W        W13546  22.060   4.875  31.136  0.1460  0.2453  0.2088
11397W        W13547   5.039   3.201  14.697 -0.0869 -0.2713  0.0739
11398W        W13548  22.624   1.377   0.029 -0.0690 -0.1718 -0.2214
11399W        W13549  19.226   2.732  30.624  0.1148  0.1290 -0.1376
11400W        W13550   9.110   3.732  23.183  0.0866 -0.0172 -0.0923
11401W        W13551   3.842   3.201   9.141  0.1421 -0.1147 -0.1261
11402W        W13552   4.629   1.584  28.602  0.0832 -0.3476  0.2913
11403W        W13553  18.553   1.431   0.972 -0.0323 -0.1879 -0.0002
11404W        W13554  12.991   1.467  29.788  0.1990 -0.1531  0.0409
11405W        W13555  25.452   2.233  14.558 -0.0934  0.2706  0.0626
11406W        W13556  11.256   2.688   7.204 -0.0754  0.1371  0.2997
11407W        W13557  19.276   3.842   1.843 -0.2382  0.1409  0.2520
11408W        W13558  19.671   3.343  14.640 -0.1629  0.0966 -0.1798
11409W        W13559   8.268   2.399   4.910 -0.3212 -0.1020 -0.0131
11410W        W13560  16.410   2.443  23.992 -0.0394 -0.0995  0.1045
11411W        W13561  17.221   3.204   8.845  0.1161 -0.1173 -0.1918
11412W        W13562  14.448   5.345  10.594  0.0557 -0.2702  0.0097
11413W        W13563   0.416   3.806   9.764 -0.2918  0.1916  0.3055
11414W        W13564   7.784   0.102  35.986  0.1375 -0.0534  0.0162
11415W        W13565  18.570   3.494  21.151 -0.0578  0.0936 -0.0143
11416W        W13566  21.030   6.393  27.878  0.4661  0.0082 -0.1367
11417W        W13567  12.847   3.412  34.881 -0.1743 -0.0160 -0.0719
11418W        W13568   9.054   1.929   8.630 -0.1138  0.2800  0.2476
11419W        W13569  21.261   5.957  13.470  0.0751 -0.0155 -0.0171
11420W        W13570  23.112   1.233  31.351  0.0689 -0.1012 -0.0550
11421W        W13571  13.534   6.444  21.037  0.1303  0.1590 -0.0663
11422W        W13572  10.739   5.015  31.743 -0.3015  0.1571 -0.0680
11423W        W13573   1.744   4.402  11.083 -0.2728 -0.1905  0.1282
11424W        W13574   3.490   6.290  29.851  0.1106 -0.1232 -0.0149
11425W        W13575   8.504   2.591  26.838  0.2109 -0.2515  0.0128
11426W        W13576   4.403   4.716   9.153  0.0318 -0.0775 -0.1993
11427W        W13577  24.426   3.394  35.838 -0.1385 -0.0316 -0.0469
11428W        W13578   6.973   4.851  26.227 -0.2560  0.2379  0.0278
11429W        W13579   8.811   1.332   1.383 -0.1452  0.3106  0.4344
11430W        W13580  10.694   0.037  27.811  0.0925 -0.1183  0.3179
11431W        W13581  17.489   2.128  23.149  0.1109  0.6036  0.0251
11432W        W13582   4.242   1.983  23.834  0.1431 -0.2207 -0.3076
11433W        W13583  23.371   3.411  25.758 -0.0528  0.0054  0.0593
11434W        W13584   5.006   3.461   8.215  0.0665 -0.1375  0.0791
11435W        W13585   0.382   5.726  27.229 -0.0333 -0.0571 -0.0289
11436W        W13586  18.334   5.814  14.877  0.2919 -0.0859  0.0299
11437W        W13587  10.854   6.055  13.812 -0.3809 -0.0776  0.0133
11438W        W13588  25.748   1.993  25.404 -0.0986  0.1999 -0.1086
11439W        W13589   8.494   2.177   0.268 -0.0771 -0.2720  0.0327
11440W        W13590  10.439   3.753  20.908 -0.3702 -0.0051 -0.0584
11441W        W13591  22.995   5.995   5.594 -0.1798  0.3243  0.0193
11442W        W13592  22.318   2.709  21.965  0.0568 -0.1237 -0.2468
11443W        W13593  20.525   3.217   6.100 -0.0115 -0.0269  0.2238
11444W        W13594  16.689   5.979   6.017  0.0799  0.0365  0.0707
11445W        W13595  20.041   4.165  27.024  0.0431 -0.2372  0.1077
11446W        W13596  14.534   3.069   6.290 -0.0860 -0.2448 -0.0241
11447W        W13597   7.401   4.953  32.701 -0.0619 -0.2018 -0.0936
11448W        W13598  11.990   1.207   6.861  0.0125  0.0046 -0.0322
11449W        W13599  21.231   2.242   9.635  0.3177  0.0134  0.0680
11450W        W13600   4.264   1.833  30.893 -0.0368 -0.0597 -0.0137
11451W        W13601   7.522   5.406   7.688 -0.2386  0.0751 -0.1486
11452W        W13602   9.784   1.250  12.696  0.4721  0.2442  0.1457
11453W        W13603  17.732   2.050   4.387  0.3191 -0.3084  0.2379
11454W        W13604  20.269   1.379   9.273  0.2421 -0.3039  0.1744
11455W        W13605  21.690   3.908  30.506 -0.1985  0.0248 -0.1231
11456W        W13606  16.580   0.825  13.478 -0.0975 -0.0149  0.2530
11457W        W13607  26.099   2.798   4.404 -0.0536 -0.1759  0.1516
11458W        W13608  22.846   4.831  27.778 -0.4050  0.0618 -0.1730
11459W        W13609  15.901   4.522   8.203  0.1624  0.2259  0.0518
11460W        W13610  15.503   0.364  24.108 -0.2404  0.0037  0.0671
11461W        W13611   9.444   0.653  13.542  0.0825 -0.1562  0.0919
11462W        W13612  25.078   4.045   7.698 -0.0984 -0.1535  0.2016
11463W        W13613  19.337   1.231  12.462 -0.1107  0.0844 -0.1275
11464W        W13614  19.425   5.627  33.014  0.1544  0.0010  0.1307
11465W        W13615  18.499   3.835   7.446  0.3169  0.0778 -0.1895
11466W        W13616  17.424   1.077  21.136 -0.0265  0.1046 -0.1079
11467W        W13617   4.419   6.044   8.914 -0.1062  0.0071 -0.2960
11468W        W13618  12.229   6.314  34.049 -0.0006 -0.0445  0.0604
11469W        W13619  22.684   0.333   8.935  0.0305 -0.0070 -0.0090
11470W        W13620  17.764   6.052  31.809  0.0148  0.1832 -0.3437
11471W        W13621   0.940   0.201   5.898  0.1262  0.0743  0.3123
11472W        W13622   1.372   3.968  11.169  0.1233  0.0480  0.0912
11473W        W13623   2.158   5.230  22.206 -0.3544 -0.3261  0.1495
11474W        W13624   1.740   0.916   1.741 -0.0997  0.1006  0.0101
11475W        W13625   5.446   5.493  11.208  0.1546 -0.0963  0.0306
11476W        W13626  13.249   5.909  10.671  0.1934  0.1757  0.2853
11477W        W13627  16.439   4.641  25.356 -0.0962  0.0204  0.0163
11478W        W13628   5.802   4.337  11.778  0.1239  0.1263 -0.2197
11479W        W13629   3.856   6.506  35.073 -0.0303 -0.0891 -0.0510
11480W        W13630  14.844   3.675  12.755  0.2106  0.1441  0.0763
11481W        W13631  23.922   2.713  27.377  0.3084  0.0579  0.1065
11482W        W13632  15.966   5.398  27.750 -0.1150 -0.0713  0.1737
11483W        W13633   2.258   2.781  30.992 -0.0682  0.0303 -0.0006
11484W        W13634  13.575   2.190   4.154  0.0541 -0.3513 -0.0096
11485W        W13635  21.842   1.845  30.500  0.0274  0.0907  0.1254
11486W        W13636   5.003   0.110  14.442  0.0207 -0.2284 -0.1426
11487W        W13637  24.132   3.215  22.113  0.1874 -0.2400 -0.1332
11488W        W13638   0.613   0.415  13.927 -0.0623 -0.2280  0.1233
11489W        W13639  16.497   5.935  24.419  0.1108  0.0347 -0.1490
11490W        W13640   1.306   1.097  11.967 -0.1588  0.0744  0.0947
11491W        W13641   6.487   3.909   5.761  0.1448  0.1537  0.2591
11492W        W13642  18.444   5.152   7.247  0.2460 -0.0035 -0.1754
11493W        W13643  10.306   5.846  33.460 -0.0141  0.0317 -0.0014
11494W        W13644  12.650   0.263  26.069 -0.1641 -0.0029 -0.2077
11495W        W13645   0.630   1.103  26.016 -0.2711 -0.1174 -0.0027
11496W        W13646   3.914   2.249  35.965  0.2055 -0.0258  0.0594
11497W        W13647  10.787   6.596  23.258  0.2026 -0.1712 -0.0876
11498W        W13648  16.775   3.283  22.371  0.0419 -0.1541  0.1813
11499W        W13649   2.202   3.694   1.507 -0.2561 -0.0873 -0.1309
11500W        W13650  16.526   5.517  15.270  0.3242  0.0191  0.1600
11501W        W13651   5.392   4.734  24.911  0.2266  0.1988 -0.1207
11502W        W13652  23.985   5.310  15.221 -0.0292  0.1285 -0.0335
11503W        W13653  22.531   5.922  29.925 -0.0244  0.0710 -0.1707
11504W        W13654  22.228   3.665   1.545 -0.1606 -0.0288  0.0406
11505W        W13655  21.616   0.279  22.504  0.2782 -0.2344  0.0349
11506W        W13656  18.104   3.617   4.422  0.0552 -0.0663 -0.1398
11507W        W13657  23.879   2.244   9.086 -0.3540 -0.4407  0.1509
11508W        W13658  10.491   5.541  25.608  0.0466  0.1600 -0.1696
11509W        W13659   8.505   0.554   9.690 -0.0006  0.1107  0.1521
11510W        W13660  15.253   5.196  28.088  0.1379  0.1277  0.1614
11511W        W13661  16.282   4.612  11.242 -0.0366  0.0832 -0.0555
11512W        W13662  20.589   3.261  10.582  0.0769  0.0726  0.0322
11513W        W13663   4.017   5.681  13.441 -0.1720  0.1893 -0.1636
11514W        W13664  11.849   1.287  13.707  0.0312 -0.0929  0.1610
11515W        W13665  23.600   3.718  31.630  0.2327  0.2918  0.0009
11516W        W13666  18.059   6.591   1.316  0.0192 -0.1033  0.0915
11517W        W13667  24.597   1.040   9.608  0.1699 -0.2896 -0.0180
11518W        W13668  23.264   0.743   8.300 -0.1870 -0.0899  0.4003
11519W        W13669  10.391   4.338  30.420  0.2663 -0.1897 -0.0190
11520W        W13670  22.719   3.336  34.013 -0.0242 -0.0451 -0.0196
11521W        W13671  18.017   1.530   1.094  0.0499  0.0560  0.0140
11522W        W13672  22.259   1.782  32.458  0.0265  0.1405 -0.1570
11523W        W13673   8.647   0.214  28.390  0.3552 -0.2821  0.1726
11524W        W13674   1.490   0.402  29.755 -0.2109  0.0507 -0.1775
11525W        W13675   5.825   0.342  26.449 -0.0834 -0.1997  0.1812
11526W        W13676  17.956   4.023  32.957 -0.1584  0.1268 -0.0430
11527W        W13677  20.645   4.160  32.822 -0.1941 -0.2587  0.1042
11528W        W13678   3.787   5.235   2.739  0.1082  0.2487 -0.1048
11529W        W13679  21.165   0.993  34.896 -0.1363  0.0586 -0.0163
11530W        W13680   8.521   2.229  24.211  0.0149 -0.5083 -0.0711
11531W        W13681  15.161   3.969  34.138 -0.2251 -0.2092  0.0620
11532W        W13682  11.985   4.983  31.201  0.2918  0.0180 -0.1436
11533W        W13683   7.887   1.859  22.498  0.2130 -0.2000  0.1928
11534W        W13684   3.197   0.960   8.312 -0.2670 -0.1658 -0.1078
11535W        W13685   9.260   0.705   1.780 -0.4618  0.0505 -0.4561
11536W        W13686   3.995   1.777  31.809  0.0268  0.0321 -0.1658
11537W        W13687  10.209   3.534  11.111  0.2956 -0.1521  0.3400
11538W        W13688   6.373   2.378  12.741  0.1211 -0.0570 -0.1692
11539W        W13689  14.074   3.574  29.440  0.1671 -0.0358  0.0345
11540W        W13690  25.589   2.145  35.359  0.2551  0.0604  0.1881
11541W        W13691   8.836   4.482  30.773  0.1749  0.0503  0.1014
11542W        W13692  14.757   3.988  10.438 -0.1788  0.1383 -0.0481
11543W        W13693   1.792   4.940  30.753 -0.0814 -0.2120  0.0416
11544W        W13694   4.397   2.149  34.296 -0.2790  0.0710  0.0594
11545W        W13695   3.716   6.423  29.168  0.0413 -0.0308  0.1645
11546W        W13696   1.219   1.557  14.055  0.1946 -0.0179 -0.1714
11547W        W13697  20.227   4.259  34.470  0.0688  0.2413 -0.0725
11548W        W13698  15.675   3.970   0.693 -0.0137 -0.0543 -0.0785
11549W        W13699  19.158   4.118  12.288  0.3662 -0.0212  0.1467
11550W        W13700  23.542   3.686   6.816  0.1033  0.0071  0.1976
11551W        W13701  13.762   4.308  10.023  0.1402  0.0480 -0.1513
11552W        W13702  12.624   2.859  26.805 -0.2185 -0.3595 -0.1316
11553W        W13703  20.033   4.910  11.163  0.2384  0.0469  0.1597
11554W        W13704  23.671   2.025  11.292  0.0246 -0.1630  0.0045
11555W        W13705  13.000   1.831  30.147 -0.2627  0.1173 -0.0972
11556W        W13706   1.057   2.012   7.579  0.0302  0.0397 -0.1118
11557W        W13707  13.593   2.224   5.147 -0.0039  0.3708  0.0169
11558W        W13708   5.776   4.577  12.198 -0.0391  0.1731 -0.0797
11559W        W13709  21.749   5.056   9.773 -0.2339  0.0056 -0.0747
11560W        W13710  24.188   4.706  30.399  0.1559 -0.1282  0.0632
11561W        W13711  20.455   2.770  32.104 -0.1108 -0.1587 -0.2804
11562W        W13712   3.429   0.759  34.760  0.0481 -0.4966  0.2601
11563W        W13713  24.098   3.702   2.776 -0.0486 -0.3040 -0.1512
11564W        W13714   9.448   3.732  22.202 -0.2192 -0.1653  0.2022
11565W        W13715  13.281   1.101  13.928  0.0484 -0.0019 -0.0379
11566W        W13716   6.323   4.299  23.923 -0.0983  0.2160 -0.1816
11567W        W13717  13.692   0.647  33.857 -0.0927 -0.0486  0.0442
11568W        W13718   8.706   1.170  14.186  0.1163  0.1254 -0.2128
11569W        W13719  13.827   6.078  23.721 -0.3317 -0.1321 -0.1362
11570W        W13720  11.209   2.416  27.470  0.1411  0.3013 -0.4505
11571W        W13721  21.963   1.776  11.796  0.0468 -0.1717  0.1551
11572W        W13722   4.165   3.466  32.018 -0.3877  0.2216 -0.2050
11573W        W13723  21.290   5.983  21.960 -0.0053  0.2153 -0.0095
11574W        W13724   6.226   3.394  20.885  0.1601 -0.1329 -0.0224
11575W        W13725  14.866   2.026   7.269 -0.2619  0.1334 -0.0939
11576W        W13726  15.673   1.610   0.476  0.0037 -0.3859 -0.3694
11577W        W13727   6.078   4.766   4.827  0.0133 -0.0005  0.0903
11578W        W13728  13.859   0.872  29.520  0.1523  0.1246  0.0119
11579W        W13729  14.236   2.449  15.039  0.1884 -0.0048 -0.3196
11580W        W13730   0.589   0.666  13.409  0.1769  0.0446  0.1088
11581W        W13731  10.791   4.945  12.493 -0.1543  0.4137  0.2394
11582W        W13732   1.377   5.510  13.206  0.2369  0.2932  0.2938
11583W        W13733  12.944   5.906  12.677  0.0166  0.1041  0.1654
11584W        W13734  22.589   5.561  30.675  0.3361 -0.1712 -0.0442
11585W        W13735  15.063   6.078   9.400 -0.1481 -0.0815  0.3450
11586W        W13736  17.088   5.558  29.409  0.0039 -0.2975  0.0728
11587W        W13737   2.124   3.202  25.647 -0.1066 -0.2545 -0.0018
11588W        W13738  21.737   0.539  21.629  0.3569 -0.1233  0.1485
11589W        W13739  17.256   0.478   7.378 -0.0028 -0.0040  0.0666
11590W        W13740   3.426   1.978  24.353  0.1303  0.0179  0.1441
11591W        W13741  15.061   0.641  22.196 -0.4146 -0.0799 -0.0112
11592W        W13742  25.563   3.511  32.684  0.0983 -0.0814  0.0560
11593W        W13743   9.547   2.572  21.765 -0.2705  0.1115  0.1083
11594W        W13744  20.701   2.110  32.785  0.0760  0.0077 -0.0460
11595W        W13745  24.044   4.264  27.537  0.2083 -0.1058  0.1568
11596W        W13746  22.727   2.855  34.291  0.0578 -0.4304  0.0011
11597W        W13747   2.749   6.511  21.011  0.1888 -0.2076 -0.0819
11598W        W13748  19.670   4.073  13.458 -0.0365  0.3203 -0.2652
11599W        W13749   6.935   0.806  19.978  0.1722  0.2445 -0.0990
11600W        W13750  24.716   1.723   6.052 -0.1194 -0.1871  0.5094
11601W        W13751  18.949   1.650  27.690  0.2161  0.1752  0.1526
11602W        W13752  20.777   0.445  33.607 -0.1877 -0.1030 -0.3052
11603W        W13753   1.172   1.795  26.038 -0.3633  0.2188 -0.2643
11604W        W13754   3.495   4.318  32.283  0.1239  0.3308 -0.3649
11605W        W13755  11.343   0.382   5.822  0.1734 -0.2594 -0.1541
11606W        W13756  17.866   4.772  22.382  0.0620 -0.3553  0.1166
11607W        W13757   8.431   0.002  24.461 -0.0721  0.1572 -0.0700
11608W        W13758  14.790   5.224   5.146  0.1109  0.0665 -0.0478
11609W        W13759   7.151   4.676  10.580  0.1761 -0.0743  0.1259
11610W        W13760  10.063   5.113  29.644 -0.3101 -0.1223  0.0754
11611W        W13761  24.623   4.011  32.713  0.0144 -0.2698 -0.1478
11612W        W13762  12.593   4.863  27.791 -0.2418 -0.0848 -0.3184
11613W        W13763  25.495   3.389  11.900  0.0200 -0.1418 -0.1716
11614W        W13764   9.690   5.454  27.922 -0.1228  0.1747 -0.0469
11615W        W13765   5.704   0.223   3.210  0.2487  0.0859  0.1198
11616W        W13766  19.683   0.491  11.769 -0.1205 -0.0184  0.0033
11617W        W13767   4.768   4.900  33.217  0.1075 -0.1010  0.0787
11618W        W13768  23.766   2.637   0.804 -0.0751  0.0757  0.1292
11619W        W13769  15.946   2.499  33.591 -0.2909 -0.3625 -0.0280
11620W        W13770  14.787   0.047  33.160  0.0302  0.1878  0.1700
11621W        W13771  23.165   0.380   4.981 -0.1388  0.0694 -0.1234
11622W        W13772   2.681   6.032  24.401 -0.0654 -0.5402  0.1363
11623W        W13773   0.474   5.481  31.786  0.1752 -0.0938 -0.3248
11624W        W13774   2.412   0.119  21.482  0.0994  0.2859 -0.1171
11625W        W13775   3.681   3.427  14.146 -0.1663  0.1382 -0.0260
11626W        W13776   7.999   3.810  31.768 -0.0724  0.2586 -0.3012
11627W        W13777  15.608   1.101  24.139 -0.0003  0.0670  0.1338
11628W        W13778   6.932   0.125  32.737  0.2123 -0.0239 -0.0467
11629W        W13779  24.960   0.481   2.990 -0.0516 -0.2279 -0.1582
11630W        W13780   1.648   3.392  28.720  0.0569 -0.3718  0.0187
11631W        W13781   0.379   1.477  12.106 -0.0006 -0.4159  0.0010
11632W        W13782  20.062   4.142   4.121  0.3435  0.2915  0.4854
11633W        W13783   6.324   1.022  20.478 -0.4940  0.2254  0.0579
11634W        W13784  22.400   2.164   9.222 -0.1200  0.2923  0.1619
11635W        W13785   4.271   2.333  32.499  0.0809  0.0696  0.2345
11636W        W13786  17.412   4.205  12.593  0.0814  0.2710 -0.0094
11637W        W13787  13.464   2.543   6.856 -0.1454 -0.0825  0.1145
11638W        W13788  11.883   2.883  35.224  0.3339  0.0521 -0.0840
11639W        W13789  17.887   6.442  12.919  0.2220  0.0181  0.0416
11640W        W13790  15.262   1.983  14.766 -0.0727  0.1231  0.1257
11641W        W13791  12.019   0.402  29.379  0.0258  0.1575  0.1362
11642W        W13792  20.552   2.191   2.586  0.1616 -0.2579 -0.2567
11643W        W13793  25.916   2.630   3.510 -0.2853 -0.1002  0.0637
11644W        W13794  15.201   0.472  13.979  0.0137  0.1386  0.0368
11645W        W13795  23.548   6.266   0.494 -0.2158 -0.0082  0.1194
11646W        W13796   1.809   4.861   5.623 -0.1237  0.0714  0.2139
11647W        W13797  22.473   1.148  29.643 -0.0129  0.3078  0.0339
11648W        W13798  10.406   4.702  22.713 -0.1677  0.0638 -0.0837
11649W        W13799   8.605   4.245  24.232 -0.2515  0.0016  0.2569
11650W        W13800  12.369   2.080   0.684 -0.1407  0.2155  0.2397
11651W        W13801  20.665   2.907   2.121  0.2138 -0.1526 -0.3005
11652W        W13802  24.610   5.428  13.411 -0.3370 -0.0728 -0.1361
11653W        W13803  23.081   1.692   0.061  0.1471  0.1826 -0.2653
11654W        W13804  11.772   1.624  29.464 -0.1681  0.1631  0.2545
11655W        W13805   7.754   4.414  27.221 -0.0498 -0.1645  0.0171
11656W        W13806   3.237   6.414  10.813  0.1230  0.0274 -0.0125
11657W        W13807  19.623   1.579  28.671 -0.0461 -0.1090  0.0618
11658W        W13808  11.040   3.633  27.818  0.1235  0.0001 -0.0210
11659W        W13809  14.869   3.484  30.037 -0.0789  0.0594  0.1173
11660W        W13810   8.118   5.628  12.174  0.0280  0.0318  0.0840
11661W        W13811  12.072   0.457  12.264 -0.2060 -0.0431 -0.3742
11662W        W13812   4.184   0.797   8.603 -0.1028 -0.0113  0.1481
11663W        W13813  14.756   3.408   0.432  0.0170  0.1242 -0.4278
11664W        W13814   8.254   4.611  29.509 -0.0794 -0.0682  0.1923
11665W        W13815  17.007   1.129  35.508 -0.0106  0.1345  0.1945
11666W        W13816  23.188   2.610  25.309 -0.0820  0.0407 -0.0877
11667W        W13817   6.818   1.831   5.806 -0.0279  0.1446  0.0302
11668W        W13818   4.910   0.165  22.468 -0.0954 -0.0589 -0.0918
11669W        W13819  15.400   5.105   3.121  0.3579  0.0168  0.3278
11670W        W13820  24.247   3.317  24.954 -0.4369  0.1415 -0.0302
11671W        W13821   2.639   1.343  34.732  0.0481  0.0002  0.0684
11672W        W13822  17.211   5.386   4.401  0.2331 -0.2417  0.0965
11673W        W13823   9.849   0.065  25.142 -0.0457  0.0268  0.0486
11674W        W13824  20.524   4.587  32.060 -0.0698  0.0748  0.2754
11675W        W13825  18.214   1.661  33.855  0.1582  0.1620  0.0206
11676W        W13826  22.424   2.753  10.009 -0.0553 -0.3187  0.0644
11677W        W13827   7.369   6.221  30.007 -0.2246  0.0927 -0.0279
11678W        W13828  19.936   5.067   6.381  0.2582 -0.1991  0.0593
11679W        W13829  25.624   4.799  10.141  0.1458  0.0212 -0.1431
11680W        W13830   9.629   5.191   6.394  0.0805  0.2525 -0.0409
11681W        W13831  22.850   5.118  31.242 -0.0322 -0.0075  0.1613
11682W        W13832  18.058   1.225  23.087  0.1556  0.1321 -0.2740
11683W        W13833   9.474   2.187  31.330  0.2501  0.0001 -0.1087
11684W        W13834  16.732   5.693   6.950 -0.0531  0.3841 -0.4663
11685W        W13835   8.926   3.758  15.993 -0.0937 -0.1438 -0.2160
11686W        W13836  25.697   2.668   4.788 -0.0202  0.1591 -0.0652
11687W        W13837   7.870   5.728  30.685 -0.1080  0.0577 -0.1058
11688W        W13838  16.420   4.468  32.007  0.1930 -0.0204  0.0018
11689W        W13839   5.176   5.679   3.904  0.0138 -0.2818  0.2207
11690W        W13840  22.642   2.549   2.344  0.0152 -0.0628  0.2651
11691W        W13841   6.115   2.256   7.352  0.1023  0.0210  0.1722
11692W        W13842  19.749   4.733   8.408  0.0728  0.2486 -0.2598
11693W        W13843  12.691   5.878  24.386 -0.1570  0.0236  0.0045
11694W        W13844  12.325   4.370  12.029 -0.3903  0.1985 -0.0589
11695W        W13845   6.092   2.101   9.176  0.0494  0.0456  0.2190
11696W        W13846  10.895   2.937  10.413  0.4032  0.1685 -0.0113
11697W        W13847  24.192   2.493   2.950  0.0921 -0.2182 -0.1839
11698W        W13848  21.789   3.891  31.016  0.0372 -0.1020  0.0316
11699W        W13849  25.883   3.559  26.176 -0.0015 -0.3226  0.2381
11700W        W13850  19.798   4.854   5.326 -0.1185  0.2464  0.0217
11701W        W13851   5.906   2.200  21.371  0.1068  0.0793  0.2164
11702W        W13852  11.187   4.315   8.085  0.1814 -0.1290  0.0931
11703W        W13853  10.167   1.006   1.387  0.1052 -0.0966 -0.5206
11704W        W13854  25.034   4.725  28.110 -0.1809  0.2410 -0.2077
11705W        W13855  19.565   3.500  35.296 -0.0214  0.1222  0.1042
11706W        W13856   3.146   5.270  21.260  0.2781 -0.0649  0.3594
11707W        W13857  24.516   5.859  27.626  0.0811 -0.0553 -0.1112
11708W        W13858  25.118   2.823  10.811 -0.0724 -0.1827 -0.1488
11709W        W13859  17.444   4.745  28.331 -0.1175 -0.3135  0.0869
11710W        W13860  15.173   3.375  25.476 -0.1176 -0.2348  0.0856
11711W        W13861  11.098   5.271  32.485 -0.1701 -0.0755 -0.1930
11712W        W13862   1.674   3.828  20.874  0.1505  0.0722 -0.0160
11713W        W13863  13.852   2.007   9.173  0.2472 -0.1613 -0.1551
11714W        W13864  22.851   4.458  19.979  0.1580 -0.2278 -0.0972
11715W        W13865   1.174   5.432  32.856 -0.0241 -0.3473  0.2527
11716W        W13866  22.694   1.673  12.488 -0.2747 -0.0161  0.0549
11717W        W13867   1.518   3.989  35.426 -0.1232 -0.1063 -0.0416
11718W        W13868  22.957   1.838   8.235  0.1370 -0.0071  0.1548
11719W        W13869   3.230   6.025  25.262  0.2117  0.2881 -0.1212
11720W        W13870  20.791   4.684  11.459  0.1215 -0.1145  0.0359
11721W        W13871   3.614   5.677   1.012  0.0813 -0.1162 -0.1193
11722W        W13872   9.417   5.047  21.966  0.2480 -0.1516 -0.0288
11723W        W13873  17.961   2.550  29.079 -0.2012 -0.1868  0.2873
11724W        W13874  10.984   2.788   3.423  0.0774 -0.0251  0.0015
11725W        W13875   0.532   2.284   6.641 -0.4567 -0.0070  0.3553
11726W        W13876  20.242   3.760   9.494 -0.0897  0.0035  0.0133
11727W        W13877  13.994   2.724  13.284  0.0718 -0.3276 -0.2653
11728W        W13878   6.431   3.056   4.556 -0.0954  0.0933 -0.0878
11729W        W13879   2.235   0.748  20.808  0.4852  0.0088 -0.2116
11730W        W13880  11.066   1.989  27.305  0.0340  0.0553  0.2351
11731W        W13881   1.885   2.809  23.318  0.0786 -0.0426 -0.2504
11732W        W13882  12.250   5.175  10.116  0.0620  0.0254 -0.1706
11733W        W13883   9.665   3.650  33.199 -0.6034  0.3354 -0.3182
11734W        W13884  18.857   4.488  30.304  0.2771 -0.5625  0.0251
11735W        W13885  22.514   5.201  21.580  0.0247  0.3297 -0.2852
11736W        W13886  18.896   1.275  12.141  0.1126 -0.0949  0.0857
11737W        W13887  18.472   1.401   7.483  0.3498  0.0634  0.0822
11738W        W13888   1.663   1.104  10.968 -0.1164 -0.2467  0.1546
11739W        W13889  21.323   1.667  32.085 -0.0110  0.1099  0.1840
11740W        W13890  15.595   3.705   9.478 -0.3345  0.1101  0.2440
11741W        W13891   5.632   5.042  14.158 -0.1500 -0.0830  0.1089
11742W        W13892  17.650   1.927  10.622 -0.1108  0.3427  0.0826
11743W        W13893  21.757   0.410  29.790 -0.2052  0.2384  0.1857
11744ION     NA13894  17.848   5.337  26.459 -0.1283  0.3365 -0.0888
11745ION     NA13895  17.460   3.199  26.262 -0.1297  0.1271  0.3648
11746ION     NA13896   2.005   3.943  10.115 -0.2475  0.1491  0.0404
11747ION     NA13897  26.143   6.501   9.431 -0.3539  0.2424  0.3844
11748ION     NA13898   5.594   4.997  34.023  0.2558  0.0290 -0.3759
11749ION     NA13899  17.824   1.895   5.062 -0.2744 -0.1773  0.3686
11750ION     NA13900  14.789   1.357  27.115 -0.2200 -0.0631 -0.2384
11751ION     NA13901   5.586   0.767   4.060 -0.1020 -0.2951  0.0134
11752ION     NA13902   9.187   4.812   3.538 -0.1338 -0.0239 -0.1789
11753ION     NA13903   1.318   4.349  10.407 -0.0573  0.1021 -0.0858
11754ION     NA13904  22.304   2.341  24.293  0.2109  0.1038 -0.3106
11755ION     NA13905  12.126   5.617  11.599  0.0717  0.2575 -0.1618
11756ION     NA13906   1.203   5.956   5.379 -0.0095  0.6348 -0.3583
11757ION     NA13907   3.444   4.538   0.545 -0.0827 -0.0194 -0.0189
11758ION     NA13908   8.037   2.894  23.551 -0.0467 -0.1222 -0.3515
11759ION     NA13909  12.257   1.510  28.871  0.1549  0.5776  0.1785
11760ION     NA13910   1.557   1.127   9.596  0.1693 -0.1438 -0.0082
11761ION     NA13911  13.191   2.587  33.136  0.3349 -0.0698 -0.2813
11762ION     NA13912  17.720   0.894  31.635  0.3064 -0.7142  0.0794
11763ION     NA13913  15.074   6.298  33.206  0.1111  0.2587 -0.4898
11764ION     NA13914  15.474   0.596  13.621  0.1870 -0.1508  0.0298
11765ION     NA13915  23.665   0.471   3.689 -0.1011 -0.2557  0.1127
11766ION     NA13916  17.697   1.119   6.774 -0.1467 -0.0051 -0.5098
11767ION     NA13917  11.721   3.918  14.023 -0.0574  0.2974  0.2803
11768ION     NA13918   3.765   4.559  24.949  0.3058  0.2362  0.0431
11769ION     NA13919  10.418   2.571   2.819 -0.5086  0.3042  0.2340
11770ION     NA13920   5.865   0.907  20.455 -0.2208 -0.0923 -0.0504
11771ION     NA13921   5.437   4.735   8.644 -0.2435 -0.1612 -0.0203
11772ION     NA13922  11.591   5.526  30.845  0.1382 -0.1158 -0.1166
11773ION     NA13923  11.737   2.744  21.419 -0.2178  0.1008 -0.1126
11774ION     NA13924  21.142   3.684  34.814 -0.2257  0.0955  0.1757
11775ION     NA13925  19.814   2.376  11.634  0.1433  0.1377  0.1115
11776ION     NA13926   9.959   2.802   2.028 -0.0994 -0.0481 -0.1173
11777ION     NA13927   3.805   4.592   5.951 -0.0922 -0.2476  0.1169
11778ION     NA13928  19.229   6.513  34.173 -0.2771 -0.0182  0.4822
11779ION     NA13929   7.426   1.256  24.608  0.2987  0.0512 -0.0387
11780ION     NA13930  21.166   0.349  29.905  0.0324  0.5328 -0.0270
11781ION     NA13931  23.760   3.930   7.619  0.3484  0.4201 -0.0055
11782ION     NA13932  18.010   2.812  28.700  0.0446 -0.3216 -0.5504
11783ION     NA13933  11.893   2.136  22.256  0.5226 -0.1262  0.1378
11784ION     NA13934  13.772   4.460  22.005 -0.1718 -0.1636  0.0566
11785ION     NA13935  14.768   3.636  23.267  0.1245  0.1521 -0.2337
11786ION     NA13936   0.856   4.698  25.055  0.3240  0.6201 -0.1108
11787ION     NA13937   2.919   6.178   6.129  0.1435 -0.0338 -0.1039
11788ION     NA13938   5.872   0.177  13.336 -0.0214 -0.1984 -0.2309
11789ION     NA13939  21.194   2.397   4.167  0.1387 -0.0354  0.0067
11790ION     NA13940  21.538   5.571  11.103 -0.1622 -0.1932 -0.5228
11791ION     NA13941  22.882   3.450  23.333  0.0412  0.3268 -0.0392
11792ION     NA13942  10.430   4.557   8.647 -0.1911  0.0547  0.1380
11793ION     NA13943  23.534   0.698  29.814 -0.1637 -0.3095 -0.1651
11794ION     NA13944   9.199   3.317   1.280  0.0435  0.1820 -0.2494
11795ION     NA13945  14.734   3.845  28.996 -0.0704  0.1890  0.2231
11796ION     NA13946   5.258   0.868  21.537  0.1386 -0.2151  0.3162
11797ION     NA13947  17.342   6.351  11.219 -0.1129  0.1021 -0.0238
11798ION     NA13948   4.067   3.135  28.292 -0.5248 -0.0080 -0.0948
11799ION     NA13949  18.264   6.599  14.551 -0.1377  0.1874 -0.3028
11800ION     NA13950  25.377   0.143   6.262 -0.1591 -0.0593 -0.3688
11801ION     NA13951  15.623   1.484  12.556  0.2352  0.2221  0.2359
11802ION     NA13952  23.921   2.454   1.712 -0.2210 -0.1140  0.0117
11803ION     NA13953   8.096   3.118  22.140 -0.1228  0.1375  0.2804
11804ION     NA13954  19.549   5.495   0.413 -0.0732 -0.0574  0.3744
11805ION     NA13955   6.117   1.278  30.008  0.0360 -0.3580  0.0690
11806ION     NA13956  18.307   4.119  30.930  0.1147 -0.0446  0.0566
11807ION     NA13957   1.145   6.193   8.616 -0.1176 -0.4418 -0.1493
11808ION     NA13958   4.181   5.319  32.810 -0.2982 -0.2637 -0.1857
11809ION     NA13959  12.494   1.678  20.744 -0.2087  0.2365 -0.2501
11810ION     NA13960   2.202   0.934  10.075  0.0687 -0.0174  0.0454
11811ION     NA13961  10.592   0.063  30.993 -0.0593 -0.1962 -0.1400
11812ION     NA13962  10.606   3.993   8.080  0.0876  0.1853  0.2890
11813ION     NA13963   9.889   5.711  14.388 -0.0377 -0.1757  0.1263
11814ION     NA13964  16.584   5.913   7.283  0.1159 -0.2427  0.4411
11815ION     NA13965   4.166   0.061   7.755 -0.2141  0.1200 -0.2416
11816ION     NA13966   1.720   0.497   9.263 -0.0206 -0.2183  0.1622
11817ION     NA13967  14.081   0.263  30.717 -0.0445 -0.0118  0.0064
11818ION     NA13968   8.388   4.045  23.001  0.2943  0.1112  0.0798
11819ION     NA13969  17.884   5.119   6.113  0.3587  0.3284  0.0295
11820ION     NA13970   2.716   1.727  33.620  0.0885 -0.4797  0.0471
11821ION     NA13971  15.913   0.075  15.544 -0.1906 -0.1446  0.3779
11822ION     NA13972  25.258   0.275  13.955 -0.2544 -0.1988  0.0759
11823ION     NA13973  20.116   1.481  26.412 -0.0440  0.0997 -0.1334
11824ION     NA13974  15.984   6.202   8.522 -0.2339  0.0811 -0.2549
11825ION     NA13975  25.908   2.937  34.515 -0.3011  0.1075 -0.3439
11826ION     NA13976   9.222   6.261  10.168 -0.4564 -0.1486  0.1669
11827ION     NA13977  15.648   3.251  12.488  0.0816  0.3312 -0.2943
11828ION     NA13978   0.813   2.141  32.594 -0.0259  0.2086 -0.3556
11829ION     NA13979  22.035   6.550  20.668 -0.1636 -0.0814  0.0520
11830ION     NA13980  10.014   1.023  31.860  0.4633 -0.1487 -0.5687
11831ION     NA13981  10.267   5.674  27.397 -0.4576  0.2462  0.0621
11832ION     NA13982   6.635   5.618   5.248  0.4246  0.0579 -0.0722
11833ION     NA13983   8.882   2.258  25.287 -0.1229 -0.1012  0.4555
11834ION     NA13984   4.381   1.485  14.180  0.2431 -0.0987  0.2265
11835ION     NA13985  13.679   5.995  10.595  0.5058  0.6922 -0.4604
11836ION     NA13986  13.535   0.303   5.954 -0.0598  0.0941 -0.1419
11837ION     NA13987   0.471   5.572  29.980  0.3961  0.1394  0.0047
11838ION     NA13988   7.248   5.357  14.354 -0.0418  0.5802 -0.0499
11839ION     NA13989   7.813   1.847  34.509 -0.4248 -0.1804 -0.0511
11840ION     NA13990  21.713   4.441  12.620  0.5395  0.8191  0.1745
11841ION     NA13991   0.738   5.674  28.355  0.1232 -0.3715  0.3030
11842ION     NA13992  20.026   5.430   7.966  0.5666 -0.0549 -0.2786
11843ION     NA13993  23.705   6.242   6.897  0.2102  0.0331 -0.1260
11844ION     NA13994  11.644   2.221  28.275 -0.1367  0.1797 -0.2024
11845ION     NA13995  19.848   1.341   7.669 -0.0214  0.0112  0.4997
11846ION     NA13996  11.630   0.226   6.133  0.1757 -0.2225  0.0597
11847ION     NA13997  11.594   5.573   7.158 -0.0181 -0.3623 -0.0361
11848ION     NA13998  19.629   6.093  24.310  0.2109  0.0207 -0.0866
11849ION     NA13999   2.037   4.184  11.815  0.2667 -0.0744 -0.1697
11850ION     NA14000   4.623   1.286  13.356  0.0579 -0.0788  0.0199
11851ION     NA14001   1.832   4.318  26.593 -0.0882 -0.0414 -0.2025
11852ION     NA14002  26.025   3.692   1.586 -0.3831  0.2026  0.2648
11853ION     NA14003  10.963   3.122  29.442  0.2712  0.2529 -0.1875
11854ION     NA14004  12.449   2.924  30.693 -0.1067  0.2473 -0.0202
11855ION     NA14005  12.205   0.199  20.898 -0.0470 -0.2846  0.0945
11856ION     NA14006  13.320   2.768   9.973 -0.4112 -0.0962 -0.0381
11857ION     NA14007   5.037   3.312   2.688 -0.5480  0.3596 -0.3098
11858ION     NA14008  10.384   4.068  24.232 -0.1178 -0.1142  0.2156
11859ION     NA14009  18.356   6.510   6.298 -0.1420 -0.1780 -0.3280
11860ION     NA14010  13.218   2.306  14.558  0.0927  0.1839  0.2041
11861ION     NA14011  26.386   3.120  31.632  0.0439 -0.1503 -0.0567
11862ION     NA14012  18.134   6.420  29.440 -0.3738  0.1065 -0.2472
11863ION     NA14013   8.918   0.578   8.406 -0.1470  0.1024 -0.2417
11864ION     NA14014   8.337   3.426   3.027  0.2799 -0.2643 -0.2403
11865ION     NA14015  18.925   4.111  25.528  0.0840 -0.0497  0.1138
11866ION     NA14016  23.513   4.929  28.974  0.0057  0.2273  0.1238
11867ION     NA14017   8.023   3.757   4.660  0.0775  0.5002  0.3319
11868ION     NA14018  15.796   5.334   5.198  0.4477  0.1022  0.5201
11869ION     NA14019  19.706   2.165   7.807  0.0755  0.1935 -0.2689
11870ION     NA14020   8.411   2.600  26.429 -0.2802 -0.1342 -0.1148
11871ION     NA14021  17.676   3.427  35.279  0.0503  0.0637 -0.2093
11872ION     NA14022  16.289   3.362  29.411 -0.2569  0.2422  0.1121
11873ION     NA14023  11.349   0.864  33.226  0.1497 -0.3491 -0.2605
11874ION     NA14024  24.798   3.315  31.803  0.2443  0.1847 -0.3002
11875ION     NA14025  18.223   2.594  28.100  0.7222  0.0057  0.0883
11876ION     NA14026  21.843   2.641   4.637 -0.3456 -0.6185 -0.1468
11877ION     NA14027  19.475   5.122  13.818  0.1760  0.0318  0.1707
11878ION     NA14028  17.557   2.390  28.329 -0.2872  0.2060 -0.5320
11879ION     NA14029  13.219   1.935  29.291 -0.1473  0.4241  0.0560
11880ION     NA14030   2.350   6.197  32.208 -0.1628  0.0387 -0.0478
11881ION     NA14031  14.042   4.039   1.192 -0.2533  0.3616 -0.3158
11882ION     NA14032  24.422   4.098  23.293 -0.0307 -0.2460  0.1237
11883ION     NA14033   6.925   5.378  34.924 -0.0723 -0.2638 -0.3130
11884ION     NA14034   1.949   0.498   0.945  0.2570  0.0582 -0.0924
11885ION     NA14035  16.946   4.061  11.694  0.1160 -0.0140  0.2396
11886ION     NA14036  26.422   2.554   7.395 -0.0835  0.1668  0.0104
11887ION     NA14037  12.919   0.046   5.376 -0.0905  0.1790 -0.1708
11888ION     NA14038  12.898   3.852   4.215 -0.0993 -0.1396  0.0755
11889ION     NA14039   8.504   1.250   4.384 -0.0935 -0.1940 -0.2875
11890ION     NA14040   7.582   1.961  29.623  0.2450  0.4058 -0.3979
11891ION     NA14041  25.312   2.842  34.008 -0.4956 -0.1784 -0.1329
11892ION     NA14042   9.117   5.143  26.640  0.1309  0.3228 -0.1135
11893ION     NA14043  23.415   4.721  35.846 -0.1371  0.3731  0.6731
11894ION     NA14044  26.254   3.906   6.476  0.4290 -0.1312 -0.0376
11895ION     NA14045  23.251   1.080  32.640 -0.2042  0.2040  0.1701
11896ION     NA14046  18.624   5.032   3.660 -0.1818 -0.3437 -0.0799
11897ION     NA14047  19.217   4.098   8.231 -0.0261  0.0908 -0.2265
11898ION     NA14048  18.864   4.616  30.734 -0.6119 -0.2162 -0.3664
11899ION     NA14049   8.190   3.427   0.482 -0.2104  0.0407 -0.0141
11900ION     NA14050  23.453   5.224  23.803 -0.2125  0.1291 -0.3986
11901ION     NA14051  16.892   6.165  34.057 -0.1118  0.1360 -0.0929
11902ION     NA14052  16.367   3.859  33.041 -0.1361  0.3500 -0.0189
11903ION     NA14053  21.220   6.269  23.663  0.1659 -0.0879  0.3439
11904ION     NA14054  18.137   6.229   9.391 -0.8055  0.2299  0.0246
11905ION     NA14055  21.614   4.823  31.964  0.1382 -0.1633  0.3910
11906ION     NA14056   7.367   4.510  29.345  0.0244  0.2642 -0.0977
11907ION     NA14057  13.733   2.886  12.603  0.0991 -0.1691  0.4449
11908ION     NA14058   9.397   3.106  32.761 -0.1247 -0.0114 -0.0909
11909ION     NA14059  11.051   4.240  34.516  0.1546 -0.0858  0.1668
11910ION     NA14060   7.675   3.484  21.640  0.0329  0.5871 -0.3072
11911ION     NA14061  21.484   3.450  24.606  0.1127  0.2954 -0.3607
11912ION     NA14062   1.877   3.114   2.160  0.3274 -0.3445 -0.0152
11913ION     NA14063  11.705   6.323  13.029 -0.1066  0.1750  0.3335
11914ION     NA14064  23.895   4.495  34.145 -0.3206  0.1057  0.4351
11915ION     NA14065  14.290   2.832  35.871 -0.1948  0.2427 -0.2824
11916ION     NA14066   5.543   4.063   6.137 -0.2648  0.2375  0.0869
11917ION     NA14067  10.849   6.406   1.538 -0.0724 -0.1507 -0.2100
11918ION     NA14068   9.624   2.779   9.063  0.0378 -0.3624  0.2363
11919ION     NA14069  14.502   0.592   2.911  0.1860 -0.0723 -0.5014
11920ION     NA14070  21.660   4.414   9.943 -0.0710 -0.0856  0.0552
11921ION     NA14071  14.749   0.248  27.110  0.1089  0.5075  0.0223
11922ION     NA14072   5.244   4.980  33.229 -0.1206  0.0599 -0.0117
11923ION     NA14073  13.688   4.856  35.188  0.3016  0.5254 -0.0422
11924ION     NA14074  15.615   1.831   1.018 -0.2004  0.1519 -0.0186
11925ION     NA14075   1.020   2.462   3.111 -0.0794 -0.2554  0.0981
11926ION     NA14076   8.720   3.977  25.584  0.3890  0.0332 -0.0438
11927ION     NA14077  19.590   1.059  11.645  0.2061  0.2560  0.1683
11928ION     NA14078  13.775   4.275   2.563  0.3348  0.4650 -0.1145
11929ION     NA14079  24.482   0.077   5.779  0.5446 -0.0847 -0.0418
11930ION     NA14080   4.813   4.696   8.352  0.0834  0.1525 -0.0537
11931ION     NA14081  14.562   6.047  31.306 -0.3900 -0.3909 -0.5127
11932ION     NA14082   3.465   6.037   0.727  0.2204 -0.1453  0.0670
11933ION     NA14083  25.863   2.211  29.112 -0.1119 -0.1161  0.2686
11934ION     NA14084  15.283   3.899  32.540  0.0954  0.0573  0.3568
11935ION     NA14085  19.894   3.318  33.565 -0.3191 -0.0125 -0.1093
11936ION     NA14086  10.451   5.521  21.490 -0.1670 -0.2729  0.1588
11937ION     NA14087  24.657   1.708  10.299  0.1472  0.2335  0.1780
11938ION     NA14088   7.290   4.622  12.873  0.1630 -0.0674  0.7183
11939ION     CL14089  17.269   0.483  34.564 -0.1553 -0.1632  0.0417
11940ION     CL14090  16.732   3.744  25.525 -0.4524 -0.1597 -0.5131
11941ION     CL14091   9.714   2.208  11.691 -0.2999 -0.1313 -0.1191
11942ION     CL14092  21.926   4.658   6.770 -0.1636  0.0631  0.3125
11943ION     CL14093   6.809   2.456  22.083  0.0516  0.0213  0.3512
11944ION     CL14094   7.333   4.994  22.252  0.0524 -0.2055  0.1956
11945ION     CL14095  18.258   5.776  33.082 -0.1217 -0.2230 -0.0855
11946ION     CL14096  10.735   5.354   1.792  0.0022  0.1897  0.4090
11947ION     CL14097  20.264   2.525   7.596  0.1436  0.0485 -0.1152
11948ION     CL14098  25.461   4.431   9.912 -0.0517 -0.0290 -0.0043
11949ION     CL14099  12.226   1.715  28.627  0.1008  0.1529 -0.2359
11950ION     CL14100  14.218   4.247   2.003 -0.2203  0.2827 -0.0659
11951ION     CL14101   0.028   1.588  32.744 -0.1675 -0.1395  0.1019
11952ION     CL14102   6.135   6.150   1.052  0.4267 -0.0387 -0.1825
11953ION     CL14103   1.195   4.295  35.494  0.4215  0.1154 -0.1526
11954ION     CL14104  25.962   3.893  22.322 -0.0462  0.2011 -0.1643
11955ION     CL14105  21.904   4.087  34.991 -0.1115 -0.1571  0.1761
11956ION     CL14106  17.404   1.143   6.922  0.0961  0.0522 -0.0549
11957ION     CL14107  10.150   5.576  29.577  0.0316  0.0332 -0.0268
11958ION     CL14108  20.048   0.090  35.092  0.0465  0.0298 -0.0198
11959ION     CL14109  10.158   2.122  24.153  0.0183 -0.5499  0.4910
11960ION     CL14110  14.292   0.216  10.272 -0.2080  0.2194  0.1241
11961ION     CL14111  13.915   0.168   3.849  0.1601  0.0786 -0.2271
11962ION     CL14112  20.973   0.705  29.912 -0.0188  0.4943  0.0543
11963ION     CL14113   5.783   1.158   7.612 -0.0500 -0.0903 -0.0347
11964ION     CL14114   7.801   6.369  32.740  0.0835 -0.4232 -0.1001
11965ION     CL14115  10.898   6.065   1.435  0.1969 -0.2083 -0.0234
11966ION     CL14116   8.975   4.052   2.066  0.0097 -0.4936 -0.0650
11967ION     CL14117  20.223   3.902  22.335 -0.1282 -0.1975  0.3830
11968ION     CL14118  12.519   0.176  14.938  0.2243 -0.0884 -0.4869
11969ION     CL14119   4.659   3.848   2.239 -0.1533  0.2418 -0.3243
11970ION     CL14120  15.057   2.436   6.662 -0.1347 -0.3532 -0.0282
11971ION     CL14121   2.574   3.753  11.808  0.2576  0.0107 -0.2042
11972ION     CL14122  21.902   5.323  10.134 -0.1107  0.0787  0.0595
11973ION     CL14123  15.889   6.383  11.055 -0.4790 -0.2581 -0.0322
11974ION     CL14124  19.992   3.562  21.196 -0.1256  0.0499  0.2490
11975ION     CL14125  19.568   3.844  33.238 -0.6264 -0.0412  0.0766
11976ION     CL14126   9.870   0.758  32.561 -0.0250  0.6788  0.2444
11977ION     CL14127  12.517   3.525  30.640  0.2473  0.0663 -0.1531
11978ION     CL14128  17.014   1.788  30.383 -0.5724 -0.2100  0.2454
11979ION     CL14129  12.395   5.533  28.582 -0.1297 -0.2974  0.6556
11980ION     CL14130  17.722   1.279   7.664  0.0745 -0.2256 -0.1322
11981ION     CL14131  14.345   4.397  28.111 -0.1449 -0.2887  0.0651
11982ION     CL14132  22.905   5.528  29.953  0.0425  0.1243  0.2814
11983ION     CL14133  26.212   1.817   0.865  0.0705 -0.0113 -0.0746
11984ION     CL14134  17.945   4.784  31.887 -0.0489  0.1334  0.2056
11985ION     CL14135  12.938   6.518   4.817  0.1203 -0.1422  0.0953
11986ION     CL14136   9.928   3.631   5.313 -0.0983  0.0378 -0.2187
11987ION     CL14137   5.087   3.947   6.623  0.0274  0.1146  0.2026
11988ION     CL14138   7.646   6.184  13.004  0.0423  0.0459  0.2444
11989ION     CL14139  23.690   1.697   2.513 -0.2708 -0.1305 -0.1299
11990ION     CL14140   0.379   2.352   3.097 -0.2880 -0.1552  0.0245
11991ION     CL14141   7.579   4.676  29.613 -0.1932 -0.4050 -0.1901
11992ION     CL14142   6.725   3.240   0.500  0.3257 -0.3878  0.3005
11993ION     CL14143   3.885   5.223  33.014  0.3763 -0.0933 -0.1852
11994ION     CL14144  24.766   3.064  11.953  0.1782  0.1009 -0.5485
11995ION     CL14145  19.515   3.336   0.990 -0.1950 -0.2494 -0.0554
11996ION     CL14146   6.292   1.739  11.496  0.0210 -0.1045 -0.0877
11997ION     CL14147  10.411   2.480  34.348 -0.3670 -0.0431 -0.0375
11998ION     CL14148   0.041   4.633  24.923 -0.1261  0.4411  0.1310
11999ION     CL14149   5.691   5.173  34.359  0.0431  0.0905  0.4525
12000ION     CL14150  10.081   2.792  22.996  0.3793 -0.3526 -0.6619
12001ION     CL14151   7.212   5.385  13.099  0.0297  0.2148 -0.1418
12002ION     CL14152   1.835   5.698  21.563 -0.3047  0.3117  0.2290
12003ION     CL14153   9.731   4.348  21.743 -0.1207 -0.1017 -0.2690
12004ION     CL14154   3.517   4.571   0.186  0.3050  0.2258  0.0364
12005ION     CL14155   1.654   0.335  28.891  0.1181  0.1102 -0.4487
12006ION     CL14156  14.200   5.575  26.991  0.0461 -0.2967 -0.0586
12007ION     CL14157   1.440   1.269  34.771  0.5127 -0.2776  0.3763
12008ION     CL14158  21.187   5.037  33.118  0.3411  0.1858  0.4608
12009ION     CL14159  18.778   0.785  11.491 -0.4697  0.0235 -0.2695
12010ION     CL14160   9.182   2.279   8.859  0.1380  0.2570 -0.0029
12011ION     CL14161  17.949   1.736   4.623  0.1861 -0.1220 -0.0682
12012ION     CL14162  15.868   0.348   9.105  0.5102 -0.1132  0.1544
12013ION     CL14163  13.719   1.706  28.076  0.3740  0.2625  0.3147
12014ION     CL14164   9.240   0.453  11.200  0.1210  0.0197  0.0137
12015ION     CL14165  17.800   4.217  30.654  0.2146  0.2117  0.2501
12016ION     CL14166  14.987   2.424  10.290 -0.1485  0.0151  0.0941
12017ION     CL14167  17.973   2.465  28.596 -0.2337 -0.0558 -0.1686
12018ION     CL14168   8.277   1.776  32.963  0.1096 -0.1299  0.1153
12019ION     CL14169  23.661   0.781   7.443  0.0437 -0.0292  0.0627
12020ION     CL14170  22.040   5.340  32.377 -0.1235 -0.1345 -0.2335
12021ION     CL14171  21.344   3.819  13.268 -0.0656 -0.3139  0.1282
12022ION     CL14172  17.075   1.581  34.038  0.1919 -0.0610 -0.1393
12023ION     CL14173   0.091   3.760  27.782  0.1652 -0.0818 -0.3353
12024ION     CL14174   2.639   4.936  12.364 -0.1126 -0.3992  0.1201
12025ION     CL14175   2.908   4.997  27.267  0.3169 -0.0154  0.2648
12026ION     CL14176  19.253   5.580  11.885  0.3045  0.2254  0.2373
12027ION     CL14177   4.900   4.242  30.610  0.1898  0.2921  0.0953
12028ION     CL14178   5.635   6.070  28.144 -0.1103 -0.1384 -0.0880
12029ION     CL14179  16.219   5.848  31.690  0.0389  0.5236 -0.2213
12030ION     CL14180  17.783   4.572  25.811 -0.4499  0.1534 -0.3576
12031ION     CL14181  24.748   0.315   5.988 -0.2132  0.1725  0.2238
12032ION     CL14182   4.739   0.813  36.011 -0.0784  0.0856 -0.3765
12033ION     CL14183   4.898   0.532  32.473 -0.2332 -0.1738  0.0730
12034ION     CL14184   5.064   1.783  28.902 -0.1014  0.2438  0.2285
12035ION     CL14185  10.765   1.358  33.796  0.1842 -0.4971  0.4412
12036ION     CL14186  14.547   1.529   8.984 -0.1585  0.3462 -0.0541
12037ION     CL14187   4.685   4.869  33.982 -0.0067 -0.1248 -0.3607
12038ION     CL14188   9.862   5.138  27.631 -0.2085 -0.4870 -0.0368
12039ION     CL14189   2.117   4.491   0.028  0.0219 -0.6283  0.2957
12040ION     CL14190  21.942   5.146  35.728 -0.2493 -0.2268 -0.3224
12041ION     CL14191  25.198   3.137   9.903  0.2816  0.1415 -0.3562
12042ION     CL14192  11.340   5.429  10.958  0.1264  0.1395 -0.1863
12043ION     CL14193  17.612   5.875  10.836 -0.1692 -0.3333 -0.4454
12044ION     CL14194   3.594   4.704  22.884 -0.8702  0.0962 -0.0826
12045ION     CL14195  10.548   6.200  29.946 -0.0660  0.1285 -0.2603
12046ION     CL14196  12.832   2.740   7.842 -0.0401 -0.1600  0.2285
12047ION     CL14197   6.237   2.448   8.953  0.1649  0.1450 -0.2329
12048ION     CL14198   6.519   1.531   9.364 -0.0415  0.1841 -0.2178
12049ION     CL14199  15.464   6.350  23.559 -0.1082 -0.1896  0.1280
12050ION     CL14200  15.482   6.403  28.568 -0.5554 -0.3997 -0.3278
12051ION     CL14201  13.978   0.686   1.327  0.4964 -0.0636 -0.2642
12052ION     CL14202  11.228   0.438   6.234 -0.4113 -0.0380 -0.0483
12053ION     CL14203  19.667   3.649   8.143  0.3115  0.0127  0.3138
12054ION     CL14204   1.825   3.038  34.363 -0.0909 -0.0727  0.3100
12055ION     CL14205   2.011   6.436  12.059  0.3953 -0.0098 -0.1964
12056ION     CL14206  12.472   3.195  27.419 -0.1072 -0.0582  0.3455
12057ION     CL14207  17.584   2.088   3.033 -0.1892  0.3862 -0.1248
12058ION     CL14208   0.865   4.982  13.078  0.0276 -0.3180  0.1982
12059ION     CL14209  14.413   0.652  28.866  0.1678  0.0748 -0.1007
12060ION     CL14210  17.998   2.404   0.061  0.2634 -0.0054  0.0762
12061ION     CL14211  25.597   2.867  27.695  0.2803 -0.1821  0.3478
12062ION     CL14212  15.470   3.034   1.408 -0.1306 -0.4325  0.3011
12063ION     CL14213  21.485   6.244   8.642  0.0477 -0.2650  0.3464
12064ION     CL14214   2.352   1.173   4.234  0.0257 -0.0608 -0.1954
12065ION     CL14215   2.456   5.010  22.496 -0.2332 -0.2112  0.0792
12066ION     CL14216  20.536   0.683   3.750 -0.0011  0.3365  0.0535
12067ION     CL14217   3.576   0.643  33.308 -0.2346 -0.0332  0.3312
12068ION     CL14218  24.232   3.070  27.413  0.0991 -0.0144  0.4678
12069ION     CL14219   4.879   2.669   3.572 -0.3005 -0.4151 -0.0327
12070ION     CL14220   0.916   4.227   4.910  0.2700 -0.0252 -0.2101
12071ION     CL14221   0.436   5.580  25.293  0.2238 -0.2035 -0.2618
12072ION     CL14222   4.799   1.461  14.451 -0.2254  0.2437 -0.3951
12073ION     CL14223  17.365   5.109  28.146 -0.1913  0.1180 -0.3587
12074ION     CL14224  15.458   2.972  12.349 -0.2170  0.1287 -0.1180
12075ION     CL14225   5.742   1.355   3.713 -0.4276 -0.1787  0.0262
12076ION     CL14226   2.865   3.741  26.081  0.2051 -0.5153 -0.0245
12077ION     CL14227   4.941   1.321  32.357  0.2533 -0.1141  0.0489
12078ION     CL14228   5.843   3.528  31.647  0.0537  0.2006 -0.1419
12079ION     CL14229   3.004   2.779   8.815 -0.2306  0.0523  0.3233
12080ION     CL14230  18.286   0.674  30.513  0.2504  0.1807  0.0429
12081ION     CL14231  13.015   3.616   6.283 -0.3533 -0.0851  0.2214
12082ION     CL14232  23.920   4.475  28.709  0.2687  0.1594  0.1839
12083ION     CL14233  16.277   5.167  33.956 -0.0248 -0.0616 -0.4260
12084DPPC   NC314234  11.200   4.450  20.466  0.1547  0.0156 -0.3934
12084DPPC   PO414235  11.003   4.172  20.300 -0.1067  0.0793 -0.1953
12084DPPC   GL114236  10.854   4.343  19.914  0.0056  0.0939  0.3888
12084DPPC   GL214237  10.942   4.589  20.034  0.0177 -0.2401 -0.1230
12084DPPC   C1A14238  10.761   4.151  19.625 -0.1397 -0.1195 -0.1562
12084DPPC   C2A14239  10.745   4.079  19.248 -0.1301 -0.0020  0.1565
12084DPPC   C3A14240  10.815   4.161  18.758  0.2538  0.2441 -0.1411
12084DPPC   C4A14241  10.845   4.177  18.290 -0.0581 -0.0246 -0.1638
12084DPPC   C1B14242  10.972   4.651  19.654 -0.5179  0.1289 -0.0551
12084DPPC   C2B14243  11.030   4.629  19.246  0.3577 -0.2416 -0.2445
12084DPPC   C3B14244  11.028   4.652  18.769 -0.2225  0.1179 -0.2554
12084DPPC   C4B14245  11.083   4.673  18.331  0.1439 -0.0800 -0.1760
12085DPPC   NC314246  10.883   2.431  20.420  0.1578  0.0923  0.0599
12085DPPC   PO414247  11.251   2.427  20.319 -0.0100 -0.0097  0.1335
12085DPPC   GL114248  11.378   2.537  19.897 -0.1477  0.0702 -0.1822
12085DPPC   GL214249  11.114   2.472  19.854  0.0550 -0.1922  0.0664
12085DPPC   C1A14250  11.534   2.429  19.562 -0.1419 -0.1680 -0.1876
12085DPPC   C2A14251  11.638   2.424  19.153 -0.0391 -0.3166 -0.0633
12085DPPC   C3A14252  11.663   2.522  18.674  0.2349 -0.0774  0.3264
12085DPPC   C4A14253  11.687   2.512  18.156 -0.1191 -0.1433 -0.0969
12085DPPC   C1B14254  11.125   2.329  19.530 -0.0088  0.0108  0.0517
12085DPPC   C2B14255  11.163   2.347  19.113  0.0845  0.1193 -0.1605
12085DPPC   C3B14256  11.211   2.320  18.657  0.0638 -0.1130 -0.1054
12085DPPC   C4B14257  11.137   2.392  18.230  0.2537  0.0851  0.0867
12086DPPC   NC314258  13.230   5.039  20.756 -0.1482  0.0032 -0.1999
12086DPPC   PO414259  13.472   5.007  20.464 -0.0548  0.0588  0.3172
12086DPPC   GL114260  13.406   5.001  20.063  0.0793  0.1388  0.1012
12086DPPC   GL214261  13.161   5.036  20.107  0.0290 -0.0798  0.3008
12086DPPC   C1A14262  13.555   4.997  19.730  0.1396 -0.4584  0.0769
12086DPPC   C2A14263  13.518   5.017  19.333  0.2989  0.0456  0.0688
12086DPPC   C3A14264  13.463   5.041  18.798  0.1627 -0.0760 -0.1062
12086DPPC   C4A14265  13.494   5.157  18.362 -0.0841  0.0599 -0.1803
12086DPPC   C1B14266  13.055   4.975  19.781  0.3157 -0.0436 -0.1160
12086DPPC   C2B14267  12.911   4.894  19.394  0.2781 -0.2078  0.1682
12086DPPC   C3B14268  12.990   4.906  18.907 -0.1223 -0.1907  0.1287
12086DPPC   C4B14269  13.082   4.881  18.404  0.0508 -0.1041  0.1296
12087DPPC   NC314270   8.049   6.371  20.260 -0.1003  0.1912 -0.1217
12087DPPC   PO414271   7.680   6.291  20.180  0.0962  0.1706  0.0937
12087DPPC   GL114272   7.517   6.063  19.885 -0.2106 -0.1812  0.5800
12087DPPC   GL214273   7.703   6.297  19.695 -0.0007  0.0746  0.1346
12087DPPC   C1A14274   7.388   5.814  19.665  0.4456  0.2586  0.0445
12087DPPC   C2A14275   7.162   5.616  19.397 -0.0315 -0.1708 -0.3353
12087DPPC   C3A14276   7.148   5.533  18.945 -0.0248 -0.1459 -0.0349
12087DPPC   C4A14277   7.154   5.600  18.441 -0.0424  0.1556  0.0723
12087DPPC   C1B14278   7.514   6.157  19.433  0.1231 -0.0314 -0.1183
12087DPPC   C2B14279   7.332   6.000  19.078 -0.0999 -0.0547 -0.0901
12087DPPC   C3B14280   7.312   6.093  18.593  0.0367 -0.0335  0.0003
12087DPPC   C4B14281   7.335   6.107  18.079  0.2204  0.0396 -0.4047
12088DPPC   NC314282  13.414   6.512  20.541  0.3267  0.1010  0.0497
12088DPPC   PO414283  13.028   6.415  20.485 -0.1683 -0.0564  0.1812
12088DPPC   GL114284  12.997   6.251  20.096 -0.0637 -0.0480 -0.2774
12088DPPC   GL214285  13.125   6.016  20.096  0.0340 -0.0641  0.1505
12088DPPC   C1A14286  12.985   6.437  19.812  0.2597 -0.0724 -0.0220
12088DPPC   C2A14287  12.984   6.278  19.476  0.2104  0.0491 -0.1630
12088DPPC   C3A14288  12.991   6.244  19.014 -0.0651  0.1100  0.1477
12088DPPC   C4A14289  13.006   6.237  18.524 -0.0088 -0.2820 -0.0547
12088DPPC   C1B14290  13.244   5.937  19.689 -0.1530  0.2395  0.0161
12088DPPC   C2B14291  13.259   5.874  19.289  0.0201  0.0545  0.0627
12088DPPC   C3B14292  13.253   5.872  18.809 -0.1179 -0.0707  0.2790
12088DPPC   C4B14293  13.320   5.764  18.304 -0.0303 -0.0061  0.3562
12089DPPC   NC314294   8.739   4.917  20.301  0.1708 -0.1835 -0.2022
12089DPPC   PO414295   8.882   4.586  20.160  0.2045  0.1601 -0.0524
12089DPPC   GL114296   9.176   4.523  19.961 -0.2066 -0.1499  0.2338
12089DPPC   GL214297   9.285   4.230  19.967  0.6011  0.1439 -0.1295
12089DPPC   C1A14298   9.229   4.648  19.596  0.3670  0.1477 -0.3015
12089DPPC   C2A14299   9.190   4.687  19.243  0.0967 -0.1154  0.0630
12089DPPC   C3A14300   9.254   4.697  18.815  0.0673 -0.3157  0.1989
12089DPPC   C4A14301   9.321   4.653  18.348 -0.0284 -0.0921 -0.0963
12089DPPC   C1B14302   9.083   4.198  19.661  0.2120  0.1679  0.0892
12089DPPC   C2B14303   9.031   4.203  19.266 -0.3136 -0.7316  0.0228
12089DPPC   C3B14304   9.069   4.202  18.817 -0.2508  0.0844 -0.1194
12089DPPC   C4B14305   9.124   4.195  18.335 -0.2580  0.1507  0.1454
12090DPPC   NC314306  11.923   4.318  20.434  0.0478  0.1503  0.2944
12090DPPC   PO414307  11.661   4.494  20.211  0.0304 -0.1766 -0.1368
12090DPPC   GL114308  11.730   4.387  19.759  0.0425 -0.1103 -0.1511
12090DPPC   GL214309  11.527   4.634  19.760  0.1860 -0.2541  0.3414
12090DPPC   C1A14310  11.698   4.184  19.389 -0.1246 -0.2083 -0.1556
12090DPPC   C2A14311  11.807   4.230  18.967 -0.2930 -0.1377 -0.1321
12090DPPC   C3A14312  11.887   4.201  18.495 -0.1875 -0.4619 -0.2541
12090DPPC   C4A14313  11.868   4.226  18.022 -0.1729 -0.0375  0.1304
12090DPPC   C1B14314  11.514   4.708  19.378  0.4646  0.0674 -0.0336
12090DPPC   C2B14315  11.510   4.681  18.980  0.2255  0.2595  0.1999
12090DPPC   C3B14316  11.596   4.724  18.515 -0.3461 -0.1343  0.2055
12090DPPC   C4B14317  11.495   4.703  18.026  0.0419 -0.4635 -0.3128
12091DPPC   NC314318  10.035   1.335  20.338 -0.1603 -0.4555  0.0224
12091DPPC   PO414319   9.944   1.721  20.225 -0.1961  0.0512  0.0059
12091DPPC   GL114320   9.806   1.602  19.934 -0.3670 -0.1133 -0.0470
12091DPPC   GL214321   9.583   1.696  19.808 -0.3196  0.3792 -0.1453
12091DPPC   C1A14322   9.865   1.346  19.701 -0.0081  0.1697 -0.1930
12091DPPC   C2A14323   9.808   1.251  19.315 -0.1439  0.0444 -0.1904
12091DPPC   C3A14324   9.858   1.292  18.811  0.1085 -0.0454  0.1960
12091DPPC   C4A14325   9.951   1.352  18.323 -0.0863 -0.2417 -0.0067
12091DPPC   C1B14326   9.510   1.690  19.465 -0.1089  0.0945  0.0102
12091DPPC   C2B14327   9.538   1.617  19.071  0.0216  0.0366 -0.0925
12091DPPC   C3B14328   9.566   1.666  18.565  0.0848  0.0590  0.0339
12091DPPC   C4B14329   9.540   1.594  18.098  0.0471 -0.0559  0.1431
12092DPPC   NC314330   8.615   3.415  20.569  0.0068 -0.0712 -0.0899
12092DPPC   PO414331   8.435   3.771  20.441  0.2170 -0.1317 -0.0867
12092DPPC   GL114332   8.240   3.829  20.046  0.1605  0.2069 -0.0544
12092DPPC   GL214333   8.456   3.599  20.011 -0.1606 -0.0767  0.3185
12092DPPC   C1A14334   8.359   3.973  19.783 -0.0593 -0.2786  0.0589
12092DPPC   C2A14335   8.508   4.105  19.389  0.0802  0.4995 -0.0693
12092DPPC   C3A14336   8.605   4.108  18.887 -0.0519  0.1068 -0.0860
12092DPPC   C4A14337   8.662   4.108  18.428  0.1843 -0.0387 -0.1025
12092DPPC   C1B14338   8.472   3.571  19.617 -0.0128 -0.0619 -0.0443
12092DPPC   C2B14339   8.362   3.626  19.190 -0.3553  0.2157 -0.1707
12092DPPC   C3B14340   8.446   3.682  18.729  0.2909 -0.1426 -0.1155
12092DPPC   C4B14341   8.438   3.670  18.255  0.0305 -0.0027  0.0099
12093DPPC   NC314342   9.313   3.108  20.565  0.0289  0.0945 -0.2044
12093DPPC   PO414343   9.112   3.458  20.622 -0.1131 -0.1362  0.0820
12093DPPC   GL114344   8.938   3.423  20.238 -0.0616 -0.0272 -0.2205
12093DPPC   GL214345   9.295   3.350  20.148 -0.1960 -0.4923  0.1504
12093DPPC   C1A14346   8.873   3.595  19.943 -0.1302  0.3390 -0.2228
12093DPPC   C2A14347   8.906   3.714  19.596 -0.2109  0.2541  0.0777
12093DPPC   C3A14348   8.859   3.766  19.125  0.3077  0.0398  0.0291
12093DPPC   C4A14349   8.914   3.733  18.652  0.0084 -0.1110  0.0495
12093DPPC   C1B14350   9.254   3.420  19.749 -0.3606  0.0211 -0.2594
12093DPPC   C2B14351   9.125   3.362  19.343 -0.2265  0.0819  0.1183
12093DPPC   C3B14352   9.096   3.327  18.912 -0.4436  0.1438 -0.0688
12093DPPC   C4B14353   9.178   3.306  18.442 -0.0111  0.0139 -0.0361
12094DPPC   NC314354  10.138   2.143  20.428  0.2236  0.2584  0.2151
12094DPPC   PO414355   9.734   2.161  20.353  0.1068 -0.1550 -0.0201
12094DPPC   GL114356   9.657   2.117  19.986 -0.0648 -0.1984  0.0949
12094DPPC   GL214357   9.387   2.143  19.990 -0.0453 -0.0399 -0.1601
12094DPPC   C1A14358   9.756   2.142  19.590  0.0907  0.1989  0.2776
12094DPPC   C2A14359   9.658   2.118  19.145 -0.1779 -0.1505  0.2353
12094DPPC   C3A14360   9.641   2.152  18.675 -0.1207  0.0076  0.2173
12094DPPC   C4A14361   9.648   2.207  18.147  0.0542  0.3197 -0.1331
12094DPPC   C1B14362   9.299   2.011  19.685  0.0858  0.1803 -0.2967
12094DPPC   C2B14363   9.165   1.997  19.326  0.1420 -0.1337 -0.3223
12094DPPC   C3B14364   9.170   2.004  18.830 -0.1403  0.1624 -0.0949
12094DPPC   C4B14365   9.222   1.976  18.358 -0.0170  0.1201 -0.0630
12095DPPC   NC314366  11.469   1.460  21.031  0.2867 -0.2265  0.0543
12095DPPC   PO414367  11.213   1.456  20.749  0.0375  0.2463 -0.0533
12095DPPC   GL114368  11.213   1.573  20.340 -0.0511 -0.2017 -0.0394
12095DPPC   GL214369  10.961   1.650  20.250 -0.1043 -0.2837  0.6231
12095DPPC   C1A14370  11.186   1.309  20.052 -0.0662  0.1571 -0.2379
12095DPPC   C2A14371  11.231   1.144  19.646  0.1003 -0.0045 -0.2356
12095DPPC   C3A14372  11.123   1.094  19.183 -0.3191  0.1840 -0.0834
12095DPPC   C4A14373  11.153   1.154  18.724  0.1868  0.2680  0.1443
12095DPPC   C1B14374  10.984   1.654  19.916 -0.0767 -0.0617 -0.2049
12095DPPC   C2B14375  10.929   1.869  19.544 -0.3440  0.1334 -0.0388
12095DPPC   C3B14376  10.982   1.910  19.075 -0.0001  0.1054  0.0522
12095DPPC   C4B14377  10.934   1.940  18.568  0.0098 -0.0577 -0.0535
12096DPPC   NC314378  11.446   0.317  20.414  0.1143  0.0925 -0.0650
12096DPPC   PO414379  11.606   0.647  20.582 -0.0530 -0.1983 -0.0954
12096DPPC   GL114380  11.794   0.790  20.187  0.2030  0.0067  0.1243
12096DPPC   GL214381  11.510   0.771  20.107 -0.1767 -0.0437  0.1269
12096DPPC   C1A14382  11.836   0.582  19.856 -0.1230 -0.2371  0.1956
12096DPPC   C2A14383  11.780   0.463  19.489  0.1412  0.0180 -0.0096
12096DPPC   C3A14384  11.811   0.406  18.998 -0.4200  0.1128 -0.0430
12096DPPC   C4A14385  11.842   0.358  18.522 -0.0181  0.0410  0.0705
12096DPPC   C1B14386  11.461   0.780  19.708  0.2677 -0.3806 -0.0072
12096DPPC   C2B14387  11.458   0.745  19.250 -0.2150 -0.1109 -0.2023
12096DPPC   C3B14388  11.497   0.705  18.779 -0.1664  0.0570 -0.1651
12096DPPC   C4B14389  11.509   0.669  18.269  0.0398 -0.0401  0.0675
12097DPPC   NC314390  11.504   5.219  20.595 -0.1658  0.2848 -0.2900
12097DPPC   PO414391  11.252   5.285  20.293 -0.1074  0.2828  0.0424
12097DPPC   GL114392  11.227   5.174  19.856  0.2360  0.1309 -0.5899
12097DPPC   GL214393  10.989   5.087  19.913  0.1494  0.2292 -0.1710
12097DPPC   C1A14394  11.266   5.121  19.488 -0.1984 -0.2393 -0.0422
12097DPPC   C2A14395  11.235   5.100  19.066 -0.3354 -0.0459  0.2085
12097DPPC   C3A14396  11.145   5.093  18.605  0.0437 -0.0433  0.0562
12097DPPC   C4A14397  11.221   5.098  18.098 -0.3267  0.1380 -0.0106
12097DPPC   C1B14398  10.715   4.991  19.739 -0.0820  0.0696  0.0247
12097DPPC   C2B14399  10.647   4.931  19.342 -0.1294 -0.0317 -0.3258
12097DPPC   C3B14400  10.696   4.948  18.914  0.0722 -0.0197  0.0686
12097DPPC   C4B14401  10.688   4.964  18.399 -0.1508 -0.2884  0.1037
12098DPPC   NC314402   6.320   2.009  20.481 -0.1208  0.0571 -0.0358
12098DPPC   PO414403   6.664   1.973  20.280 -0.0636 -0.4047 -0.1307
12098DPPC   GL114404   6.741   1.992  19.818  0.3086 -0.1549 -0.4331
12098DPPC   GL214405   6.424   1.945  19.905 -0.1606  0.1127  0.2027
12098DPPC   C1A14406   6.767   1.893  19.482 -0.3379  0.0816  0.1012
12098DPPC   C2A14407   6.859   1.898  19.098  0.1473  0.1679 -0.0035
12098DPPC   C3A14408   6.885   1.893  18.633  0.0381 -0.1199 -0.1992
12098DPPC   C4A14409   7.017   2.016  18.164 -0.1539  0.1612 -0.1232
12098DPPC   C1B14410   6.340   1.913  19.570  0.0761  0.0489 -0.3745
12098DPPC   C2B14411   6.400   1.786  19.200  0.2571 -0.0287 -0.0059
12098DPPC   C3B14412   6.364   1.909  18.736 -0.1002  0.3317 -0.1123
12098DPPC   C4B14413   6.551   1.910  18.232  0.0090 -0.2304 -0.0644
12099DPPC   NC314414  10.905   3.698  19.929 -0.0414 -0.0969 -0.0456
12099DPPC   PO414415  11.121   3.372  19.979  0.2444 -0.1814 -0.1469
12099DPPC   GL114416  11.369   3.158  19.733 -0.0496 -0.1587  0.0582
12099DPPC   GL214417  11.175   2.907  19.766 -0.5086  0.1373  0.1086
12099DPPC   C1A14418  11.427   3.273  19.404  0.1982 -0.1951 -0.1484
12099DPPC   C2A14419  11.464   3.298  19.030 -0.0981 -0.0616  0.2135
12099DPPC   C3A14420  11.569   3.335  18.555 -0.1841  0.2865  0.1673
12099DPPC   C4A14421  11.570   3.311  18.090 -0.0851 -0.4134 -0.0944
12099DPPC   C1B14422  11.210   2.761  19.375 -0.0620  0.4055 -0.3117
12099DPPC   C2B14423  11.266   2.801  18.932  0.0231 -0.2352  0.2639
12099DPPC   C3B14424  11.368   2.873  18.471 -0.1104  0.0901  0.0267
12099DPPC   C4B14425  11.289   2.839  17.994 -0.4094  0.4146  0.1189
12100DPPC   NC314426  12.449   2.325  20.875 -0.0421 -0.0294 -0.0488
12100DPPC   PO414427  12.177   2.599  20.704 -0.2967  0.4785  0.1024
12100DPPC   GL114428  12.201   2.591  20.265 -0.0060  0.1119  0.1213
12100DPPC   GL214429  12.301   2.854  20.344  0.2175  0.0707  0.0953
12100DPPC   C1A14430  12.195   2.556  19.903  0.5080 -0.1331  0.1369
12100DPPC   C2A14431  12.153   2.572  19.503 -0.1744 -0.1264  0.3340
12100DPPC   C3A14432  12.095   2.589  19.004 -0.0460  0.0532 -0.1329
12100DPPC   C4A14433  12.121   2.555  18.499  0.0855  0.0305 -0.1199
12100DPPC   C1B14434  12.326   2.925  19.983  0.5801  0.0363 -0.1700
12100DPPC   C2B14435  12.230   3.049  19.613 -0.0173  0.1346 -0.1492
12100DPPC   C3B14436  12.240   3.041  19.161 -0.1871  0.1931 -0.0360
12100DPPC   C4B14437  12.333   2.972  18.682 -0.0617 -0.2990 -0.0072
12101DPPC   NC314438   9.899   2.487  20.741 -0.0069  0.1022 -0.2047
12101DPPC   PO414439  10.064   2.645  20.453 -0.4027  0.3405  0.0697
12101DPPC   GL114440   9.960   2.492  20.074 -0.2669  0.2498 -0.7304
12101DPPC   GL214441   9.693   2.607  20.167 -0.1536 -0.0676 -0.0131
12101DPPC   C1A14442   9.992   2.620  19.741  0.1145 -0.0117 -0.1965
12101DPPC   C2A14443   9.839   2.574  19.371 -0.0045 -0.2150  0.0049
12101DPPC   C3A14444   9.836   2.559  18.895 -0.1818  0.0711  0.0105
12101DPPC   C4A14445   9.867   2.589  18.372  0.1203  0.0540  0.0564
12101DPPC   C1B14446   9.568   2.534  19.843 -0.2932  0.1661 -0.1696
12101DPPC   C2B14447   9.386   2.416  19.455 -0.0773 -0.1166  0.0992
12101DPPC   C3B14448   9.341   2.506  18.970 -0.4658  0.1178  0.3551
12101DPPC   C4B14449   9.415   2.566  18.461  0.2656 -0.1141  0.0728
12102DPPC   NC314450   8.882   0.926  20.206 -0.0841 -0.0652  0.0382
12102DPPC   PO414451   8.582   1.176  20.197 -0.0681  0.1356 -0.0984
12102DPPC   GL114452   8.764   1.399  19.907  0.3618  0.1136 -0.1467
12102DPPC   GL214453   8.885   1.203  19.769  0.0937  0.1200 -0.0694
12102DPPC   C1A14454   8.486   1.582  19.767  0.1450  0.1915 -0.5155
12102DPPC   C2A14455   8.438   1.411  19.404  0.1206 -0.2466  0.1246
12102DPPC   C3A14456   8.554   1.406  18.953 -0.1011  0.0296  0.1227
12102DPPC   C4A14457   8.604   1.424  18.432 -0.1251 -0.2827  0.0702
12102DPPC   C1B14458   8.907   1.028  19.444  0.4132  0.1097  0.2135
12102DPPC   C2B14459   8.820   0.966  19.059  0.2115  0.1298  0.1529
12102DPPC   C3B14460   8.950   1.039  18.561  0.1329 -0.2874  0.2316
12102DPPC   C4B14461   8.944   0.952  18.003  0.0013  0.4025 -0.1744
12103DPPC   NC314462  11.759   3.732  20.410  0.1986  0.1073  0.2910
12103DPPC   PO414463  11.524   4.063  20.453  0.1578 -0.1777 -0.0494
12103DPPC   GL114464  11.386   4.109  20.077  0.1899 -0.0810 -0.0229
12103DPPC   GL214465  11.284   4.342  19.929  0.4212  0.2638  0.0036
12103DPPC   C1A14466  11.273   3.910  19.808  0.0419  0.2159 -0.2224
12103DPPC   C2A14467  11.053   3.773  19.466  0.0857  0.1900  0.1508
12103DPPC   C3A14468  11.109   3.752  18.973  0.1587  0.0402  0.1187
12103DPPC   C4A14469  11.207   3.799  18.559 -0.1321 -0.1490  0.1065
12103DPPC   C1B14470  11.183   4.295  19.561 -0.3721  0.5016 -0.1157
12103DPPC   C2B14471  11.282   4.212  19.160  0.1492 -0.1280  0.0497
12103DPPC   C3B14472  11.338   4.251  18.666 -0.2322 -0.0524 -0.1860
12103DPPC   C4B14473  11.373   4.168  18.160 -0.2343 -0.0028 -0.1703
12104DPPC   NC314474   6.732   2.827  20.254  0.0827 -0.0058 -0.0773
12104DPPC   PO414475   6.435   2.832  19.976  0.0794 -0.0271  0.1339
12104DPPC   GL114476   6.582   3.021  19.655 -0.0290 -0.0207  0.1134
12104DPPC   GL214477   6.307   3.057  19.508  0.1158 -0.2952 -0.0962
12104DPPC   C1A14478   6.834   3.202  19.443  0.0076 -0.0382 -0.1713
12104DPPC   C2A14479   6.737   3.267  19.065  0.2629  0.0518 -0.1089
12104DPPC   C3A14480   6.781   3.259  18.576  0.3193 -0.0395 -0.1684
12104DPPC   C4A14481   6.824   3.284  18.126  0.0538 -0.1408 -0.2156
12104DPPC   C1B14482   6.276   3.089  19.101  0.0735  0.0060  0.2586
12104DPPC   C2B14483   6.278   3.129  18.682  0.1928 -0.1305  0.1398
12104DPPC   C3B14484   6.332   3.176  18.219  0.2399  0.1506  0.0740
12104DPPC   C4B14485   6.354   3.242  17.740 -0.0634  0.3090  0.2395
12105DPPC   NC314486  10.382   4.597  20.757 -0.1728 -0.0570  0.1511
12105DPPC   PO414487  10.303   4.880  20.487 -0.1014 -0.3039  0.5198
12105DPPC   GL114488  10.269   4.991  20.036  0.1276 -0.0420  0.3285
12105DPPC   GL214489  10.095   4.706  20.011  0.3277 -0.2941  0.0286
12105DPPC   C1A14490  10.221   5.024  19.662  0.1113 -0.2532 -0.2100
12105DPPC   C2A14491  10.126   4.899  19.312  0.0852  0.2364  0.3954
12105DPPC   C3A14492  10.203   4.899  18.841 -0.1229  0.1938  0.1285
12105DPPC   C4A14493  10.179   4.914  18.367 -0.3266  0.0243 -0.2738
12105DPPC   C1B14494  10.021   4.591  19.688 -0.0897  0.2341 -0.0643
12105DPPC   C2B14495   9.921   4.411  19.360  0.1797  0.2248  0.1949
12105DPPC   C3B14496  10.005   4.413  18.841 -0.1758  0.0360 -0.4138
12105DPPC   C4B14497  10.009   4.417  18.381 -0.1349  0.0174 -0.0316
12106DPPC   NC314498  10.708   5.344  20.642 -0.0882 -0.0632  0.2688
12106DPPC   PO414499  10.731   5.404  20.263 -0.5085  0.1140  0.1181
12106DPPC   GL114500  10.369   5.409  19.947 -0.0139  0.0476  0.2982
12106DPPC   GL214501  10.639   5.488  19.820  0.0477 -0.0082  0.2793
12106DPPC   C1A14502  10.211   5.549  19.601 -0.0833  0.0047 -0.1301
12106DPPC   C2A14503  10.079   5.764  19.189  0.0056  0.1027  0.0714
12106DPPC   C3A14504  10.045   5.771  18.756 -0.3971  0.2847  0.1618
12106DPPC   C4A14505  10.017   5.816  18.281  0.3930 -0.0509  0.1927
12106DPPC   C1B14506  10.603   5.408  19.451  0.2401  0.2916 -0.1640
12106DPPC   C2B14507  10.409   5.317  19.111 -0.0304 -0.3033  0.1386
12106DPPC   C3B14508  10.405   5.336  18.621  0.3688 -0.0409 -0.0742
12106DPPC   C4B14509  10.409   5.392  18.197  0.2228 -0.0632  0.2154
12107DPPC   NC314510   8.313   0.178  20.011  0.1883 -0.1053  0.1691
12107DPPC   PO414511   8.704   0.138  20.038  0.1441  0.1849 -0.1940
12107DPPC   GL114512   8.951   0.006  19.718  0.0784 -0.0130  0.0391
12107DPPC   GL214513   9.184  -0.035  19.898  0.0384 -0.3974 -0.3138
12107DPPC   C1A14514   9.062   0.078  19.436 -0.3293 -0.0571  0.2732
12107DPPC   C2A14515   9.105   0.166  19.058 -0.1008 -0.1174  0.0575
12107DPPC   C3A14516   9.051   0.175  18.582 -0.0088  0.0395 -0.0760
12107DPPC   C4A14517   9.121   0.259  18.103  0.1078  0.1938 -0.0990
12107DPPC   C1B14518   9.489  -0.188  19.731  0.3574 -0.2587 -0.2051
12107DPPC   C2B14519   9.441  -0.189  19.284 -0.2185 -0.2476 -0.2572
12107DPPC   C3B14520   9.360  -0.185  18.791 -0.0487  0.0744  0.1749
12107DPPC   C4B14521   9.375  -0.115  18.362 -0.5368 -0.1116 -0.2424
12108DPPC   NC314522   8.114   2.078  20.762  0.0970  0.2013 -0.1474
12108DPPC   PO414523   8.015   1.838  20.435  0.0833  0.2009  0.1143
12108DPPC   GL114524   7.931   1.920  20.030  0.1284  0.5726 -0.0443
12108DPPC   GL214525   8.196   1.866  19.891 -0.5610 -0.1645  0.0991
12108DPPC   C1A14526   7.718   2.089  19.759  0.0147  0.2543  0.2148
12108DPPC   C2A14527   7.810   2.151  19.375 -0.1517  0.0446 -0.1256
12108DPPC   C3A14528   7.892   2.228  18.921  0.3519 -0.1225 -0.0459
12108DPPC   C4A14529   8.013   2.170  18.418  0.1490 -0.0398 -0.1150
12108DPPC   C1B14530   8.229   1.898  19.482 -0.1713 -0.1785  0.4899
12108DPPC   C2B14531   8.126   1.857  19.106  0.0403 -0.1813  0.0445
12108DPPC   C3B14532   8.232   1.746  18.663  0.1137  0.0611 -0.1831
12108DPPC   C4B14533   8.276   1.775  18.163  0.5484  0.4481  0.2917
12109DPPC   NC314534   6.985   6.045  20.555  0.2522 -0.2373 -0.1678
12109DPPC   PO414535   6.954   5.701  20.344 -0.2531 -0.3744 -0.2777
12109DPPC   GL114536   6.820   5.691  19.986 -0.0672  0.2874 -0.1819
12109DPPC   GL214537   6.733   5.451  19.817  0.2227 -0.2912  0.4859
12109DPPC   C1A14538   6.843   5.843  19.611  0.3697 -0.2799  0.2940
12109DPPC   C2A14539   6.838   5.952  19.187 -0.1711  0.0362 -0.2121
12109DPPC   C3A14540   6.823   5.917  18.745 -0.0014 -0.0721 -0.0444
12109DPPC   C4A14541   6.855   5.926  18.224  0.1760 -0.0915  0.2301
12109DPPC   C1B14542   6.663   5.447  19.503 -0.1824  0.2917 -0.1822
12109DPPC   C2B14543   6.674   5.471  19.127 -0.0819  0.2266 -0.1038
12109DPPC   C3B14544   6.710   5.457  18.611 -0.0793  0.0671  0.2172
12109DPPC   C4B14545   6.668   5.311  18.180 -0.0613 -0.0268 -0.2684
12110DPPC   NC314546  11.197   2.032  20.573 -0.1919 -0.0096 -0.0476
12110DPPC   PO414547  11.543   1.993  20.335  0.3561 -0.0454  0.0758
12110DPPC   GL114548  11.421   1.724  19.989 -0.7759 -0.0418 -0.0196
12110DPPC   GL214549  11.581   1.511  20.033 -0.0831  0.2966 -0.0031
12110DPPC   C1A14550  11.327   1.636  19.654  0.1629  0.1134 -0.1879
12110DPPC   C2A14551  11.339   1.559  19.246 -0.2267 -0.2417  0.0094
12110DPPC   C3A14552  11.247   1.597  18.828  0.1505 -0.0482  0.3086
12110DPPC   C4A14553  11.314   1.548  18.360 -0.1598  0.0456  0.3664
12110DPPC   C1B14554  11.650   1.310  19.763 -0.1116  0.2077 -0.0039
12110DPPC   C2B14555  11.687   1.235  19.390  0.0519 -0.0504 -0.0905
12110DPPC   C3B14556  11.606   1.248  18.860 -0.2274 -0.0235 -0.0300
12110DPPC   C4B14557  11.675   1.156  18.362 -0.3633 -0.1600  0.0965
12111DPPC   NC314558  13.890   2.581  20.400  0.0420 -0.0081  0.3423
12111DPPC   PO414559  13.561   2.433  20.600 -0.2256  0.0032  0.0229
12111DPPC   GL114560  13.485   2.273  20.278 -0.3215 -0.1777  0.1970
12111DPPC   GL214561  13.610   2.388  20.073  0.1136 -0.1533  0.3748
12111DPPC   C1A14562  13.330   2.037  20.076  0.0341  0.1779 -0.1956
12111DPPC   C2A14563  13.227   1.921  19.707  0.0504 -0.1481  0.0406
12111DPPC   C3A14564  13.255   1.804  19.236  0.1096 -0.0605  0.0646
12111DPPC   C4A14565  13.303   1.828  18.760 -0.0222  0.1760 -0.1729
12111DPPC   C1B14566  13.404   2.366  19.801 -0.3496 -0.1073 -0.0840
12111DPPC   C2B14567  13.411   2.351  19.367  0.0412  0.1933  0.1681
12111DPPC   C3B14568  13.475   2.346  18.912  0.0780  0.2604 -0.3127
12111DPPC   C4B14569  13.507   2.340  18.438 -0.1340  0.0077  0.1888
12112DPPC   NC314570  10.395   5.847  20.111  0.0554  0.0695 -0.2194
12112DPPC   PO414571  10.614   6.186  20.185 -0.1273 -0.0820  0.0701
12112DPPC   GL114572  10.614   6.461  19.910 -0.0549 -0.4941  0.3706
12112DPPC   GL214573  10.795   6.640  20.021 -0.0645  0.1959 -0.1907
12112DPPC   C1A14574  10.770   6.362  19.557  0.0166  0.0238 -0.2425
12112DPPC   C2A14575  10.783   6.348  19.141  0.0468 -0.3174 -0.1231
12112DPPC   C3A14576  10.771   6.384  18.657  0.1916  0.1180 -0.1687
12112DPPC   C4A14577  10.798   6.330  18.166 -0.1520  0.3187 -0.2172
12112DPPC   C1B14578  10.859   6.784  19.685 -0.1571  0.0813  0.1664
12112DPPC   C2B14579  10.889   6.838  19.271  0.0167 -0.2524  0.0553
12112DPPC   C3B14580  10.855   6.800  18.777  0.1096 -0.1602  0.1096
12112DPPC   C4B14581  10.862   6.763  18.292  0.0807 -0.0573 -0.0889
12113DPPC   NC314582   7.277   1.138  20.090  0.0119  0.1477 -0.3012
12113DPPC   PO414583   7.606   0.951  20.226 -0.0729  0.1771  0.1375
12113DPPC   GL114584   7.690   0.919  19.824 -0.3019  0.3610 -0.0380
12113DPPC   GL214585   7.985   0.998  19.898 -0.1732  0.0245  0.3262
12113DPPC   C1A14586   7.588   0.923  19.494  0.0783  0.0964 -0.0776
12113DPPC   C2A14587   7.555   1.235  19.165  0.0685  0.0853  0.1271
12113DPPC   C3A14588   7.587   1.212  18.634  0.0668  0.2540 -0.0773
12113DPPC   C4A14589   7.656   1.209  18.171 -0.0504 -0.1996 -0.1660
12113DPPC   C1B14590   8.089   1.023  19.548 -0.0640  0.0297  0.0141
12113DPPC   C2B14591   8.311   0.963  19.214  0.0242 -0.1075  0.0702
12113DPPC   C3B14592   8.430   0.974  18.707 -0.3606 -0.0006  0.1108
12113DPPC   C4B14593   8.489   0.948  18.190 -0.1454  0.1173  0.1486
12114DPPC   NC314594   9.834   4.990  20.330  0.0938 -0.1119  0.0755
12114DPPC   PO414595   9.485   4.905  20.453  0.0136 -0.1872 -0.0650
12114DPPC   GL114596   9.232   5.096  20.161  0.2304  0.2385  0.2124
12114DPPC   GL214597   9.460   5.252  20.027 -0.1211  0.1251  0.2361
12114DPPC   C1A14598   8.914   5.066  19.893  0.0410 -0.0577  0.0935
12114DPPC   C2A14599   8.872   4.977  19.493 -0.0730  0.2094 -0.2408
12114DPPC   C3A14600   8.914   5.050  19.026  0.1511 -0.0280  0.1056
12114DPPC   C4A14601   8.969   5.027  18.486  0.3916 -0.1385  0.1706
12114DPPC   C1B14602   9.340   5.146  19.625 -0.3561  0.0263  0.2374
12114DPPC   C2B14603   9.367   5.140  19.181 -0.2554 -0.3260  0.0340
12114DPPC   C3B14604   9.416   5.191  18.706  0.3252  0.1269 -0.0599
12114DPPC   C4B14605   9.450   5.145  18.233  0.1225 -0.1016 -0.0928
12115DPPC   NC314606  10.146   4.387  20.292  0.1300  0.5299 -0.1175
12115DPPC   PO414607  10.498   4.474  20.195  0.0488  0.1226  0.2564
12115DPPC   GL114608  10.366   4.386  19.814 -0.0394  0.0558 -0.1796
12115DPPC   GL214609  10.141   4.209  19.874 -0.2743 -0.0558  0.0259
12115DPPC   C1A14610  10.380   4.458  19.455 -0.0599  0.1116  0.1695
12115DPPC   C2A14611  10.461   4.516  19.062  0.1892 -0.2196 -0.1620
12115DPPC   C3A14612  10.528   4.545  18.587  0.1404 -0.2081  0.1118
12115DPPC   C4A14613  10.465   4.598  18.129 -0.0525  0.0180  0.1831
12115DPPC   C1B14614  10.208   4.042  19.557  0.1664  0.0938 -0.0961
12115DPPC   C2B14615  10.261   4.084  19.164 -0.3045 -0.2581  0.2978
12115DPPC   C3B14616  10.349   3.991  18.710 -0.0361 -0.0243 -0.1988
12115DPPC   C4B14617  10.398   4.056  18.223  0.2075  0.0120 -0.1654
12116DPPC   NC314618   9.324   4.400  20.468  0.0367  0.0987 -0.3464
12116DPPC   PO414619   9.607   4.479  20.214  0.0145 -0.4509 -0.1949
12116DPPC   GL114620   9.647   4.782  19.867  0.0242  0.0023 -0.1291
12116DPPC   GL214621   9.587   4.446  19.739 -0.5292  0.2346 -0.1365
12116DPPC   C1A14622   9.673   4.853  19.477  0.2462  0.1469  0.0679
12116DPPC   C2A14623   9.707   4.819  19.060  0.0450 -0.0192 -0.0079
12116DPPC   C3A14624   9.746   4.801  18.585 -0.0527  0.0039  0.0906
12116DPPC   C4A14625   9.837   4.785  18.075 -0.2548  0.2235  0.0328
12116DPPC   C1B14626   9.466   4.326  19.449 -0.3192 -0.2884  0.1526
12116DPPC   C2B14627   9.522   4.355  19.048 -0.0326  0.0700 -0.0525
12116DPPC   C3B14628   9.515   4.306  18.593 -0.0412 -0.1983  0.1352
12116DPPC   C4B14629   9.629   4.261  18.111 -0.0897 -0.1186 -0.1563
12117DPPC   NC314630   9.401   3.870  20.714 -0.0519 -0.0581  0.0818
12117DPPC   PO414631   9.699   4.054  20.539 -0.3986  0.2868  0.2088
12117DPPC   GL114632   9.564   4.000  20.202 -0.4317 -0.2018 -0.3008
12117DPPC   GL214633   9.748   4.118  20.031  0.1775  0.1813 -0.1728
12117DPPC   C1A14634   9.373   3.808  19.906  0.1758 -0.2516 -0.0678
12117DPPC   C2A14635   9.371   3.828  19.508  0.1473 -0.0261  0.0130
12117DPPC   C3A14636   9.383   3.865  19.032  0.0520  0.0044 -0.0072
12117DPPC   C4A14637   9.374   3.791  18.525  0.1904 -0.1468 -0.0127
12117DPPC   C1B14638   9.793   4.013  19.685  0.2897 -0.1290 -0.2054
12117DPPC   C2B14639   9.865   3.871  19.338  0.0061 -0.2470  0.2321
12117DPPC   C3B14640   9.838   3.904  18.874 -0.2158  0.1914  0.0450
12117DPPC   C4B14641   9.866   3.913  18.378 -0.2121  0.2344  0.2524
12118DPPC   NC314642  11.228   0.970  20.898  0.0534 -0.2726  0.1462
12118DPPC   PO414643  11.112   0.631  20.698  0.1421  0.1790  0.4340
12118DPPC   GL114644  11.074   0.524  20.280  0.2857  0.0303  0.2504
12118DPPC   GL214645  10.901   0.786  20.193  0.1205 -0.2558 -0.3202
12118DPPC   C1A14646  11.210   0.404  19.972 -0.1032  0.0182 -0.0471
12118DPPC   C2A14647  11.306   0.318  19.555 -0.1967 -0.0639 -0.2391
12118DPPC   C3A14648  11.339   0.267  19.080 -0.1927 -0.2629 -0.1687
12118DPPC   C4A14649  11.314   0.259  18.660  0.1851  0.0926 -0.2798
12118DPPC   C1B14650  10.986   0.777  19.805 -0.2686 -0.3915  0.1151
12118DPPC   C2B14651  11.021   0.694  19.421  0.0546 -0.1947 -0.0992
12118DPPC   C3B14652  10.947   0.675  18.931 -0.2037  0.0299 -0.0196
12118DPPC   C4B14653  10.975   0.757  18.458  0.0738 -0.0803 -0.1654
12119DPPC   NC314654  13.321   1.889  20.539 -0.0488  0.2829  0.2955
12119DPPC   PO414655  13.256   1.537  20.750 -0.1324 -0.5292  0.1764
12119DPPC   GL114656  13.311   1.366  20.341 -0.1082 -0.0981 -0.3297
12119DPPC   GL214657  13.224   1.614  20.191 -0.0037  0.4026  0.0387
12119DPPC   C1A14658  13.458   1.183  20.111 -0.1269 -0.0172 -0.0168
12119DPPC   C2A14659  13.408   1.071  19.688 -0.1755  0.0103 -0.0188
12119DPPC   C3A14660  13.456   0.978  19.194 -0.0121 -0.0378  0.1234
12119DPPC   C4A14661  13.486   0.986  18.651 -0.0937  0.2785 -0.0691
12119DPPC   C1B14662  13.135   1.451  19.902  0.0101  0.0292  0.2000
12119DPPC   C2B14663  13.090   1.390  19.491 -0.1655  0.1235  0.0243
12119DPPC   C3B14664  13.137   1.378  19.018  0.0953  0.0973 -0.1333
12119DPPC   C4B14665  13.125   1.424  18.538 -0.0721  0.1394  0.4047
12120DPPC   NC314666  12.433   4.709  20.342 -0.3127  0.0670  0.0402
12120DPPC   PO414667  12.464   4.366  20.567 -0.1763  0.0146  0.0666
12120DPPC   GL114668  12.616   4.132  20.229 -0.0059 -0.1711 -0.1237
12120DPPC   GL214669  12.318   4.276  20.158  0.0861 -0.2408 -0.0330
12120DPPC   C1A14670  12.666   4.003  19.883  0.2223 -0.1271 -0.1196
12120DPPC   C2A14671  12.655   3.972  19.493 -0.3327 -0.2012  0.1857
12120DPPC   C3A14672  12.653   3.875  19.026 -0.0236  0.1801 -0.0275
12120DPPC   C4A14673  12.703   3.950  18.523  0.0734 -0.0794 -0.1021
12120DPPC   C1B14674  12.303   4.300  19.785  0.1414 -0.0467 -0.2953
12120DPPC   C2B14675  12.142   4.270  19.425 -0.0467  0.0038  0.0706
12120DPPC   C3B14676  12.276   4.344  18.947  0.2535  0.1977 -0.4982
12120DPPC   C4B14677  12.367   4.317  18.469 -0.2051 -0.0151  0.3344
12121DPPC   NC314678  11.461   2.957  20.158  0.1814  0.0700 -0.1261
12121DPPC   PO414679  11.047   2.939  20.248 -0.0526 -0.1903 -0.1560
12121DPPC   GL114680  10.780   3.094  19.901  0.0552 -0.0436 -0.1726
12121DPPC   GL214681  10.705   2.776  19.949  0.0347  0.0756  0.3017
12121DPPC   C1A14682  10.869   3.103  19.546 -0.2456  0.1856  0.0747
12121DPPC   C2A14683  10.959   3.257  19.154 -0.0709 -0.0383  0.1028
12121DPPC   C3A14684  11.024   3.292  18.708 -0.1878 -0.0941  0.1712
12121DPPC   C4A14685  11.106   3.359  18.272  0.1291  0.1933 -0.0861
12121DPPC   C1B14686  10.789   2.702  19.594 -0.3345  0.1381 -0.0662
12121DPPC   C2B14687  10.776   2.770  19.166 -0.1082 -0.1414 -0.1306
12121DPPC   C3B14688  10.780   2.777  18.700  0.0373 -0.2639 -0.0047
12121DPPC   C4B14689  10.792   2.727  18.158 -0.0520 -0.2708  0.0397
12122DPPC   NC314690   9.911   3.523  20.625 -0.1195 -0.1084  0.0576
12122DPPC   PO414691   9.585   3.531  20.405  0.1663  0.0916 -0.0300
12122DPPC   GL114692   9.736   3.544  20.078  0.1558 -0.2975 -0.1613
12122DPPC   GL214693   9.991   3.414  20.122 -0.2890 -0.2174  0.2034
12122DPPC   C1A14694   9.679   3.479  19.742 -0.0500  0.1602 -0.1635
12122DPPC   C2A14695   9.641   3.391  19.344  0.2979 -0.0026  0.1482
12122DPPC   C3A14696   9.591   3.451  18.838  0.0549  0.1877 -0.0447
12122DPPC   C4A14697   9.642   3.355  18.359 -0.0894  0.3329 -0.2634
12122DPPC   C1B14698  10.006   3.231  19.834  0.0165  0.0359  0.2931
12122DPPC   C2B14699  10.004   3.052  19.482 -0.1155 -0.1149 -0.2054
12122DPPC   C3B14700   9.958   3.052  19.005  0.1469  0.0099 -0.2158
12122DPPC   C4B14701  10.038   3.032  18.563  0.0944  0.0215  0.0250
12123DPPC   NC314702   8.573   5.796  20.216 -0.0231 -0.1159  0.0241
12123DPPC   PO414703   8.442   6.193  20.083 -0.0824 -0.0274  0.1967
12123DPPC   GL114704   8.443   6.414  19.713 -0.0066  0.1136  0.3928
12123DPPC   GL214705   8.142   6.300  19.714 -0.1078  0.3189  0.1405
12123DPPC   C1A14706   8.416   6.246  19.376  0.2167  0.2809  0.1823
12123DPPC   C2A14707   8.366   6.230  18.977  0.0274  0.4703 -0.0422
12123DPPC   C3A14708   8.456   6.262  18.526 -0.0779 -0.0411  0.1454
12123DPPC   C4A14709   8.414   6.198  18.027  0.2033 -0.1139 -0.0743
12123DPPC   C1B14710   7.981   6.159  19.385  0.1584 -0.0361  0.0771
12123DPPC   C2B14711   7.835   6.097  19.013  0.0715 -0.1795  0.0533
12123DPPC   C3B14712   7.898   6.149  18.574 -0.1715 -0.0127  0.2518
12123DPPC   C4B14713   7.830   6.091  18.100  0.1386  0.0774  0.0818
12124DPPC   NC314714   7.392   5.630  20.073 -0.3501 -0.1242  0.0096
12124DPPC   PO414715   7.783   5.473  20.028  0.2617 -0.4817 -0.1742
12124DPPC   GL114716   7.864   5.186  19.718 -0.5190  0.5087 -0.2543
12124DPPC   GL214717   8.104   5.355  19.710 -0.3334  0.2847 -0.2336
12124DPPC   C1A14718   7.555   5.208  19.472 -0.3524  0.1508 -0.3712
12124DPPC   C2A14719   7.540   5.243  19.083 -0.1276  0.1910  0.0056
12124DPPC   C3A14720   7.445   5.213  18.643 -0.0480  0.0461 -0.3511
12124DPPC   C4A14721   7.536   5.249  18.205  0.3593 -0.0277  0.2793
12124DPPC   C1B14722   8.132   5.381  19.338 -0.2530  0.2834 -0.0487
12124DPPC   C2B14723   8.109   5.297  18.942 -0.2199  0.1896 -0.1344
12124DPPC   C3B14724   8.019   5.321  18.425 -0.0176  0.0509 -0.2647
12124DPPC   C4B14725   8.228   5.299  18.040 -0.0366  0.0452  0.0523
12125DPPC   NC314726   7.422   4.530  20.678  0.3117  0.3926 -0.1453
12125DPPC   PO414727   7.536   4.506  20.269 -0.3257 -0.0402  0.1472
12125DPPC   GL114728   7.794   4.298  19.853  0.0448  0.0333  0.1914
12125DPPC   GL214729   7.885   4.527  19.977  0.2502  0.0727  0.2077
12125DPPC   C1A14730   8.023   4.361  19.500 -0.1872  0.1542 -0.1341
12125DPPC   C2A14731   8.224   4.495  19.170 -0.4958 -0.0704 -0.3265
12125DPPC   C3A14732   8.336   4.467  18.732 -0.0005 -0.0507 -0.0944
12125DPPC   C4A14733   8.272   4.486  18.191  0.0025  0.2637 -0.0539
12125DPPC   C1B14734   7.955   4.770  19.673 -0.0177 -0.0383  0.0535
12125DPPC   C2B14735   7.879   4.824  19.268  0.0370  0.4156  0.0954
12125DPPC   C3B14736   7.937   4.861  18.827  0.0717  0.1500 -0.0458
12125DPPC   C4B14737   7.838   4.843  18.349  0.3202  0.0937 -0.2010
12126DPPC   NC314738   8.511   1.713  20.225 -0.1839 -0.1164 -0.0475
12126DPPC   PO414739   8.427   2.129  20.261 -0.1089 -0.3226 -0.0492
12126DPPC   GL114740   8.590   2.284  19.835 -0.1230  0.0746 -0.3350
12126DPPC   GL214741   8.653   1.984  19.823 -0.0373 -0.1422 -0.2145
12126DPPC   C1A14742   8.811   2.362  19.522 -0.0194 -0.0905  0.2417
12126DPPC   C2A14743   8.833   2.383  19.091  0.0168 -0.0791 -0.1264
12126DPPC   C3A14744   8.913   2.364  18.590 -0.1185 -0.0189 -0.2245
12126DPPC   C4A14745   8.844   2.361  18.097 -0.2255 -0.1136  0.1584
12126DPPC   C1B14746   8.665   1.924  19.472 -0.4406 -0.2906 -0.0470
12126DPPC   C2B14747   8.677   1.931  19.062 -0.0074  0.1706  0.1524
12126DPPC   C3B14748   8.724   1.898  18.631  0.0674  0.0738  0.1835
12126DPPC   C4B14749   8.770   1.825  18.164 -0.0842  0.1641  0.0753
12127DPPC   NC314750  12.554   3.777  20.746  0.2789  0.0640  0.1527
12127DPPC   PO414751  12.646   3.412  20.727 -0.0732  0.1670  0.1882
12127DPPC   GL114752  12.578   3.218  20.359  0.3350  0.0431  0.1201
12127DPPC   GL214753  12.741   3.071  20.354 -0.0962  0.2463  0.0657
12127DPPC   C1A14754  12.558   3.278  19.985  0.1793 -0.2817  0.4203
12127DPPC   C2A14755  12.734   3.198  19.589 -0.0414 -0.1094 -0.0623
12127DPPC   C3A14756  12.733   3.114  19.110 -0.1506 -0.2065 -0.2816
12127DPPC   C4A14757  12.871   3.131  18.669 -0.2845 -0.1618  0.0877
12127DPPC   C1B14758  12.926   2.942  20.083 -0.0689  0.1316 -0.3467
12127DPPC   C2B14759  13.104   2.837  19.720  0.3038 -0.0929 -0.1576
12127DPPC   C3B14760  13.139   2.812  19.202 -0.1567  0.0293 -0.0970
12127DPPC   C4B14761  13.129   2.730  18.738  0.0146  0.0686  0.0633
12128DPPC   NC314762  11.851   2.308  20.572  0.1115 -0.0553 -0.1892
12128DPPC   PO414763  11.783   2.695  20.445 -0.1162 -0.0227  0.1235
12128DPPC   GL114764  11.829   2.720  20.064 -0.2377 -0.1598 -0.0812
12128DPPC   GL214765  11.794   2.425  20.007  0.0723 -0.3444 -0.3699
12128DPPC   C1A14766  11.759   2.831  19.690 -0.1294 -0.0695 -0.3177
12128DPPC   C2A14767  11.641   2.914  19.320  0.1227 -0.0608  0.0048
12128DPPC   C3A14768  11.816   2.947  18.803  0.0310 -0.0705  0.0842
12128DPPC   C4A14769  11.878   2.982  18.399  0.1556 -0.2980 -0.0572
12128DPPC   C1B14770  11.853   2.197  19.702 -0.0423 -0.1041  0.3793
12128DPPC   C2B14771  11.966   2.131  19.301  0.2057 -0.0034 -0.0780
12128DPPC   C3B14772  11.932   2.126  18.785 -0.0721 -0.1747 -0.2152
12128DPPC   C4B14773  12.064   2.125  18.261 -0.1115 -0.0514  0.0986
12129DPPC   NC314774  12.361   1.063  21.143 -0.0087  0.3269 -0.0730
12129DPPC   PO414775  12.528   0.921  20.786 -0.0598  0.2804 -0.2276
12129DPPC   GL114776  12.522   1.176  20.428 -0.2555  0.0840 -0.0054
12129DPPC   GL214777  12.568   0.913  20.283 -0.3525 -0.1033 -0.1025
12129DPPC   C1A14778  12.642   1.280  20.129 -0.3928 -0.0942  0.2200
12129DPPC   C2A14779  12.614   1.490  19.745  0.0436  0.1503 -0.1288
12129DPPC   C3A14780  12.624   1.374  19.235 -0.1416 -0.1126  0.1185
12129DPPC   C4A14781  12.673   1.333  18.777 -0.2162  0.1614  0.1293
12129DPPC   C1B14782  12.507   0.939  19.968 -0.1101 -0.0291  0.0285
12129DPPC   C2B14783  12.390   0.998  19.546 -0.2925 -0.0777 -0.1525
12129DPPC   C3B14784  12.476   0.902  19.050 -0.2915 -0.1619  0.0949
12129DPPC   C4B14785  12.473   0.930  18.565  0.2825  0.2615  0.1408
12130DPPC   NC314786  13.102   3.308  20.946 -0.0161 -0.0768  0.1766
12130DPPC   PO414787  13.113   3.703  20.845  0.2274 -0.0847 -0.0688
12130DPPC   GL114788  13.337   3.712  20.532  0.1969  0.1128 -0.3264
12130DPPC   GL214789  13.525   3.920  20.497 -0.2213 -0.6471  0.2037
12130DPPC   C1A14790  13.142   3.701  20.200 -0.2140 -0.1625 -0.4153
12130DPPC   C2A14791  13.022   3.661  19.825  0.0337  0.1219  0.0429
12130DPPC   C3A14792  13.013   3.628  19.289 -0.1570  0.0912  0.1815
12130DPPC   C4A14793  12.963   3.572  18.792  0.2376  0.1063 -0.0604
12130DPPC   C1B14794  13.384   4.183  20.351  0.0531  0.2546  0.0729
12130DPPC   C2B14795  13.136   4.132  20.008  0.0843  0.0100  0.1985
12130DPPC   C3B14796  13.143   4.051  19.519  0.0450  0.1403 -0.4162
12130DPPC   C4B14797  13.114   4.042  19.057  0.1075 -0.1621 -0.1728
12131DPPC   NC314798   9.672   6.584  20.219 -0.1990 -0.0566  0.1457
12131DPPC   PO414799   9.695   6.988  20.267  0.1431  0.1426  0.1704
12131DPPC   GL114800   9.929   7.179  19.938 -0.1120  0.0117 -0.0244
12131DPPC   GL214801  10.126   6.941  19.992  0.0348  0.1338 -0.2389
12131DPPC   C1A14802   9.900   7.085  19.559  0.6518  0.1683 -0.3890
12131DPPC   C2A14803  10.063   6.965  19.187 -0.1841 -0.0046 -0.3461
12131DPPC   C3A14804  10.058   7.033  18.732  0.0538  0.2360  0.2630
12131DPPC   C4A14805  10.049   7.094  18.275  0.0420  0.0192  0.1660
12131DPPC   C1B14806  10.295   6.793  19.659  0.0740 -0.1826 -0.3019
12131DPPC   C2B14807  10.389   6.624  19.340 -0.1405 -0.1598  0.0472
12131DPPC   C3B14808  10.393   6.652  18.863 -0.0995 -0.1708 -0.0061
12131DPPC   C4B14809  10.348   6.702  18.422 -0.0248 -0.1162 -0.0586
12132DPPC   NC314810   6.573   0.180  19.923 -0.0232  0.1994  0.0500
12132DPPC   PO414811   6.960   0.244  19.903  0.0604 -0.2730 -0.0534
12132DPPC   GL114812   7.234   0.328  19.491  0.2880 -0.0034  0.1327
12132DPPC   GL214813   7.369   0.134  19.598 -0.2634 -0.1179 -0.0971
12132DPPC   C1A14814   7.242   0.251  19.121 -0.3561  0.0786 -0.0801
12132DPPC   C2A14815   7.266   0.225  18.726 -0.1068  0.1075  0.1408
12132DPPC   C3A14816   7.247   0.251  18.267  0.4863  0.1269 -0.2002
12132DPPC   C4A14817   7.257   0.286  17.748  0.1696  0.3517  0.0871
12132DPPC   C1B14818   7.511  -0.033  19.297  0.1238 -0.1107 -0.0676
12132DPPC   C2B14819   7.563  -0.117  18.886 -0.2508 -0.2676 -0.0407
12132DPPC   C3B14820   7.635  -0.057  18.409  0.0157 -0.4315  0.5203
12132DPPC   C4B14821   7.637  -0.119  17.907 -0.0680 -0.0481 -0.2199
12133DPPC   NC314822  12.163   5.543  20.964 -0.1652  0.0656 -0.5156
12133DPPC   PO414823  12.206   5.903  20.743 -0.1064  0.0335  0.0919
12133DPPC   GL114824  12.191   5.772  20.297  0.1801 -0.2972 -0.2105
12133DPPC   GL214825  11.879   5.903  20.268 -0.4644 -0.0456 -0.4444
12133DPPC   C1A14826  12.366   5.576  20.034  0.1551 -0.1298  0.0455
12133DPPC   C2A14827  12.552   5.361  19.698 -0.0457  0.1788  0.3142
12133DPPC   C3A14828  12.621   5.304  19.218 -0.1840 -0.1699 -0.1138
12133DPPC   C4A14829  12.627   5.244  18.750  0.1865 -0.3148 -0.1442
12133DPPC   C1B14830  11.926   5.838  19.904 -0.1185  0.0175 -0.2268
12133DPPC   C2B14831  11.859   5.771  19.510 -0.2847 -0.1626  0.0149
12133DPPC   C3B14832  11.773   5.595  19.056 -0.2175  0.2332  0.1076
12133DPPC   C4B14833  11.814   5.580  18.543 -0.0920  0.0042  0.0047
12134DPPC   NC314834  12.148   0.884  20.482  0.2839 -0.1777  0.0131
12134DPPC   PO414835  11.982   1.192  20.270 -0.2010 -0.0493  0.1281
12134DPPC   GL114836  12.192   1.246  19.984  0.2093  0.1743 -0.2716
12134DPPC   GL214837  12.040   1.000  19.891  0.2389 -0.3612 -0.1653
12134DPPC   C1A14838  12.127   1.404  19.655 -0.3513  0.2569  0.0402
12134DPPC   C2A14839  12.156   1.420  19.282  0.1565  0.1235  0.1550
12134DPPC   C3A14840  12.125   1.332  18.810  0.2711 -0.3241 -0.0741
12134DPPC   C4A14841  12.151   1.267  18.358  0.0307 -0.1987 -0.3733
12134DPPC   C1B14842  11.953   0.885  19.531 -0.1804  0.2402  0.1449
12134DPPC   C2B14843  11.919   0.906  19.164  0.1447  0.1483  0.2052
12134DPPC   C3B14844  11.946   0.857  18.682 -0.3621  0.4048  0.1273
12134DPPC   C4B14845  11.998   0.762  18.249 -0.2345  0.2517 -0.2245
12135DPPC   NC314846  10.360   3.673  20.441 -0.1307  0.0356 -0.0931
12135DPPC   PO414847  10.054   3.842  20.268  0.2657  0.5476 -0.1648
12135DPPC   GL114848  10.055   3.718  19.843 -0.3132  0.4253 -0.0925
12135DPPC   GL214849  10.373   3.687  19.849  0.1530 -0.0240 -0.0800
12135DPPC   C1A14850  10.050   3.531  19.516 -0.0695 -0.0072 -0.1568
12135DPPC   C2A14851  10.091   3.491  19.084 -0.0852  0.1367  0.0505
12135DPPC   C3A14852  10.180   3.538  18.626 -0.0545 -0.1761  0.1475
12135DPPC   C4A14853  10.333   3.512  18.216 -0.1399 -0.0368 -0.2536
12135DPPC   C1B14854  10.519   3.652  19.487 -0.0157 -0.0575  0.2475
12135DPPC   C2B14855  10.625   3.650  19.004  0.3400  0.0249 -0.6047
12135DPPC   C3B14856  10.720   3.667  18.516 -0.0929 -0.1075 -0.0047
12135DPPC   C4B14857  10.681   3.732  18.017 -0.4168  0.0926  0.0446
12136DPPC   NC314858   7.934   2.858  20.229 -0.0794  0.0758 -0.1007
12136DPPC   PO414859   7.492   2.883  20.212 -0.1748 -0.0522 -0.2273
12136DPPC   GL114860   7.406   2.948  19.711 -0.2281 -0.2179 -0.1627
12136DPPC   GL214861   7.710   2.900  19.697 -0.0922 -0.0453  0.1909
12136DPPC   C1A14862   7.219   2.938  19.353  0.2714 -0.0358 -0.5431
12136DPPC   C2A14863   7.190   2.863  18.940 -0.0849  0.1811  0.1134
12136DPPC   C3A14864   7.239   2.921  18.519  0.0264 -0.3540  0.1662
12136DPPC   C4A14865   7.273   2.951  18.037 -0.1433  0.2794  0.0479
12136DPPC   C1B14866   7.721   3.065  19.367  0.0767 -0.2762 -0.2224
12136DPPC   C2B14867   7.742   3.009  18.988 -0.1269 -0.3171  0.3256
12136DPPC   C3B14868   7.774   3.024  18.496  0.2030 -0.2714  0.0740
12136DPPC   C4B14869   7.766   2.973  18.018 -0.2331 -0.0389 -0.1978
12137DPPC   NC314870  10.531   2.784  20.358  0.1390 -0.1505  0.1260
12137DPPC   PO414871  10.450   2.464  20.148 -0.0786  0.1053  0.1634
12137DPPC   GL114872  10.284   2.266  19.881  0.1589  0.4783  0.0424
12137DPPC   GL214873  10.217   2.035  19.955 -0.0353  0.2442  0.0979
12137DPPC   C1A14874  10.211   2.278  19.531 -0.2880 -0.1164  0.0563
12137DPPC   C2A14875  10.162   2.309  19.110  0.2416  0.0713  0.3914
12137DPPC   C3A14876  10.162   2.228  18.593  0.4428 -0.1191 -0.0794
12137DPPC   C4A14877  10.253   2.239  18.093 -0.2173 -0.0850 -0.0219
12137DPPC   C1B14878  10.048   1.864  19.714 -0.0875  0.3863 -0.1309
12137DPPC   C2B14879   9.972   1.791  19.300  0.1725 -0.1850  0.1797
12137DPPC   C3B14880   9.977   1.787  18.856 -0.0220  0.0930 -0.1647
12137DPPC   C4B14881   9.999   1.842  18.350  0.4318 -0.0469 -0.0800
12138DPPC   NC314882  10.723   1.595  20.635  0.0139  0.0592 -0.0593
12138DPPC   PO414883  10.673   1.949  20.540 -0.2941 -0.0380  0.3639
12138DPPC   GL114884  10.836   2.074  20.041 -0.0556 -0.0464  0.0047
12138DPPC   GL214885  11.046   2.007  20.126  0.0825 -0.1914  0.0666
12138DPPC   C1A14886  10.669   2.224  19.747 -0.2776 -0.0146  0.3234
12138DPPC   C2A14887  10.676   2.299  19.353  0.0029  0.3459  0.1075
12138DPPC   C3A14888  10.678   2.353  18.904  0.0151  0.1134 -0.0528
12138DPPC   C4A14889  10.678   2.314  18.403 -0.0639  0.1222 -0.1895
12138DPPC   C1B14890  11.267   2.053  19.805  0.2010  0.0221  0.0182
12138DPPC   C2B14891  11.434   2.047  19.398 -0.0588  0.0004 -0.1017
12138DPPC   C3B14892  11.488   1.982  18.968 -0.1178 -0.0253  0.2238
12138DPPC   C4B14893  11.603   2.045  18.463  0.1941 -0.2241  0.1854
12139DPPC   NC314894  11.560   6.449  20.924 -0.1949 -0.1640 -0.3182
12139DPPC   PO414895  11.304   6.454  20.617  0.1729  0.2249 -0.3044
12139DPPC   GL114896  11.267   6.179  20.349 -0.2856  0.0239  0.3157
12139DPPC   GL214897  11.059   6.246  20.163  0.0368  0.1874  0.1773
12139DPPC   C1A14898  11.469   6.033  20.078  0.1849 -0.1472  0.0017
12139DPPC   C2A14899  11.540   6.064  19.668 -0.0965 -0.0034  0.0811
12139DPPC   C3A14900  11.496   5.986  19.202 -0.1784  0.1936 -0.0834
12139DPPC   C4A14901  11.587   6.022  18.723 -0.2411  0.1353 -0.2695
12139DPPC   C1B14902  11.141   6.042  19.829 -0.3236 -0.2891 -0.0379
12139DPPC   C2B14903  11.046   5.906  19.470  0.2196  0.0065  0.0293
12139DPPC   C3B14904  11.020   5.931  18.976  0.1684  0.1550 -0.5078
12139DPPC   C4B14905  11.029   5.918  18.523  0.1349  0.0570  0.0742
12140DPPC   NC314906  13.949   4.295  21.095 -0.1149  0.2622 -0.1341
12140DPPC   PO414907  13.789   4.030  20.873  0.0014  0.2410  0.0737
12140DPPC   GL114908  13.944   4.001  20.469  0.2269 -0.0060 -0.2410
12140DPPC   GL214909  14.118   3.748  20.459 -0.1575  0.0770 -0.3860
12140DPPC   C1A14910  13.824   4.160  20.133 -0.2356  0.1039 -0.0754
12140DPPC   C2A14911  13.697   4.240  19.736 -0.1299 -0.0422  0.1648
12140DPPC   C3A14912  13.719   4.273  19.209  0.1988  0.2705 -0.0648
12140DPPC   C4A14913  13.665   4.218  18.726 -0.1717  0.1378 -0.0399
12140DPPC   C1B14914  14.124   3.757  20.103  0.0320  0.0718 -0.1164
12140DPPC   C2B14915  14.029   3.817  19.713 -0.1361 -0.1316  0.2217
12140DPPC   C3B14916  14.028   3.820  19.229  0.3544  0.3182  0.0021
12140DPPC   C4B14917  14.031   3.718  18.768 -0.0113 -0.1039 -0.0518
12141DPPC   NC314918   9.036   0.019  20.366  0.1775  0.3029  0.2337
12141DPPC   PO414919   9.189   0.348  20.235  0.0006  0.0883 -0.0718
12141DPPC   GL114920   9.387   0.424  19.899  0.0048  0.0507 -0.2699
12141DPPC   GL214921   9.488   0.250  19.762  0.3438  0.2655  0.2368
12141DPPC   C1A14922   9.276   0.576  19.625  0.2101  0.3156 -0.2411
12141DPPC   C2A14923   9.136   0.624  19.236  0.0652 -0.0211  0.1570
12141DPPC   C3A14924   9.189   0.629  18.753  0.1718  0.2319 -0.2791
12141DPPC   C4A14925   9.246   0.718  18.277 -0.0422  0.1377  0.1392
12141DPPC   C1B14926   9.509   0.309  19.365  0.5563 -0.2272  0.0259
12141DPPC   C2B14927   9.583   0.316  18.922 -0.1262 -0.3247  0.0355
12141DPPC   C3B14928   9.595   0.359  18.444  0.0300 -0.1930  0.0103
12141DPPC   C4B14929   9.598   0.408  18.029  0.2505 -0.0417 -0.1762
12142DPPC   NC314930  11.367   5.761  20.446 -0.1772 -0.1542 -0.2442
12142DPPC   PO414931  11.009   5.778  20.468  0.1414  0.0285  0.0521
12142DPPC   GL114932  10.874   5.815  20.044 -0.2183  0.0162  0.2079
12142DPPC   GL214933  11.073   5.571  19.979 -0.0556 -0.0759  0.3465
12142DPPC   C1A14934  10.704   5.896  19.722 -0.0891 -0.0366  0.2678
12142DPPC   C2A14935  10.584   5.875  19.323  0.1519 -0.1828  0.2374
12142DPPC   C3A14936  10.614   5.869  18.801  0.0352  0.1419  0.1077
12142DPPC   C4A14937  10.562   5.926  18.329  0.0557  0.0576 -0.0705
12142DPPC   C1B14938  11.067   5.435  19.616 -0.0304 -0.1439 -0.0670
12142DPPC   C2B14939  10.926   5.460  19.220  0.0002  0.0475 -0.0520
12142DPPC   C3B14940  10.839   5.465  18.732  0.1493  0.0497 -0.3264
12142DPPC   C4B14941  10.857   5.471  18.261 -0.4880  0.1135 -0.1622
12143DPPC   NC314942  13.776   3.575  20.725  0.0875  0.2798  0.0319
12143DPPC   PO414943  13.521   3.296  20.612 -0.0223  0.1673 -0.1980
12143DPPC   GL114944  13.502   3.394  20.244 -0.1661  0.1489 -0.0118
12143DPPC   GL214945  13.659   3.690  20.147  0.0711  0.2077  0.4073
12143DPPC   C1A14946  13.373   3.272  19.886  0.0960 -0.2159 -0.3733
12143DPPC   C2A14947  13.342   3.296  19.485 -0.1913  0.0988 -0.1741
12143DPPC   C3A14948  13.243   3.257  19.010 -0.2738  0.2098  0.0198
12143DPPC   C4A14949  13.353   3.228  18.505  0.4210 -0.2056 -0.0938
12143DPPC   C1B14950  13.438   3.822  19.866 -0.0202  0.3456 -0.0514
12143DPPC   C2B14951  13.555   3.780  19.461  0.1691 -0.1651 -0.0241
12143DPPC   C3B14952  13.526   3.727  18.983 -0.1710 -0.1101 -0.0044
12143DPPC   C4B14953  13.596   3.641  18.520  0.0553 -0.1916  0.1926
12144DPPC   NC314954   7.955   4.993  20.128  0.1641  0.1756  0.2709
12144DPPC   PO414955   7.565   5.030  20.248 -0.0215  0.0622 -0.0767
12144DPPC   GL114956   7.392   5.084  19.847  0.0468  0.3028 -0.2113
12144DPPC   GL214957   7.532   4.773  19.851 -0.1980  0.0686  0.1592
12144DPPC   C1A14958   7.110   5.206  19.659 -0.2916 -0.0278  0.0572
12144DPPC   C2A14959   6.977   5.095  19.318 -0.0965  0.0284 -0.2592
12144DPPC   C3A14960   7.038   5.067  18.853  0.0610  0.2000 -0.1523
12144DPPC   C4A14961   7.086   4.988  18.336  0.0874  0.0311  0.2250
12144DPPC   C1B14962   7.632   4.550  19.507  0.0102 -0.0184  0.1062
12144DPPC   C2B14963   7.745   4.370  19.150  0.1278  0.2840 -0.2258
12144DPPC   C3B14964   7.799   4.365  18.655  0.4267 -0.1985  0.0155
12144DPPC   C4B14965   7.772   4.287  18.212 -0.1915 -0.1262  0.2541
12145DPPC   NC314966  10.529   6.571  20.451 -0.4826  0.2385 -0.3824
12145DPPC   PO414967  10.177   6.400  20.345 -0.0351  0.2058 -0.0275
12145DPPC   GL114968  10.109   6.487  19.879  0.1970  0.1308 -0.0233
12145DPPC   GL214969  10.183   6.159  19.881 -0.1321  0.0531  0.3070
12145DPPC   C1A14970   9.936   6.589  19.549  0.3876 -0.2032  0.4332
12145DPPC   C2A14971   9.903   6.524  19.149  0.0451  0.0441  0.0864
12145DPPC   C3A14972   9.876   6.573  18.634  0.3237  0.0474 -0.0291
12145DPPC   C4A14973   9.914   6.663  18.132  0.0829 -0.0133  0.1337
12145DPPC   C1B14974  10.197   6.220  19.487  0.0010  0.3467 -0.2021
12145DPPC   C2B14975  10.264   6.175  19.057 -0.1739  0.0651  0.4495
12145DPPC   C3B14976  10.280   6.206  18.584  0.2774 -0.0901  0.1769
12145DPPC   C4B14977  10.224   6.271  18.122  0.4482  0.1185  0.3311
12146DPPC   NC314978   8.388   4.277  20.135 -0.3492 -0.2080  0.1357
12146DPPC   PO414979   8.305   4.634  20.173  0.0995  0.2230 -0.0159
12146DPPC   GL114980   8.484   4.966  19.880 -0.3312  0.3205 -0.1749
12146DPPC   GL214981   8.611   4.663  19.818 -0.0057 -0.0789  0.2383
12146DPPC   C1A14982   8.413   4.969  19.572 -0.3536 -0.1021  0.0444
12146DPPC   C2A14983   8.483   4.928  19.161  0.0929 -0.1491  0.3317
12146DPPC   C3A14984   8.455   5.004  18.675 -0.2293  0.0106  0.1808
12146DPPC   C4A14985   8.557   4.952  18.240  0.2619  0.0395  0.2140
12146DPPC   C1B14986   8.626   4.554  19.425  0.1695  0.0167 -0.0457
12146DPPC   C2B14987   8.757   4.578  19.003  0.0420 -0.0152 -0.1273
12146DPPC   C3B14988   8.838   4.520  18.520  0.0927  0.1272 -0.1729
12146DPPC   C4B14989   8.929   4.598  18.076  0.1473  0.1857 -0.1353
12147DPPC   NC314990   6.624   3.804  20.267  0.1166  0.0501  0.0273
12147DPPC   PO414991   6.965   3.554  20.269  0.0044  0.1027  0.4123
12147DPPC   GL114992   7.083   3.675  19.892 -0.2565 -0.1937  0.0095
12147DPPC   GL214993   6.861   3.890  19.882 -0.0441 -0.5525  0.0747
12147DPPC   C1A14994   7.326   3.794  19.585 -0.0538  0.2584  0.2960
12147DPPC   C2A14995   7.476   3.876  19.192  0.1490 -0.1765 -0.0400
12147DPPC   C3A14996   7.592   3.862  18.707  0.0970  0.0399  0.0812
12147DPPC   C4A14997   7.662   3.813  18.216 -0.0885  0.1568 -0.0955
12147DPPC   C1B14998   6.952   4.055  19.562 -0.4410  0.1429  0.0387
12147DPPC   C2B14999   7.234   4.288  19.367  0.3299  0.0528  0.2078
12147DPPC   C3B15000   7.276   4.257  18.925  0.2354 -0.1403  0.0386
12147DPPC   C4B15001   7.247   4.139  18.414 -0.0343  0.2989  0.1260
12148DPPC   NC315002  10.625   0.590  20.548  0.1031 -0.1416 -0.2440
12148DPPC   PO415003  10.609   0.363  20.231 -0.1067  0.0356  0.1903
12148DPPC   GL115004  10.560   0.515  19.827 -0.3135  0.3951  0.3364
12148DPPC   GL215005  10.561   0.812  19.921  0.0984 -0.3520  0.1014
12148DPPC   C1A15006  10.506   0.518  19.452  0.0438  0.0634 -0.1616
12148DPPC   C2A15007  10.485   0.523  19.059 -0.3242  0.0154  0.1156
12148DPPC   C3A15008  10.502   0.564  18.555  0.0727 -0.0460 -0.3191
12148DPPC   C4A15009  10.486   0.470  18.057 -0.1522  0.2699  0.1654
12148DPPC   C1B15010  10.585   0.984  19.608  0.1722  0.1063  0.0627
12148DPPC   C2B15011  10.615   1.036  19.212 -0.2508  0.0714 -0.2320
12148DPPC   C3B15012  10.677   1.029  18.717 -0.3084 -0.1966 -0.0700
12148DPPC   C4B15013  10.594   0.956  18.268  0.1572  0.1001  0.3827
12149DPPC   NC315014   8.797   2.498  20.276 -0.2712 -0.0792 -0.1017
12149DPPC   PO415015   8.413   2.626  20.197 -0.1911 -0.0341  0.0371
12149DPPC   GL115016   8.291   2.669  19.802 -0.1635 -0.5485  0.0219
12149DPPC   GL215017   8.600   2.705  19.731 -0.2485 -0.2962  0.1987
12149DPPC   C1A15018   8.144   2.729  19.509 -0.0181 -0.1386 -0.0684
12149DPPC   C2A15019   8.057   2.624  19.109 -0.2576  0.0691 -0.0397
12149DPPC   C3A15020   8.081   2.618  18.620 -0.0020 -0.3208  0.1371
12149DPPC   C4A15021   8.163   2.660  18.118  0.2786  0.2049 -0.1145
12149DPPC   C1B15022   8.596   2.705  19.320  0.0194 -0.6457  0.0203
12149DPPC   C2B15023   8.486   2.746  18.927 -0.3001 -0.2895  0.0514
12149DPPC   C3B15024   8.554   2.758  18.456 -0.1493 -0.4133  0.1341
12149DPPC   C4B15025   8.978   2.853  18.188 -0.2040  0.2678  0.1814
12150DPPC   NC315026   7.569   2.204  20.163 -0.1190 -0.0696 -0.2156
12150DPPC   PO415027   7.189   2.096  20.079  0.0431  0.2619 -0.0359
12150DPPC   GL115028   7.168   1.904  19.698  0.2839  0.0742 -0.0526
12150DPPC   GL215029   7.192   1.623  19.656  0.0719  0.0296 -0.0110
12150DPPC   C1A15030   7.260   2.030  19.382  0.0293  0.1965  0.3606
12150DPPC   C2A15031   7.387   2.120  19.023  0.5141 -0.0066  0.2575
12150DPPC   C3A15032   7.374   2.190  18.526  0.1681 -0.1829 -0.0418
12150DPPC   C4A15033   7.519   2.071  18.042  0.0665 -0.1036  0.1514
12150DPPC   C1B15034   7.153   1.600  19.328 -0.2246  0.1207  0.1503
12150DPPC   C2B15035   7.213   1.599  18.952 -0.0544 -0.3805  0.0162
12150DPPC   C3B15036   7.293   1.689  18.497 -0.1053  0.1582  0.1622
12150DPPC   C4B15037   7.318   1.572  18.040 -0.2758  0.1463  0.0472
12151DPPC   NC315038  11.953   0.338  20.374 -0.3444 -0.0372 -0.0241
12151DPPC   PO415039  11.796  -0.008  20.408 -0.4168 -0.1041 -0.1279
12151DPPC   GL115040  11.641  -0.220  20.133  0.2203  0.0566  0.1918
12151DPPC   GL215041  11.369  -0.073  20.072  0.1653  0.0309  0.1641
12151DPPC   C1A15042  11.870  -0.297  19.851  0.1008 -0.2859 -0.1281
12151DPPC   C2A15043  12.034  -0.392  19.506 -0.0955 -0.2313  0.0914
12151DPPC   C3A15044  11.983  -0.530  19.035  0.1792 -0.0065 -0.0476
12151DPPC   C4A15045  12.079  -0.539  18.535 -0.1408  0.2401  0.1970
12151DPPC   C1B15046  11.225  -0.156  19.718 -0.3175 -0.1990 -0.1845
12151DPPC   C2B15047  11.209  -0.242  19.380 -0.0934  0.1219 -0.0772
12151DPPC   C3B15048  11.275  -0.228  18.915  0.1773  0.1420  0.1320
12151DPPC   C4B15049  11.217  -0.170  18.404 -0.0424 -0.1551 -0.0331
12152DPPC   NC315050   9.149   5.887  20.487  0.0701  0.0102 -0.1430
12152DPPC   PO415051   9.245   6.188  20.235  0.1142  0.0122  0.2526
12152DPPC   GL115052   8.920   6.183  19.957 -0.0577 -0.2773  0.1421
12152DPPC   GL215053   8.973   5.933  19.955  0.0876  0.1165 -0.1074
12152DPPC   C1A15054   8.923   6.215  19.586  0.2002 -0.1353  0.0136
12152DPPC   C2A15055   8.842   6.366  19.234 -0.0152 -0.1342 -0.2284
12152DPPC   C3A15056   8.829   6.404  18.815 -0.1845  0.0284  0.0863
12152DPPC   C4A15057   8.880   6.407  18.319  0.3087  0.0973 -0.0306
12152DPPC   C1B15058   8.840   5.819  19.640  0.2351 -0.0469  0.0813
12152DPPC   C2B15059   8.724   5.885  19.242 -0.0218  0.2181  0.2851
12152DPPC   C3B15060   8.678   5.906  18.839 -0.1108  0.0293 -0.1518
12152DPPC   C4B15061   8.727   5.912  18.331 -0.1053  0.0095  0.0504
12153DPPC   NC315062  12.863   0.641  20.483  0.2300  0.0153  0.2946
12153DPPC   PO415063  13.100   0.379  20.499 -0.2031 -0.1234 -0.2302
12153DPPC   GL115064  13.125   0.189  20.084  0.3941 -0.0722  0.0575
12153DPPC   GL215065  12.821   0.097  20.102  0.4576 -0.1575 -0.1764
12153DPPC   C1A15066  13.166   0.174  19.702  0.3338 -0.0230  0.1527
12153DPPC   C2A15067  13.102   0.106  19.293  0.1721  0.1519 -0.2387
12153DPPC   C3A15068  13.104   0.110  18.783  0.4233 -0.2865  0.1226
12153DPPC   C4A15069  13.194   0.044  18.311  0.1511  0.1202 -0.2119
12153DPPC   C1B15070  12.612   0.184  19.835 -0.2623  0.1508 -0.1825
12153DPPC   C2B15071  12.514   0.148  19.452 -0.3607  0.1000  0.1038
12153DPPC   C3B15072  12.634   0.029  18.978 -0.1827 -0.3609  0.1682
12153DPPC   C4B15073  12.717  -0.000  18.504 -0.1536 -0.1977  0.1447
12154DPPC   NC315074   9.229   1.669  20.694  0.0638 -0.2769  0.1161
12154DPPC   PO415075   8.988   1.879  20.439 -0.1505  0.1771  0.0357
12154DPPC   GL115076   9.047   1.859  20.002  0.0185  0.1613 -0.0759
12154DPPC   GL215077   8.954   2.151  20.067  0.0174 -0.4299 -0.0321
12154DPPC   C1A15078   8.998   1.650  19.650 -0.1031 -0.2722  0.2543
12154DPPC   C2A15079   8.943   1.563  19.217  0.1276  0.4399  0.1341
12154DPPC   C3A15080   9.059   1.494  18.745  0.0212  0.1324 -0.1191
12154DPPC   C4A15081   9.094   1.434  18.257  0.3154  0.2830  0.0322
12154DPPC   C1B15082   9.101   2.436  19.920 -0.2238 -0.0222  0.3284
12154DPPC   C2B15083   9.082   2.740  19.662  0.3844 -0.0105 -0.1601
12154DPPC   C3B15084   9.025   2.858  19.196  0.1590  0.0604  0.2491
12154DPPC   C4B15085   8.997   2.900  18.708 -0.0677 -0.3273  0.0712
12155DPPC   NC315086   7.905   0.591  20.152  0.3278  0.1751 -0.0783
12155DPPC   PO415087   8.070   0.575  19.795  0.0643  0.1689 -0.1372
12155DPPC   GL115088   7.864   0.617  19.470  0.1906 -0.1041  0.0373
12155DPPC   GL215089   7.660   0.441  19.413 -0.1221 -0.0479  0.2664
12155DPPC   C1A15090   7.856   0.837  19.141 -0.1503  0.1650  0.0494
12155DPPC   C2A15091   7.909   0.853  18.733 -0.0582  0.1806  0.0655
12155DPPC   C3A15092   7.960   0.865  18.291 -0.0952  0.3590  0.1486
12155DPPC   C4A15093   8.003   0.831  17.838  0.0194 -0.0636  0.0108
12155DPPC   C1B15094   7.682   0.391  19.062 -0.1563 -0.0635  0.1581
12155DPPC   C2B15095   7.727   0.400  18.668  0.0819  0.1264  0.0051
12155DPPC   C3B15096   7.756   0.423  18.167 -0.2410 -0.1548 -0.1298
12155DPPC   C4B15097   7.764   0.394  17.656 -0.2254 -0.1973 -0.1242
12156DPPC   NC315098   6.758   5.626  20.760  0.1078 -0.1893  0.0878
12156DPPC   PO415099   6.471   5.610  20.493 -0.2303  0.0122 -0.1784
12156DPPC   GL115100   6.409   5.621  20.143 -0.2912  0.1438  0.4902
12156DPPC   GL215101   6.274   5.407  19.997  0.0487 -0.1272  0.0482
12156DPPC   C1A15102   6.452   5.802  19.778  0.1363  0.0171  0.3116
12156DPPC   C2A15103   6.357   5.770  19.366  0.0123  0.0075  0.0120
12156DPPC   C3A15104   6.265   5.822  18.939 -0.3331 -0.1526  0.1821
12156DPPC   C4A15105   6.360   5.824  18.428  0.1667  0.0229  0.0151
12156DPPC   C1B15106   6.266   5.363  19.629  0.0666  0.1055 -0.0822
12156DPPC   C2B15107   6.154   5.301  19.232  0.2020  0.0255  0.0322
12156DPPC   C3B15108   6.232   5.339  18.746 -0.0570 -0.0951 -0.3644
12156DPPC   C4B15109   6.089   5.387  18.281  0.0228  0.0471 -0.0026
12157DPPC   NC315110  11.145   3.303  20.554 -0.0242 -0.2962  0.0178
12157DPPC   PO415111  11.552   3.319  20.492 -0.1043  0.3387 -0.2357
12157DPPC   GL115112  11.617   3.367  20.080  0.0352  0.0852  0.1162
12157DPPC   GL215113  11.521   3.616  20.008 -0.0271  0.0419 -0.1710
12157DPPC   C1A15114  11.850   3.274  19.790  0.1150  0.0045 -0.0631
12157DPPC   C2A15115  11.876   3.400  19.413  0.1182  0.1033 -0.2602
12157DPPC   C3A15116  11.960   3.452  18.976 -0.0546 -0.3515 -0.3213
12157DPPC   C4A15117  12.099   3.420  18.488 -0.1717  0.0468 -0.1942
12157DPPC   C1B15118  11.671   3.717  19.658  0.0929  0.0615 -0.1439
12157DPPC   C2B15119  11.536   3.750  19.247 -0.1929 -0.1398 -0.1682
12157DPPC   C3B15120  11.644   3.822  18.786 -0.1712  0.1075 -0.0101
12157DPPC   C4B15121  11.744   3.756  18.345 -0.1073  0.1874  0.0829
12158DPPC   NC315122  12.149   6.265  20.372  0.0643  0.2414  0.1167
12158DPPC   PO415123  12.291   6.613  20.221  0.0653  0.0972 -0.1673
12158DPPC   GL115124  12.155   6.765  19.837  0.1636  0.2576  0.0449
12158DPPC   GL215125  11.874   6.736  19.966 -0.1381 -0.2018 -0.0326
12158DPPC   C1A15126  12.076   6.703  19.490  0.0234  0.2989  0.2313
12158DPPC   C2A15127  12.136   6.645  19.064 -0.3056 -0.3559  0.0242
12158DPPC   C3A15128  12.219   6.576  18.608 -0.0536  0.2407 -0.2302
12158DPPC   C4A15129  12.194   6.470  18.145 -0.1633 -0.0335  0.2566
12158DPPC   C1B15130  11.637   6.670  19.696 -0.0982  0.0306  0.2041
12158DPPC   C2B15131  11.682   6.579  19.274  0.1660  0.0464 -0.1427
12158DPPC   C3B15132  11.736   6.528  18.822 -0.2703 -0.0036  0.1303
12158DPPC   C4B15133  11.732   6.434  18.389  0.0630 -0.3213 -0.0116
12159DPPA   PO415134  13.017   1.115  20.583 -0.1054 -0.0469 -0.3581
12159DPPA   GL115135  12.998   1.039  20.109  0.3452 -0.1499  0.3514
12159DPPA   GL215136  13.196   0.805  20.214  0.2248 -0.2891  0.3651
12159DPPA   C1A15137  12.896   1.052  19.760  0.1001 -0.0484  0.0175
12159DPPA   C2A15138  12.962   0.928  19.364 -0.0148  0.0084 -0.1344
12159DPPA   C3A15139  13.012   0.879  18.849 -0.0310  0.1980 -0.0356
12159DPPA   C4A15140  12.977   0.896  18.383 -0.6170  0.3651  0.3191
12159DPPA   C1B15141  13.246   0.607  19.931  0.4822  0.0626  0.3381
12159DPPA   C2B15142  13.307   0.575  19.546 -0.0141  0.0063  0.0170
12159DPPA   C3B15143  13.328   0.494  19.056  0.1591  0.0660  0.1862
12159DPPA   C4B15144  13.358   0.520  18.569  0.1811 -0.0773  0.3348
12160DPPA   PO415145   9.489   1.330  20.463  0.0662  0.0288  0.1025
12160DPPA   GL115146   9.586   1.270  20.094  0.4548  0.4868  0.2955
12160DPPA   GL215147   9.723   1.038  19.981 -0.1317  0.1741  0.0091
12160DPPA   C1A15148   9.373   1.352  19.872 -0.0090 -0.1782  0.3409
12160DPPA   C2A15149   9.305   1.283  19.471 -0.0169  0.3540  0.1931
12160DPPA   C3A15150   9.418   1.117  19.037  0.1194  0.2248  0.1843
12160DPPA   C4A15151   9.452   1.154  18.528 -0.1077 -0.1046  0.0335
12160DPPA   C1B15152   9.685   0.911  19.601  0.2767  0.4888 -0.1841
12160DPPA   C2B15153   9.695   0.777  19.222 -0.0387  0.1015 -0.1535
12160DPPA   C3B15154   9.676   0.774  18.707 -0.0312 -0.2661 -0.1145
12160DPPA   C4B15155   9.760   0.868  18.202  0.0644 -0.0438 -0.0981
12161DPPA   PO415156  12.094   1.901  20.668 -0.1464 -0.1581  0.1501
12161DPPA   GL115157  11.965   1.984  20.183 -0.1081  0.2601  0.1425
12161DPPA   GL215158  12.209   2.158  20.175  0.1445 -0.1241  0.4445
12161DPPA   C1A15159  11.920   1.776  19.849  0.1153 -0.1478 -0.0353
12161DPPA   C2A15160  11.813   1.727  19.466  0.1736  0.5145  0.1507
12161DPPA   C3A15161  11.828   1.655  18.999 -0.0632 -0.1349 -0.0362
12161DPPA   C4A15162  11.823   1.628  18.544 -0.0601  0.1434 -0.3288
12161DPPA   C1B15163  12.295   1.997  19.866 -0.1882 -0.5164 -0.3142
12161DPPA   C2B15164  12.305   1.829  19.506 -0.1245 -0.0346  0.4280
12161DPPA   C3B15165  12.314   1.772  18.989 -0.1289  0.0041 -0.0414
12161DPPA   C4B15166  12.290   1.721  18.486  0.2148  0.1729  0.0545
12162DPPA   PO415167  12.883   1.134  16.174  0.2696  0.2413 -0.0089
12162DPPA   GL115168  12.873   1.371  16.480  0.0364  0.0132  0.2116
12162DPPA   GL215169  12.630   1.493  16.383 -0.1867  0.2296 -0.1913
12162DPPA   C1A15170  12.767   1.288  16.842  0.0523  0.0949  0.1813
12162DPPA   C2A15171  12.670   1.298  17.281  0.0903  0.0121  0.2844
12162DPPA   C3A15172  12.692   1.324  17.752 -0.0969  0.2158 -0.3126
12162DPPA   C4A15173  12.613   1.374  18.193 -0.1284 -0.3856 -0.0515
12162DPPA   C1B15174  12.413   1.559  16.687 -0.1891 -0.2508 -0.0262
12162DPPA   C2B15175  12.382   1.711  17.060 -0.3060 -0.2334  0.1511
12162DPPA   C3B15176  12.375   1.729  17.505  0.5548  0.1938 -0.1399
12162DPPA   C4B15177  12.319   1.760  18.018  0.4035  0.2471  0.1021
12163DPPA   PO415178   9.506   5.738  20.233  0.3934 -0.1314  0.0393
12163DPPA   GL115179   9.455   5.682  19.857  0.2609 -0.0389  0.0228
12163DPPA   GL215180   9.390   5.936  19.808  0.1799  0.0261  0.0692
12163DPPA   C1A15181   9.588   5.617  19.540  0.1806  0.1578  0.1166
12163DPPA   C2A15182   9.583   5.612  19.164 -0.0191 -0.0053 -0.0201
12163DPPA   C3A15183   9.551   5.665  18.689 -0.0535  0.0196  0.1511
12163DPPA   C4A15184   9.573   5.638  18.183 -0.1057 -0.0564  0.0397
12163DPPA   C1B15185   9.268   5.947  19.469 -0.2600 -0.0373  0.2109
12163DPPA   C2B15186   9.182   6.018  19.058 -0.0331  0.1686  0.1142
12163DPPA   C3B15187   9.136   5.982  18.621  0.0060 -0.3820 -0.3065
12163DPPA   C4B15188   9.194   6.085  18.090 -0.0387  0.0192 -0.0138
12164DPPA   PO415189  10.216   3.109  20.558  0.0023 -0.0793 -0.1649
12164DPPA   GL115190  10.364   3.115  20.088 -0.1702  0.3290  0.1429
12164DPPA   GL215191  10.207   2.873  20.038  0.0122 -0.0222 -0.1079
12164DPPA   C1A15192  10.416   3.292  19.774 -0.6194  0.1028  0.3600
12164DPPA   C2A15193  10.473   3.191  19.348 -0.0857  0.1136 -0.0495
12164DPPA   C3A15194  10.476   3.195  18.834  0.1654 -0.1923 -0.0623
12164DPPA   C4A15195  10.602   3.109  18.389  0.2937  0.0060  0.0464
12164DPPA   C1B15196  10.340   2.802  19.700 -0.5822  0.0124  0.0589
12164DPPA   C2B15197  10.305   2.742  19.283  0.0291 -0.1193 -0.2113
12164DPPA   C3B15198  10.273   2.687  18.827  0.1744  0.0321 -0.2339
12164DPPA   C4B15199  10.341   2.664  18.355  0.0044 -0.1226  0.2986
12165DPPA   PO415200   7.947   5.822  20.361 -0.2222  0.0877 -0.4713
12165DPPA   GL115201   7.993   5.946  19.951  0.1817  0.0345  0.0053
12165DPPA   GL215202   8.230   5.790  19.946 -0.0615  0.2531  0.3151
12165DPPA   C1A15203   7.844   5.796  19.613 -0.0582 -0.0678  0.1034
12165DPPA   C2A15204   7.746   5.650  19.272  0.0704  0.1117  0.1285
12165DPPA   C3A15205   7.663   5.700  18.777  0.4073  0.2204  0.0842
12165DPPA   C4A15206   7.613   5.730  18.338 -0.1927  0.0275  0.0478
12165DPPA   C1B15207   8.288   5.827  19.570 -0.1048  0.2596 -0.0884
12165DPPA   C2B15208   8.252   5.791  19.209 -0.0638 -0.2306 -0.0301
12165DPPA   C3B15209   8.191   5.769  18.767  0.0160  0.0264  0.1529
12165DPPA   C4B15210   8.206   5.771  18.299 -0.1022  0.1559 -0.0805
12166DPPA   PO415211  10.395   1.207  20.639 -0.1919 -0.0013 -0.2640
12166DPPA   GL115212  10.430   1.098  20.177 -0.3677 -0.2270 -0.2622
12166DPPA   GL215213  10.705   1.322  20.185 -0.1272 -0.3711 -0.1662
12166DPPA   C1A15214  10.205   1.034  19.884 -0.2208  0.0914  0.2002
12166DPPA   C2A15215  10.154   0.889  19.536  0.2102 -0.1736  0.1168
12166DPPA   C3A15216  10.168   0.861  19.042 -0.0140 -0.0109 -0.0433
12166DPPA   C4A15217  10.132   0.956  18.546 -0.2632  0.1965 -0.2491
12166DPPA   C1B15218  10.840   1.263  19.865 -0.1363  0.1211  0.0744
12166DPPA   C2B15219  10.878   1.371  19.469  0.1037 -0.2606  0.2750
12166DPPA   C3B15220  10.773   1.428  18.982  0.1110 -0.1170 -0.4296
12166DPPA   C4B15221  10.862   1.488  18.487  0.1336 -0.0430 -0.1841
12167DPPA   PO415222  12.754   5.127  20.417  0.2310 -0.2374  0.0831
12167DPPA   GL115223  12.725   5.156  20.107  0.0448  0.1322  0.0928
12167DPPA   GL215224  12.745   5.433  20.146  0.0096 -0.7721  0.0276
12167DPPA   C1A15225  12.592   4.920  19.803  0.1807  0.3388  0.0025
12167DPPA   C2A15226  12.371   4.810  19.438 -0.1590 -0.3587 -0.4121
12167DPPA   C3A15227  12.518   4.810  18.983  0.2651 -0.0087  0.2033
12167DPPA   C4A15228  12.531   4.828  18.491  0.2133  0.0030 -0.2727
12167DPPA   C1B15229  12.758   5.752  19.942  0.0693  0.0005  0.1296
12167DPPA   C2B15230  12.751   5.821  19.512 -0.1029  0.0135  0.1270
12167DPPA   C3B15231  12.786   5.755  19.052 -0.1471  0.0614  0.0372
12167DPPA   C4B15232  12.746   5.813  18.570 -0.3519  0.0404  0.0121
12168DPPA   PO415233   7.097   4.777  20.103  0.0627 -0.1805 -0.0796
12168DPPA   GL115234   6.911   4.691  19.709  0.0764  0.0844 -0.1791
12168DPPA   GL215235   7.168   4.720  19.627  0.1196 -0.4346 -0.1154
12168DPPA   C1A15236   6.710   4.580  19.505 -0.2206 -0.0382 -0.1794
12168DPPA   C2A15237   6.744   4.624  19.132 -0.2124  0.2059 -0.0913
12168DPPA   C3A15238   6.918   4.532  18.641 -0.0699 -0.0695 -0.1639
12168DPPA   C4A15239   7.008   4.569  18.133  0.1266 -0.0344  0.1014
12168DPPA   C1B15240   7.333   4.758  19.247 -0.1752  0.0673 -0.1474
12168DPPA   C2B15241   7.458   4.694  18.894  0.0761 -0.0318  0.1618
12168DPPA   C3B15242   7.387   4.618  18.433 -0.1122  0.0665  0.1220
12168DPPA   C4B15243   7.439   4.747  17.970 -0.0130  0.2376  0.1351
12169DPPA   PO415244   7.835   0.134  19.888 -0.0365 -0.2184  0.1436
12169DPPA   GL115245   8.120   0.152  19.594 -0.0683  0.0425  0.0122
12169DPPA   GL215246   7.943  -0.010  19.407 -0.2640 -0.2212 -0.1591
12169DPPA   C1A15247   8.240   0.324  19.356  0.3277  0.3945 -0.0855
12169DPPA   C2A15248   8.126   0.435  18.997 -0.1149 -0.0806  0.0710
12169DPPA   C3A15249   8.283   0.588  18.558 -0.1120  0.3459 -0.2129
12169DPPA   C4A15250   8.300   0.532  18.103  0.1363 -0.0030 -0.2710
12169DPPA   C1B15251   8.039  -0.045  19.102 -0.1776  0.0490  0.2883
12169DPPA   C2B15252   8.079  -0.041  18.695 -0.2411 -0.0011  0.0728
12169DPPA   C3B15253   8.082  -0.058  18.230 -0.2288  0.2590  0.0297
12169DPPA   C4B15254   8.113   0.036  17.777 -0.0772 -0.1535  0.0863
12170DPPA   PO415255  10.257   1.680  20.641 -0.2844 -0.2028  0.0200
12170DPPA   GL115256  10.387   1.600  20.264 -0.2152  0.0806  0.4328
12170DPPA   GL215257  10.521   1.809  20.155  0.2018  0.0228 -0.2218
12170DPPA   C1A15258  10.360   1.496  19.888 -0.4046 -0.0521  0.1560
12170DPPA   C2A15259  10.377   1.416  19.526 -0.0443  0.1188 -0.2869
12170DPPA   C3A15260  10.294   1.412  19.056  0.0880  0.0430 -0.1547
12170DPPA   C4A15261  10.350   1.366  18.594  0.1560 -0.2041  0.1455
12170DPPA   C1B15262  10.584   1.803  19.791 -0.2632 -0.4389  0.0880
12170DPPA   C2B15263  10.523   1.825  19.320 -0.2469  0.0292  0.0379
12170DPPA   C3B15264  10.496   1.885  18.839 -0.0412 -0.2787 -0.1800
12170DPPA   C4B15265  10.465   1.793  18.331  0.1411  0.0277 -0.0449
12171DPPA   PO415266   6.875   1.326  19.791 -0.2526 -0.0075  0.0585
12171DPPA   GL115267   7.155   1.101  19.549 -0.1097 -0.1228  0.3812
12171DPPA   GL215268   7.144   0.829  19.599  0.5186  0.2700  0.2478
12171DPPA   C1A15269   7.072   1.097  19.189 -0.1123  0.2461  0.0229
12171DPPA   C2A15270   7.085   1.073  18.737 -0.0543 -0.1045  0.1189
12171DPPA   C3A15271   7.172   1.123  18.260  0.1220  0.0831 -0.1248
12171DPPA   C4A15272   7.087   1.182  17.796 -0.2449  0.2011 -0.0368
12171DPPA   C1B15273   7.264   0.680  19.266 -0.0059  0.0147  0.2195
12171DPPA   C2B15274   7.441   0.784  18.944 -0.3499 -0.1558 -0.0833
12171DPPA   C3B15275   7.467   0.779  18.443 -0.0398 -0.0304 -0.1162
12171DPPA   C4B15276   7.457   0.806  17.920 -0.3169 -0.0931 -0.0550
12172DPPA   PO415277  10.033   5.933  20.405 -0.0351  0.0340  0.1648
12172DPPA   GL115278   9.936   5.721  20.043  0.2161 -0.0659 -0.0068
12172DPPA   GL215279   9.931   5.432  20.085  0.1093  0.2684 -0.2282
12172DPPA   C1A15280   9.929   5.873  19.724 -0.4473 -0.1416 -0.2993
12172DPPA   C2A15281   9.747   6.091  19.461 -0.1594  0.0074  0.2344
12172DPPA   C3A15282   9.684   6.058  18.985  0.1567  0.2204 -0.2102
12172DPPA   C4A15283   9.717   6.085  18.509  0.0802 -0.2422  0.1326
12172DPPA   C1B15284   9.880   5.266  19.786  0.0145 -0.1274 -0.2085
12172DPPA   C2B15285   9.869   5.291  19.371  0.1373 -0.1456  0.2383
12172DPPA   C3B15286   9.855   5.331  18.884 -0.0654  0.2076 -0.0965
12172DPPA   C4B15287   9.882   5.316  18.392  0.1128 -0.2223  0.0769
12173DPPA   PO415288   7.562   1.467  19.892 -0.1603  0.1692  0.1614
12173DPPA   GL115289   7.657   1.714  19.520 -0.0032 -0.0367 -0.3155
12173DPPA   GL215290   7.906   1.654  19.598 -0.2148  0.3688  0.1557
12173DPPA   C1A15291   7.572   1.782  19.191  0.0284 -0.4645 -0.1877
12173DPPA   C2A15292   7.665   1.730  18.794  0.3029  0.1110 -0.0426
12173DPPA   C3A15293   7.800   1.709  18.329  0.0243  0.0571 -0.0230
12173DPPA   C4A15294   7.783   1.641  17.834  0.0198 -0.2151  0.1319
12173DPPA   C1B15295   7.944   1.366  19.384  0.1409  0.1665  0.0745
12173DPPA   C2B15296   7.989   1.347  18.954 -0.2107  0.1747  0.0685
12173DPPA   C3B15297   8.055   1.286  18.531 -0.2527 -0.2207 -0.2157
12173DPPA   C4B15298   8.114   1.276  18.033 -0.2423  0.0217  0.1612
12174DPPA   PO415299   8.742   5.389  20.545 -0.0582  0.2206 -0.0412
12174DPPA   GL115300   8.772   5.379  20.188 -0.1732  0.1643 -0.1434
12174DPPA   GL215301   9.039   5.471  20.080 -0.0103  0.0495 -0.2013
12174DPPA   C1A15302   8.659   5.437  19.868 -0.1231 -0.2657  0.1324
12174DPPA   C2A15303   8.576   5.379  19.465  0.0947  0.2952  0.0944
12174DPPA   C3A15304   8.578   5.448  18.952 -0.1951  0.0499  0.0268
12174DPPA   C4A15305   8.574   5.430  18.442  0.3121 -0.2712  0.2205
12174DPPA   C1B15306   9.052   5.418  19.715  0.2863  0.0571 -0.0139
12174DPPA   C2B15307   9.098   5.496  19.337  0.2421  0.2176  0.2706
12174DPPA   C3B15308   9.115   5.530  18.906  0.0832  0.4901  0.3147
12174DPPA   C4B15309   9.056   5.526  18.375  0.0380  0.0581 -0.0985
12175DPPA   PO415310   8.102   3.377  20.384 -0.0639  0.3527  0.0811
12175DPPA   GL115311   7.847   3.477  20.018  0.0468  0.1203 -0.4004
12175DPPA   GL215312   7.897   3.223  19.959 -0.0372 -0.3655  0.1425
12175DPPA   C1A15313   7.972   3.678  19.713 -0.2864  0.2986 -0.5460
12175DPPA   C2A15314   8.022   3.914  19.395  0.1010  0.2896 -0.1413
12175DPPA   C3A15315   8.108   4.000  18.922 -0.0006 -0.2997 -0.0790
12175DPPA   C4A15316   8.169   4.087  18.432  0.0700  0.4396 -0.2221
12175DPPA   C1B15317   8.054   3.263  19.652  0.2969  0.0880 -0.2551
12175DPPA   C2B15318   8.179   3.147  19.291 -0.0345 -0.0010  0.1208
12175DPPA   C3B15319   8.197   3.127  18.789  0.1945 -0.1266  0.2683
12175DPPA   C4B15320   8.244   3.116  18.287  0.0926 -0.2764  0.1480
12176DPPA   PO415321   8.888   2.814  20.613 -0.0914 -0.0712  0.0927
12176DPPA   GL115322   8.850   3.005  20.223 -0.2141  0.0727  0.0278
12176DPPA   GL215323   9.151   2.814  20.194 -0.0876  0.0382  0.0546
12176DPPA   C1A15324   8.916   3.123  19.908 -0.1809 -0.1023 -0.2547
12176DPPA   C2A15325   8.707   3.181  19.517 -0.3986  0.0002 -0.2935
12176DPPA   C3A15326   8.647   3.227  19.034  0.1775 -0.1988 -0.0116
12176DPPA   C4A15327   8.609   3.267  18.555  0.1096  0.1606 -0.1760
12176DPPA   C1B15328   9.455   2.926  20.086  0.2134 -0.1368  0.2517
12176DPPA   C2B15329   9.572   3.016  19.703  0.2342  0.0518 -0.1256
12176DPPA   C3B15330   9.519   2.905  19.226  0.1467  0.0119 -0.1248
12176DPPA   C4B15331   9.533   2.982  18.703  0.0870 -0.0316 -0.1952
12177DPPA   PO415332   8.495   0.669  20.019 -0.4085 -0.1888  0.0172
12177DPPA   GL115333   8.501   0.398  19.690  0.1053 -0.0799 -0.0181
12177DPPA   GL215334   8.497   0.648  19.510 -0.1786  0.0266 -0.4094
12177DPPA   C1A15335   8.599   0.154  19.421  0.2231 -0.4160 -0.2780
12177DPPA   C2A15336   8.501   0.133  19.037  0.1851 -0.1912 -0.2005
12177DPPA   C3A15337   8.548   0.131  18.545 -0.3747 -0.0174  0.2226
12177DPPA   C4A15338   8.519   0.087  18.066 -0.0003  0.2776 -0.0869
12177DPPA   C1B15339   8.636   0.539  19.201  0.0719 -0.0852 -0.3990
12177DPPA   C2B15340   8.709   0.526  18.821 -0.1355  0.0190 -0.2763
12177DPPA   C3B15341   8.733   0.533  18.378  0.2700 -0.2420 -0.3701
12177DPPA   C4B15342   8.723   0.478  17.890  0.1151 -0.0785 -0.2760
12178DPPA   PO415343  12.527   2.051  20.454 -0.0264 -0.1764 -0.1039
12178DPPA   GL115344  12.922   2.261  20.324  0.0446  0.0457  0.1325
12178DPPA   GL215345  12.918   1.984  20.153  0.1473  0.1947  0.3896
12178DPPA   C1A15346  13.034   2.362  19.970  0.0038 -0.1365  0.0821
12178DPPA   C2A15347  12.994   2.375  19.567  0.2267  0.0575  0.1027
12178DPPA   C3A15348  12.995   2.255  19.051 -0.1393 -0.0095  0.2153
12178DPPA   C4A15349  13.023   2.243  18.583  0.0380 -0.0881  0.3352
12178DPPA   C1B15350  12.692   1.965  19.829 -0.4703  0.3350  0.1900
12178DPPA   C2B15351  12.803   1.900  19.384 -0.0904  0.0720 -0.2964
12178DPPA   C3B15352  12.855   1.766  18.928 -0.1385 -0.3026  0.0394
12178DPPA   C4B15353  12.776   1.780  18.435 -0.2197  0.1081 -0.1682
12179DPPA   PO415354  12.233   3.885  20.332 -0.0958  0.1948 -0.0587
12179DPPA   GL115355  12.386   3.667  19.978 -0.3333  0.1348  0.1694
12179DPPA   GL215356  12.026   3.648  19.945 -0.2376  0.1504  0.0872
12179DPPA   C1A15357  12.460   3.595  19.677  0.0847  0.1165 -0.2298
12179DPPA   C2A15358  12.375   3.499  19.263  0.5439  0.1125 -0.0860
12179DPPA   C3A15359  12.474   3.427  18.791 -0.0704 -0.1251 -0.1195
12179DPPA   C4A15360  12.574   3.432  18.312 -0.1371  0.2974  0.2316
12179DPPA   C1B15361  12.070   3.755  19.629 -0.1206 -0.0170  0.1526
12179DPPA   C2B15362  12.039   3.868  19.213  0.1561 -0.1758  0.2915
12179DPPA   C3B15363  12.134   3.886  18.742 -0.0962 -0.3638 -0.1458
12179DPPA   C4B15364  12.185   3.829  18.232  0.1466  0.1326  0.0255
12180DPPA   PO415365   7.990   2.411  20.361  0.1083  0.2126 -0.3017
12180DPPA   GL115366   7.977   2.360  20.007  0.0793  0.2806  0.2528
12180DPPA   GL215367   7.734   2.546  19.936  0.1152  0.0134  0.3092
12180DPPA   C1A15368   8.194   2.277  19.746 -0.1213 -0.4396  0.0310
12180DPPA   C2A15369   8.395   2.270  19.352  0.1451  0.1615 -0.1395
12180DPPA   C3A15370   8.407   2.251  18.854 -0.0617 -0.1349  0.2217
12180DPPA   C4A15371   8.475   2.267  18.367 -0.2235  0.0738  0.0917
12180DPPA   C1B15372   7.592   2.516  19.591 -0.2313  0.1603 -0.1295
12180DPPA   C2B15373   7.569   2.613  19.213  0.0542  0.0211  0.0208
12180DPPA   C3B15374   7.581   2.609  18.710  0.1225  0.1273 -0.1863
12180DPPA   C4B15375   7.614   2.523  18.198  0.0356 -0.3327  0.0174
12181DPPA   PO415376  11.876   4.994  20.375 -0.1771 -0.2854 -0.0274
12181DPPA   GL115377  11.823   4.898  19.966 -0.1783 -0.0393  0.1406
12181DPPA   GL215378  12.057   4.749  19.945  0.3023  0.0999  0.2246
12181DPPA   C1A15379  11.685   5.073  19.720  0.0518  0.0706  0.0874
12181DPPA   C2A15380  11.709   5.145  19.294 -0.0091  0.3492  0.2333
12181DPPA   C3A15381  11.681   5.160  18.783  0.4429  0.0662 -0.0675
12181DPPA   C4A15382  11.669   5.152  18.253  0.1297  0.0960 -0.0253
12181DPPA   C1B15383  11.960   4.657  19.547 -0.3298 -0.0918 -0.0842
12181DPPA   C2B15384  11.995   4.739  19.142 -0.0370 -0.3702 -0.1321
12181DPPA   C3B15385  12.087   4.785  18.678  0.1166 -0.0571 -0.0198
12181DPPA   C4B15386  12.021   4.643  18.205 -0.1508  0.0339 -0.2140
12182DPPA   PO415387  11.941   5.498  20.573  0.0016  0.1426 -0.0772
12182DPPA   GL115388  11.932   5.405  20.160 -0.1210 -0.0009  0.1060
12182DPPA   GL215389  11.641   5.523  20.163 -0.1878 -0.0307 -0.0106
12182DPPA   C1A15390  12.089   5.309  19.834 -0.1870 -0.3270 -0.2049
12182DPPA   C2A15391  12.153   5.271  19.438 -0.2003  0.4784  0.0869
12182DPPA   C3A15392  12.142   5.220  18.977  0.2289 -0.0022  0.1066
12182DPPA   C4A15393  12.187   5.201  18.506  0.0294 -0.0318  0.0184
12182DPPA   C1B15394  11.519   5.515  19.788 -0.0500  0.1621  0.2228
12182DPPA   C2B15395  11.416   5.519  19.373  0.2385  0.2860  0.1612
12182DPPA   C3B15396  11.358   5.557  18.845  0.1920  0.0195  0.2801
12182DPPA   C4B15397  11.346   5.567  18.381  0.0547  0.3551  0.3954
12183DPPA   PO415398  12.337   0.116  15.745  0.1264  0.2664  0.1638
12183DPPA   GL115399  12.153   0.125  16.093 -0.1076 -0.0326  0.1208
12183DPPA   GL215400  11.981   0.294  16.139  0.0311  0.1747 -0.1190
12183DPPA   C1A15401  12.345   0.234  16.414  0.0772 -0.0257  0.2209
12183DPPA   C2A15402  12.420   0.278  16.833  0.0151 -0.0516 -0.0631
12183DPPA   C3A15403  12.395   0.400  17.297  0.0702 -0.0949 -0.1346
12183DPPA   C4A15404  12.373   0.417  17.815 -0.0332  0.1263 -0.0268
12183DPPA   C1B15405  11.957   0.289  16.540 -0.2391  0.0141  0.0330
12183DPPA   C2B15406  11.938   0.330  16.942  0.0055 -0.0950 -0.0471
12183DPPA   C3B15407  11.844   0.312  17.429 -0.1073 -0.1735  0.0555
12183DPPA   C4B15408  11.868   0.439  17.905  0.0835 -0.0789 -0.0539
12184DPPC   NC315409  10.004   1.574  15.799  0.1830  0.0894  0.0204
12184DPPC   PO415410   9.612   1.506  15.780 -0.1114  0.0888 -0.1267
12184DPPC   GL115411   9.395   1.495  16.166  0.1455  0.3197  0.1270
12184DPPC   GL215412   9.548   1.266  16.189 -0.1642  0.1400 -0.0882
12184DPPC   C1A15413   9.158   1.522  16.416  0.1523 -0.5614 -0.2339
12184DPPC   C2A15414   9.128   1.532  16.841 -0.0766  0.0450  0.2143
12184DPPC   C3A15415   9.118   1.549  17.279 -0.2929 -0.1361  0.1127
12184DPPC   C4A15416   9.129   1.512  17.748 -0.0779 -0.2163 -0.0990
12184DPPC   C1B15417   9.461   1.234  16.540  0.0604  0.0686 -0.1418
12184DPPC   C2B15418   9.456   1.125  16.977  0.1213  0.1977  0.1490
12184DPPC   C3B15419   9.419   1.079  17.446  0.2122  0.1054 -0.3337
12184DPPC   C4B15420   9.390   1.093  17.963  0.2381  0.2851  0.0285
12185DPPC   NC315421   8.889   3.156  15.754 -0.4779 -0.4914  0.1282
12185DPPC   PO415422   9.220   3.335  15.875 -0.4651 -0.0379  0.3155
12185DPPC   GL115423   9.143   3.416  16.224  0.1108  0.3823  0.2649
12185DPPC   GL215424   8.886   3.224  16.234  0.3061 -0.2283 -0.4146
12185DPPC   C1A15425   9.242   3.373  16.583 -0.0870  0.0610 -0.1723
12185DPPC   C2A15426   9.259   3.343  17.014  0.1644 -0.1486 -0.0984
12185DPPC   C3A15427   9.306   3.288  17.448  0.0738 -0.0251  0.2944
12185DPPC   C4A15428   9.270   3.318  17.893  0.1720  0.0795  0.2230
12185DPPC   C1B15429   8.801   3.286  16.650  0.0054  0.1916 -0.0399
12185DPPC   C2B15430   8.778   3.233  17.040 -0.0994  0.0176  0.1134
12185DPPC   C3B15431   8.775   3.230  17.546  0.0024 -0.2290 -0.0796
12185DPPC   C4B15432   8.819   3.268  18.030  0.2830  0.0915 -0.1590
12186DPPC   NC315433  14.323   0.787  16.111 -0.2213  0.1783 -0.0420
12186DPPC   PO415434  14.561   0.996  16.351  0.0082 -0.0372  0.1339
12186DPPC   GL115435  14.435   1.109  16.662 -0.0198  0.1893  0.2708
12186DPPC   GL215436  14.254   1.330  16.669 -0.1736 -0.0994  0.2209
12186DPPC   C1A15437  14.501   1.079  17.042  0.0139  0.1940 -0.2562
12186DPPC   C2A15438  14.482   1.092  17.527 -0.0438  0.0369 -0.0092
12186DPPC   C3A15439  14.423   1.176  18.001 -0.1050 -0.0781  0.0029
12186DPPC   C4A15440  14.483   1.181  18.484  0.1088 -0.1838  0.0993
12186DPPC   C1B15441  14.138   1.489  16.929  0.0866  0.1499  0.1151
12186DPPC   C2B15442  14.121   1.513  17.307 -0.1801 -0.2918  0.1384
12186DPPC   C3B15443  14.121   1.493  17.756 -0.0561 -0.0106  0.0741
12186DPPC   C4B15444  14.152   1.509  18.229 -0.0946 -0.2241 -0.2128
12187DPPC   NC315445   9.322   2.414  15.819 -0.0359  0.2074 -0.1642
12187DPPC   PO415446   8.952   2.322  15.827 -0.0644  0.1568  0.2235
12187DPPC   GL115447   8.664   2.157  15.986  0.3062  0.2439  0.2254
12187DPPC   GL215448   8.565   2.372  16.112  0.0668 -0.1669 -0.2959
12187DPPC   C1A15449   8.791   2.009  16.290  0.0151  0.1856 -0.2243
12187DPPC   C2A15450   8.872   1.937  16.655  0.2158  0.0087  0.0544
12187DPPC   C3A15451   8.781   1.890  17.169  0.0641  0.1578 -0.1216
12187DPPC   C4A15452   8.771   1.822  17.675  0.0218  0.1304 -0.2995
12187DPPC   C1B15453   8.566   2.315  16.478  0.3232  0.1335  0.0565
12187DPPC   C2B15454   8.556   2.260  16.869 -0.2715 -0.0166  0.0382
12187DPPC   C3B15455   8.494   2.238  17.357  0.0514  0.0812 -0.1275
12187DPPC   C4B15456   8.470   2.263  17.844 -0.0633  0.1598 -0.2291
12188DPPC   NC315457   6.676   0.040  15.122  0.1164 -0.0946  0.4816
12188DPPC   PO415458   6.946   0.076  15.425 -0.1234  0.2015 -0.3031
12188DPPC   GL115459   6.856   0.238  15.777 -0.2798  0.2199 -0.2428
12188DPPC   GL215460   6.890  -0.045  15.946  0.3739 -0.1194 -0.2735
12188DPPC   C1A15461   6.717   0.398  16.073  0.0259 -0.2232  0.1580
12188DPPC   C2A15462   6.619   0.618  16.405 -0.4055 -0.1737 -0.1676
12188DPPC   C3A15463   6.567   0.629  16.849 -0.1840 -0.0673 -0.0145
12188DPPC   C4A15464   6.563   0.584  17.352  0.0622 -0.0690  0.0227
12188DPPC   C1B15465   6.952   0.094  16.293 -0.2502 -0.1305 -0.2725
12188DPPC   C2B15466   6.899   0.266  16.671  0.2329 -0.0501 -0.0580
12188DPPC   C3B15467   6.838   0.193  17.157  0.2791 -0.0883  0.1951
12188DPPC   C4B15468   6.753   0.250  17.688 -0.0266 -0.0338 -0.1571
12189DPPC   NC315469   7.560   5.546  15.560  0.2141  0.0203  0.1416
12189DPPC   PO415470   7.843   5.828  15.654  0.0274  0.1648  0.1033
12189DPPC   GL115471   8.023   6.012  15.925 -0.1610  0.1847 -0.1141
12189DPPC   GL215472   8.022   5.730  16.112 -0.0659  0.2101 -0.1111
12189DPPC   C1A15473   8.016   6.163  16.276 -0.1134  0.0803  0.0916
12189DPPC   C2A15474   8.029   6.155  16.685 -0.0996  0.2176 -0.0911
12189DPPC   C3A15475   8.036   6.116  17.159 -0.0045  0.3148 -0.1016
12189DPPC   C4A15476   7.984   6.149  17.644  0.2501  0.1698 -0.1777
12189DPPC   C1B15477   7.907   5.751  16.492  0.0888 -0.0399  0.2956
12189DPPC   C2B15478   7.869   5.694  16.929 -0.2079 -0.0362  0.0328
12189DPPC   C3B15479   7.838   5.651  17.450 -0.1862 -0.2475  0.0077
12189DPPC   C4B15480   7.838   5.652  17.918  0.4213  0.0390  0.0125
12190DPPC   NC315481  14.105   3.444  16.216  0.1738 -0.2580  0.0809
12190DPPC   PO415482  13.763   3.718  16.252 -0.3871  0.0161 -0.0779
12190DPPC   GL115483  13.594   3.906  16.550  0.2714 -0.0048 -0.0319
12190DPPC   GL215484  13.557   4.215  16.381 -0.1629 -0.1227 -0.3017
12190DPPC   C1A15485  13.707   4.059  16.860  0.3667 -0.2693  0.0092
12190DPPC   C2A15486  13.620   4.081  17.251  0.0531  0.4077  0.1368
12190DPPC   C3A15487  13.615   4.114  17.728 -0.0355  0.1895 -0.2133
12190DPPC   C4A15488  13.662   4.071  18.215 -0.0845  0.2427 -0.2062
12190DPPC   C1B15489  13.420   4.428  16.651  0.1225  0.4547 -0.3507
12190DPPC   C2B15490  13.335   4.489  17.101 -0.0341 -0.0344  0.1282
12190DPPC   C3B15491  13.333   4.497  17.583 -0.0165 -0.0119  0.0851
12190DPPC   C4B15492  13.323   4.507  18.091  0.0169  0.2550 -0.0039
12191DPPC   NC315493   8.723   1.604  15.350  0.0287 -0.1644 -0.1551
12191DPPC   PO415494   8.585   1.481  15.697  0.3365 -0.0303  0.1225
12191DPPC   GL115495   8.562   1.757  16.043 -0.1837  0.0368  0.3470
12191DPPC   GL215496   8.734   1.499  16.149 -0.2626  0.1957 -0.1035
12191DPPC   C1A15497   8.391   1.824  16.339  0.0368 -0.5691 -0.0765
12191DPPC   C2A15498   8.369   1.814  16.753  0.0901  0.1830 -0.1298
12191DPPC   C3A15499   8.280   1.798  17.253 -0.1241  0.1094 -0.1859
12191DPPC   C4A15500   8.236   1.831  17.668  0.0950 -0.2644 -0.2219
12191DPPC   C1B15501   8.711   1.450  16.521 -0.0907  0.1028 -0.0719
12191DPPC   C2B15502   8.688   1.419  16.922  0.3410 -0.0092  0.1359
12191DPPC   C3B15503   8.642   1.483  17.393  0.2166 -0.3298  0.0599
12191DPPC   C4B15504   8.577   1.425  17.913 -0.2075 -0.0449 -0.0921
12192DPPC   NC315505  12.467   3.153  15.817  0.0814 -0.1902  0.2991
12192DPPC   PO415506  12.814   3.149  16.021 -0.0989 -0.0895 -0.2141
12192DPPC   GL115507  12.760   2.966  16.400 -0.0475 -0.0222  0.6797
12192DPPC   GL215508  12.459   2.940  16.354  0.0441 -0.0400  0.2023
12192DPPC   C1A15509  12.827   3.025  16.751 -0.3097 -0.2222  0.1427
12192DPPC   C2A15510  12.898   3.007  17.148  0.2688  0.1634 -0.0037
12192DPPC   C3A15511  12.856   3.031  17.626  0.1710 -0.1360 -0.0452
12192DPPC   C4A15512  12.830   3.065  18.143 -0.1059 -0.0580  0.0775
12192DPPC   C1B15513  12.333   2.905  16.721 -0.1410  0.0981  0.2561
12192DPPC   C2B15514  12.366   2.934  17.142  0.3740 -0.2115 -0.0007
12192DPPC   C3B15515  12.349   2.970  17.637  0.0343 -0.5132  0.1872
12192DPPC   C4B15516  12.290   3.019  18.158  0.2434  0.0860  0.0266
12193DPPC   NC315517  12.096   1.778  15.654  0.0091  0.0837  0.4997
12193DPPC   PO415518  12.313   2.082  15.749 -0.1264 -0.1288  0.0873
12193DPPC   GL115519  12.314   1.931  16.154 -0.1405 -0.0729  0.0690
12193DPPC   GL215520  12.322   2.285  16.174 -0.2543 -0.1902  0.2645
12193DPPC   C1A15521  12.449   1.976  16.469  0.4024 -0.4758  0.3882
12193DPPC   C2A15522  12.586   2.129  16.800 -0.0407  0.1061 -0.0528
12193DPPC   C3A15523  12.523   2.168  17.225  0.1102  0.1880 -0.0554
12193DPPC   C4A15524  12.424   2.199  17.694 -0.1418 -0.0723  0.1072
12193DPPC   C1B15525  12.272   2.468  16.540  0.0438  0.0705  0.0157
12193DPPC   C2B15526  12.221   2.449  16.962  0.0754  0.0776 -0.2803
12193DPPC   C3B15527  12.210   2.531  17.417 -0.1672  0.0226 -0.3974
12193DPPC   C4B15528  12.114   2.504  17.925  0.0767 -0.1018 -0.0021
12194DPPC   NC315529  11.554   0.354  15.568  0.1253  0.0552  0.0801
12194DPPC   PO415530  11.660   0.116  15.866  0.0648 -0.1644  0.0762
12194DPPC   GL115531  11.766  -0.063  16.246  0.0792  0.2251 -0.0264
12194DPPC   GL215532  11.623   0.098  16.362 -0.1892 -0.1827  0.1284
12194DPPC   C1A15533  11.812  -0.213  16.591 -0.2413 -0.0364  0.0672
12194DPPC   C2A15534  11.774  -0.175  16.978 -0.1618 -0.0582  0.0122
12194DPPC   C3A15535  11.685  -0.216  17.449 -0.0428 -0.0462 -0.3193
12194DPPC   C4A15536  11.747  -0.195  17.900  0.1287  0.1525 -0.2690
12194DPPC   C1B15537  11.463   0.232  16.621  0.6449 -0.3858 -0.0231
12194DPPC   C2B15538  11.423   0.241  17.053  0.4365 -0.2673  0.3221
12194DPPC   C3B15539  11.415   0.158  17.570 -0.0987 -0.1736  0.0129
12194DPPC   C4B15540  11.391   0.208  18.108 -0.3020  0.1389  0.2030
12195DPPC   NC315541  11.411   1.105  15.733 -0.1397  0.1510 -0.0607
12195DPPC   PO415542  11.230   0.751  15.749  0.5574 -0.0424 -0.0701
12195DPPC   GL115543  10.978   0.684  15.999 -0.0776  0.2274 -0.3475
12195DPPC   GL215544  11.190   0.592  16.185 -0.0707  0.2521 -0.1288
12195DPPC   C1A15545  10.668   0.643  16.216  0.4082  0.1724 -0.1281
12195DPPC   C2A15546  10.560   0.543  16.593  0.0242 -0.0245 -0.1980
12195DPPC   C3A15547  10.524   0.497  17.083  0.0115 -0.1418 -0.0785
12195DPPC   C4A15548  10.537   0.419  17.597  0.1388  0.2423 -0.0350
12195DPPC   C1B15549  11.137   0.620  16.540  0.3019  0.2854 -0.0447
12195DPPC   C2B15550  11.070   0.623  16.969 -0.0654  0.0148 -0.0025
12195DPPC   C3B15551  11.009   0.624  17.471 -0.1183  0.1340  0.0781
12195DPPC   C4B15552  10.977   0.575  18.013 -0.2993 -0.0761  0.0315
12196DPPC   NC315553   9.793   4.835  15.438 -0.3145  0.1507 -0.1252
12196DPPC   PO415554   9.759   5.178  15.651  0.1029 -0.1300 -0.0199
12196DPPC   GL115555   9.631   5.297  16.071  0.1147 -0.2494  0.1617
12196DPPC   GL215556   9.877   5.159  16.221 -0.2084 -0.2098  0.1817
12196DPPC   C1A15557   9.431   5.220  16.362 -0.1565 -0.1199 -0.2244
12196DPPC   C2A15558   9.414   5.202  16.776 -0.0168 -0.0771 -0.0352
12196DPPC   C3A15559   9.467   5.127  17.258 -0.2607 -0.3648 -0.1485
12196DPPC   C4A15560   9.457   5.131  17.733 -0.0913  0.2052  0.0280
12196DPPC   C1B15561   9.928   5.340  16.574 -0.2993  0.1645 -0.1219
12196DPPC   C2B15562   9.903   5.294  16.976 -0.2553 -0.0568  0.0606
12196DPPC   C3B15563   9.869   5.267  17.433  0.1569  0.0934 -0.1762
12196DPPC   C4B15564   9.876   5.283  17.886 -0.0600  0.1845  0.1992
12197DPPC   NC315565  10.729   3.806  15.264 -0.2583  0.1244  0.2560
12197DPPC   PO415566  10.474   3.971  15.472  0.0386  0.1612  0.0926
12197DPPC   GL115567  10.296   4.017  15.874  0.1105  0.0863 -0.3194
12197DPPC   GL215568  10.343   3.774  15.906 -0.2102 -0.1029  0.1003
12197DPPC   C1A15569  10.368   4.133  16.232 -0.1632 -0.0690  0.1035
12197DPPC   C2A15570  10.439   4.060  16.658 -0.3040  0.0558 -0.0407
12197DPPC   C3A15571  10.403   4.011  17.125 -0.0838  0.0334 -0.3084
12197DPPC   C4A15572  10.399   4.013  17.623 -0.3255  0.2086 -0.0255
12197DPPC   C1B15573  10.453   3.670  16.278  0.3670  0.1285 -0.3465
12197DPPC   C2B15574  10.456   3.553  16.666  0.0840 -0.1090 -0.0430
12197DPPC   C3B15575  10.315   3.507  17.121 -0.3418  0.0566 -0.0711
12197DPPC   C4B15576  10.284   3.489  17.612 -0.1327  0.2635 -0.0384
12198DPPC   NC315577  10.631   6.006  15.538 -0.0356  0.2746 -0.1847
12198DPPC   PO415578  10.344   5.717  15.649 -0.2080 -0.0526 -0.0258
12198DPPC   GL115579  10.184   5.760  16.060  0.0330 -0.0393  0.1404
12198DPPC   GL215580  10.442   5.663  16.139 -0.3441  0.4436  0.2008
12198DPPC   C1A15581  10.125   5.724  16.414  0.1438 -0.0890  0.2037
12198DPPC   C2A15582  10.087   5.744  16.835 -0.0689 -0.3299  0.1663
12198DPPC   C3A15583  10.107   5.701  17.325 -0.0065  0.3150  0.0167
12198DPPC   C4A15584  10.077   5.688  17.810  0.2015  0.0258 -0.1558
12198DPPC   C1B15585  10.587   5.733  16.482  0.0140  0.0602 -0.1163
12198DPPC   C2B15586  10.613   5.808  16.911  0.1475  0.2004 -0.0954
12198DPPC   C3B15587  10.617   5.761  17.408 -0.0507 -0.0161 -0.0779
12198DPPC   C4B15588  10.558   5.754  17.887  0.0809  0.2413  0.1722
12199DPPC   NC315589  12.020   5.038  15.799 -0.1082 -0.2317 -0.2834
12199DPPC   PO415590  12.037   5.406  15.786  0.0519  0.1365  0.2128
12199DPPC   GL115591  12.189   5.365  16.110 -0.2482 -0.7005 -0.4569
12199DPPC   GL215592  12.028   5.130  16.292 -0.1051  0.4170 -0.0444
12199DPPC   C1A15593  12.291   5.605  16.410  0.0407  0.0274  0.0186
12199DPPC   C2A15594  12.388   5.611  16.779 -0.1048  0.0738  0.4331
12199DPPC   C3A15595  12.353   5.602  17.337 -0.1858  0.1214 -0.0911
12199DPPC   C4A15596  12.391   5.691  17.772  0.0069  0.0834  0.2073
12199DPPC   C1B15597  12.232   5.133  16.624  0.0753 -0.1971  0.2156
12199DPPC   C2B15598  12.292   5.092  17.026  0.0815  0.1059  0.2724
12199DPPC   C3B15599  12.246   5.126  17.503 -0.3104  0.1050 -0.0595
12199DPPC   C4B15600  12.199   5.204  17.974  0.0780 -0.1124  0.0517
12200DPPC   NC315601   9.900   3.222  15.591 -0.0669  0.2714 -0.2516
12200DPPC   PO415602   9.938   3.536  15.821 -0.0169  0.0390  0.0800
12200DPPC   GL115603   9.980   3.703  16.150  0.0211  0.1730  0.4734
12200DPPC   GL215604   9.954   3.970  16.098  0.2185 -0.0500 -0.0122
12200DPPC   C1A15605   9.873   3.529  16.459 -0.5475 -0.0909  0.3292
12200DPPC   C2A15606   9.831   3.401  16.826  0.0099  0.1263 -0.1365
12200DPPC   C3A15607   9.826   3.381  17.331  0.1063  0.0969  0.2509
12200DPPC   C4A15608   9.790   3.381  17.801 -0.1331 -0.0541 -0.1896
12200DPPC   C1B15609  10.030   3.946  16.472 -0.1039  0.2466  0.0493
12200DPPC   C2B15610  10.006   3.884  16.876  0.1180 -0.1371 -0.1228
12200DPPC   C3B15611  10.002   3.854  17.364 -0.1434 -0.0461 -0.0247
12200DPPC   C4B15612   9.961   3.873  17.826 -0.1029  0.0203 -0.0849
12201DPPC   NC315613   8.527   1.116  15.393 -0.1917  0.1538 -0.1801
12201DPPC   PO415614   8.882   1.050  15.573 -0.2814  0.2119  0.1540
12201DPPC   GL115615   8.974   0.917  15.966  0.0380  0.2703  0.1001
12201DPPC   GL215616   8.682   1.104  15.985  0.0686 -0.1196 -0.3592
12201DPPC   C1A15617   9.128   1.150  16.212  0.2869  0.1744 -0.0980
12201DPPC   C2A15618   9.014   1.098  16.593  0.1801  0.0185 -0.0583
12201DPPC   C3A15619   8.984   1.087  17.089  0.2270 -0.0150  0.2509
12201DPPC   C4A15620   8.948   1.086  17.549 -0.0311 -0.0427  0.0928
12201DPPC   C1B15621   8.557   1.121  16.293 -0.0325  0.1989 -0.2328
12201DPPC   C2B15622   8.468   1.030  16.746  0.1249 -0.1094 -0.1120
12201DPPC   C3B15623   8.514   1.046  17.236  0.1029 -0.2247 -0.0540
12201DPPC   C4B15624   8.471   0.976  17.679 -0.0969  0.0448  0.1125
12202DPPC   NC315625  10.571   4.389  15.838  0.0003  0.1614  0.3146
12202DPPC   PO415626  10.738   4.730  15.768  0.0923  0.0110 -0.0478
12202DPPC   GL115627  10.574   4.999  16.078 -0.0406 -0.2533 -0.2011
12202DPPC   GL215628  10.825   4.859  16.236 -0.1185  0.1964  0.1369
12202DPPC   C1A15629  10.412   5.273  16.282 -0.1788 -0.0059 -0.3092
12202DPPC   C2A15630  10.390   5.385  16.679 -0.2360 -0.2359 -0.0053
12202DPPC   C3A15631  10.350   5.310  17.133 -0.2614 -0.0736  0.1127
12202DPPC   C4A15632  10.368   5.336  17.648 -0.0808 -0.1687  0.0531
12202DPPC   C1B15633  10.765   4.930  16.602 -0.5106  0.0972  0.1651
12202DPPC   C2B15634  10.795   4.919  17.002 -0.0733 -0.1408  0.0465
12202DPPC   C3B15635  10.730   5.029  17.498 -0.0799 -0.2112  0.0380
12202DPPC   C4B15636  10.703   5.057  17.923 -0.1989 -0.0237 -0.1182
12203DPPC   NC315637  13.462   1.637  15.707 -0.2023  0.1987 -0.2112
12203DPPC   PO415638  13.173   1.581  16.000 -0.3249  0.0131  0.1426
12203DPPC   GL115639  13.259   1.666  16.375  0.1005 -0.1447 -0.0037
12203DPPC   GL215640  13.393   1.869  16.456 -0.0089  0.1544  0.2456
12203DPPC   C1A15641  13.249   1.471  16.711 -0.0802  0.2545  0.1958
12203DPPC   C2A15642  13.179   1.359  17.110  0.0129  0.1960 -0.2162
12203DPPC   C3A15643  13.200   1.372  17.562  0.0230 -0.2265  0.0050
12203DPPC   C4A15644  13.150   1.353  18.031 -0.2186 -0.1447  0.1755
12203DPPC   C1B15645  13.350   1.866  16.852 -0.0191 -0.1736  0.0392
12203DPPC   C2B15646  13.278   1.828  17.238 -0.0684  0.1078 -0.1937
12203DPPC   C3B15647  13.296   1.803  17.746  0.0879 -0.0912  0.0648
12203DPPC   C4B15648  13.313   1.822  18.280 -0.1105 -0.1214  0.0942
12204DPPC   NC315649   7.463   3.906  15.429 -0.0110  0.0306 -0.1009
12204DPPC   PO415650   7.269   4.109  15.663 -0.0469  0.3803 -0.4523
12204DPPC   GL115651   7.280   4.260  16.139  0.1328 -0.2786 -0.1151
12204DPPC   GL215652   7.482   4.088  16.057  0.1770  0.2001 -0.0148
12204DPPC   C1A15653   7.370   4.255  16.515  0.1369 -0.4905 -0.4100
12204DPPC   C2A15654   7.351   4.322  16.917 -0.0133 -0.2155 -0.0859
12204DPPC   C3A15655   7.341   4.309  17.430  0.2263  0.2867 -0.0157
12204DPPC   C4A15656   7.393   4.176  17.943  0.0407  0.1567  0.2362
12204DPPC   C1B15657   7.694   3.898  16.288  0.5880  0.1316 -0.0214
12204DPPC   C2B15658   7.727   3.919  16.692 -0.0112  0.0321  0.1158
12204DPPC   C3B15659   7.664   3.927  17.237  0.2073 -0.1581  0.1387
12204DPPC   C4B15660   7.660   3.794  17.711 -0.2428 -0.2892  0.1640
12205DPPC   NC315661   8.306   5.695  15.650 -0.1868 -0.1600 -0.1701
12205DPPC   PO415662   8.289   5.954  15.370  0.1317  0.0424 -0.0784
12205DPPC   GL115663   8.243   6.278  15.592  0.4807  0.0854  0.0099
12205DPPC   GL215664   8.466   6.189  15.778  0.1270  0.3620  0.0172
12205DPPC   C1A15665   8.081   6.431  15.885 -0.0629  0.2668  0.2044
12205DPPC   C2A15666   8.208   6.580  16.278  0.0732 -0.3357  0.2278
12205DPPC   C3A15667   8.195   6.592  16.773 -0.0069 -0.0725 -0.0271
12205DPPC   C4A15668   8.167   6.643  17.252  0.3379  0.1275 -0.0272
12205DPPC   C1B15669   8.515   6.168  16.137  0.2544  0.0887  0.0102
12205DPPC   C2B15670   8.490   6.249  16.537 -0.1717  0.0822  0.0753
12205DPPC   C3B15671   8.538   6.193  16.983 -0.1913  0.1332  0.1837
12205DPPC   C4B15672   8.430   6.169  17.454  0.0255 -0.0240 -0.0987
12206DPPC   NC315673  11.643   5.753  15.775  0.0847  0.0754 -0.3742
12206DPPC   PO415674  11.292   5.599  15.850 -0.0698  0.1834 -0.0898
12206DPPC   GL115675  11.041   5.317  16.041  0.2523  0.4473 -0.0484
12206DPPC   GL215676  11.171   5.067  16.043  0.2083 -0.4216  0.1149
12206DPPC   C1A15677  10.935   5.478  16.349  0.0791 -0.1986 -0.1988
12206DPPC   C2A15678  10.953   5.389  16.763 -0.2979 -0.1260  0.0691
12206DPPC   C3A15679  10.885   5.430  17.208 -0.2131 -0.1147  0.1492
12206DPPC   C4A15680  10.970   5.423  17.688 -0.1103  0.0426  0.1102
12206DPPC   C1B15681  11.299   5.012  16.385  0.4283  0.0372 -0.0598
12206DPPC   C2B15682  11.400   4.994  16.774 -0.0476 -0.3428  0.4236
12206DPPC   C3B15683  11.243   5.024  17.183 -0.0616 -0.0039  0.0857
12206DPPC   C4B15684  11.227   4.945  17.640  0.1311 -0.1533 -0.6473
12207DPPC   NC315685   8.640   6.323  15.367  0.0098 -0.0588 -0.0610
12207DPPC   PO415686   8.965   6.225  15.553 -0.1326  0.0278  0.1837
12207DPPC   GL115687   8.924   6.237  16.017  0.1951  0.0790  0.0573
12207DPPC   GL215688   8.979   5.947  15.980  0.2044  0.4218 -0.0354
12207DPPC   C1A15689   8.986   6.345  16.364 -0.0510  0.0294  0.2055
12207DPPC   C2A15690   8.990   6.390  16.798  0.2703  0.1311  0.0406
12207DPPC   C3A15691   8.912   6.338  17.320 -0.2913 -0.0002 -0.0639
12207DPPC   C4A15692   8.967   6.437  17.824  0.1113 -0.0137  0.0676
12207DPPC   C1B15693   8.936   5.908  16.331 -0.1295  0.2050  0.0184
12207DPPC   C2B15694   8.855   5.900  16.735  0.2041 -0.0140  0.1071
12207DPPC   C3B15695   8.789   5.886  17.233 -0.0750  0.1288  0.3265
12207DPPC   C4B15696   8.760   5.911  17.752  0.0170 -0.1489  0.0674
12208DPPC   NC315697   9.004   4.662  15.898  0.0634 -0.0405 -0.1915
12208DPPC   PO415698   9.351   4.823  15.740  0.0219  0.0915 -0.2757
12208DPPC   GL115699   9.303   4.771  16.205 -0.2069  0.1895 -0.0938
12208DPPC   GL215700   9.096   5.021  16.154 -0.1422  0.2707  0.4438
12208DPPC   C1A15701   9.267   4.629  16.528  0.0787 -0.1433 -0.1360
12208DPPC   C2A15702   9.351   4.663  16.928  0.3406 -0.1194  0.1636
12208DPPC   C3A15703   9.346   4.624  17.371 -0.2724  0.1429 -0.1012
12208DPPC   C4A15704   9.378   4.635  17.867  0.2115  0.3274 -0.2711
12208DPPC   C1B15705   9.028   4.987  16.534  0.0428  0.0900 -0.0016
12208DPPC   C2B15706   8.959   4.958  16.949 -0.0897  0.3229  0.1040
12208DPPC   C3B15707   8.993   5.011  17.422 -0.1933 -0.1264  0.0252
12208DPPC   C4B15708   9.034   5.049  17.947 -0.0744  0.0989  0.4992
12209DPPC   NC315709   8.421   4.285  15.875  0.1114  0.1825  0.0550
12209DPPC   PO415710   8.501   3.913  15.836  0.1673  0.0914 -0.0412
12209DPPC   GL115711   8.446   3.810  16.164 -0.0602 -0.0443  0.0074
12209DPPC   GL215712   8.308   3.978  16.277 -0.1057  0.1256 -0.2319
12209DPPC   C1A15713   8.564   3.579  16.434  0.0543  0.3271  0.1262
12209DPPC   C2A15714   8.478   3.634  16.794 -0.0849 -0.0558  0.0301
12209DPPC   C3A15715   8.469   3.633  17.329  0.0149  0.2226  0.2656
12209DPPC   C4A15716   8.499   3.685  17.777 -0.0357  0.2898  0.0430
12209DPPC   C1B15717   8.271   3.995  16.600 -0.1823 -0.0322  0.0965
12209DPPC   C2B15718   8.146   4.019  16.996  0.1953  0.1408 -0.0293
12209DPPC   C3B15719   8.138   3.941  17.507 -0.0381  0.0362 -0.1169
12209DPPC   C4B15720   8.100   3.982  17.953 -0.0310 -0.0805 -0.1622
12210DPPC   NC315721   9.610   3.373  16.162 -0.0521  0.0318 -0.2320
12210DPPC   PO415722   9.848   3.060  16.046 -0.1765  0.2386 -0.0187
12210DPPC   GL115723   9.932   2.945  16.399  0.2415  0.0041 -0.0901
12210DPPC   GL215724   9.661   3.061  16.534 -0.1092  0.0915  0.1726
12210DPPC   C1A15725  10.175   2.972  16.671  0.1514  0.2135  0.0388
12210DPPC   C2A15726  10.113   3.034  17.113 -0.2157 -0.0942 -0.0315
12210DPPC   C3A15727  10.153   3.030  17.597 -0.2083  0.0732 -0.1689
12210DPPC   C4A15728  10.089   3.088  18.083 -0.0242  0.5334  0.1596
12210DPPC   C1B15729   9.614   2.937  16.815 -0.1700  0.1151  0.0604
12210DPPC   C2B15730   9.612   2.937  17.213  0.0993  0.0138 -0.0885
12210DPPC   C3B15731   9.627   2.902  17.678  0.0420  0.2563 -0.1202
12210DPPC   C4B15732   9.490   2.939  18.118 -0.2562 -0.0756 -0.3430
12211DPPC   NC315733   6.359   5.359  15.657 -0.0814 -0.0980 -0.2146
12211DPPC   PO415734   6.692   5.251  15.790  0.1477 -0.2104 -0.1959
12211DPPC   GL115735   6.778   5.513  16.029 -0.1659  0.1920  0.5561
12211DPPC   GL215736   6.991   5.338  16.124 -0.1327 -0.1558 -0.0904
12211DPPC   C1A15737   6.730   5.531  16.391  0.0148 -0.2390 -0.0579
12211DPPC   C2A15738   6.876   5.481  16.766 -0.1083  0.3293 -0.2256
12211DPPC   C3A15739   6.858   5.500  17.292 -0.0366  0.1396  0.1465
12211DPPC   C4A15740   6.685   5.555  17.738 -0.1824 -0.1250  0.1411
12211DPPC   C1B15741   7.091   5.246  16.444 -0.2400  0.1159 -0.1712
12211DPPC   C2B15742   7.190   5.109  16.829 -0.2663 -0.0098  0.0370
12211DPPC   C3B15743   7.203   5.103  17.324 -0.1916  0.2448 -0.5645
12211DPPC   C4B15744   7.162   5.141  17.801 -0.0618  0.3757 -0.3587
12212DPPC   NC315745  12.841   6.594  15.710 -0.0216 -0.0688  0.2771
12212DPPC   PO415746  12.953   6.288  15.980  0.0084  0.0758  0.2557
12212DPPC   GL115747  12.962   6.369  16.367  0.2920  0.0832 -0.2864
12212DPPC   GL215748  13.233   6.494  16.404  0.1717  0.2578 -0.0459
12212DPPC   C1A15749  12.712   6.497  16.594 -0.3205  0.0384 -0.2124
12212DPPC   C2A15750  12.758   6.525  17.005  0.1856  0.2927 -0.0181
12212DPPC   C3A15751  12.652   6.613  17.516 -0.0872  0.3371 -0.0337
12212DPPC   C4A15752  12.645   6.597  17.993 -0.0778  0.0832 -0.2085
12212DPPC   C1B15753  13.501   6.606  16.579  0.1654 -0.0731  0.1112
12212DPPC   C2B15754  13.660   6.774  16.943 -0.0197  0.3551  0.4973
12212DPPC   C3B15755  13.680   6.734  17.416 -0.2914 -0.0000  0.2403
12212DPPC   C4B15756  13.738   6.699  17.840  0.0426  0.3383 -0.2519
12213DPPC   NC315757  11.563   2.583  15.598 -0.1752 -0.2266 -0.0186
12213DPPC   PO415758  11.281   2.881  15.664  0.1531  0.1814  0.1314
12213DPPC   GL115759  11.079   2.647  15.991  0.3375 -0.0321 -0.2621
12213DPPC   GL215760  11.381   2.551  16.021 -0.1560  0.1702  0.1715
12213DPPC   C1A15761  11.019   2.714  16.342 -0.1737  0.1313  0.1071
12213DPPC   C2A15762  11.001   2.704  16.728  0.0105 -0.0065  0.3746
12213DPPC   C3A15763  10.954   2.730  17.162  0.0990 -0.1331  0.2430
12213DPPC   C4A15764  10.820   2.830  17.645  0.0550  0.0924 -0.0976
12213DPPC   C1B15765  11.275   2.377  16.275  0.0477  0.1535  0.1924
12213DPPC   C2B15766  11.281   2.345  16.713 -0.1457  0.1619  0.0246
12213DPPC   C3B15767  11.266   2.329  17.228  0.0515  0.3989 -0.1038
12213DPPC   C4B15768  11.258   2.345  17.728  0.1357  0.3023 -0.1231
12214DPPC   NC315769  10.706   1.818  15.862 -0.1850  0.0910  0.1745
12214DPPC   PO415770  10.532   1.499  15.835  0.0858  0.1131  0.0221
12214DPPC   GL115771  10.566   1.360  16.209 -0.2218 -0.3232  0.1584
12214DPPC   GL215772  10.491   1.455  16.395 -0.1072 -0.2394  0.0092
12214DPPC   C1A15773  10.685   1.040  16.426  0.2321 -0.2111  0.4034
12214DPPC   C2A15774  10.720   0.931  16.840  0.0590 -0.1617  0.1543
12214DPPC   C3A15775  10.636   0.956  17.294 -0.0913  0.0427  0.0139
12214DPPC   C4A15776  10.650   0.912  17.801  0.0729 -0.1789 -0.3454
12214DPPC   C1B15777  10.435   1.289  16.727  0.1099 -0.1620  0.2057
12214DPPC   C2B15778  10.364   1.346  17.130 -0.3088  0.1031  0.0306
12214DPPC   C3B15779  10.327   1.316  17.588 -0.1148  0.1191 -0.2645
12214DPPC   C4B15780  10.383   1.398  18.049 -0.1190 -0.1732 -0.0374
12215DPPC   NC315781  10.035   4.278  15.285 -0.1359 -0.3026  0.1355
12215DPPC   PO415782  10.105   4.359  15.651  0.1222  0.0662 -0.3455
12215DPPC   GL115783   9.810   4.338  15.902  0.0425 -0.0757  0.0272
12215DPPC   GL215784   9.804   4.602  15.878 -0.2621 -0.2251 -0.1848
12215DPPC   C1A15785   9.733   4.361  16.321 -0.1942 -0.0978  0.0766
12215DPPC   C2A15786   9.652   4.307  16.676  0.0176  0.0491 -0.1165
12215DPPC   C3A15787   9.639   4.300  17.122 -0.0257  0.0224 -0.2172
12215DPPC   C4A15788   9.638   4.290  17.629 -0.0316  0.0806  0.0915
12215DPPC   C1B15789   9.794   4.754  16.205  0.2283  0.0370  0.3807
12215DPPC   C2B15790   9.790   4.872  16.605  0.2707  0.0785 -0.0003
12215DPPC   C3B15791   9.816   4.754  17.080 -0.2974 -0.2728  0.2447
12215DPPC   C4B15792   9.781   4.791  17.552 -0.1465 -0.2442  0.0447
12216DPPC   NC315793  13.545   5.517  15.881 -0.2858 -0.0872 -0.0086
12216DPPC   PO415794  13.413   5.894  15.907 -0.1543 -0.0022 -0.1316
12216DPPC   GL115795  13.285   5.949  16.346 -0.1161  0.2171 -0.2567
12216DPPC   GL215796  13.551   6.051  16.437  0.2201  0.2838  0.0043
12216DPPC   C1A15797  13.108   6.044  16.662 -0.0352 -0.3299  0.0852
12216DPPC   C2A15798  13.049   6.153  17.017 -0.0526 -0.1253  0.2618
12216DPPC   C3A15799  13.036   6.234  17.525 -0.2231  0.2655 -0.1692
12216DPPC   C4A15800  13.051   6.125  17.989 -0.1082  0.0126  0.1596
12216DPPC   C1B15801  13.576   6.247  16.770  0.1420  0.0956 -0.1817
12216DPPC   C2B15802  13.553   6.292  17.201  0.2198 -0.3178 -0.4256
12216DPPC   C3B15803  13.510   6.286  17.672 -0.3730  0.1142 -0.0993
12216DPPC   C4B15804  13.551   6.315  18.193 -0.0029  0.0804  0.2605
12217DPPC   NC315805  13.431   4.253  15.880 -0.0459  0.1855  0.2137
12217DPPC   PO415806  13.701   4.553  15.791  0.0367 -0.1096 -0.0524
12217DPPC   GL115807  13.711   4.638  16.181  0.1537 -0.3869 -0.1465
12217DPPC   GL215808  13.384   4.689  16.166  0.2353  0.0234 -0.2147
12217DPPC   C1A15809  13.689   4.759  16.503 -0.2420  0.3140  0.0676
12217DPPC   C2A15810  13.552   4.915  16.851  0.1455  0.1690 -0.3091
12217DPPC   C3A15811  13.558   4.899  17.348  0.0142 -0.2376 -0.3053
12217DPPC   C4A15812  13.511   4.940  17.849 -0.0001  0.0805  0.0617
12217DPPC   C1B15813  13.211   4.766  16.524 -0.0865  0.2246  0.3845
12217DPPC   C2B15814  13.029   4.834  16.879  0.3877  0.2068  0.3244
12217DPPC   C3B15815  13.009   4.826  17.361 -0.3453  0.0104  0.0497
12217DPPC   C4B15816  13.002   4.884  17.871  0.0298  0.1947 -0.1362
12218DPPC   NC315817  11.151   5.046  15.548  0.2052 -0.0617 -0.1519
12218DPPC   PO415818  11.269   4.679  15.694  0.2328  0.1193 -0.1615
12218DPPC   GL115819  11.187   4.625  16.153  0.0213 -0.0505 -0.1738
12218DPPC   GL215820  10.938   4.464  16.057  0.1626  0.1082 -0.1252
12218DPPC   C1A15821  11.167   4.587  16.512 -0.2197 -0.4289 -0.1791
12218DPPC   C2A15822  11.135   4.590  16.892  0.1149 -0.0297 -0.3925
12218DPPC   C3A15823  11.054   4.568  17.379 -0.0522 -0.1593 -0.2426
12218DPPC   C4A15824  11.050   4.461  17.878  0.2766  0.2283 -0.1584
12218DPPC   C1B15825  10.645   4.498  16.321  0.0698  0.0690 -0.3395
12218DPPC   C2B15826  10.602   4.494  16.695 -0.2482 -0.3708 -0.0586
12218DPPC   C3B15827  10.587   4.516  17.168 -0.0952 -0.2852 -0.2236
12218DPPC   C4B15828  10.584   4.498  17.597  0.1825 -0.0532  0.3790
12219DPPC   NC315829  13.038   2.659  16.095  0.2143 -0.3537  0.0532
12219DPPC   PO415830  13.319   2.928  16.023  0.0335 -0.1824 -0.2610
12219DPPC   GL115831  13.260   2.932  16.405 -0.1817  0.3370  0.0472
12219DPPC   GL215832  13.114   2.748  16.561  0.2702  0.1027  0.1494
12219DPPC   C1A15833  13.298   3.185  16.620  0.0195  0.4419  0.0607
12219DPPC   C2A15834  13.360   3.124  17.036 -0.2330 -0.1982  0.1407
12219DPPC   C3A15835  13.366   3.050  17.536 -0.0949 -0.1613  0.1331
12219DPPC   C4A15836  13.366   3.116  18.000  0.1338 -0.0334  0.1048
12219DPPC   C1B15837  13.246   2.694  16.922  0.1667 -0.2909  0.1550
12219DPPC   C2B15838  13.159   2.662  17.328 -0.0040  0.2721  0.0939
12219DPPC   C3B15839  13.190   2.540  17.738  0.2790 -0.0679 -0.3310
12219DPPC   C4B15840  13.114   2.687  18.183 -0.1858 -0.2672 -0.0425
12220DPPC   NC315841  10.799   2.628  15.649 -0.1590 -0.0569  0.1685
12220DPPC   PO415842  10.780   3.054  15.700  0.1554  0.0326 -0.0828
12220DPPC   GL115843  10.974   3.087  16.050  0.3936  0.0971 -0.0345
12220DPPC   GL215844  10.743   3.336  16.174 -0.0247 -0.0054  0.1570
12220DPPC   C1A15845  11.130   3.160  16.362  0.0421 -0.3488  0.2859
12220DPPC   C2A15846  11.124   3.194  16.801  0.1040  0.0123 -0.2476
12220DPPC   C3A15847  11.065   3.217  17.265  0.1632  0.0686 -0.2711
12220DPPC   C4A15848  11.062   3.284  17.739 -0.0024  0.1706  0.2304
12220DPPC   C1B15849  10.665   3.133  16.440  0.0500  0.0472 -0.0210
12220DPPC   C2B15850  10.648   3.135  16.879  0.0120 -0.0627  0.4094
12220DPPC   C3B15851  10.578   3.165  17.383  0.0215  0.1605  0.2102
12220DPPC   C4B15852  10.625   3.202  17.911  0.0077 -0.1701  0.3226
12221DPPC   NC315853  10.233   2.505  16.005 -0.2609  0.1912  0.0821
12221DPPC   PO415854  10.531   2.307  15.905 -0.0308 -0.0288  0.1440
12221DPPC   GL115855  10.743   2.400  16.193  0.0497 -0.2020  0.4978
12221DPPC   GL215856  10.648   2.741  16.169  0.1940 -0.1187  0.0256
12221DPPC   C1A15857  10.732   2.322  16.518 -0.0231 -0.2946 -0.0886
12221DPPC   C2A15858  10.832   2.236  16.846  0.0708 -0.0437  0.1470
12221DPPC   C3A15859  10.745   2.255  17.347  0.3125 -0.0935 -0.1018
12221DPPC   C4A15860  10.768   2.285  17.787 -0.1194  0.0943 -0.0125
12221DPPC   C1B15861  10.362   2.694  16.439  0.4128 -0.2101  0.1129
12221DPPC   C2B15862  10.448   2.621  16.854 -0.4186 -0.1467 -0.1767
12221DPPC   C3B15863  10.421   2.626  17.293  0.0355 -0.1010 -0.1529
12221DPPC   C4B15864  10.405   2.676  17.830 -0.1901 -0.0236 -0.0006
12222DPPC   NC315865   9.833   2.137  15.387 -0.0554 -0.0326 -0.0275
12222DPPC   PO415866   9.597   1.976  15.622  0.0182 -0.1871  0.2152
12222DPPC   GL115867   9.793   1.956  15.940 -0.1595  0.2349 -0.0823
12222DPPC   GL215868   9.895   2.151  15.988 -0.0737 -0.0682  0.4228
12222DPPC   C1A15869   9.763   1.793  16.279  0.1942  0.0464 -0.5023
12222DPPC   C2A15870   9.586   1.638  16.617  0.0092 -0.0246 -0.0911
12222DPPC   C3A15871   9.587   1.594  17.109  0.0692 -0.0560 -0.1708
12222DPPC   C4A15872   9.590   1.663  17.564  0.1824  0.1539  0.0832
12222DPPC   C1B15873  10.034   2.158  16.302 -0.3146 -0.0680 -0.2539
12222DPPC   C2B15874  10.290   2.227  16.590 -0.1234  0.1263  0.0018
12222DPPC   C3B15875  10.309   2.172  17.083  0.2262 -0.2487  0.0449
12222DPPC   C4B15876  10.253   2.187  17.595 -0.0724 -0.3932 -0.1461
12223DPPC   NC315877   9.845   0.646  15.701 -0.1149 -0.5200 -0.3000
12223DPPC   PO415878   9.875   1.043  15.792 -0.1251  0.1535  0.0155
12223DPPC   GL115879  10.148   1.212  16.056 -0.3336  0.0184 -0.3593
12223DPPC   GL215880  10.310   1.007  16.213 -0.3791 -0.3217 -0.0322
12223DPPC   C1A15881   9.998   1.342  16.377 -0.2668 -0.0114 -0.2347
12223DPPC   C2A15882   9.968   1.260  16.798  0.1188 -0.3650  0.0857
12223DPPC   C3A15883   9.909   1.245  17.284 -0.0087 -0.0832 -0.0986
12223DPPC   C4A15884   9.869   1.223  17.795 -0.0647 -0.1069 -0.1030
12223DPPC   C1B15885  10.233   0.905  16.581 -0.0972 -0.0532 -0.3200
12223DPPC   C2B15886  10.160   0.846  16.946  0.3725 -0.0164  0.0793
12223DPPC   C3B15887  10.144   0.848  17.452  0.1026 -0.0479  0.0681
12223DPPC   C4B15888  10.189   0.904  17.987  0.2845 -0.0087  0.2713
12224DPPC   NC315889  12.918   4.781  16.042  0.0052 -0.0527  0.2863
12224DPPC   PO415890  13.016   4.354  16.072 -0.3007  0.1593  0.2948
12224DPPC   GL115891  12.946   4.077  16.345  0.0100 -0.1202  0.4383
12224DPPC   GL215892  12.981   4.312  16.551 -0.3943 -0.0175  0.1376
12224DPPC   C1A15893  12.671   3.940  16.555 -0.1717 -0.1616 -0.5749
12224DPPC   C2A15894  12.789   3.891  16.963  0.0618 -0.2134 -0.2050
12224DPPC   C3A15895  12.708   3.853  17.492  0.1119  0.2282  0.0393
12224DPPC   C4A15896  12.654   3.855  18.027  0.3904  0.0848  0.0950
12224DPPC   C1B15897  12.971   4.321  16.870 -0.0980 -0.1092 -0.3013
12224DPPC   C2B15898  12.941   4.345  17.301  0.0984 -0.2583 -0.0418
12224DPPC   C3B15899  12.860   4.318  17.774 -0.1900 -0.2269  0.4003
12224DPPC   C4B15900  12.829   4.433  18.243  0.2065 -0.4388 -0.0414
12225DPPC   NC315901   9.222   5.290  15.738 -0.0463 -0.2636  0.0347
12225DPPC   PO415902   8.900   5.380  15.897  0.1848  0.3638 -0.1003
12225DPPC   GL115903   8.638   5.503  16.189  0.3626  0.1167 -0.2031
12225DPPC   GL215904   8.587   5.788  16.134 -0.3649  0.2705 -0.0644
12225DPPC   C1A15905   8.707   5.496  16.557  0.2116  0.0453 -0.0798
12225DPPC   C2A15906   8.680   5.340  17.004  0.2244 -0.2334  0.0008
12225DPPC   C3A15907   8.663   5.409  17.504  0.0620  0.1735  0.0684
12225DPPC   C4A15908   8.727   5.487  17.976 -0.0309  0.1487  0.0673
12225DPPC   C1B15909   8.361   5.860  16.414 -0.0278 -0.2605  0.0213
12225DPPC   C2B15910   8.394   5.714  16.791  0.0628 -0.0139 -0.1352
12225DPPC   C3B15911   8.327   5.693  17.275 -0.0298 -0.0071 -0.0835
12225DPPC   C4B15912   8.292   5.767  17.726 -0.0617  0.0167 -0.1573
12226DPPC   NC315913   7.687   2.360  15.381  0.2465  0.0764 -0.0782
12226DPPC   PO415914   7.452   2.562  15.633  0.0813  0.2628 -0.0599
12226DPPC   GL115915   7.714   2.907  15.816  0.4679 -0.0944  0.1306
12226DPPC   GL215916   7.764   2.562  15.950  0.0531 -0.2720 -0.1724
12226DPPC   C1A15917   7.519   3.032  16.126 -0.3212  0.0160 -0.0301
12226DPPC   C2A15918   7.401   2.923  16.523 -0.1615  0.0788  0.1286
12226DPPC   C3A15919   7.398   2.927  17.002  0.2468  0.1398  0.1872
12226DPPC   C4A15920   7.317   2.963  17.474  0.1075 -0.1212 -0.0679
12226DPPC   C1B15921   7.668   2.600  16.320 -0.4388  0.0679 -0.0979
12226DPPC   C2B15922   7.632   2.524  16.727  0.1768  0.0493 -0.0091
12226DPPC   C3B15923   7.660   2.502  17.225  0.2113 -0.2239  0.0975
12226DPPC   C4B15924   7.681   2.611  17.703  0.1752 -0.1422 -0.0223
12227DPPC   NC315925  10.218   5.329  15.886 -0.0766  0.0578 -0.1366
12227DPPC   PO415926  10.226   4.935  15.762 -0.1344 -0.1771  0.1421
12227DPPC   GL115927  10.273   4.716  16.067 -0.0128  0.0477  0.1795
12227DPPC   GL215928  10.176   4.466  16.102 -0.0417  0.0665 -0.0369
12227DPPC   C1A15929  10.250   4.933  16.391  0.1323  0.3701 -0.0418
12227DPPC   C2A15930  10.293   4.941  16.829 -0.1763  0.1922 -0.1314
12227DPPC   C3A15931  10.254   4.877  17.342 -0.0521 -0.0960 -0.0424
12227DPPC   C4A15932  10.234   4.931  17.830 -0.1748  0.0822  0.2183
12227DPPC   C1B15933  10.158   4.485  16.487  0.0658 -0.1625 -0.1865
12227DPPC   C2B15934  10.152   4.430  16.928 -0.2162  0.0163  0.2476
12227DPPC   C3B15935  10.075   4.355  17.363 -0.0315 -0.0477 -0.3131
12227DPPC   C4B15936  10.069   4.431  17.856  0.0679 -0.2704 -0.1580
12228DPPC   NC315937  11.925   4.246  15.435  0.0510 -0.0151 -0.3076
12228DPPC   PO415938  12.137   4.164  15.734 -0.2822 -0.1229  0.0021
12228DPPC   GL115939  12.141   3.982  16.011  0.1563  0.0435 -0.1294
12228DPPC   GL215940  11.891   3.966  16.139 -0.1649  0.1469  0.1835
12228DPPC   C1A15941  12.321   3.886  16.333  0.0010 -0.1053  0.0460
12228DPPC   C2A15942  12.287   3.768  16.740  0.2772  0.2807  0.2527
12228DPPC   C3A15943  12.235   3.834  17.211 -0.0961 -0.0966  0.0512
12228DPPC   C4A15944  12.212   3.934  17.732 -0.0079 -0.3176  0.1033
12228DPPC   C1B15945  11.892   3.780  16.384  0.2548 -0.0180  0.0731
12228DPPC   C2B15946  11.772   3.757  16.788  0.1191  0.0098 -0.1637
12228DPPC   C3B15947  11.765   3.734  17.324  0.1398 -0.2155 -0.0657
12228DPPC   C4B15948  11.658   3.712  17.815  0.0739 -0.0483 -0.1024
12229DPPC   NC315949   7.966   5.576  15.279  0.1941 -0.2125  0.0975
12229DPPC   PO415950   7.963   5.237  15.510  0.1445  0.0257 -0.1439
12229DPPC   GL115951   7.919   5.412  15.843 -0.2199  0.2893  0.1164
12229DPPC   GL215952   7.728   5.402  16.020  0.0239 -0.5138 -0.4554
12229DPPC   C1A15953   8.124   5.297  16.116 -0.6192  0.0428 -0.2594
12229DPPC   C2A15954   8.192   5.354  16.538 -0.1485  0.0629  0.0657
12229DPPC   C3A15955   8.163   5.266  17.025  0.2402  0.0108 -0.0541
12229DPPC   C4A15956   8.201   5.254  17.493  0.1736 -0.0780  0.0675
12229DPPC   C1B15957   7.736   5.395  16.351 -0.0968  0.2505  0.0160
12229DPPC   C2B15958   7.746   5.255  16.735  0.0155  0.2059 -0.2551
12229DPPC   C3B15959   7.719   5.221  17.223 -0.3176 -0.2971  0.0306
12229DPPC   C4B15960   7.653   5.203  17.677 -0.2007 -0.2632 -0.1522
12230DPPC   NC315961   9.116   1.459  15.869  0.1303 -0.1432  0.0656
12230DPPC   PO415962   8.977   1.822  15.816 -0.1564 -0.1135 -0.1172
12230DPPC   GL115963   9.171   2.037  16.151  0.0617  0.0152 -0.0219
12230DPPC   GL215964   9.422   2.031  16.044  0.1762 -0.0981 -0.2038
12230DPPC   C1A15965   9.311   1.959  16.524 -0.1539 -0.0823  0.4167
12230DPPC   C2A15966   9.317   1.988  16.909 -0.1538  0.2833  0.2161
12230DPPC   C3A15967   9.330   2.019  17.392 -0.3891 -0.2601 -0.0676
12230DPPC   C4A15968   9.199   2.055  17.827 -0.0845  0.0004  0.0051
12230DPPC   C1B15969   9.618   2.201  16.334  0.1295  0.0589 -0.2137
12230DPPC   C2B15970   9.770   2.136  16.681  0.1001  0.2569 -0.3274
12230DPPC   C3B15971   9.774   2.134  17.197 -0.0147  0.2428  0.4485
12230DPPC   C4B15972   9.707   2.137  17.661 -0.0565 -0.3297 -0.1731
12231DPPC   NC315973   7.683   4.856  15.844 -0.1917  0.0820  0.1870
12231DPPC   PO415974   7.413   5.159  15.847 -0.3347 -0.1425  0.2925
12231DPPC   GL115975   7.313   5.541  16.023 -0.1522 -0.0520 -0.1473
12231DPPC   GL215976   7.400   5.782  15.921  0.1256  0.0100  0.0576
12231DPPC   C1A15977   7.364   5.639  16.415 -0.3532  0.0973 -0.1893
12231DPPC   C2A15978   7.365   5.593  16.834 -0.0121  0.3940  0.1788
12231DPPC   C3A15979   7.349   5.601  17.351 -0.0946 -0.0914 -0.1657
12231DPPC   C4A15980   7.368   5.626  17.837 -0.1833 -0.1967 -0.1660
12231DPPC   C1B15981   7.532   6.036  16.169  0.1387  0.0965 -0.1390
12231DPPC   C2B15982   7.552   5.994  16.621 -0.2302  0.0293  0.2574
12231DPPC   C3B15983   7.489   6.067  17.126  0.0926 -0.2414  0.1265
12231DPPC   C4B15984   7.547   6.049  17.577 -0.1119  0.1118  0.3229
12232DPPC   NC315985  12.367   5.783  15.383 -0.1319  0.1428 -0.0604
12232DPPC   PO415986  12.081   5.896  15.621  0.1518 -0.1128 -0.2679
12232DPPC   GL115987  12.104   5.975  16.157  0.0500  0.3471  0.0433
12232DPPC   GL215988  11.977   5.703  16.152  0.3930 -0.0300  0.1547
12232DPPC   C1A15989  12.066   6.049  16.523 -0.1786 -0.0970  0.0653
12232DPPC   C2A15990  12.109   6.058  16.955  0.0515 -0.2637 -0.1619
12232DPPC   C3A15991  12.061   6.064  17.410 -0.0915  0.0975 -0.0985
12232DPPC   C4A15992  12.116   6.051  17.928  0.1017  0.0215 -0.0429
12232DPPC   C1B15993  11.838   5.615  16.543  0.2384  0.1252 -0.2475
12232DPPC   C2B15994  11.911   5.631  17.056  0.1459 -0.0795 -0.0100
12232DPPC   C3B15995  11.867   5.536  17.529 -0.0975  0.1961 -0.1431
12232DPPC   C4B15996  11.946   5.578  18.049 -0.2330  0.3189 -0.1102
12233DPPC   NC315997   7.774   1.456  15.409 -0.1512 -0.1234  0.1276
12233DPPC   PO415998   8.018   1.151  15.337 -0.2440  0.0535  0.0168
12233DPPC   GL115999   8.166   1.232  15.736  0.1662 -0.0481 -0.3097
12233DPPC   GL216000   7.837   1.228  15.817 -0.1591 -0.1054  0.1643
12233DPPC   C1A16001   8.221   1.346  16.072 -0.0896  0.0426 -0.3994
12233DPPC   C2A16002   8.200   1.392  16.508  0.4283  0.1774  0.1442
12233DPPC   C3A16003   8.166   1.418  16.968 -0.1496 -0.0237 -0.2202
12233DPPC   C4A16004   8.079   1.350  17.479 -0.1745  0.1569 -0.0758
12233DPPC   C1B16005   7.715   1.280  16.201 -0.3129  0.1786  0.3863
12233DPPC   C2B16006   7.704   1.217  16.623 -0.0465  0.3221  0.3929
12233DPPC   C3B16007   7.727   1.283  17.159  0.0148  0.0336  0.4818
12233DPPC   C4B16008   7.669   1.188  17.662 -0.0849  0.0176  0.0486
12234DPPC   NC316009  12.269   0.604  15.817  0.1066 -0.1181  0.0184
12234DPPC   PO416010  12.554   0.566  16.028 -0.2366 -0.3153 -0.0626
12234DPPC   GL116011  12.540   0.879  16.270 -0.1943 -0.2557  0.1910
12234DPPC   GL216012  12.380   1.112  16.216  0.2790  0.2782  0.0373
12234DPPC   C1A16013  12.446   0.765  16.639 -0.2606 -0.0766  0.2369
12234DPPC   C2A16014  12.596   0.834  17.006  0.0143  0.2583 -0.0915
12234DPPC   C3A16015  12.594   0.881  17.527 -0.4822 -0.1602 -0.2246
12234DPPC   C4A16016  12.506   0.896  18.020 -0.0852 -0.0126 -0.0432
12234DPPC   C1B16017  12.227   1.176  16.527  0.1660 -0.2481 -0.1241
12234DPPC   C2B16018  12.221   1.157  16.928  0.0514  0.1418 -0.1281
12234DPPC   C3B16019  12.192   1.221  17.393  0.0991  0.1866  0.0135
12234DPPC   C4B16020  12.188   1.289  17.882  0.4373 -0.1094  0.0256
12235DPPC   NC316021  11.285   6.520  16.026 -0.3445  0.0296 -0.0990
12235DPPC   PO416022  11.147   6.847  15.892  0.1981  0.0555  0.2394
12235DPPC   GL116023  10.888   6.798  16.141 -0.0891 -0.2539  0.0622
12235DPPC   GL216024  10.629   6.672  16.148 -0.1182 -0.0730 -0.1135
12235DPPC   C1A16025  10.970   6.811  16.485 -0.0842 -0.1390 -0.4531
12235DPPC   C2A16026  10.871   6.724  16.907 -0.0458  0.0028 -0.2795
12235DPPC   C3A16027  10.889   6.737  17.356 -0.1086 -0.2403 -0.1978
12235DPPC   C4A16028  10.945   6.704  17.806  0.0923 -0.0910  0.1105
12235DPPC   C1B16029  10.461   6.652  16.449 -0.0616  0.1338 -0.2768
12235DPPC   C2B16030  10.401   6.629  16.885 -0.0152 -0.1067 -0.1373
12235DPPC   C3B16031  10.416   6.587  17.371  0.0966 -0.1610  0.0701
12235DPPC   C4B16032  10.462   6.641  17.902  0.1174 -0.3100  0.2221
12236DPPC   NC316033  13.361   1.215  16.278 -0.0617  0.0173  0.3703
12236DPPC   PO416034  13.619   1.448  16.161 -0.2020 -0.0035  0.0867
12236DPPC   GL116035  13.832   1.351  16.536 -0.2442 -0.1183 -0.0266
12236DPPC   GL216036  13.952   1.627  16.463 -0.1342  0.1841  0.1122
12236DPPC   C1A16037  13.670   1.346  16.901  0.2699 -0.3110  0.2888
12236DPPC   C2A16038  13.649   1.469  17.338  0.0502 -0.3022 -0.1551
12236DPPC   C3A16039  13.654   1.461  17.836  0.0554  0.3499  0.1610
12236DPPC   C4A16040  13.582   1.389  18.358 -0.0818 -0.0789  0.0662
12236DPPC   C1B16041  13.838   1.818  16.717 -0.0782 -0.1944 -0.0995
12236DPPC   C2B16042  13.789   1.897  17.087 -0.0851 -0.0462  0.0270
12236DPPC   C3B16043  13.760   1.907  17.569 -0.1883 -0.0370  0.1149
12236DPPC   C4B16044  13.813   1.852  18.057 -0.5384  0.1157  0.0458
12237DPPC   NC316045  12.339   6.531  15.276  0.0312 -0.0059 -0.3279
12237DPPC   PO416046  12.470   6.253  15.518  0.1052 -0.1156 -0.3755
12237DPPC   GL116047  12.479   6.352  15.961  0.4636 -0.1427  0.0735
12237DPPC   GL216048  12.513   6.097  15.956  0.0028  0.0230  0.0680
12237DPPC   C1A16049  12.281   6.390  16.304  0.2332  0.3896  0.0037
12237DPPC   C2A16050  12.225   6.491  16.699 -0.2903  0.1557 -0.1988
12237DPPC   C3A16051  12.228   6.556  17.176  0.0410  0.0752 -0.2356
12237DPPC   C4A16052  12.167   6.611  17.666  0.2387  0.1887 -0.2309
12237DPPC   C1B16053  12.538   6.017  16.304 -0.2949 -0.0184  0.1352
12237DPPC   C2B16054  12.629   6.040  16.712  0.1431 -0.1853  0.0226
12237DPPC   C3B16055  12.577   6.110  17.234  0.1476  0.4092 -0.2384
12237DPPC   C4B16056  12.502   6.162  17.658  0.0623  0.0708 -0.0008
12238DPPC   NC316057  11.467   3.028  15.142  0.0450 -0.1358 -0.1804
12238DPPC   PO416058  11.537   3.295  15.406  0.0944 -0.1488  0.0882
12238DPPC   GL116059  11.643   3.239  15.835 -0.0235  0.1847 -0.2371
12238DPPC   GL216060  11.737   3.437  15.897 -0.2351 -0.1886  0.0502
12238DPPC   C1A16061  11.503   3.021  16.169  0.4056  0.1947  0.0391
12238DPPC   C2A16062  11.459   2.767  16.521 -0.2895 -0.0401  0.0210
12238DPPC   C3A16063  11.438   2.772  17.001  0.0602 -0.1005 -0.2137
12238DPPC   C4A16064  11.363   2.847  17.482 -0.2051  0.1003 -0.1055
12238DPPC   C1B16065  11.711   3.369  16.260  0.1576  0.2999 -0.2993
12238DPPC   C2B16066  11.576   3.267  16.692 -0.0323  0.0376 -0.1480
12238DPPC   C3B16067  11.560   3.288  17.142 -0.1419 -0.1969 -0.3033
12238DPPC   C4B16068  11.567   3.269  17.588 -0.0547  0.1002 -0.1362
12239DPPC   NC316069   8.941   0.484  15.624 -0.1615 -0.1945  0.0816
12239DPPC   PO416070   8.687   0.237  15.433  0.1537  0.0438  0.0933
12239DPPC   GL116071   8.321   0.092  15.656  0.0240  0.1701 -0.3104
12239DPPC   GL216072   8.513   0.023  15.808  0.0090 -0.0135 -0.1122
12239DPPC   C1A16073   8.184   0.319  15.854 -0.0782  0.0972 -0.1212
12239DPPC   C2A16074   7.946   0.529  16.093  0.0211  0.0393 -0.0575
12239DPPC   C3A16075   7.823   0.365  16.573 -0.4284 -0.1470  0.1095
12239DPPC   C4A16076   7.845   0.396  17.057 -0.0842  0.2972 -0.1958
12239DPPC   C1B16077   8.696   0.144  16.123 -0.3831  0.0836  0.1073
12239DPPC   C2B16078   8.656   0.123  16.528  0.0716 -0.1341 -0.0565
12239DPPC   C3B16079   8.641   0.115  17.048 -0.0291  0.0844  0.4586
12239DPPC   C4B16080   8.596   0.025  17.607 -0.2927 -0.1732 -0.1814
12240DPPC   NC316081   8.159   1.717  15.836 -0.2213 -0.1205  0.1042
12240DPPC   PO416082   8.051   2.088  15.653 -0.0431  0.1651  0.4947
12240DPPC   GL116083   8.117   2.299  16.022 -0.1752 -0.0105  0.2026
12240DPPC   GL216084   8.195   2.124  16.160 -0.3109 -0.0326  0.0601
12240DPPC   C1A16085   8.112   2.539  16.287  0.1799  0.4717 -0.0810
12240DPPC   C2A16086   8.159   2.638  16.673 -0.0667  0.0513  0.1110
12240DPPC   C3A16087   8.227   2.663  17.145  0.2355  0.2495  0.0577
12240DPPC   C4A16088   8.188   2.625  17.603  0.1214  0.0097 -0.0300
12240DPPC   C1B16089   8.110   2.233  16.544  0.4410  0.1765  0.0634
12240DPPC   C2B16090   8.084   2.214  16.988  0.0881 -0.2532 -0.0899
12240DPPC   C3B16091   7.993   2.201  17.411  0.0995  0.1076 -0.0075
12240DPPC   C4B16092   7.976   2.228  17.929  0.0975 -0.0288  0.0984
12241DPPC   NC316093   6.981   2.405  15.594 -0.0022  0.1658 -0.0829
12241DPPC   PO416094   6.819   2.076  15.570 -0.1999  0.1291  0.1669
12241DPPC   GL116095   6.764   1.986  15.992  0.2827 -0.0288 -0.0157
12241DPPC   GL216096   7.033   2.107  15.924  0.0472 -0.1028 -0.0246
12241DPPC   C1A16097   6.538   1.935  16.264  0.1244 -0.1550 -0.4423
12241DPPC   C2A16098   6.564   1.868  16.690 -0.0360  0.3019  0.0123
12241DPPC   C3A16099   6.592   1.856  17.218 -0.3957 -0.0307 -0.5084
12241DPPC   C4A16100   6.553   1.859  17.706  0.3717 -0.0111  0.0392
12241DPPC   C1B16101   7.106   2.106  16.286 -0.1075 -0.0763 -0.1464
12241DPPC   C2B16102   7.158   1.960  16.670  0.0948 -0.3837 -0.1429
12241DPPC   C3B16103   7.092   1.928  17.183  0.2116  0.0409 -0.1827
12241DPPC   C4B16104   7.053   2.026  17.687 -0.1703  0.1653 -0.0284
12242DPPC   NC316105  11.368   1.557  16.229  0.0782 -0.2676  0.1014
12242DPPC   PO416106  11.163   1.669  15.931  0.0530 -0.1128  0.1303
12242DPPC   GL116107  10.927   1.736  16.329  0.2545  0.2053  0.1687
12242DPPC   GL216108  11.095   1.967  16.357  0.3879  0.0601  0.1192
12242DPPC   C1A16109  10.886   1.454  16.554 -0.2606 -0.2503  0.0046
12242DPPC   C2A16110  10.826   1.468  16.956  0.1568  0.1422  0.0179
12242DPPC   C3A16111  10.789   1.416  17.452  0.2066 -0.1321  0.0736
12242DPPC   C4A16112  10.849   1.396  17.949 -0.0713  0.0652 -0.1478
12242DPPC   C1B16113  11.110   1.909  16.703  0.2213  0.1376 -0.2074
12242DPPC   C2B16114  11.087   1.845  17.081  0.1211  0.1632 -0.0146
12242DPPC   C3B16115  11.027   1.902  17.565 -0.0198  0.1246 -0.0102
12242DPPC   C4B16116  10.950   1.919  18.090  0.0543  0.0417 -0.1972
12243DPPC   NC316117   8.405   2.449  15.685  0.1752 -0.0631  0.2237
12243DPPC   PO416118   8.559   2.821  15.658 -0.2003 -0.1463  0.1500
12243DPPC   GL116119   8.319   2.938  16.007  0.0115  0.1254 -0.2043
12243DPPC   GL216120   8.550   2.755  16.134  0.0680 -0.0128  0.3393
12243DPPC   C1A16121   8.356   3.176  16.365 -0.2127  0.0750  0.1683
12243DPPC   C2A16122   8.295   3.164  16.771  0.2427 -0.1036  0.1579
12243DPPC   C3A16123   8.366   3.155  17.246  0.0135 -0.0312 -0.0674
12243DPPC   C4A16124   8.334   3.140  17.788  0.2568 -0.2756 -0.3512
12243DPPC   C1B16125   8.662   2.864  16.456  0.4020  0.1851 -0.2354
12243DPPC   C2B16126   8.594   2.788  16.869 -0.0703  0.0679  0.0567
12243DPPC   C3B16127   8.657   2.789  17.348  0.1973  0.0890 -0.3363
12243DPPC   C4B16128   8.617   2.775  17.842 -0.1495  0.0903 -0.1639
12244DPPC   NC316129  12.015   6.337  15.879  0.3721  0.0692 -0.2007
12244DPPC   PO416130  11.648   6.214  15.921 -0.1407 -0.0086  0.1516
12244DPPC   GL116131  11.667   5.930  16.366  0.2950  0.0521  0.1250
12244DPPC   GL216132  11.509   5.732  16.244 -0.0436  0.0097  0.4972
12244DPPC   C1A16133  11.558   5.958  16.722  0.2685 -0.1460 -0.2158
12244DPPC   C2A16134  11.580   6.002  17.156  0.2770 -0.2206 -0.1933
12244DPPC   C3A16135  11.550   5.987  17.634  0.0480  0.0597 -0.1676
12244DPPC   C4A16136  11.638   5.996  18.148  0.0414  0.0490  0.3063
12244DPPC   C1B16137  11.360   5.560  16.528 -0.1341  0.1286 -0.2675
12244DPPC   C2B16138  11.439   5.524  16.915  0.0696 -0.1990  0.1330
12244DPPC   C3B16139  11.392   5.465  17.392 -0.0523 -0.1417 -0.0110
12244DPPC   C4B16140  11.474   5.519  17.849  0.3176 -0.1803 -0.2297
12245DPPC   NC316141  10.700   0.296  15.721  0.5849  0.1174 -0.0329
12245DPPC   PO416142  10.802  -0.051  15.619 -0.0342  0.0685 -0.0590
12245DPPC   GL116143  10.801  -0.341  15.959  0.3661  0.3098 -0.0466
12245DPPC   GL216144  10.496  -0.434  15.942  0.1307  0.0743 -0.0553
12245DPPC   C1A16145  10.863  -0.279  16.313 -0.2277 -0.1363  0.1176
12245DPPC   C2A16146  10.851  -0.388  16.713 -0.0755 -0.0612 -0.2087
12245DPPC   C3A16147  10.784  -0.390  17.165  0.1430  0.0113 -0.3300
12245DPPC   C4A16148  10.764  -0.359  17.671 -0.0346 -0.0490 -0.0907
12245DPPC   C1B16149  10.330  -0.501  16.252 -0.1431  0.2302  0.3877
12245DPPC   C2B16150  10.346  -0.466  16.608  0.3357 -0.1501  0.2727
12245DPPC   C3B16151  10.237  -0.462  17.127  0.1238  0.3837 -0.1840
12245DPPC   C4B16152  10.331  -0.461  17.605  0.1025  0.1276 -0.2115
12246DPPC   NC316153  12.058   3.721  15.606 -0.2082  0.0534  0.0991
12246DPPC   PO416154  12.378   3.627  15.819  0.0893 -0.1173 -0.1525
12246DPPC   GL116155  12.425   3.474  16.155  0.2576  0.1175 -0.1457
12246DPPC   GL216156  12.128   3.482  16.186  0.5869 -0.0301 -0.2528
12246DPPC   C1A16157  12.534   3.428  16.478  0.2446  0.0218  0.0206
12246DPPC   C2A16158  12.584   3.385  16.910 -0.2837 -0.1629  0.0702
12246DPPC   C3A16159  12.594   3.361  17.351  0.3351 -0.0067  0.1125
12246DPPC   C4A16160  12.532   3.431  17.776 -0.1402 -0.0332 -0.2115
12246DPPC   C1B16161  12.111   3.381  16.538 -0.1524  0.3675 -0.1209
12246DPPC   C2B16162  12.081   3.379  16.976  0.2868 -0.1536  0.2571
12246DPPC   C3B16163  12.093   3.401  17.465  0.1028 -0.2500  0.2103
12246DPPC   C4B16164  12.030   3.403  17.965 -0.1911 -0.1957 -0.0077
12247DPPC   NC316165  12.583   4.058  15.938 -0.1448  0.0933 -0.2590
12247DPPC   PO416166  12.546   4.431  15.887  0.0897 -0.1955 -0.0935
12247DPPC   GL116167  12.605   4.414  16.232  0.0830 -0.2816 -0.1876
12247DPPC   GL216168  12.666   4.617  16.353 -0.4614 -0.2814 -0.1201
12247DPPC   C1A16169  12.470   4.304  16.542 -0.3263  0.1073  0.0246
12247DPPC   C2A16170  12.447   4.228  16.933  0.1481 -0.1111 -0.0971
12247DPPC   C3A16171  12.417   4.256  17.454 -0.1274 -0.1605  0.2421
12247DPPC   C4A16172  12.373   4.333  17.942  0.0318 -0.1960  0.1038
12247DPPC   C1B16173  12.669   4.645  16.707  0.0395  0.1683  0.2309
12247DPPC   C2B16174  12.614   4.685  17.114  0.2395  0.1683 -0.4242
12247DPPC   C3B16175  12.540   4.762  17.547 -0.1486  0.0069 -0.0121
12247DPPC   C4B16176  12.565   4.813  18.035 -0.1249 -0.0085  0.1251
12248DPPC   NC316177  10.573   1.022  15.833  0.2892  0.0231 -0.1519
12248DPPC   PO416178  10.314   0.773  15.722 -0.2216 -0.0822  0.4554
12248DPPC   GL116179  10.130   0.632  16.053 -0.3544  0.0476  0.1168
12248DPPC   GL216180  10.310   0.381  16.109 -0.1984  0.2192 -0.1084
12248DPPC   C1A16181   9.868   0.722  16.295  0.0524 -0.3016 -0.0389
12248DPPC   C2A16182   9.747   0.768  16.704 -0.4393 -0.1175 -0.0359
12248DPPC   C3A16183   9.710   0.788  17.200 -0.2870 -0.0117  0.0381
12248DPPC   C4A16184   9.697   0.773  17.682 -0.0767 -0.1021 -0.0652
12248DPPC   C1B16185  10.178   0.331  16.445  0.1061 -0.0740 -0.0169
12248DPPC   C2B16186  10.081   0.389  16.842  0.0732 -0.2277  0.2255
12248DPPC   C3B16187  10.089   0.390  17.294  0.3689 -0.0777  0.0466
12248DPPC   C4B16188  10.069   0.418  17.764  0.2250  0.0085  0.0765
12249DPPC   NC316189  12.481   4.982  15.796  0.2850  0.1398 -0.1569
12249DPPC   PO416190  12.675   5.229  16.045  0.0202  0.3174  0.4215
12249DPPC   GL116191  12.898   5.350  16.399 -0.0486 -0.1144 -0.1156
12249DPPC   GL216192  12.860   5.028  16.502  0.0415 -0.1826 -0.2535
12249DPPC   C1A16193  12.913   5.558  16.737  0.1290  0.0642 -0.2710
12249DPPC   C2A16194  12.861   5.720  17.090  0.0278 -0.2255 -0.1211
12249DPPC   C3A16195  12.870   5.714  17.548 -0.0985  0.0234  0.3531
12249DPPC   C4A16196  12.810   5.685  18.064  0.1376 -0.0180 -0.0623
12249DPPC   C1B16197  12.698   5.204  16.761 -0.0160  0.2162  0.1106
12249DPPC   C2B16198  12.744   5.235  17.221  0.0715 -0.1705 -0.1875
12249DPPC   C3B16199  12.687   5.279  17.723  0.1109  0.4917 -0.3289
12249DPPC   C4B16200  12.639   5.264  18.261 -0.2971  0.0431 -0.3422
12250DPPC   NC316201   9.212   4.007  15.533  0.0630 -0.0994 -0.4801
12250DPPC   PO416202   8.943   4.197  15.734  0.0275 -0.1833  0.1409
12250DPPC   GL116203   8.752   4.123  16.234 -0.0390 -0.1022  0.5483
12250DPPC   GL216204   8.988   4.346  16.227 -0.1412  0.2110 -0.1467
12250DPPC   C1A16205   8.722   4.047  16.583 -0.0206 -0.0864 -0.2074
12250DPPC   C2A16206   8.662   4.057  16.992 -0.0214  0.0872 -0.1521
12250DPPC   C3A16207   8.680   4.120  17.483  0.1075 -0.4086 -0.5647
12250DPPC   C4A16208   8.618   4.087  17.943 -0.0079  0.0664 -0.4157
12250DPPC   C1B16209   9.186   4.223  16.499 -0.0789  0.2058 -0.0063
12250DPPC   C2B16210   9.222   4.176  16.886 -0.1494  0.1751  0.0859
12250DPPC   C3B16211   9.158   4.116  17.346  0.2028 -0.1232  0.1540
12250DPPC   C4B16212   9.119   4.146  17.836 -0.0437 -0.1084 -0.0066
12251DPPC   NC316213   9.436   1.026  15.649  0.0508 -0.0632  0.1078
12251DPPC   PO416214   9.361   0.685  15.484  0.0183  0.1032 -0.2859
12251DPPC   GL116215   9.348   0.562  15.856 -0.0489 -0.0004  0.2200
12251DPPC   GL216216   9.529   0.760  16.014 -0.2523  0.0148 -0.1372
12251DPPC   C1A16217   9.073   0.534  16.078  0.4219  0.2890 -0.1362
12251DPPC   C2A16218   8.892   0.609  16.427 -0.1562 -0.0958 -0.0575
12251DPPC   C3A16219   8.808   0.653  16.903 -0.2053 -0.1328 -0.1633
12251DPPC   C4A16220   8.733   0.565  17.351  0.4731 -0.3644  0.0559
12251DPPC   C1B16221   9.428   0.691  16.357  0.1153 -0.0493  0.2202
12251DPPC   C2B16222   9.287   0.688  16.735 -0.0753  0.1904 -0.2535
12251DPPC   C3B16223   9.253   0.680  17.221  0.2409  0.0929  0.1266
12251DPPC   C4B16224   9.188   0.633  17.709 -0.0174  0.1011 -0.1412
12252DPPC   NC316225  10.083   0.203  15.074  0.0497 -0.2437 -0.0220
12252DPPC   PO416226  10.087   0.307  15.438 -0.2695  0.1577 -0.0525
12252DPPC   GL116227   9.905   0.123  15.726 -0.0947  0.1369  0.0658
12252DPPC   GL216228  10.157   0.019  15.833  0.4344 -0.1695 -0.2090
12252DPPC   C1A16229   9.763   0.237  16.030 -0.0369 -0.3851  0.4560
12252DPPC   C2A16230   9.659   0.334  16.394  0.0699  0.3802 -0.1224
12252DPPC   C3A16231   9.613   0.315  16.853 -0.2646 -0.1227 -0.2959
12252DPPC   C4A16232   9.613   0.319  17.339 -0.0383  0.2171 -0.4010
12252DPPC   C1B16233  10.102  -0.107  16.185  0.3758 -0.1644  0.0662
12252DPPC   C2B16234  10.011  -0.109  16.619  0.0061 -0.2581  0.3499
12252DPPC   C3B16235   9.925  -0.019  17.116  0.1090  0.1701 -0.0758
12252DPPC   C4B16236   9.954  -0.066  17.614  0.0910  0.0049  0.0114
12253DPPC   NC316237  12.929   0.777  15.721 -0.1488 -0.3794  0.1864
12253DPPC   PO416238  13.021   0.414  15.820  0.1211  0.2395  0.2258
12253DPPC   GL116239  13.068   0.460  16.213 -0.1498  0.2128  0.0926
12253DPPC   GL216240  12.894   0.654  16.312 -0.0777  0.1223  0.0398
12253DPPC   C1A16241  13.053   0.211  16.544  0.0224 -0.2697  0.2430
12253DPPC   C2A16242  13.176   0.102  16.894  0.1129 -0.2784  0.1191
12253DPPC   C3A16243  13.157   0.081  17.368 -0.0901  0.2711  0.0816
12253DPPC   C4A16244  13.122   0.120  17.836  0.0682  0.2711 -0.0673
12253DPPC   C1B16245  12.837   0.593  16.703 -0.1907  0.2122 -0.0700
12253DPPC   C2B16246  12.932   0.494  17.115 -0.2317  0.1734 -0.0940
12253DPPC   C3B16247  12.839   0.473  17.612 -0.0176 -0.0147  0.0893
12253DPPC   C4B16248  12.851   0.442  18.071 -0.0850  0.0257  0.2231
12254DPPC   NC316249   7.516   1.711  14.946  0.0955 -0.0374 -0.1246
12254DPPC   PO416250   7.769   1.897  15.235  0.1115 -0.1037 -0.0763
12254DPPC   GL116251   7.623   1.842  15.642  0.0369  0.2434  0.1453
12254DPPC   GL216252   7.534   2.109  15.710  0.1152 -0.3615 -0.1799
12254DPPC   C1A16253   7.697   1.632  15.971  0.1007 -0.0751 -0.2089
12254DPPC   C2A16254   7.916   1.786  16.266 -0.2264 -0.0950  0.0329
12254DPPC   C3A16255   7.853   1.776  16.729  0.3185 -0.0807 -0.0489
12254DPPC   C4A16256   7.799   1.809  17.219  0.1530 -0.0890 -0.0293
12254DPPC   C1B16257   7.595   2.200  16.078  0.2718  0.2633  0.1734
12254DPPC   C2B16258   7.608   2.099  16.466  0.1150  0.2169 -0.0238
12254DPPC   C3B16259   7.513   2.126  16.964 -0.0750 -0.2000  0.0993
12254DPPC   C4B16260   7.461   2.094  17.465  0.4367  0.0920 -0.2164
12255DPPC   NC316261  12.657   1.511  15.943  0.2217  0.0486  0.3424
12255DPPC   PO416262  12.274   1.504  16.017 -0.0090 -0.2477  0.1032
12255DPPC   GL116263  12.098   1.595  16.440 -0.1863 -0.0738  0.0507
12255DPPC   GL216264  11.828   1.525  16.306  0.0529 -0.1321 -0.2290
12255DPPC   C1A16265  12.024   1.512  16.793  0.0102  0.1030  0.1454
12255DPPC   C2A16266  11.861   1.555  17.143  0.2085 -0.2208 -0.0716
12255DPPC   C3A16267  11.845   1.558  17.627  0.1143  0.2446  0.0337
12255DPPC   C4A16268  11.818   1.531  18.041 -0.3473 -0.2411 -0.3487
12255DPPC   C1B16269  11.624   1.498  16.603  0.1632  0.1446 -0.2891
12255DPPC   C2B16270  11.399   1.499  16.946  0.0880  0.0923  0.1384
12255DPPC   C3B16271  11.328   1.525  17.431 -0.0158  0.1611 -0.1006
12255DPPC   C4B16272  11.350   1.422  17.912  0.1892  0.1103  0.0798
12256DPPC   NC316273   9.523   6.031  15.502 -0.0546 -0.0752 -0.0998
12256DPPC   PO416274   9.289   5.789  15.674  0.1472  0.3554  0.4065
12256DPPC   GL116275   9.398   5.685  15.994  0.0167  0.4210  0.2301
12256DPPC   GL216276   9.189   5.565  16.175  0.2221 -0.1747  0.0733
12256DPPC   C1A16277   9.559   5.740  16.329  0.2531 -0.0033  0.0368
12256DPPC   C2A16278   9.635   5.635  16.739 -0.0226 -0.0686  0.0590
12256DPPC   C3A16279   9.567   5.654  17.208 -0.1751 -0.0792 -0.0574
12256DPPC   C4A16280   9.603   5.677  17.652  0.0755 -0.1544 -0.1943
12256DPPC   C1B16281   9.171   5.573  16.589 -0.0952 -0.0778 -0.0088
12256DPPC   C2B16282   9.133   5.519  16.988 -0.0549  0.2779  0.1990
12256DPPC   C3B16283   9.149   5.500  17.455  0.0647 -0.2991  0.1415
12256DPPC   C4B16284   9.198   5.586  17.896 -0.0594  0.3417 -0.1305
12257DPPC   NC316285   8.050   0.326  15.331  0.0052  0.1346 -0.2339
12257DPPC   PO416286   8.355   0.638  15.365 -0.0541 -0.1011  0.1879
12257DPPC   GL116287   8.472   0.764  15.721 -0.1369 -0.0806  0.1670
12257DPPC   GL216288   8.584   0.553  15.916 -0.1286 -0.1165 -0.1155
12257DPPC   C1A16289   8.279   0.888  16.035  0.2534 -0.1003  0.0493
12257DPPC   C2A16290   8.073   0.905  16.405  0.0526 -0.0949  0.1519
12257DPPC   C3A16291   7.993   0.930  16.921 -0.2269 -0.0742 -0.0645
12257DPPC   C4A16292   8.049   0.856  17.363 -0.2320 -0.1580  0.2350
12257DPPC   C1B16293   8.402   0.474  16.263 -0.0771 -0.0695 -0.2381
12257DPPC   C2B16294   8.293   0.513  16.632  0.0550 -0.1878  0.1268
12257DPPC   C3B16295   8.302   0.532  17.099  0.0022  0.0598 -0.0805
12257DPPC   C4B16296   8.314   0.418  17.588  0.1796 -0.0175  0.2291
12258DPPC   NC316297   7.727   0.744  15.251 -0.1042  0.1298  0.0445
12258DPPC   PO416298   7.511   1.090  15.207  0.1251 -0.1136 -0.1726
12258DPPC   GL116299   7.337   1.233  15.609 -0.0196 -0.1234 -0.1517
12258DPPC   GL216300   7.526   1.003  15.646  0.0105  0.1399  0.1873
12258DPPC   C1A16301   7.248   1.238  15.957 -0.3125  0.2587 -0.2118
12258DPPC   C2A16302   7.133   1.145  16.333 -0.0631 -0.1453 -0.0737
12258DPPC   C3A16303   7.194   1.140  16.786 -0.2654  0.1126  0.0394
12258DPPC   C4A16304   7.246   1.138  17.252 -0.0066 -0.0422 -0.3001
12258DPPC   C1B16305   7.616   0.894  16.001 -0.3991 -0.2689  0.4400
12258DPPC   C2B16306   7.541   0.763  16.385  0.1105 -0.0825 -0.3306
12258DPPC   C3B16307   7.553   0.739  16.853  0.0429 -0.1430  0.0063
12258DPPC   C4B16308   7.539   0.784  17.317  0.0952  0.1761 -0.1393
12259DPPA   PO416309  12.118   2.768  15.767  0.0477 -0.0819  0.2552
12259DPPA   GL116310  11.997   3.016  16.064  0.5141  0.0702 -0.0768
12259DPPA   GL216311  11.763   2.821  15.935 -0.1972  0.0562 -0.0472
12259DPPA   C1A16312  11.928   2.914  16.457 -0.1843 -0.1936 -0.2074
12259DPPA   C2A16313  11.874   2.851  16.877  0.1145  0.1621  0.1154
12259DPPA   C3A16314  11.863   2.918  17.313  0.1210  0.2067 -0.0456
12259DPPA   C4A16315  11.825   2.916  17.859  0.1438 -0.0090  0.2989
12259DPPA   C1B16316  11.805   2.594  16.247 -0.0608  0.1077 -0.2868
12259DPPA   C2B16317  11.773   2.399  16.622 -0.0001  0.2470  0.0923
12259DPPA   C3B16318  11.746   2.434  17.123  0.0724 -0.0387 -0.0605
12259DPPA   C4B16319  11.738   2.443  17.637 -0.0018 -0.1260  0.0003
12260DPPA   PO416320  13.300   3.882  16.186 -0.0680 -0.1004 -0.0023
12260DPPA   GL116321  13.103   3.644  16.567 -0.1715 -0.6061  0.1706
12260DPPA   GL216322  13.209   3.923  16.681  0.3597 -0.2493  0.1356
12260DPPA   C1A16323  13.087   3.503  16.892  0.0275 -0.2747  0.1467
12260DPPA   C2A16324  13.049   3.465  17.296 -0.0510  0.2512  0.1392
12260DPPA   C3A16325  13.083   3.497  17.760 -0.0147  0.1025 -0.1551
12260DPPA   C4A16326  13.067   3.535  18.265  0.2013 -0.1691  0.0181
12260DPPA   C1B16327  13.205   3.994  17.062 -0.4163 -0.3839  0.1667
12260DPPA   C2B16328  13.180   3.955  17.502 -0.1550 -0.0121  0.1210
12260DPPA   C3B16329  13.143   3.989  18.017  0.2637 -0.0738  0.0581
12260DPPA   C4B16330  13.208   3.955  18.521 -0.1535 -0.2699 -0.0391
12261DPPA   PO416331   9.822   2.612  15.794 -0.1075 -0.0015 -0.0208
12261DPPA   GL116332   9.794   2.572  16.202  0.2869  0.0464  0.2543
12261DPPA   GL216333   9.525   2.580  16.216 -0.1594  0.0230 -0.1442
12261DPPA   C1A16334   9.869   2.529  16.551  0.0944  0.4732 -0.1154
12261DPPA   C2A16335   9.936   2.558  16.955 -0.0742  0.4442 -0.3185
12261DPPA   C3A16336   9.924   2.530  17.392 -0.0092  0.1841 -0.0712
12261DPPA   C4A16337   9.924   2.589  17.907 -0.2387 -0.1588  0.0485
12261DPPA   C1B16338   9.386   2.570  16.571  0.1333  0.0734  0.1662
12261DPPA   C2B16339   9.407   2.534  16.981 -0.2843  0.2749 -0.1150
12261DPPA   C3B16340   9.378   2.513  17.449  0.0158 -0.1514 -0.1784
12261DPPA   C4B16341   9.290   2.515  17.955 -0.0143 -0.3906 -0.0664
12262DPPA   PO416342   8.664   4.644  15.591 -0.0881 -0.1953  0.1588
12262DPPA   GL116343   8.563   4.766  15.934 -0.0198 -0.2323 -0.0782
12262DPPA   GL216344   8.665   4.925  16.023  0.3608  0.1380  0.2027
12262DPPA   C1A16345   8.667   4.601  16.309  0.0011  0.0183  0.3706
12262DPPA   C2A16346   8.799   4.506  16.655 -0.3003  0.2094 -0.1368
12262DPPA   C3A16347   8.900   4.476  17.156  0.0658  0.0870 -0.0897
12262DPPA   C4A16348   8.839   4.573  17.602  0.1356  0.1721 -0.0834
12262DPPA   C1B16349   8.431   5.035  16.308 -0.0694 -0.0998  0.0675
12262DPPA   C2B16350   8.486   5.011  16.712  0.3952 -0.1347 -0.1729
12262DPPA   C3B16351   8.490   4.953  17.208  0.0962 -0.0697 -0.2009
12262DPPA   C4B16352   8.504   4.904  17.682  0.3236 -0.0771 -0.0505
12263DPPA   PO416353   7.277   5.995  15.489  0.0082 -0.0559  0.3848
12263DPPA   GL116354   7.219   6.217  15.848  0.3929  0.1658 -0.0388
12263DPPA   GL216355   6.982   6.036  15.926  0.0692 -0.0362 -0.0215
12263DPPA   C1A16356   7.311   6.414  16.129  0.3023  0.2507  0.0770
12263DPPA   C2A16357   7.181   6.430  16.541 -0.1606  0.1770 -0.0923
12263DPPA   C3A16358   7.168   6.488  17.010 -0.1594 -0.0250 -0.1592
12263DPPA   C4A16359   7.124   6.415  17.500 -0.2224  0.1604 -0.0116
12263DPPA   C1B16360   6.993   6.021  16.330  0.3752  0.1979 -0.1971
12263DPPA   C2B16361   7.080   6.008  16.757 -0.0175 -0.0377  0.0505
12263DPPA   C3B16362   7.055   5.971  17.252  0.1181  0.1056 -0.0179
12263DPPA   C4B16363   6.959   5.955  17.720  0.1057 -0.2626  0.0261
12264DPPA   PO416364  11.580   5.242  15.550 -0.1696  0.0376  0.0364
12264DPPA   GL116365  11.583   5.031  15.930 -0.2086  0.0847  0.5114
12264DPPA   GL216366  11.634   5.287  16.063 -0.1317 -0.0693 -0.0624
12264DPPA   C1A16367  11.731   4.767  16.109  0.4563  0.4562  0.3503
12264DPPA   C2A16368  11.745   4.704  16.519  0.0954 -0.1331 -0.1408
12264DPPA   C3A16369  11.638   4.652  17.039  0.3842  0.0247 -0.2361
12264DPPA   C4A16370  11.658   4.663  17.490 -0.0073  0.0157  0.0935
12264DPPA   C1B16371  11.646   5.259  16.419 -0.4401  0.4280 -0.2450
12264DPPA   C2B16372  11.848   5.128  16.820 -0.1116 -0.3789  0.2871
12264DPPA   C3B16373  11.806   5.094  17.276  0.3480  0.0270  0.2621
12264DPPA   C4B16374  11.746   5.096  17.755  0.3013 -0.1952 -0.2564
12265DPPA   PO416375   6.036   4.224  15.881  0.2832  0.3183  0.2393
12265DPPA   GL116376   6.124   4.396  16.206 -0.0211 -0.0745  0.1474
12265DPPA   GL216377   6.392   4.550  16.172  0.4869  0.1915  0.0934
12265DPPA   C1A16378   6.011   4.552  16.518  0.2884 -0.1416  0.1999
12265DPPA   C2A16379   6.007   4.441  16.897 -0.0999  0.0423 -0.0084
12265DPPA   C3A16380   6.079   4.485  17.342 -0.0994  0.0740  0.2419
12265DPPA   C4A16381   6.067   4.505  17.798  0.0038 -0.1199  0.0735
12265DPPA   C1B16382   6.452   4.601  16.550 -0.3571  0.1800  0.3358
12265DPPA   C2B16383   6.575   4.599  16.906 -0.0467 -0.0445  0.0151
12265DPPA   C3B16384   6.598   4.594  17.381 -0.1630  0.0855 -0.1281
12265DPPA   C4B16385   6.566   4.583  17.882 -0.0705 -0.0844  0.0541
12266DPPA   PO416386  11.012   1.163  16.007  0.1177  0.1330  0.2148
12266DPPA   GL116387  11.182   1.008  16.349 -0.0426  0.2258  0.1442
12266DPPA   GL216388  11.455   1.039  16.209 -0.0702  0.0075  0.0448
12266DPPA   C1A16389  11.173   1.019  16.741 -0.1399 -0.2873  0.0876
12266DPPA   C2A16390  11.156   1.070  17.155  0.2218 -0.0941  0.2051
12266DPPA   C3A16391  11.133   1.093  17.609 -0.1523  0.0651 -0.0943
12266DPPA   C4A16392  11.110   1.056  18.124 -0.1011 -0.0836 -0.0053
12266DPPA   C1B16393  11.599   1.071  16.484  0.0749  0.2623 -0.1289
12266DPPA   C2B16394  11.703   1.147  16.889 -0.0260 -0.1678 -0.0975
12266DPPA   C3B16395  11.707   1.113  17.399 -0.0770 -0.2075  0.2043
12266DPPA   C4B16396  11.752   1.070  17.873 -0.0273 -0.2375  0.1855
12267DPPA   PO416397  11.144   6.120  15.751 -0.0740  0.1665 -0.1648
12267DPPA   GL116398  11.203   6.052  16.133 -0.2153 -0.1703  0.0981
12267DPPA   GL216399  10.969   5.908  16.245 -0.2601  0.0342 -0.1000
12267DPPA   C1A16400  11.304   6.237  16.444  0.1437  0.1433 -0.1355
12267DPPA   C2A16401  11.310   6.363  16.842  0.0077 -0.1685 -0.1271
12267DPPA   C3A16402  11.217   6.380  17.336  0.1237 -0.0915  0.2429
12267DPPA   C4A16403  11.215   6.330  17.863 -0.3687  0.2237 -0.1133
12267DPPA   C1B16404  11.062   5.846  16.571  0.1126  0.2447 -0.2980
12267DPPA   C2B16405  11.092   5.871  16.960 -0.0547 -0.0888 -0.1811
12267DPPA   C3B16406  11.105   5.847  17.508  0.1966 -0.2420 -0.2740
12267DPPA   C4B16407  11.083   5.839  17.977  0.3588 -0.1806 -0.0863
12268DPPA   PO416408   9.490   3.803  15.929  0.1527 -0.0079  0.3816
12268DPPA   GL116409   9.393   3.934  16.337 -0.0464  0.0710 -0.1259
12268DPPA   GL216410   9.105   3.811  16.408 -0.2368  0.3306  0.2123
12268DPPA   C1A16411   9.515   3.806  16.690 -0.1308  0.2406 -0.1086
12268DPPA   C2A16412   9.539   3.759  17.081 -0.0568 -0.3275  0.1793
12268DPPA   C3A16413   9.552   3.808  17.524 -0.0075  0.0210 -0.0421
12268DPPA   C4A16414   9.538   3.725  18.025  0.0285  0.0096 -0.1400
12268DPPA   C1B16415   9.073   3.785  16.794 -0.2404  0.1605 -0.0017
12268DPPA   C2B16416   8.988   3.669  17.164  0.0035 -0.1229 -0.0258
12268DPPA   C3B16417   8.991   3.673  17.625 -0.1012 -0.0896  0.0307
12268DPPA   C4B16418   8.955   3.741  18.125  0.1878 -0.0400  0.2516
12269DPPA   PO416419  11.446   2.089  15.747 -0.2426 -0.2276 -0.2749
12269DPPA   GL116420  11.493   2.004  16.107  0.0008 -0.1954 -0.2050
12269DPPA   GL216421  11.788   1.961  16.125 -0.1207 -0.3281  0.2043
12269DPPA   C1A16422  11.512   1.956  16.539  0.1786 -0.2033 -0.2181
12269DPPA   C2A16423  11.575   2.009  16.957 -0.0835 -0.4289  0.1929
12269DPPA   C3A16424  11.543   1.972  17.429  0.1187  0.0191 -0.0998
12269DPPA   C4A16425  11.498   1.956  17.898 -0.2049 -0.2662 -0.0528
12269DPPA   C1B16426  11.997   2.000  16.428 -0.1320 -0.1681  0.2302
12269DPPA   C2B16427  12.066   1.980  16.842  0.3445  0.0364  0.1129
12269DPPA   C3B16428  12.061   2.063  17.323 -0.1102  0.0529  0.0516
12269DPPA   C4B16429  11.957   1.999  17.762  0.0283 -0.1251 -0.0560
12270DPPA   PO416430  11.576   3.851  15.765  0.0563  0.2870  0.1532
12270DPPA   GL116431  11.467   3.865  16.146 -0.2092 -0.1292  0.2054
12270DPPA   GL216432  11.320   4.106  16.182  0.6291  0.1737  0.0532
12270DPPA   C1A16433  11.395   3.756  16.520  0.0764  0.1894 -0.1462
12270DPPA   C2A16434  11.290   3.716  16.973  0.2556  0.0790 -0.0873
12270DPPA   C3A16435  11.230   3.653  17.437 -0.1497 -0.1222  0.1737
12270DPPA   C4A16436  11.155   3.718  17.917 -0.0510  0.1470  0.1849
12270DPPA   C1B16437  11.561   4.294  16.320  0.0306 -0.0271 -0.0427
12270DPPA   C2B16438  11.523   4.210  16.756  0.2379  0.2418  0.1451
12270DPPA   C3B16439  11.392   4.134  17.246 -0.0874 -0.0800  0.0863
12270DPPA   C4B16440  11.428   4.167  17.683  0.0040  0.2135 -0.0186
12271DPPA   PO416441  10.003   6.201  15.782 -0.0045  0.2085 -0.0456
12271DPPA   GL116442   9.736   6.226  16.115 -0.1339  0.0125  0.3645
12271DPPA   GL216443   9.870   6.006  16.197 -0.1299  0.0056  0.1079
12271DPPA   C1A16444   9.661   6.503  16.359 -0.2684 -0.2753  0.3373
12271DPPA   C2A16445   9.460   6.464  16.761 -0.1902 -0.1351  0.1804
12271DPPA   C3A16446   9.424   6.460  17.247  0.1646  0.0863  0.0493
12271DPPA   C4A16447   9.445   6.608  17.677 -0.2219  0.0653  0.1296
12271DPPA   C1B16448   9.866   6.081  16.559  0.1515  0.4765 -0.0263
12271DPPA   C2B16449   9.767   6.075  16.954 -0.0314 -0.2437  0.1594
12271DPPA   C3B16450   9.722   6.119  17.473  0.1764 -0.3395 -0.0767
12271DPPA   C4B16451   9.698   6.144  17.957 -0.0457  0.0876  0.0573
12272DPPA   PO416452  12.777   2.001  15.935 -0.2724  0.2545 -0.1286
12272DPPA   GL116453  12.821   2.224  16.247 -0.4488 -0.2550  0.1033
12272DPPA   GL216454  13.015   1.994  16.303  0.0972 -0.3644  0.3675
12272DPPA   C1A16455  12.751   2.480  16.487 -0.0887  0.0085  0.1997
12272DPPA   C2A16456  12.773   2.565  16.925  0.1276  0.1300 -0.1682
12272DPPA   C3A16457  12.690   2.623  17.412  0.0728  0.1362 -0.3298
12272DPPA   C4A16458  12.675   2.607  17.889 -0.1096 -0.0316  0.2207
12272DPPA   C1B16459  12.831   1.849  16.595  0.2801  0.1297 -0.1400
12272DPPA   C2B16460  12.862   1.751  16.968  0.2873 -0.0863 -0.3254
12272DPPA   C3B16461  12.871   1.717  17.450  0.2251  0.1030  0.1089
12272DPPA   C4B16462  12.839   1.796  17.948 -0.2465 -0.1849 -0.0335
12273DPPA   PO416463  14.073   1.123  15.828  0.0993  0.0497 -0.1802
12273DPPA   GL116464  13.817   1.038  16.129  0.0229 -0.0535 -0.2455
12273DPPA   GL216465  14.062   1.065  16.320 -0.2878  0.1468  0.2449
12273DPPA   C1A16466  13.749   0.838  16.405  0.0979 -0.0416  0.1696
12273DPPA   C2A16467  13.576   0.933  16.789  0.1977  0.2108  0.0541
12273DPPA   C3A16468  13.559   0.979  17.246 -0.0328  0.2847 -0.1297
12273DPPA   C4A16469  13.528   0.976  17.724 -0.0788 -0.1367  0.0219
12273DPPA   C1B16470  14.034   0.970  16.682  0.1332  0.2094 -0.1564
12273DPPA   C2B16471  14.040   1.044  17.083 -0.1214 -0.0085  0.2129
12273DPPA   C3B16472  13.994   1.059  17.584  0.3265 -0.1080  0.0816
12273DPPA   C4B16473  13.852   1.077  18.047  0.1674  0.0308 -0.1888
12274DPPA   PO416474   9.072   2.729  15.569  0.0886 -0.2363  0.0928
12274DPPA   GL116475   9.121   2.816  15.946  0.2487  0.1160 -0.1813
12274DPPA   GL216476   9.384   2.947  16.058  0.0648 -0.1413 -0.1988
12274DPPA   C1A16477   8.972   2.628  16.231  0.0816  0.0025  0.1424
12274DPPA   C2A16478   8.969   2.437  16.647  0.0810 -0.0611 -0.0445
12274DPPA   C3A16479   8.974   2.375  17.131  0.2772  0.1497  0.0636
12274DPPA   C4A16480   8.889   2.416  17.621  0.0974 -0.0060  0.1208
12274DPPA   C1B16481   9.212   2.949  16.335  0.0329  0.0954 -0.1429
12274DPPA   C2B16482   9.109   2.903  16.706 -0.0852 -0.0372 -0.0017
12274DPPA   C3B16483   9.121   2.887  17.202  0.1462 -0.0701  0.0115
12274DPPA   C4B16484   9.086   2.883  17.688 -0.0390  0.1453  0.1471
12275DPPA   PO416485   9.450   0.125  15.584  0.1530 -0.1307 -0.0739
12275DPPA   GL116486   9.515  -0.096  15.902 -0.0225  0.1229  0.0400
12275DPPA   GL216487   9.348  -0.329  15.868 -0.0216 -0.2722  0.3679
12275DPPA   C1A16488   9.309   0.082  16.123 -0.0855 -0.2022  0.2926
12275DPPA   C2A16489   9.170   0.177  16.537 -0.2452 -0.1935  0.0165
12275DPPA   C3A16490   9.121   0.248  17.043 -0.1977 -0.0782  0.1032
12275DPPA   C4A16491   9.045   0.201  17.523  0.0113  0.0904  0.2274
12275DPPA   C1B16492   9.335  -0.499  16.160  0.0599 -0.0622  0.1655
12275DPPA   C2B16493   9.349  -0.554  16.562  0.0657  0.0302  0.3832
12275DPPA   C3B16494   9.284  -0.596  17.041 -0.0453 -0.0238  0.1398
12275DPPA   C4B16495   9.230  -0.588  17.559 -0.0170  0.1048 -0.0372
12276DPPA   PO416496  10.213   1.980  15.632  0.0516 -0.0783 -0.1726
12276DPPA   GL116497  10.306   1.860  16.035 -0.2992  0.1711  0.0015
12276DPPA   GL216498  10.182   1.672  16.155 -0.0972 -0.0604 -0.1621
12276DPPA   C1A16499  10.517   1.916  16.323  0.0382  0.2113  0.0412
12276DPPA   C2A16500  10.594   1.811  16.725 -0.1193  0.3755 -0.1311
12276DPPA   C3A16501  10.576   1.812  17.239  0.0340 -0.1250 -0.0038
12276DPPA   C4A16502  10.508   1.781  17.756 -0.1285 -0.0289 -0.1558
12276DPPA   C1B16503  10.149   1.755  16.479 -0.2225  0.2475  0.7995
12276DPPA   C2B16504  10.089   1.767  16.857  0.0619  0.3542 -0.1018
12276DPPA   C3B16505  10.053   1.720  17.353 -0.1292 -0.1874 -0.0247
12276DPPA   C4B16506   9.970   1.734  17.831 -0.1211 -0.0386  0.1197
12277DPPA   PO416507  10.932   4.161  15.592  0.1316 -0.0815  0.0543
12277DPPA   GL116508  11.018   3.908  15.872 -0.1707 -0.4134  0.0532
12277DPPA   GL216509  10.731   4.013  16.024  0.6072  0.0090 -0.1094
12277DPPA   C1A16510  11.025   3.665  16.156 -0.2567 -0.1325 -0.1036
12277DPPA   C2A16511  10.944   3.617  16.559 -0.0738 -0.0751  0.0447
12277DPPA   C3A16512  10.817   3.638  17.028  0.0336 -0.1164 -0.0748
12277DPPA   C4A16513  10.749   3.638  17.504  0.1282  0.0382 -0.1966
12277DPPA   C1B16514  10.908   4.072  16.367 -0.0038  0.3999 -0.0394
12277DPPA   C2B16515  10.969   4.145  16.733 -0.0120 -0.0007  0.0335
12277DPPA   C3B16516  10.860   4.088  17.221 -0.1087 -0.0179 -0.2216
12277DPPA   C4B16517  10.948   4.071  17.662  0.1818 -0.0803  0.0432
12278DPPA   PO416518  12.191   4.695  15.541  0.0984 -0.3841  0.1611
12278DPPA   GL116519  12.053   4.582  15.953 -0.5642  0.0873  0.2146
12278DPPA   GL216520  12.282   4.739  16.093 -0.1034  0.1906  0.2406
12278DPPA   C1A16521  11.986   4.386  16.204 -0.1953  0.5876 -0.0477
12278DPPA   C2A16522  12.035   4.217  16.560 -0.0631 -0.0548 -0.1103
12278DPPA   C3A16523  11.948   4.174  17.011 -0.0916 -0.1824 -0.2267
12278DPPA   C4A16524  11.905   4.265  17.457  0.1367  0.1054  0.2720
12278DPPA   C1B16525  12.234   4.764  16.464 -0.0124 -0.0670 -0.2131
12278DPPA   C2B16526  12.116   4.633  16.854 -0.1728 -0.2581  0.1456
12278DPPA   C3B16527  12.140   4.662  17.244  0.0140  0.0655  0.3969
12278DPPA   C4B16528  12.081   4.650  17.714  0.1598 -0.2040 -0.0446
12279DPPA   PO416529   7.964   4.035  15.508 -0.1805 -0.0359 -0.0557
12279DPPA   GL116530   8.012   3.933  15.885 -0.0139 -0.0053 -0.0923
12279DPPA   GL216531   7.958   4.232  15.963  0.2488  0.1012  0.2131
12279DPPA   C1A16532   7.999   3.669  16.143 -0.3009 -0.4560  0.3012
12279DPPA   C2A16533   8.040   3.553  16.553 -0.0844  0.1066 -0.0207
12279DPPA   C3A16534   8.026   3.516  17.065 -0.2551  0.0120  0.2108
12279DPPA   C4A16535   8.051   3.474  17.557  0.2258 -0.1169 -0.0380
12279DPPA   C1B16536   7.761   4.397  16.270 -0.3260  0.1245  0.3575
12279DPPA   C2B16537   7.778   4.391  16.689  0.0753 -0.0830  0.3479
12279DPPA   C3B16538   7.778   4.451  17.166  0.0159  0.1356 -0.2192
12279DPPA   C4B16539   7.799   4.341  17.683 -0.3338 -0.1155  0.0952
12280DPPA   PO416540   7.307   1.604  15.363 -0.3414 -0.0606  0.1842
12280DPPA   GL116541   7.210   1.781  15.745  0.1017 -0.1143  0.2247
12280DPPA   GL216542   6.996   1.556  15.783 -0.1984  0.2226  0.0994
12280DPPA   C1A16543   7.308   1.769  16.108 -0.3969 -0.1853 -0.3546
12280DPPA   C2A16544   7.428   1.551  16.427  0.0408 -0.1836 -0.0533
12280DPPA   C3A16545   7.399   1.561  16.929 -0.0251 -0.0579  0.0344
12280DPPA   C4A16546   7.416   1.569  17.463  0.1692 -0.3062 -0.1481
12280DPPA   C1B16547   6.893   1.550  16.121 -0.1047 -0.0010 -0.1176
12280DPPA   C2B16548   6.923   1.538  16.530 -0.1356 -0.0307 -0.1137
12280DPPA   C3B16549   6.867   1.486  16.967 -0.2868 -0.2276 -0.2119
12280DPPA   C4B16550   6.895   1.519  17.453 -0.1763 -0.2106  0.3115
12281DPPA   PO416551  13.312   0.772  16.066 -0.1939  0.0427 -0.0838
12281DPPA   GL116552  13.250   0.792  16.525 -0.1067  0.0117  0.1524
12281DPPA   GL216553  13.064   0.944  16.593 -0.4304 -0.1973  0.1040
12281DPPA   C1A16554  13.378   0.537  16.781  0.1234  0.2292  0.0305
12281DPPA   C2A16555  13.395   0.508  17.178  0.0088 -0.0067 -0.2937
12281DPPA   C3A16556  13.340   0.540  17.635 -0.0160  0.2283 -0.0511
12281DPPA   C4A16557  13.463   0.372  18.117 -0.0083  0.0158  0.0869
12281DPPA   C1B16558  13.038   0.902  16.957 -0.1002  0.1085  0.0719
12281DPPA   C2B16559  13.075   0.938  17.373 -0.1771  0.1278 -0.1629
12281DPPA   C3B16560  13.063   0.938  17.831  0.0873  0.0553  0.1984
12281DPPA   C4B16561  13.428   0.885  18.170  0.0845 -0.2828  0.2155
12282DPPA   PO416562  11.812   0.794  15.570 -0.2402  0.2378  0.1528
12282DPPA   GL116563  11.838   0.650  15.956 -0.0538  0.0975  0.0137
12282DPPA   GL216564  11.598   0.557  16.016  0.1942  0.3124 -0.1048
12282DPPA   C1A16565  12.007   0.703  16.276 -0.0582  0.0743 -0.4797
12282DPPA   C2A16566  11.973   0.766  16.679 -0.0394 -0.1335  0.5337
12282DPPA   C3A16567  11.986   0.765  17.132  0.2422  0.2930  0.1454
12282DPPA   C4A16568  12.045   0.796  17.604 -0.0325 -0.0996 -0.0433
12282DPPA   C1B16569  11.568   0.620  16.340  0.1945  0.0641 -0.1929
12282DPPA   C2B16570  11.517   0.673  16.770  0.1579  0.0651 -0.0575
12282DPPA   C3B16571  11.520   0.672  17.263  0.1218 -0.0300  0.0640
12282DPPA   C4B16572  11.391   0.709  17.764  0.3348  0.1088 -0.2503
12283DPPA   PO416573  12.422   0.429  20.543 -0.1546  0.0697 -0.0497
12283DPPA   GL116574  12.478   0.479  20.136 -0.3933  0.1592  0.4541
12283DPPA   GL216575  12.182   0.634  20.069 -0.0437  0.0601  0.4075
12283DPPA   C1A16576  12.763   0.620  20.032 -0.0512 -0.4279 -0.0199
12283DPPA   C2A16577  12.723   0.568  19.621 -0.2271 -0.4459 -0.2266
12283DPPA   C3A16578  12.744   0.477  19.168 -0.1079 -0.0048  0.1854
12283DPPA   C4A16579  12.805   0.499  18.660  0.0695 -0.3660  0.1435
12283DPPA   C1B16580  12.222   0.543  19.700 -0.0502 -0.0684 -0.0129
12283DPPA   C2B16581  12.242   0.541  19.273 -0.2454  0.0367  0.0267
12283DPPA   C3B16582  12.279   0.474  18.769 -0.0197  0.1304  0.0177
12283DPPA   C4B16583  12.365   0.357  18.289  0.3378 -0.2507 -0.3135
12284W        W16584  21.374   5.738  12.787  0.1966 -0.0999 -0.1839
12285W        W16585   5.290   2.922  33.642  0.0231 -0.0511 -0.0680
12286W        W16586  15.623   0.370  21.626  0.3779  0.1988  0.1387
12287W        W16587  12.580   4.185   6.789  0.2188  0.1519  0.1132
12288W        W16588   4.853   3.461   5.174  0.0970  0.1057 -0.0232
12289W        W16589  11.482   3.474  35.982  0.0151  0.0376 -0.2788
12290W        W16590   1.075   3.716  30.166  0.0503 -0.2377 -0.3629
12291W        W16591  17.485   3.088  35.058 -0.3082  0.0832  0.3898
12292W        W16592   6.398   5.012  32.549  0.0030 -0.0225 -0.2847
12293W        W16593  16.071   3.177  27.846  0.1366  0.0049 -0.1120
12294W        W16594  20.795   1.900  22.707 -0.0861 -0.0595  0.0628
12295W        W16595   4.943   3.553   6.555  0.0135 -0.1407  0.3837
12296W        W16596  25.068   3.785   9.295  0.0210  0.1877 -0.0742
12297W        W16597   6.617   0.936  28.171 -0.0477 -0.0815 -0.3748
12298W        W16598  26.170   3.878  25.867  0.0318  0.2096  0.5036
12299W        W16599  13.357   1.495  11.734  0.1400 -0.0481  0.0771
12300W        W16600   5.573   1.239   6.701 -0.0557  0.2260  0.1019
12301W        W16601   3.454   6.208  32.003  0.1181 -0.1970 -0.1525
12302W        W16602  20.235   0.755  28.324  0.1450 -0.1871  0.4090
12303W        W16603  19.153   3.376   8.662  0.1913  0.1438 -0.1499
12304W        W16604  10.036   3.877  12.042 -0.0459  0.1579  0.1918
12305W        W16605  20.761   5.330   2.295  0.0056  0.3512 -0.2101
12306W        W16606   5.876   0.670  12.010  0.0799 -0.0356  0.1445
12307W        W16607  16.307   6.289  23.204 -0.1922  0.2100  0.0046
12308W        W16608   9.357   3.943   5.004 -0.2803  0.4312  0.0061
12309W        W16609   9.192   4.650  13.879 -0.3009 -0.0676 -0.2972
12310W        W16610  19.912   3.206   1.893 -0.0164  0.4465  0.0223
12311W        W16611  25.028   6.199  22.305 -0.0335  0.1753 -0.1974
12312W        W16612  21.562   6.480   2.631 -0.1529  0.0870 -0.1693
12313W        W16613  21.182   1.762  28.233 -0.3324  0.1880 -0.0592
12314W        W16614  18.104   4.418  28.512  0.0612 -0.0043  0.2362
12315W        W16615   2.505   4.265  35.495 -0.1035  0.2196 -0.1002
12316W        W16616   2.940   5.795  23.563 -0.3014 -0.1524 -0.1074
12317W        W16617  19.863   0.725   4.348 -0.1134 -0.1295  0.1545
12318W        W16618  14.458   1.556  12.643  0.0191  0.3723  0.0446
12319W        W16619  11.229   2.414   8.593 -0.0512  0.0948 -0.1130
12320W        W16620  18.842   3.978  27.160 -0.1198 -0.2462 -0.1234
12321W        W16621   0.785   6.336  35.515 -0.0531 -0.2247  0.1301
12322W        W16622   5.901   6.101  27.819  0.1835  0.2517 -0.0097
12323W        W16623  13.292   5.174   4.096  0.1275  0.0378  0.3270
12324W        W16624   6.467   6.188   6.312  0.0548 -0.0760 -0.0264
12325W        W16625   0.714   2.270  27.777  0.2441  0.0513  0.1986
12326W        W16626  10.207   4.185  30.985 -0.2020 -0.1464 -0.1611
12327W        W16627  11.248   1.548  31.618  0.0599 -0.0435 -0.0788
12328W        W16628  19.305   1.597   9.687  0.0261 -0.2072 -0.1332
12329W        W16629  18.558   3.787  13.775 -0.2871  0.0174  0.1307
12330W        W16630   5.433   4.811  34.395  0.2098 -0.0146 -0.1417
12331W        W16631  19.446   0.902  22.262  0.0134  0.1812  0.4915
12332W        W16632   1.228   5.623   9.831  0.0565  0.0258  0.0620
12333W        W16633   9.056   1.854  34.597  0.0804  0.1049  0.0060
12334W        W16634   3.453   3.906   8.197 -0.3439  0.1959 -0.0206
12335W        W16635   4.375   6.212  33.596  0.0304  0.2710 -0.3001
12336W        W16636   0.834   0.639   1.990  0.0510 -0.1060 -0.0368
12337W        W16637  24.266   6.158   0.164  0.4056 -0.3006  0.1406
12338W        W16638  14.502   2.663  12.442 -0.1370 -0.0026  0.2411
12339W        W16639   0.401   0.132   5.362  0.0864  0.2240  0.3406
12340W        W16640  17.083   2.886  13.011  0.3745 -0.1397  0.0484
12341W        W16641  18.147   1.246  13.716  0.1777 -0.1251  0.0596
12342W        W16642  18.726   1.125  13.231 -0.2264  0.1372  0.0778
12343W        W16643  23.643   3.554  23.820 -0.0333  0.2704 -0.0231
12344W        W16644   7.531   4.740   7.123 -0.0486 -0.2391  0.2525
12345W        W16645  19.825   6.314  13.277  0.0409  0.0905 -0.4111
12346W        W16646   1.440   3.937  10.311 -0.1847 -0.2243  0.3493
12347W        W16647   0.566   4.026  32.573 -0.1200  0.0693 -0.0509
12348W        W16648   3.434   3.825  34.064 -0.1895 -0.0106 -0.0835
12349W        W16649  19.499   5.122  22.155 -0.2850  0.1956 -0.2557
12350W        W16650   2.136   1.726   8.061 -0.1700 -0.1387 -0.0232
12351W        W16651  23.048   6.064   6.593  0.2464 -0.1546  0.1060
12352W        W16652  14.471   1.000   2.999  0.0822 -0.0267  0.1043
12353W        W16653  25.484   2.027  12.243 -0.2210 -0.2748  0.1555
12354W        W16654  24.041   3.719   6.155 -0.0229  0.1407 -0.2052
12355W        W16655   7.647   5.848  11.443  0.0591 -0.1928  0.0963
12356W        W16656  18.750   4.440  12.086 -0.0530 -0.0427  0.0566
12357W        W16657   3.350   0.356   1.796  0.0902 -0.1746  0.0856
12358W        W16658  25.595   3.000   9.592 -0.1394 -0.1195 -0.0750
12359W        W16659  17.520   3.499  21.244  0.0118  0.0415 -0.0940
12360W        W16660   9.824   1.252   7.488  0.2376  0.0502 -0.1952
12361W        W16661  25.689   2.291   9.810  0.1870 -0.0163  0.0477
12362W        W16662   2.609   0.823   5.604 -0.2854  0.0782  0.2255
12363W        W16663  12.031   4.255  33.972 -0.1407 -0.1675  0.2335
12364W        W16664  25.784   2.789  14.793  0.2905  0.1102 -0.0206
12365W        W16665  24.819   4.846  25.864 -0.1905 -0.1503 -0.1031
12366W        W16666  17.373   1.822   2.239  0.3573 -0.2444 -0.0477
12367W        W16667  14.524   6.263   0.990 -0.0249 -0.0275 -0.1399
12368W        W16668  20.499   3.876  13.249  0.0399  0.1864  0.0762
12369W        W16669  21.321   1.207   5.820 -0.0115 -0.2096  0.0440
12370W        W16670  14.337   3.926  30.389 -0.0496  0.0672  0.1864
12371W        W16671  23.056   4.500  32.510 -0.0945  0.0414 -0.0145
12372W        W16672  12.960   1.618  34.028 -0.0641  0.0188 -0.1095
12373W        W16673  19.154   0.900   3.797 -0.1205 -0.1561  0.0153
12374W        W16674  11.651   2.446  27.171  0.1180  0.0844  0.1356
12375W        W16675  20.662   3.539  24.577  0.1887 -0.0396  0.1078
12376W        W16676   5.356   1.711  34.733  0.0149 -0.2496 -0.2268
12377W        W16677  19.824   2.135   3.516  0.2763  0.4853  0.2519
12378W        W16678   7.456   6.395  24.751 -0.2053 -0.1021  0.0005
12379W        W16679  17.438   3.296   3.657  0.0187  0.2177 -0.1424
12380W        W16680  22.703   0.936  14.704 -0.0649 -0.1071  0.2676
12381W        W16681  17.959   3.554   1.487  0.1363 -0.0403 -0.0218
12382W        W16682  26.073   6.203   3.447 -0.0218  0.0504 -0.0753
12383W        W16683  11.620   2.293  14.051  0.1371 -0.0926  0.0030
12384W        W16684  11.291   4.199  30.874 -0.0067  0.0031  0.1284
12385W        W16685  15.509   5.240  31.220 -0.0781  0.1636 -0.1973
12386W        W16686  14.609   4.919  28.687 -0.3035 -0.1163 -0.0597
12387W        W16687  17.620   0.560  11.244 -0.3096 -0.1481  0.0007
12388W        W16688   8.431   1.266   7.897 -0.1218  0.0296  0.0843
12389W        W16689  14.851   1.451  10.796 -0.1367 -0.2384  0.0725
12390W        W16690  25.153   5.375  14.768  0.2308 -0.0471  0.4029
12391W        W16691  15.304   4.194  15.110  0.0493  0.1763  0.2410
12392W        W16692  15.509   0.018  28.216 -0.0702 -0.1177  0.0306
12393W        W16693  15.142   1.787   3.404  0.2300 -0.1284 -0.0671
12394W        W16694   0.107   4.554  34.975  0.3071  0.0786 -0.0423
12395W        W16695  16.933   2.702   6.338  0.3024 -0.0291  0.0322
12396W        W16696   2.020   0.108  23.298 -0.2490  0.1416  0.4034
12397W        W16697  12.725   1.320   1.922 -0.0167 -0.3458  0.1444
12398W        W16698  18.197   1.844   6.570  0.0451 -0.0864 -0.1846
12399W        W16699  16.679   0.112  30.705  0.0935 -0.1126 -0.0398
12400W        W16700   4.951   4.928  29.387  0.0218 -0.0800 -0.0138
12401W        W16701   8.969   6.255  14.096  0.0103 -0.2679  0.2577
12402W        W16702   3.273   3.753  15.147 -0.0401 -0.1225  0.0380
12403W        W16703  13.313   5.102   9.347  0.0320  0.1302 -0.0182
12404W        W16704  12.346   6.052  10.949  0.4706  0.0354  0.1924
12405W        W16705   4.388   6.543  35.976  0.0277  0.1259  0.2043
12406W        W16706  16.174   4.193  21.527 -0.0169  0.0069 -0.2800
12407W        W16707  20.568   2.069  35.700  0.0920  0.0633  0.0435
12408W        W16708  16.094   5.171  14.619  0.2746  0.0984  0.1731
12409W        W16709  24.879   5.708   6.814 -0.0322  0.3393 -0.1615
12410W        W16710  13.232   1.555  34.579  0.0906 -0.2195 -0.0182
12411W        W16711   6.471   1.923   1.471 -0.0406  0.2003  0.2526
12412W        W16712   0.058   0.868  30.594 -0.2402  0.4324  0.0864
12413W        W16713  18.915   5.407   3.061 -0.1652  0.2292 -0.1712
12414W        W16714  10.883   4.618  13.355  0.0604 -0.2308  0.0660
12415W        W16715   3.744   4.656   6.381  0.0467  0.1646  0.0820
12416W        W16716  11.516   4.777  12.483  0.0866 -0.0360  0.2022
12417W        W16717  14.884   0.177  25.235 -0.1764  0.2266 -0.3522
12418W        W16718  11.730   3.860  31.495  0.2629  0.4378 -0.0039
12419W        W16719  14.945   3.419  15.469 -0.0923 -0.1308  0.2498
12420W        W16720  25.082   5.902  20.914  0.2088 -0.0356  0.1015
12421W        W16721  20.755   1.018  26.581  0.1646  0.0551  0.1175
12422W        W16722   0.515   0.425   4.955  0.0129  0.2715 -0.0369
12423W        W16723  10.709   1.741   4.647 -0.1667 -0.1556  0.0397
12424W        W16724   0.669   2.152  14.261 -0.0057  0.0981  0.1083
12425W        W16725  25.689   0.693  30.293 -0.0165 -0.3536 -0.0514
12426W        W16726   3.709   5.593  12.908  0.0297 -0.3045  0.1044
12427W        W16727  16.861   4.229   5.943 -0.0256 -0.0864  0.0434
12428W        W16728   2.366   1.305   2.453  0.0484  0.0772  0.0002
12429W        W16729  14.826   1.284   2.020  0.0206  0.2667  0.0866
12430W        W16730  17.685   2.844  13.014 -0.2433 -0.2299  0.0585
12431W        W16731  11.461   5.547  26.201  0.0840  0.0199 -0.0920
12432W        W16732  23.169   0.371  31.711 -0.0796 -0.0344  0.1096
12433W        W16733  16.683   4.320   5.488  0.1686 -0.2014 -0.1058
12434W        W16734   2.268   4.798   1.091 -0.1509 -0.2350  0.1345
12435W        W16735  24.761   0.812  15.375  0.1694 -0.0953  0.2201
12436W        W16736  10.541   3.073  10.912  0.0567  0.2521 -0.0588
12437W        W16737  18.066   3.141  32.524  0.0996  0.0838 -0.0758
12438W        W16738  12.144   1.185  27.186 -0.2020 -0.2932  0.3008
12439W        W16739   6.808   0.208  23.669 -0.1519 -0.0878 -0.0942
12440W        W16740  22.818   0.277  23.905 -0.1255 -0.3307  0.1503
12441W        W16741   3.961   2.245  22.537  0.0133 -0.1444  0.0043
12442W        W16742   5.121   5.877  29.858 -0.1804  0.3265 -0.2197
12443W        W16743  11.443   1.431  14.931  0.1475  0.0072  0.2010
12444W        W16744   4.457   0.494  33.950  0.1986 -0.1028 -0.0425
12445W        W16745  14.609   3.011  28.761 -0.2716 -0.0768  0.2388
12446W        W16746   4.860   0.996  21.376 -0.1633 -0.3854 -0.0314
12447W        W16747  10.751   6.349  32.772  0.0939  0.0171  0.1717
12448W        W16748  12.946   1.843  25.808  0.0920  0.3831  0.2726
12449W        W16749  24.263   1.507  28.179 -0.4464 -0.1125  0.1737
12450W        W16750  24.246   6.433  29.033 -0.0354  0.1938  0.0346
12451W        W16751  11.223   4.211  33.561 -0.1219 -0.0493  0.2230
12452W        W16752  18.774   6.396  35.153  0.3084 -0.1005 -0.0187
12453W        W16753  22.817   5.127   4.041  0.1474 -0.1571 -0.1167
12454W        W16754   6.494   3.542  12.337  0.1333  0.2264 -0.0541
12455W        W16755   0.892   4.558   9.699 -0.0461 -0.2500  0.2827
12456W        W16756  26.263   1.002  31.076 -0.0985 -0.2508 -0.0925
12457W        W16757   2.404   3.836  10.050  0.1644  0.0086 -0.0996
12458W        W16758  15.518   3.538  30.438  0.0386 -0.1657 -0.1879
12459W        W16759  21.215   0.595  26.782 -0.0160  0.2451 -0.1007
12460W        W16760  11.154   5.681  27.543  0.3165  0.3225 -0.0629
12461W        W16761  26.059   3.112   0.306 -0.1592 -0.1035  0.0414
12462W        W16762  11.295   2.478  28.456 -0.0929  0.0915  0.0935
12463W        W16763  20.811   0.452   4.603  0.0296  0.2126 -0.0077
12464W        W16764   7.249   2.979  23.103  0.0693 -0.1684 -0.1418
12465W        W16765   6.021   4.303  13.992  0.1438 -0.0643 -0.0455
12466W        W16766  15.871   0.397   8.472  0.4144 -0.2000 -0.1652
12467W        W16767   3.131   4.924  13.500 -0.1141 -0.2248 -0.1122
12468W        W16768   5.439   2.164  27.866 -0.2279  0.0152  0.0554
12469W        W16769  23.265   0.083  30.593  0.0738  0.1817  0.1604
12470W        W16770   4.636   5.001  11.432  0.0187 -0.0966 -0.0432
12471W        W16771  22.759   3.158  14.510  0.1663  0.0194 -0.0872
12472W        W16772  12.501   0.665   8.750  0.0978  0.2594  0.2492
12473W        W16773   4.818   5.202   0.062  0.2359 -0.1015 -0.0161
12474W        W16774   7.510   1.739  13.294  0.3635  0.0510  0.0874
12475W        W16775  12.230   4.850   4.948  0.1433 -0.1202 -0.0696
12476W        W16776  12.089   4.223   1.103  0.0591  0.0940 -0.4790
12477W        W16777   1.286   5.982  13.292 -0.3267  0.0004  0.1428
12478W        W16778  10.062   6.199  11.323 -0.2405  0.1202 -0.2098
12479W        W16779  24.694   0.766  26.386 -0.0748  0.2972 -0.0737
12480W        W16780  18.589   2.549  14.811 -0.0212 -0.3209 -0.0031
12481W        W16781  11.226   5.787   5.185  0.0334  0.1088 -0.1256
12482W        W16782   5.507   3.815  15.903 -0.0654 -0.2640  0.4304
12483W        W16783  24.787   6.297  12.767  0.1575 -0.0457 -0.0495
12484W        W16784  19.222   1.162  29.641 -0.1519  0.0575  0.0865
12485W        W16785  13.372   6.464  22.614 -0.0279 -0.3339  0.0621
12486W        W16786  22.446   5.733   2.049 -0.2951  0.0494 -0.1235
12487W        W16787   8.670   4.886   7.122 -0.1814  0.0313  0.0868
12488W        W16788  26.294   2.062   8.468 -0.2095  0.3097  0.1779
12489W        W16789  24.369   5.014  12.917  0.1025  0.1322  0.0592
12490W        W16790   5.853   4.871  26.892  0.1202  0.0333  0.0502
12491W        W16791  16.398   6.160  35.916  0.0428  0.1403  0.0837
12492W        W16792   1.643   1.758   0.984  0.1706  0.0727  0.1401
12493W        W16793   0.645   4.150  34.331 -0.4323  0.0729  0.0601
12494W        W16794   0.389   1.876   5.302  0.5461  0.4427 -0.2808
12495W        W16795  16.504   4.873  33.621 -0.1510 -0.1210 -0.3097
12496W        W16796  15.669   2.055   9.778  0.1442  0.0936  0.1925
12497W        W16797  12.433   4.296  30.923  0.2160  0.3287  0.0860
12498W        W16798  13.983   3.782  12.597 -0.1541 -0.2034  0.1166
12499W        W16799   3.129   3.573   7.857  0.1431  0.0501  0.1035
12500W        W16800  13.689   1.797  28.845 -0.1112 -0.0226 -0.1946
12501W        W16801   5.339   2.582  28.103  0.2818 -0.0277 -0.1047
12502W        W16802   3.778   6.202  15.190  0.2061 -0.3949 -0.0311
12503W        W16803  20.695   6.143  27.530  0.0886  0.0940  0.1951
12504W        W16804  24.960   1.194  14.574 -0.2932  0.3081 -0.0227
12505W        W16805   8.081   1.165  11.758 -0.2858 -0.0988 -0.0903
12506W        W16806   7.062   4.746  35.443  0.1652 -0.0454 -0.1638
12507W        W16807  25.549   0.911   1.974 -0.0002  0.0639  0.1555
12508W        W16808  12.273   6.075  33.558  0.0815 -0.0151  0.1296
12509W        W16809  18.578   5.956  12.363 -0.0303 -0.3413 -0.0126
12510W        W16810   4.900   3.407  11.510  0.2455  0.0115  0.0489
12511W        W16811  10.172   0.834  21.710  0.1178  0.0650  0.0480
12512W        W16812  23.392   5.520   1.819  0.0362  0.1135 -0.0276
12513W        W16813  14.437   0.543   7.854  0.1508 -0.1153  0.0577
12514W        W16814  13.204   3.518  29.045 -0.2973 -0.2518  0.0939
12515W        W16815  23.782   6.194  10.565  0.0041 -0.1557  0.0867
12516W        W16816   9.528   3.958   8.387  0.0617  0.2009 -0.1184
12517W        W16817  22.054   4.576   4.585 -0.0803 -0.0655  0.1586
12518W        W16818  18.156   4.146  30.475  0.0462  0.0689 -0.1514
12519W        W16819   4.743   5.981  30.787  0.1498  0.1190 -0.0027
12520W        W16820  26.344   4.610  23.307  0.1073  0.0354 -0.1316
12521W        W16821  22.715   2.669  13.598 -0.0691  0.0244 -0.3328
12522W        W16822   8.835   4.517   3.572 -0.0458 -0.1286 -0.1360
12523W        W16823  26.256   1.870   4.578  0.3160 -0.0378  0.0891
12524W        W16824  19.276   1.690  29.580 -0.0031 -0.0419  0.0735
12525W        W16825   9.711   6.170  10.161 -0.1250  0.2426 -0.1098
12526W        W16826  22.910   1.125  35.821 -0.0058  0.1186 -0.0309
12527W        W16827  24.431   5.955  31.489 -0.3128  0.0400  0.2437
12528W        W16828  10.141   1.817   1.758  0.0946 -0.1266  0.2682
12529W        W16829   4.122   2.616  29.401 -0.2154  0.0652 -0.3988
12530W        W16830  12.608   5.985   2.023 -0.1615  0.1713 -0.1317
12531W        W16831   8.157   0.836  29.946 -0.0982 -0.1201  0.0773
12532W        W16832   4.299   2.001  25.393 -0.0070 -0.1233 -0.0996
12533W        W16833   5.323   4.455   3.230 -0.1245 -0.3391 -0.1064
12534W        W16834   9.209   1.334   2.172 -0.4075  0.1235 -0.2870
12535W        W16835  10.599   1.660  15.355  0.1663 -0.1076 -0.0125
12536W        W16836   0.889   0.797  31.751  0.3235  0.0951 -0.1062
12537W        W16837  22.672   2.793  29.381  0.1572 -0.1215  0.0755
12538W        W16838  16.299   5.261   2.202 -0.0826 -0.0122  0.0339
12539W        W16839  23.137   4.504  12.176 -0.0501 -0.0535 -0.1010
12540W        W16840  23.186   4.638   7.953  0.2707 -0.0359  0.0898
12541W        W16841  12.252   0.504   0.292  0.0767  0.1772  0.1618
12542W        W16842  11.481   6.576  35.755 -0.0554  0.2454  0.0713
12543W        W16843   4.553   2.612  24.282 -0.0562 -0.0622  0.0331
12544W        W16844  19.627   2.925  35.581  0.3615  0.0763 -0.0584
12545W        W16845  14.165   1.203   2.530 -0.1258 -0.1026 -0.0401
12546W        W16846  25.077   2.600   4.470 -0.0528  0.0070 -0.1356
12547W        W16847  20.448   5.292   0.853 -0.0224 -0.1274 -0.1219
12548W        W16848  16.778   4.104  23.804  0.0984  0.2609  0.0300
12549W        W16849   4.577   1.168  32.590 -0.1716 -0.1517  0.1405
12550W        W16850  17.199   2.862   5.336 -0.1582  0.0639 -0.0133
12551W        W16851   2.581   4.102  26.658 -0.0271 -0.0480  0.0602
12552W        W16852  24.333   4.858  25.574  0.1506  0.0474 -0.4104
12553W        W16853   5.833   2.463   9.900 -0.0650 -0.0332  0.3111
12554W        W16854  11.421   4.607  30.023  0.1399  0.1457  0.1603
12555W        W16855  13.918   3.802  26.658 -0.0698 -0.2067  0.0753
12556W        W16856  22.939   2.183  30.051  0.1033 -0.1614 -0.3775
12557W        W16857  23.242   6.517   6.496  0.2502  0.0557 -0.1600
12558W        W16858  18.578   0.621  32.969 -0.0216  0.1606 -0.0936
12559W        W16859  17.254   3.759  15.247 -0.1102 -0.0874 -0.0013
12560W        W16860  21.876   1.186   7.849  0.0168  0.1649 -0.1267
12561W        W16861  17.334   2.342  27.543 -0.1225  0.2787  0.0351
12562W        W16862   1.555   3.031  25.594  0.1217  0.1841  0.2635
12563W        W16863  16.593   4.019  25.864  0.3497 -0.0477  0.0864
12564W        W16864   7.153   5.482  26.538  0.4284  0.2542  0.1167
12565W        W16865  25.203   1.171  12.201 -0.0852 -0.0514 -0.0500
12566W        W16866  21.110   2.796  34.436 -0.0474  0.1093  0.1933
12567W        W16867  21.017   3.665  20.549  0.0936  0.1029  0.1528
12568W        W16868   2.410   6.257  29.663  0.0357 -0.0694  0.1848
12569W        W16869   0.038   1.023  34.108 -0.0221 -0.2974  0.0778
12570W        W16870  23.126   6.201   4.326 -0.1307 -0.2117 -0.1245
12571W        W16871  20.384   2.139  12.339 -0.1592 -0.1419 -0.0342
12572W        W16872  15.432   2.170  12.789 -0.1638  0.0095  0.1995
12573W        W16873  23.529   5.841   3.296  0.2062  0.3208  0.0019
12574W        W16874  11.448   0.535  28.496 -0.0894  0.2274  0.0065
12575W        W16875  21.564   5.079  30.286 -0.2477  0.2470 -0.0462
12576W        W16876  13.740   3.123  23.094  0.1864  0.0541 -0.1179
12577W        W16877  13.825   5.915  13.151 -0.1614  0.1592 -0.0562
12578W        W16878  10.807   6.145   0.416 -0.0982  0.1607 -0.1209
12579W        W16879  24.548   2.442  28.257 -0.0801  0.1330  0.1196
12580W        W16880   7.419   4.198  12.879 -0.0979  0.2499 -0.1774
12581W        W16881   2.854   2.671   0.427 -0.0664 -0.0920 -0.1538
12582W        W16882  20.720   3.384  15.111 -0.0958 -0.0422  0.3267
12583W        W16883   3.004   0.316  14.669 -0.0269  0.1700 -0.1181
12584W        W16884  19.440   2.237  11.581  0.1167  0.1388 -0.0977
12585W        W16885   7.810   1.770  26.546 -0.2782  0.0693  0.0567
12586W        W16886  19.750   2.872  12.269 -0.0852  0.0139  0.1911
12587W        W16887   4.754   0.042  31.526  0.0489 -0.0380  0.1769
12588W        W16888   1.821   0.011   7.505 -0.0896  0.1705  0.0996
12589W        W16889   2.326   4.367  30.130 -0.1289  0.5229  0.3164
12590W        W16890  16.410   1.858  26.606 -0.0010 -0.1727 -0.0914
12591W        W16891   1.283   0.870  26.744 -0.3108  0.0224  0.0078
12592W        W16892  14.810   3.023  32.622 -0.0555 -0.0973 -0.0823
12593W        W16893  25.437   2.784  26.525 -0.1568 -0.0016  0.3360
12594W        W16894   1.011   2.704   8.816 -0.4591 -0.0709 -0.2072
12595W        W16895  18.952   1.317   1.278  0.1182 -0.4634  0.0301
12596W        W16896   0.497   5.741  31.321  0.0112 -0.1884  0.1664
12597W        W16897  18.501   1.253  30.857  0.3027  0.3051 -0.0945
12598W        W16898  10.784   6.405   8.077  0.0254  0.0579  0.0450
12599W        W16899  13.078   0.828   7.837 -0.0737 -0.1449  0.1910
12600W        W16900  15.515   1.311  31.834  0.2822 -0.1441 -0.0627
12601W        W16901  18.689   2.484  12.810  0.3003 -0.2349  0.2345
12602W        W16902   1.363   1.310  26.269 -0.2804 -0.1000  0.1615
12603W        W16903   7.824   3.972  13.660 -0.0436  0.4865  0.1746
12604W        W16904  22.127   4.161  34.116  0.6089  0.0283 -0.0500
12605W        W16905   0.585   4.438  31.471 -0.4273 -0.0309 -0.0744
12606W        W16906  12.643   3.903  12.100  0.2238 -0.2071 -0.1367
12607W        W16907  14.428   1.479   1.352 -0.0452  0.1639 -0.4022
12608W        W16908   1.153   0.051   2.489  0.0153 -0.0386 -0.1144
12609W        W16909  15.492   2.024  36.043  0.2801 -0.1201 -0.1373
12610W        W16910   4.036   2.055   9.438  0.2558  0.1720  0.1253
12611W        W16911  15.196   6.043   6.740 -0.2141  0.0738  0.3146
12612W        W16912   1.592   1.203  33.526 -0.0918 -0.2942 -0.0602
12613W        W16913   7.293   2.645   7.835 -0.2242  0.0711  0.0879
12614W        W16914   0.109   1.083  29.384  0.1246  0.0305 -0.0610
12615W        W16915  17.997   6.133  27.008  0.0148 -0.1361  0.2488
12616W        W16916  11.004   0.000  34.807  0.0282 -0.0217 -0.2458
12617W        W16917  16.650   3.515  33.044 -0.2056  0.2984  0.1756
12618W        W16918   5.080   2.924  30.601  0.0472  0.2955  0.1782
12619W        W16919   4.960   1.786  14.652 -0.5271  0.1969  0.3289
12620W        W16920  14.573   1.436   8.228 -0.0655 -0.3837 -0.3197
12621W        W16921  25.781   0.850   3.621  0.0534 -0.1230 -0.0539
12622W        W16922  15.038   0.484  31.096 -0.2795  0.1425  0.2305
12623W        W16923   1.359   0.987   5.564  0.1354 -0.0578 -0.0114
12624W        W16924  12.281   5.174  28.237  0.1093 -0.1456 -0.4961
12625W        W16925  14.918   2.872  10.167 -0.1695 -0.0452 -0.0496
12626W        W16926  15.830   4.411  29.132 -0.0489 -0.0299  0.2170
12627W        W16927   9.865   1.498  14.536 -0.1200  0.0254 -0.1017
12628W        W16928   9.664   0.593  21.654 -0.2195 -0.0946 -0.1757
12629W        W16929  14.330   0.066   8.037 -0.0513  0.3585  0.0520
12630W        W16930  16.011   0.136  25.824  0.1428  0.4264  0.2376
12631W        W16931   4.695   3.389   7.065 -0.0089 -0.2024 -0.1557
12632W        W16932  17.999   1.946  15.411  0.3308 -0.1113 -0.0692
12633W        W16933   7.401   5.839  23.001 -0.2618  0.1109 -0.0928
12634W        W16934   6.451   3.124   0.802  0.0492 -0.3350  0.1446
12635W        W16935   8.931   4.386  34.992  0.0609 -0.2935 -0.0240
12636W        W16936   4.978   5.603  25.423 -0.3373  0.4843  0.3242
12637W        W16937  17.897   2.393  29.519  0.4656  0.0190 -0.0384
12638W        W16938  22.161   3.910  22.362 -0.0793  0.0209  0.1269
12639W        W16939  14.989   0.253  12.444  0.0410 -0.1838  0.0319
12640W        W16940   5.525   4.898  23.599  0.1230 -0.0775  0.0502
12641W        W16941  18.387   5.086  21.246 -0.0140 -0.0882  0.1108
12642W        W16942   5.968   5.762  29.809  0.1271 -0.0943 -0.0619
12643W        W16943  19.392   6.503  12.041 -0.1169  0.0465  0.0603
12644W        W16944  25.898   2.901  10.180 -0.0760 -0.1592 -0.2920
12645W        W16945  17.413   5.448   9.715 -0.0177  0.1758  0.0495
12646W        W16946  10.907   6.033  28.294  0.6021  0.2151  0.1079
12647W        W16947  16.712   4.288   0.993  0.0676  0.0463 -0.0620
12648W        W16948   4.232   1.345  21.690 -0.0921  0.1887  0.0716
12649W        W16949  18.903   3.760  13.185 -0.1820 -0.2247  0.1747
12650W        W16950   6.858   3.941  13.080 -0.4929 -0.0304 -0.2289
12651W        W16951   2.095   4.603   1.558  0.1336 -0.0781 -0.1428
12652W        W16952   6.527   4.641  25.358  0.0803 -0.2060  0.0852
12653W        W16953   6.861   0.605   3.812 -0.0164 -0.0895  0.0861
12654W        W16954  22.421   1.568  25.131 -0.2993 -0.1409  0.1260
12655W        W16955  23.741   1.827  12.988 -0.1261  0.1941  0.0803
12656W        W16956  22.646   0.472   4.496 -0.0192 -0.2384 -0.0545
12657W        W16957   1.781   0.076  25.132 -0.1891 -0.1591 -0.1814
12658W        W16958  17.793   1.899  35.561 -0.1708  0.0661  0.1273
12659W        W16959  25.248   6.063  12.253 -0.1365  0.0307 -0.0844
12660W        W16960  16.376   4.953  30.204 -0.1688  0.3035 -0.0116
12661W        W16961   3.875   2.893  29.774  0.0273 -0.0972  0.0511
12662W        W16962   8.945   0.011  33.368 -0.2172  0.0202  0.0113
12663W        W16963  12.648   1.887   8.361  0.0131  0.0382  0.0529
12664W        W16964   6.233   0.121   0.968 -0.5055  0.1705  0.1688
12665W        W16965  12.368   0.824  32.931 -0.3067 -0.0223  0.0164
12666W        W16966  24.890   5.458   4.410 -0.0144  0.0410  0.0375
12667W        W16967   9.840   4.729  33.385  0.1506  0.1070 -0.1037
12668W        W16968  17.874   6.378   8.118 -0.1211 -0.0037  0.3048
12669W        W16969  20.899   4.707  27.614 -0.1538  0.0242 -0.1098
12670W        W16970   2.535   5.269   3.451  0.0956 -0.3092 -0.0136
12671W        W16971  10.186   2.355  34.020 -0.0171  0.1777 -0.0917
12672W        W16972  12.852   1.339   3.434  0.0607 -0.0644  0.1084
12673W        W16973  12.423   5.197  21.687 -0.1916  0.0784 -0.2570
12674W        W16974  22.301   5.304   7.987 -0.2710 -0.0453  0.0154
12675W        W16975  17.814   1.759  28.379  0.3985  0.0636  0.2540
12676W        W16976   8.141   6.056  21.032  0.2007 -0.1140 -0.3445
12677W        W16977  15.085   5.644  22.673 -0.0275 -0.0821  0.0185
12678W        W16978   4.536   0.618  33.320 -0.2261  0.4095 -0.3086
12679W        W16979  19.328   0.109  25.136  0.2948  0.0409  0.0302
12680W        W16980  15.208   1.707   7.580  0.3002 -0.3405 -0.0963
12681W        W16981   2.186   2.878   5.800  0.1074 -0.0879 -0.0207
12682W        W16982  19.908   3.569   4.844  0.2321 -0.0002 -0.1583
12683W        W16983  12.976   1.777  25.036  0.0093  0.0267  0.0581
12684W        W16984  14.975   2.648   3.007  0.0298 -0.1662  0.0031
12685W        W16985   6.701   0.173  14.545 -0.0260 -0.0059 -0.1039
12686W        W16986  17.296   4.496  22.606 -0.0773  0.2276 -0.0600
12687W        W16987  20.288   6.272  33.507 -0.1848  0.0162  0.1377
12688W        W16988  16.210   3.163   5.353 -0.0366 -0.5157  0.2408
12689W        W16989  14.674   5.972  28.321  0.1525 -0.0473  0.0248
12690W        W16990  13.862   6.080   2.089 -0.2113  0.2352  0.2403
12691W        W16991  18.365   1.926   6.044  0.0129  0.0279  0.1880
12692W        W16992   1.447   4.417  27.357  0.1032 -0.1112  0.1097
12693W        W16993  11.374   4.171  31.638  0.1147  0.1283 -0.1922
12694W        W16994   5.734   2.112  36.123  0.3555  0.0488 -0.0070
12695W        W16995  10.472   3.219  32.078 -0.3038 -0.1678  0.0472
12696W        W16996  22.825   1.956   4.997 -0.3104 -0.1421 -0.0707
12697W        W16997   7.161   2.991  33.336  0.3483 -0.1600  0.0657
12698W        W16998   0.752   5.165   7.533  0.2129  0.1133  0.0960
12699W        W16999  12.036   0.247   1.150 -0.1125  0.2674 -0.0653
12700W        W17000   9.703   4.179  13.207  0.2451 -0.1492 -0.0090
12701W        W17001   4.030   3.810   6.492  0.2233  0.2176  0.1055
12702W        W17002  20.725   5.369  31.245 -0.1019  0.1459  0.2003
12703W        W17003   2.014   3.149  14.855  0.1578 -0.0784  0.1564
12704W        W17004   0.946   5.186  10.753 -0.1445  0.4795  0.0712
12705W        W17005  16.397   1.057  11.410  0.0382  0.1173 -0.0689
12706W        W17006  24.902   0.362  24.275 -0.1560 -0.1728 -0.3590
12707W        W17007   0.439   1.164   8.403 -0.0406 -0.1718  0.0290
12708W        W17008   1.529   0.269  23.413  0.1408  0.0890 -0.1428
12709W        W17009  10.830   4.456  28.190 -0.2779 -0.0375 -0.2138
12710W        W17010   9.625   5.990  22.636  0.0068 -0.0809  0.0961
12711W        W17011   2.942   3.024  33.826 -0.0572 -0.0246  0.0724
12712W        W17012  11.563   0.432  23.623  0.1437 -0.0722  0.0470
12713W        W17013  17.971   1.456  32.135 -0.1407  0.1096 -0.2891
12714W        W17014   6.081   4.136   8.018  0.0208 -0.0321  0.0741
12715W        W17015  20.383   4.548   2.723 -0.0042 -0.0104 -0.3819
12716W        W17016   1.014   1.361  35.909 -0.0892  0.0833  0.0360
12717W        W17017  19.333   4.574   8.192 -0.1136  0.0939  0.0804
12718W        W17018  11.146   3.439  30.976 -0.0992  0.1794  0.2683
12719W        W17019  11.521   4.357  34.037  0.2139  0.1252  0.1529
12720W        W17020   9.063   2.027   2.806 -0.1077 -0.0749 -0.1388
12721W        W17021   4.164   1.202  14.399  0.0780  0.2631  0.1873
12722W        W17022  24.442   5.428   3.712  0.2335 -0.1891 -0.1095
12723W        W17023  12.820   3.970  10.729 -0.2116  0.0225  0.2798
12724W        W17024  19.897   1.116  13.953  0.1896  0.1462  0.0444
12725W        W17025  21.122   5.087  13.483 -0.4182 -0.3088  0.0341
12726W        W17026  20.593   0.551  20.704  0.0423 -0.1330  0.1058
12727W        W17027   8.856   3.487   4.316 -0.1038 -0.1326 -0.3485
12728W        W17028  17.549   6.242  13.319 -0.3125 -0.0355  0.1458
12729W        W17029  19.896   4.143   3.641  0.3187  0.0191 -0.2126
12730W        W17030  11.066   5.618   6.285  0.0290  0.1921 -0.0273
12731W        W17031   9.208   5.679   7.579 -0.0564  0.1060  0.0283
12732W        W17032  15.058   0.551  34.923 -0.1701 -0.2108 -0.1570
12733W        W17033   2.642   3.934  33.997 -0.6096  0.1432 -0.0196
12734W        W17034   8.617   0.058   8.890  0.0344 -0.0669 -0.2327
12735W        W17035   7.047   1.595  13.648  0.2644  0.3965 -0.1332
12736W        W17036   5.328   3.988  34.500  0.0628  0.0490  0.2910
12737W        W17037  16.957   3.719  28.298 -0.0074  0.2986  0.1745
12738W        W17038  14.231   4.827  28.322 -0.0992 -0.0256  0.3310
12739W        W17039  14.842   2.742  26.188 -0.2112 -0.2542  0.3053
12740W        W17040  18.660   5.473  13.899 -0.0523  0.1811  0.0898
12741W        W17041  23.485   1.190   8.234  0.0440 -0.0940 -0.0934
12742W        W17042   3.090   3.186   8.636 -0.0323 -0.0871 -0.1014
12743W        W17043   6.244   4.613   3.177  0.1781 -0.0000 -0.0825
12744W        W17044   6.810   6.222   4.570  0.0321  0.0044 -0.0897
12745W        W17045   3.291   3.758  25.182 -0.2997  0.2378 -0.0919
12746W        W17046  21.688   2.701  10.299  0.0494  0.1074 -0.0763
12747W        W17047   0.153   1.038  28.846  0.2741 -0.1927 -0.1679
12748W        W17048   9.108   0.416   7.163  0.0354 -0.4488  0.1231
12749W        W17049   0.899   1.849  12.556 -0.0091  0.1370  0.1052
12750W        W17050   3.439   6.278  36.064 -0.0322  0.1697  0.3222
12751W        W17051  18.040   6.468  32.910 -0.0340  0.1809  0.0875
12752W        W17052  21.048   5.776   0.263 -0.2249 -0.3711  0.2254
12753W        W17053   3.626   6.606  14.119  0.1813 -0.3249 -0.2488
12754W        W17054  11.675   0.370  29.011  0.1403  0.3313 -0.0305
12755W        W17055  21.726   0.461   7.477 -0.2050  0.2247  0.2712
12756W        W17056   7.702   0.681   4.871  0.1158 -0.4469  0.0429
12757W        W17057  18.784   0.375  27.967  0.0412 -0.0396  0.2378
12758W        W17058   7.712   1.486   2.793 -0.3507 -0.1399  0.1754
12759W        W17059  24.284   5.012  21.317  0.1350  0.1576 -0.1676
12760W        W17060  10.364   1.603   0.762  0.2492 -0.2616 -0.2803
12761W        W17061  10.392   3.756   8.328  0.1775 -0.0931  0.2451
12762W        W17062  25.104   1.030   0.603  0.3178 -0.2099 -0.0282
12763W        W17063  16.103   2.397  30.915  0.0607  0.2368  0.1377
12764W        W17064  14.792   4.939  12.768  0.0604  0.1124 -0.1295
12765W        W17065   1.546   2.187   1.158  0.0572  0.1520 -0.4448
12766W        W17066   1.439   6.328  30.122 -0.2235 -0.1649 -0.1809
12767W        W17067   8.959   1.965  14.384 -0.1837  0.0834  0.3255
12768W        W17068   2.486   4.381  33.050 -0.0328 -0.1551  0.4307
12769W        W17069  14.226   0.839   8.327 -0.0860 -0.0535 -0.1023
12770W        W17070  17.791   5.747  28.014 -0.0148 -0.1123 -0.0245
12771W        W17071  24.169   0.106   4.368 -0.0683  0.2157  0.0192
12772W        W17072   1.533   3.256  21.734 -0.1764  0.3189 -0.0742
12773W        W17073  18.777   6.136  36.004 -0.4701 -0.1014  0.0521
12774W        W17074   4.346   5.620  33.675 -0.1219 -0.1357  0.0242
12775W        W17075  13.603   1.962  15.116 -0.2212 -0.2576  0.0569
12776W        W17076  14.134   4.117   7.047  0.0905 -0.3293 -0.2452
12777W        W17077  23.943   0.200   7.473 -0.2350  0.1072 -0.2342
12778W        W17078  26.391   1.287  34.673  0.2079  0.0685  0.0564
12779W        W17079  22.654   3.394   7.971 -0.1051  0.0237  0.1693
12780W        W17080  18.896   1.778   7.642 -0.0455  0.0096 -0.1315
12781W        W17081   5.495   0.936  29.626  0.2574 -0.1397 -0.0155
12782W        W17082  22.104   1.945  32.015  0.0043  0.1621  0.0737
12783W        W17083  15.819   0.870  32.124  0.1041  0.1615 -0.1912
12784W        W17084  16.492   1.695   5.881  0.1658  0.2729 -0.0335
12785W        W17085  13.393   6.438  34.294  0.1213  0.0568  0.1293
12786W        W17086   8.955   0.587   4.615  0.0114  0.1304  0.0724
12787W        W17087  19.638   4.879  34.481  0.2207 -0.1133 -0.0145
12788W        W17088   7.195   4.133  22.393  0.0954 -0.1637 -0.1666
12789W        W17089   0.064   1.780   8.102 -0.0552 -0.0394 -0.1503
12790W        W17090  19.630   4.516  28.940 -0.0319 -0.2668 -0.1878
12791W        W17091  25.725   3.730  25.672 -0.0002 -0.0012  0.0393
12792W        W17092  13.416   5.083  15.324  0.1285  0.2817  0.0755
12793W        W17093  24.041   0.826  23.163 -0.3015 -0.0449 -0.3094
12794W        W17094  14.621   1.985  25.757 -0.0282 -0.1294 -0.5902
12795W        W17095   2.764   0.235   9.094 -0.2828  0.1582 -0.0492
12796W        W17096  22.000   1.785   3.159  0.0605 -0.0452  0.2066
12797W        W17097  21.044   5.216  10.531 -0.0071  0.1915 -0.0714
12798W        W17098  16.361   0.485   8.290  0.1402  0.1638  0.0241
12799W        W17099   4.950   2.530  22.252  0.2071  0.1073 -0.0456
12800W        W17100  24.596   3.511  30.896 -0.0992  0.2663 -0.2557
12801W        W17101   1.418   3.783  27.658  0.1072 -0.2828  0.0047
12802W        W17102  16.697   3.036   5.424 -0.0307 -0.0201 -0.1129
12803W        W17103  22.983   6.494   2.928  0.2829  0.1965  0.0585
12804W        W17104  14.666   1.682  34.388  0.3884 -0.1213  0.2449
12805W        W17105  15.352   4.593   6.938 -0.2541 -0.0590 -0.1283
12806W        W17106  24.597   6.076   9.876  0.0030  0.2203 -0.0446
12807W        W17107  25.813   0.462   3.345  0.1422 -0.3436  0.1523
12808W        W17108  13.287   6.028  13.773 -0.2274 -0.1509  0.3065
12809W        W17109   7.436   1.256  30.965 -0.2348  0.0005  0.1427
12810W        W17110  17.187   3.366   4.580  0.1173 -0.0545  0.0844
12811W        W17111  16.148   6.568   9.722 -0.1276  0.0038  0.0214
12812W        W17112  17.757   2.135  24.928 -0.4752 -0.1400 -0.1243
12813W        W17113   9.927   5.457  29.204  0.0372  0.0250  0.0416
12814W        W17114   9.060   6.076  35.634 -0.1059 -0.4193 -0.0121
12815W        W17115  16.851   6.305  15.790 -0.0507  0.0056 -0.1923
12816W        W17116  20.466   3.179  26.732  0.1706  0.2232  0.1636
12817W        W17117   5.159   2.337  12.936  0.1679 -0.1573 -0.2735
12818W        W17118  15.387   4.672   3.852 -0.2485  0.2244  0.1117
12819W        W17119  10.116   0.795  34.747  0.0543 -0.2830 -0.2565
12820W        W17120  19.526   2.982   9.992  0.2673  0.1603 -0.5073
12821W        W17121  25.796   5.177   4.931  0.1242 -0.2624 -0.2426
12822W        W17122   9.212   0.000  11.258  0.1146  0.0759  0.0536
12823W        W17123   4.081   5.109  20.921  0.0303 -0.0705 -0.0764
12824W        W17124  18.661   4.384  20.188  0.4067 -0.0395  0.0685
12825W        W17125  22.589   1.303  33.715  0.0675  0.0335  0.2187
12826W        W17126  19.381   5.078   8.074 -0.1205 -0.1539 -0.1182
12827W        W17127  15.933   0.483  23.050  0.0486 -0.1370 -0.1136
12828W        W17128  12.218   3.914  34.712 -0.1895 -0.2034  0.1096
12829W        W17129  19.828   6.119  11.725 -0.0766  0.1827  0.0645
12830W        W17130  12.743   0.039  23.527  0.4512  0.0044 -0.0964
12831W        W17131  17.656   6.317   8.817 -0.1891 -0.3067 -0.1532
12832W        W17132   5.674   3.079  12.738  0.1291  0.0021 -0.0294
12833W        W17133  13.878   4.229   3.317  0.2375  0.1183  0.2050
12834W        W17134  14.049   4.011  28.124 -0.0715 -0.2456  0.1630
12835W        W17135  20.227   1.955   1.444 -0.0090 -0.0167 -0.0331
12836W        W17136   1.421   0.599  28.636  0.1253 -0.0479  0.2385
12837W        W17137  25.314   5.680  20.467  0.2105  0.0812 -0.0483
12838W        W17138  12.163   2.827   8.501 -0.1337  0.0230  0.0565
12839W        W17139   9.025   3.275   2.774  0.1949 -0.0331  0.0729
12840W        W17140   7.027   1.306  35.593  0.1155 -0.2816  0.2566
12841W        W17141  15.284   2.150  21.399 -0.1693 -0.0479 -0.1210
12842W        W17142  13.750   0.538  30.636 -0.2773 -0.5409 -0.2816
12843W        W17143  12.559   0.346   7.828  0.0288 -0.1292  0.1766
12844W        W17144  23.774   2.064  23.552  0.0010  0.1799  0.2539
12845W        W17145  24.621   4.054  22.927  0.2077 -0.0939 -0.0534
12846W        W17146   9.726   6.330  32.698 -0.2477  0.0772  0.1122
12847W        W17147  25.217   5.405   9.386  0.1468  0.5183 -0.0634
12848W        W17148   2.836   4.481   8.338 -0.0875 -0.0282 -0.1247
12849W        W17149  13.529   0.153   1.604 -0.1007  0.0247 -0.2851
12850W        W17150  10.583   5.161   3.188 -0.0507  0.3367  0.0146
12851W        W17151  14.632   6.014   0.501 -0.1187 -0.3664  0.1747
12852W        W17152  10.212   0.862   2.618  0.0655  0.0770 -0.3672
12853W        W17153   5.345   2.094   2.731  0.0474  0.1700  0.1199
12854W        W17154  14.971   0.047   5.979  0.2111  0.2349 -0.5522
12855W        W17155  21.601   5.185  11.188 -0.3678 -0.1224  0.0226
12856W        W17156   3.781   0.992  10.990  0.0649 -0.1616  0.1682
12857W        W17157   7.596   1.750  23.637 -0.2301 -0.1501 -0.0099
12858W        W17158  21.963   0.494  30.338  0.0325 -0.2763  0.2232
12859W        W17159   1.426   4.040  29.585  0.0940  0.0719 -0.0639
12860W        W17160  20.999   5.279  14.072  0.1017 -0.1792 -0.1135
12861W        W17161  10.428   5.744  13.677 -0.1858 -0.0134  0.1241
12862W        W17162   0.644   0.593   0.609  0.1408  0.3365 -0.1169
12863W        W17163  12.874   2.497  29.852  0.3645  0.2454  0.4388
12864W        W17164  16.211   2.342  13.892  0.1214  0.1258  0.0021
12865W        W17165  22.807   3.562  11.869 -0.3480  0.0763  0.0006
12866W        W17166  21.092   3.153  30.397 -0.0256  0.1622  0.0888
12867W        W17167  15.228   1.644  32.532 -0.0314  0.1011 -0.1730
12868W        W17168   7.212   0.958   4.762 -0.1863 -0.1128  0.1099
12869W        W17169  14.165   5.529  21.702 -0.0344  0.0229 -0.0609
12870W        W17170  19.829   0.986  30.932  0.3540  0.0884 -0.2833
12871W        W17171  20.962   4.006   8.934  0.3864 -0.0188  0.0801
12872W        W17172  15.548   0.831  14.106 -0.1741 -0.2905 -0.1089
12873W        W17173  24.259   2.240   1.082  0.0864  0.0080 -0.0320
12874W        W17174  22.560   4.360   3.413  0.0626  0.0048  0.0347
12875W        W17175  11.188   1.988  28.716  0.0043  0.2010  0.1096
12876W        W17176  24.471   2.656  14.676 -0.3459  0.0899 -0.0125
12877W        W17177  10.424   0.990  27.882 -0.0628  0.3296 -0.0965
12878W        W17178  17.735   1.440  24.788 -0.3128  0.1825  0.0605
12879W        W17179  23.274   0.557  13.226 -0.1839  0.2274  0.0714
12880W        W17180   9.160   1.623  32.970 -0.0189  0.3033  0.1989
12881W        W17181  22.600   2.444  29.752  0.0570 -0.1201 -0.0043
12882W        W17182   7.798   4.305  24.999  0.0529  0.0172 -0.0967
12883W        W17183   9.953   6.434  31.266 -0.1521  0.1042  0.1143
12884W        W17184  16.253   5.512  20.570  0.1854 -0.1331 -0.1834
12885W        W17185  14.009   5.627  13.646 -0.0924 -0.2224  0.3920
12886W        W17186  10.291   4.002  32.657  0.3032 -0.1488  0.1719
12887W        W17187  22.025   5.353  30.767 -0.0968  0.0506  0.1749
12888W        W17188  24.486   2.491  12.111  0.1869  0.0707 -0.0597
12889W        W17189  11.538   3.531   3.217  0.1819 -0.0677  0.1008
12890W        W17190   1.308   2.506   5.980  0.0080  0.0702 -0.2949
12891W        W17191  14.289   2.206   5.684 -0.2361  0.0842  0.0839
12892W        W17192   3.106   0.740   3.013  0.0593  0.0364 -0.3527
12893W        W17193  18.877   6.468  32.925 -0.1582  0.2048  0.1889
12894W        W17194   1.028   2.166   8.295  0.0323  0.1653 -0.2075
12895W        W17195  20.404   4.249  15.722  0.0054 -0.0159 -0.0180
12896W        W17196   2.122   0.940  22.193  0.2108  0.0629  0.0703
12897W        W17197  11.327   2.116  35.435  0.0709 -0.2071  0.2296
12898W        W17198   3.544   1.737   2.276  0.2258  0.0985 -0.0251
12899W        W17199   3.393   2.808  26.963  0.0842  0.0555 -0.0533
12900W        W17200  16.808   1.870  11.734 -0.0028 -0.0303  0.3379
12901W        W17201  16.460   0.648  15.020  0.1912 -0.0688  0.0748
12902W        W17202  15.257   2.151   3.051  0.0413  0.0271 -0.0438
12903W        W17203   2.523   0.425  14.583  0.1770  0.0454  0.0473
12904W        W17204   1.699   1.876  27.080  0.3438 -0.0665 -0.2619
12905W        W17205   3.973   4.505  12.847  0.0382  0.2467 -0.0984
12906W        W17206  10.464   1.049  25.568 -0.0610  0.0685  0.1612
12907W        W17207  22.459   3.770   9.725  0.0352  0.2649  0.2010
12908W        W17208   2.358   5.283   2.865  0.1765 -0.0895  0.2111
12909W        W17209   2.502   4.924  29.923 -0.1367 -0.2030  0.0769
12910W        W17210   7.836   2.069  13.719 -0.2476  0.1868 -0.0789
12911W        W17211   4.643   1.219   0.589 -0.0945  0.1215  0.0940
12912W        W17212  16.468   0.246  12.024 -0.1001  0.1236  0.1025
12913W        W17213  15.534   3.685   3.799  0.1266 -0.1206 -0.2388
12914W        W17214   1.967   2.708  29.824 -0.0272  0.1346  0.4662
12915W        W17215   2.388   1.912   3.945 -0.0527 -0.1053  0.0738
12916W        W17216   8.746   2.534  13.889  0.0249 -0.0638  0.2643
12917W        W17217  25.086   2.840  14.139  0.0343  0.0033 -0.0523
12918W        W17218   8.627   3.247   0.509  0.0636  0.0615 -0.0056
12919W        W17219  26.413   5.270  24.575 -0.3788 -0.1420  0.4707
12920W        W17220  17.644   4.534  24.333  0.0533 -0.0062  0.0470
12921W        W17221  20.855   4.018  11.059 -0.0887  0.0960 -0.0099
12922W        W17222  23.065   3.672  21.018 -0.1773 -0.1874  0.0275
12923W        W17223  23.185   6.121   7.433  0.0685  0.1601  0.0383
12924W        W17224   8.680   0.665   8.072 -0.0355 -0.1151  0.2791
12925W        W17225  15.340   2.393  35.666 -0.2541 -0.1292 -0.1658
12926W        W17226   7.695   2.769  11.607 -0.2220 -0.1065 -0.5781
12927W        W17227  22.772   3.900  34.073 -0.3987 -0.2008 -0.0833
12928W        W17228  20.353   3.181  22.427 -0.2675  0.1978  0.0813
12929W        W17229   1.635   1.210   0.863 -0.0815  0.0746 -0.1875
12930W        W17230   6.724   1.424  25.914 -0.1054 -0.1559  0.1977
12931W        W17231  17.473   0.878  27.391 -0.0009  0.2685 -0.1913
12932W        W17232  14.565   2.324  26.672  0.0855 -0.2024  0.1332
12933W        W17233   8.275   2.936  21.804 -0.2309 -0.3895  0.0616
12934W        W17234   9.995   2.049   9.096 -0.2506 -0.1545  0.0112
12935W        W17235  11.648   2.725   8.653 -0.3329  0.0011  0.0173
12936W        W17236  21.857   2.909  12.350  0.2699 -0.2147 -0.1168
12937W        W17237   4.964   2.953  21.249 -0.0350 -0.1004  0.0746
12938W        W17238  14.117   5.899  14.069  0.2354  0.2584  0.2341
12939W        W17239  11.013   4.206   2.158  0.1636 -0.0963 -0.0756
12940W        W17240  12.492   4.909  14.314  0.0650 -0.1095  0.0698
12941W        W17241   1.965   6.432  27.944 -0.0790  0.2855 -0.1847
12942W        W17242   3.453   3.695  28.330  0.1154  0.3447 -0.4731
12943W        W17243  16.982   5.705  32.839 -0.1176  0.2547  0.0198
12944W        W17244  18.377   2.712  29.346 -0.2903  0.0424  0.2204
12945W        W17245  17.769   0.562  30.991 -0.1708 -0.2652 -0.1444
12946W        W17246   5.318   3.839   8.377  0.1427 -0.1470  0.2158
12947W        W17247   0.084   0.848  26.258  0.0474  0.1593  0.1438
12948W        W17248  15.480   0.788  23.789 -0.1704 -0.0328 -0.2338
12949W        W17249   7.283   3.650   5.424 -0.1344 -0.0185  0.0623
12950W        W17250   2.389   0.363  22.839 -0.0908  0.3364  0.1170
12951W        W17251  14.474   5.569  29.716  0.0667  0.2154 -0.1615
12952W        W17252   5.113   5.929  28.789 -0.0114  0.1510 -0.0418
12953W        W17253   6.253   4.600  12.183 -0.2105 -0.0913 -0.1595
12954W        W17254  16.070   1.107  34.070 -0.1476  0.0126 -0.0049
12955W        W17255  13.559   2.358  25.814  0.0623  0.3839 -0.2055
12956W        W17256   4.134   4.886  21.793  0.3173 -0.0538  0.2700
12957W        W17257   1.428   1.750   1.527 -0.0377 -0.0149  0.2694
12958W        W17258  15.603   4.901  22.893 -0.1270 -0.0712  0.1781
12959W        W17259  13.284   0.762  23.280  0.1212 -0.0902 -0.1272
12960W        W17260  15.549   2.491   9.067  0.1617 -0.0236  0.2158
12961W        W17261   0.961   6.390  27.439  0.0314 -0.1198  0.1123
12962W        W17262   6.091   4.451   9.287 -0.5285 -0.2480  0.2421
12963W        W17263  15.744   3.201  22.359  0.0361  0.2784 -0.1317
12964W        W17264  17.097   3.935  25.837 -0.1969 -0.0211  0.1418
12965W        W17265  14.718   0.703   0.054 -0.1704  0.0055  0.0095
12966W        W17266  20.750   3.597  24.079 -0.1227  0.0422  0.1832
12967W        W17267   8.387   6.116   0.151 -0.1275 -0.2457  0.2206
12968W        W17268  17.171   1.562  21.207  0.1900  0.2488 -0.2212
12969W        W17269   5.427   0.651  29.076  0.0062  0.0356 -0.0456
12970W        W17270  13.559   0.561   5.169  0.1520 -0.2419  0.1366
12971W        W17271   0.584   1.659  11.077 -0.0266  0.3349  0.1071
12972W        W17272  19.892   6.266   9.878  0.0145  0.0144  0.1341
12973W        W17273   6.562   5.673  28.469 -0.2012 -0.1480  0.1606
12974W        W17274   3.201   0.247   2.237  0.1179 -0.0095  0.2262
12975W        W17275  20.713   0.032  35.290  0.0069  0.0510 -0.1870
12976W        W17276  24.153   1.906  34.459  0.0078 -0.1561 -0.0064
12977W        W17277  26.311   2.560  32.381  0.1016 -0.1463 -0.1131
12978W        W17278  23.820   3.230  27.459  0.0795  0.0918 -0.1524
12979W        W17279  14.242   3.482   2.613 -0.0260  0.2197 -0.0021
12980W        W17280   2.540   5.930  34.046  0.2761  0.1058 -0.1554
12981W        W17281  20.815   3.673   4.534 -0.0718 -0.1498  0.2598
12982W        W17282   6.292   5.395  21.413  0.3921  0.1212 -0.1585
12983W        W17283  10.786   5.444  26.645 -0.0178  0.3334 -0.1467
12984W        W17284  16.739   4.266  10.248  0.0283 -0.2040 -0.2000
12985W        W17285  19.944   4.434  12.704  0.0046  0.1587  0.0502
12986W        W17286  17.740   3.808  22.321  0.0430  0.1307 -0.1740
12987W        W17287  19.841   3.795  29.702  0.0604  0.0593 -0.1394
12988W        W17288  25.083   3.367  13.176 -0.2701 -0.0184 -0.0449
12989W        W17289  21.469   6.186  22.853 -0.0844 -0.0094 -0.0424
12990W        W17290  17.741   0.647  23.405 -0.2113  0.2611 -0.3763
12991W        W17291   8.002   1.377  30.076 -0.1195 -0.0250 -0.0421
12992W        W17292  25.574   0.185   4.340 -0.2021 -0.0698  0.0483
12993W        W17293   7.993   1.135   5.210  0.1372 -0.0131  0.1946
12994W        W17294  13.574   6.436   0.850 -0.0587  0.0155  0.0543
12995W        W17295   2.502   2.280  35.077  0.1287 -0.1775 -0.0389
12996W        W17296   3.961   0.807   4.091 -0.2449 -0.0190  0.0225
12997W        W17297  11.861   2.423   5.568  0.1345  0.0679 -0.0200
12998W        W17298  23.178   5.475  19.996 -0.2391  0.0638 -0.4962
12999W        W17299   2.661   4.423  34.653 -0.2967  0.1157  0.0826
13000W        W17300   2.883   3.011  10.259  0.0396  0.3741 -0.0021
13001W        W17301  12.492   1.773   8.826  0.0470 -0.0172  0.0901
13002W        W17302  23.262   4.612  31.259  0.1566 -0.1128  0.0349
13003W        W17303   7.757   3.388  31.070 -0.2398 -0.0435  0.0291
13004W        W17304  13.657   3.856   6.782  0.2838  0.0193  0.0000
13005W        W17305   4.012   4.798  35.804  0.1020  0.4732 -0.1812
13006W        W17306  18.431   1.386   3.685  0.0316 -0.3358 -0.0615
13007W        W17307  10.346   5.091  10.356  0.1818  0.1326 -0.1555
13008W        W17308   6.706   2.059  12.048 -0.2094 -0.1411 -0.2088
13009W        W17309   4.299   4.380  35.718  0.2005 -0.2498  0.3681
13010W        W17310   6.781   1.184  36.012 -0.0792 -0.1025  0.3274
13011W        W17311   6.380   2.374  14.833 -0.3639 -0.2912 -0.0607
13012W        W17312  25.811   5.130   1.326  0.2534  0.1059  0.1417
13013W        W17313  16.152   2.705  28.114 -0.0413 -0.1750  0.2490
13014W        W17314  16.212   3.399  13.672  0.0712 -0.1203 -0.1598
13015W        W17315  15.620   0.508  35.656  0.0480  0.4742 -0.0593
13016W        W17316   1.579   4.432   0.702 -0.1943  0.0621 -0.1734
13017W        W17317  23.243   3.905  25.640 -0.2285 -0.1196  0.0123
13018W        W17318  23.812   3.591  27.020  0.0595 -0.2057 -0.0472
13019W        W17319  23.490   3.961   0.148  0.1107  0.0409 -0.1557
13020W        W17320  23.829   5.954   0.112  0.1635 -0.0596 -0.0873
13021W        W17321   1.951   3.140  21.430 -0.1201  0.0980  0.0459
13022W        W17322  24.865   3.505   3.542 -0.0514  0.3084  0.0628
13023W        W17323   9.310   6.564   9.406 -0.1582 -0.1364 -0.0233
13024W        W17324   4.417   2.212   6.769  0.0076 -0.1468  0.1830
13025W        W17325  16.867   5.295  10.961  0.1489 -0.0744 -0.0050
13026W        W17326   3.991   4.311   4.717 -0.0368 -0.1022 -0.2638
13027W        W17327   9.457   1.404  27.113 -0.1519 -0.0163  0.0067
13028W        W17328   9.821   6.266   9.276  0.0917 -0.2930 -0.0477
13029W        W17329   7.240   4.936  31.376  0.0466  0.0065  0.2178
13030W        W17330  18.272   4.748   4.005  0.1631 -0.3157  0.1100
13031W        W17331  25.790   4.757  21.681  0.4255  0.0183  0.4665
13032W        W17332   9.266   0.291  13.821 -0.3024 -0.1294  0.1278
13033W        W17333  17.731   0.691  26.133 -0.1743 -0.0161 -0.0191
13034W        W17334   9.706   4.441   5.159  0.1711 -0.2412  0.4485
13035W        W17335  18.633   6.288   7.769  0.0724 -0.1653  0.1363
13036W        W17336  21.255   4.778  28.683 -0.0383  0.1896 -0.1843
13037W        W17337  26.408   3.903   1.571  0.0488  0.1432 -0.0410
13038W        W17338   3.041   1.625  25.598  0.2428  0.0324  0.0819
13039W        W17339  13.946   0.089  30.346 -0.1097 -0.3364  0.1033
13040W        W17340  11.089   3.426  23.615  0.2600  0.2190  0.2373
13041W        W17341   3.646   3.347  31.062  0.0689  0.2447 -0.5518
13042W        W17342  19.628   2.729  31.679  0.1606 -0.1898 -0.2474
13043W        W17343  25.405   1.129  21.394  0.2703  0.0217  0.1923
13044W        W17344   8.922   3.706   4.822  0.4770  0.4141 -0.0867
13045W        W17345  18.522   5.736   4.641  0.1355  0.1032 -0.2470
13046W        W17346  18.296   5.798  13.725  0.1361  0.5758 -0.0260
13047W        W17347  12.856   6.194   9.343 -0.1483  0.2285  0.1113
13048W        W17348  11.133   1.772   9.332  0.0225  0.2882  0.1870
13049W        W17349  12.007   3.217  15.560 -0.0295 -0.0370 -0.3700
13050W        W17350  18.561   1.634  21.030 -0.1106 -0.1367 -0.4583
13051W        W17351  22.538   0.839   3.958 -0.2237 -0.2409  0.1590
13052W        W17352  11.086   4.785  13.814  0.0848  0.0468  0.1806
13053W        W17353  23.667   3.669  12.322 -0.3017  0.0838  0.0125
13054W        W17354   9.196   4.212   1.153  0.0975  0.1998 -0.0954
13055W        W17355  17.197   5.844   9.496  0.2378  0.2512  0.1977
13056W        W17356   1.634   2.011  29.333 -0.1007 -0.0867  0.0847
13057W        W17357  23.779   6.440  11.838 -0.1046  0.1667  0.3587
13058W        W17358   0.933   2.935   1.532  0.0223  0.0360  0.0685
13059W        W17359   9.332   2.886   4.030 -0.3802  0.0455  0.4352
13060W        W17360   7.366   3.731  26.913  0.0966  0.0248 -0.0728
13061W        W17361  21.393   4.217   8.725 -0.2605  0.0978  0.0122
13062W        W17362   1.638   2.769   2.207 -0.0338 -0.1943 -0.0232
13063W        W17363   1.249   3.778  20.606  0.1524 -0.1390 -0.2347
13064W        W17364  17.536   0.858   7.197 -0.2506  0.0296 -0.2500
13065W        W17365  11.954   1.402  34.609  0.2095 -0.2270  0.2379
13066W        W17366  26.354   4.585  26.857  0.1516  0.2819  0.3501
13067W        W17367  15.205   6.501  15.359  0.0089 -0.1311  0.2277
13068W        W17368   7.256   4.762  21.088 -0.2324  0.0710 -0.1038
13069W        W17369   8.765   5.902   8.265  0.0982  0.0580 -0.1301
13070W        W17370   8.259   5.441  20.199  0.1393 -0.2413  0.1461
13071W        W17371  20.541   0.536  10.202  0.1277 -0.1278  0.1543
13072W        W17372  15.287   5.171   5.464  0.3166 -0.2716 -0.1714
13073W        W17373  22.368   1.861   7.101  0.3240 -0.0517  0.1363
13074W        W17374  22.949   3.437  21.472 -0.0505 -0.0813  0.0302
13075W        W17375  24.236   6.483  22.374 -0.0100  0.1469  0.3842
13076W        W17376  26.077   4.438  26.443 -0.0978  0.0461  0.1084
13077W        W17377  23.072   2.940  29.006 -0.3759 -0.0800 -0.1890
13078W        W17378   2.781   5.864   4.463  0.2832 -0.0128  0.0725
13079W        W17379  24.699   6.497  22.682  0.1223 -0.0115  0.1784
13080W        W17380   8.721   4.694   9.696 -0.0869  0.0780 -0.1157
13081W        W17381   6.654   5.823  31.231  0.4614  0.2132 -0.0471
13082W        W17382  14.188   2.801  34.918  0.1335  0.1727  0.0019
13083W        W17383   1.956   1.990  28.845  0.0336  0.0269 -0.0257
13084W        W17384   9.924   6.341  35.808 -0.1160 -0.2107  0.1367
13085W        W17385   1.610   0.412  25.409 -0.2621 -0.1472  0.0737
13086W        W17386   7.496   3.960   8.505  0.1106  0.0132 -0.4006
13087W        W17387  22.651   1.644  34.103 -0.0108  0.0566 -0.1332
13088W        W17388  16.843   5.549  33.319 -0.3826 -0.1976  0.0350
13089W        W17389   2.263   3.150  23.079  0.1657  0.0473 -0.1594
13090W        W17390  15.281   6.587   0.448  0.0563  0.3986  0.1174
13091W        W17391   2.845   0.886  25.036 -0.0115 -0.1827 -0.3268
13092W        W17392  13.660   0.560  35.492 -0.0289 -0.1132  0.0704
13093W        W17393   2.522   0.604  27.923  0.2201  0.0319  0.3096
13094W        W17394  10.122   2.343  11.766  0.0070  0.0929  0.1836
13095W        W17395  12.160   3.343  30.793 -0.2313 -0.0726  0.0865
13096W        W17396  10.701   5.295  11.578  0.0719  0.1548 -0.0304
13097W        W17397  15.534   6.520  22.631  0.0600 -0.0022  0.2371
13098W        W17398  22.020   6.147  13.519  0.0945  0.0277  0.1807
13099W        W17399   5.445   2.619   5.998 -0.3974 -0.0112 -0.4545
13100W        W17400  19.114   2.019  13.641  0.1540  0.2323  0.2807
13101W        W17401  13.906   5.230   5.511  0.2688  0.0874  0.1282
13102W        W17402   1.292   3.898  24.375 -0.1954  0.0516  0.1467
13103W        W17403   0.867   6.094   4.201  0.3139 -0.0279 -0.1897
13104W        W17404   9.287   3.718   4.026 -0.2564  0.1110  0.2777
13105W        W17405   6.632   0.751  27.719 -0.0646  0.0362 -0.0474
13106W        W17406  22.557   0.243  13.905 -0.2640  0.1883 -0.1740
13107W        W17407  22.979   2.060   6.483 -0.0902  0.2193 -0.4342
13108W        W17408  21.563   3.477  33.685 -0.2875  0.1102 -0.1053
13109W        W17409  10.321   0.960  28.679 -0.2077 -0.1067  0.2456
13110W        W17410  23.741   1.835  34.732  0.2677  0.1941 -0.1526
13111W        W17411  15.934   4.612   8.727 -0.1571  0.3454  0.0841
13112W        W17412  14.128   2.271  31.345  0.2027  0.0788 -0.2220
13113W        W17413  13.425   6.418  26.398  0.0290 -0.2330 -0.0109
13114W        W17414  11.624   4.729  30.887 -0.0156  0.2552 -0.0313
13115W        W17415  17.799   1.514  11.176 -0.2051  0.2779 -0.0985
13116W        W17416  12.572   5.009   4.633  0.0061 -0.0275 -0.0337
13117W        W17417  20.630   3.619  23.552  0.2124 -0.0485 -0.0872
13118W        W17418   3.921   2.333  35.477  0.0633  0.0500 -0.2363
13119W        W17419   9.556   2.351   9.105  0.1358 -0.0738 -0.0548
13120W        W17420  21.404   6.581  23.911  0.1203  0.0819 -0.1559
13121W        W17421  23.384   5.451  26.870  0.2151  0.0953  0.0699
13122W        W17422   3.615   3.301  26.157  0.0048  0.1327  0.0632
13123W        W17423   7.563   4.629   5.888 -0.0524 -0.1713 -0.1404
13124W        W17424   3.016   0.015   2.708  0.3365  0.2157 -0.3696
13125W        W17425  24.313   4.714  11.423  0.0756  0.2100 -0.0273
13126W        W17426  19.583   5.335  12.057 -0.0043  0.2917 -0.0365
13127W        W17427  26.383   6.258  20.991 -0.1508  0.3331 -0.3922
13128W        W17428  22.193   1.084  22.265  0.1345  0.0772  0.3623
13129W        W17429   0.034   0.024   7.468 -0.0908 -0.2826 -0.1023
13130W        W17430   1.073   2.521   1.846  0.0122  0.2518 -0.1892
13131W        W17431   0.869   3.241  21.812 -0.2026  0.1014 -0.0645
13132W        W17432   3.187   2.733  28.121  0.0960  0.0150 -0.6779
13133W        W17433   7.410   1.973  32.876 -0.0134 -0.1519 -0.0225
13134W        W17434  23.613   0.058   4.782 -0.4174 -0.0070  0.1591
13135W        W17435  13.620   3.290  24.110  0.1730 -0.0924 -0.0692
13136W        W17436  15.993   3.450   1.006  0.1355  0.1273 -0.0982
13137W        W17437  12.215   0.316  14.024  0.1427 -0.0355  0.2168
13138W        W17438  16.739   3.842  28.795 -0.2257 -0.0894  0.3027
13139W        W17439  21.692   4.853   4.679  0.0192 -0.2498  0.1707
13140W        W17440  14.437   0.924   5.385  0.0292  0.0818  0.1248
13141W        W17441  16.040   0.323  32.848  0.0445  0.0143  0.1623
13142W        W17442  12.286   0.581  23.045 -0.1573  0.1271  0.3561
13143W        W17443   2.968   1.539   9.106  0.1240 -0.0402  0.1135
13144W        W17444  22.351   5.396   5.167 -0.1739  0.1310  0.0404
13145W        W17445  11.670   6.154  10.884 -0.0225 -0.0467  0.1668
13146W        W17446  16.425   1.011  29.962  0.1195  0.0765 -0.3979
13147W        W17447  19.001   0.838   0.584 -0.1411  0.2074  0.2648
13148W        W17448  24.895   5.269  13.874  0.0283 -0.2144 -0.0202
13149W        W17449  22.962   4.143  23.804 -0.0248 -0.2850  0.0579
13150W        W17450   9.074   3.261  23.509  0.0484  0.1539 -0.1486
13151W        W17451  22.498   1.224   2.678 -0.1199 -0.1827  0.0271
13152W        W17452  17.921   2.748  24.148  0.2197  0.0358 -0.3167
13153W        W17453   1.487   2.681  30.111  0.0636 -0.0794  0.0863
13154W        W17454  25.204   0.466  34.280 -0.0911 -0.2992  0.0503
13155W        W17455   2.045   1.029  35.755  0.0010  0.1042 -0.3599
13156W        W17456  15.335   5.872   2.690  0.1149  0.2082 -0.1742
13157W        W17457   8.292   5.702  14.873  0.0504 -0.0098  0.2833
13158W        W17458  11.270   1.982  28.174  0.1143 -0.1895  0.0565
13159W        W17459   3.530   1.314  15.369  0.1422 -0.0542  0.1349
13160W        W17460  24.985   4.793  32.806  0.0600  0.0584  0.0978
13161W        W17461  11.022   5.352  14.934 -0.1321  0.0243 -0.0974
13162W        W17462   9.163   5.343   5.369 -0.2595  0.1458  0.0815
13163W        W17463  15.235   5.392   0.002  0.2592 -0.0946 -0.1248
13164W        W17464  18.235   3.528  15.301  0.1124  0.0115  0.1405
13165W        W17465  18.163   0.463   5.616  0.3732 -0.0599  0.1787
13166W        W17466  17.001   1.959   5.537 -0.1588  0.0233  0.1882
13167W        W17467  12.558   4.866  35.170  0.0788 -0.1838  0.2286
13168W        W17468   9.991   0.617  25.133  0.2032 -0.1950 -0.0384
13169W        W17469  10.830   4.380   5.220 -0.0424 -0.0060  0.5198
13170W        W17470  21.350   5.501  23.550  0.0762  0.0425 -0.1683
13171W        W17471  16.173   2.906   7.050  0.0445 -0.2639 -0.1127
13172W        W17472  20.561   5.466  31.773  0.0016  0.2693  0.1599
13173W        W17473   7.344   3.423  24.856 -0.1551  0.0104 -0.0203
13174W        W17474  18.845   5.960  25.230 -0.0478  0.1484 -0.0430
13175W        W17475  21.565   5.685  35.455 -0.3830  0.1407 -0.0791
13176W        W17476  16.835   2.385   9.503  0.3538 -0.0467 -0.0833
13177W        W17477  22.006   5.582  26.160  0.3543  0.1153 -0.4217
13178W        W17478   9.893   3.431   6.688 -0.0055  0.1807 -0.0273
13179W        W17479   5.733   3.869  26.919  0.0166  0.0493 -0.0824
13180W        W17480   7.186   2.661  11.325 -0.0012 -0.1564  0.3633
13181W        W17481  15.976   3.930  35.845  0.1012 -0.0852 -0.0160
13182W        W17482  22.236   1.548  35.446 -0.1832 -0.1194 -0.2995
13183W        W17483   1.706   5.476  34.038  0.5134 -0.1551 -0.3675
13184W        W17484  19.297   3.135  11.389  0.3217  0.1642  0.2892
13185W        W17485   4.248   3.475   1.444 -0.2252  0.0918  0.0766
13186W        W17486   4.221   3.391  29.197  0.1022  0.4245  0.0972
13187W        W17487  23.677   5.024  22.963 -0.1423 -0.0082 -0.0658
13188W        W17488   1.204   4.369   1.473 -0.0530  0.0554  0.4008
13189W        W17489  18.833   1.896  30.276  0.2833 -0.1531  0.1122
13190W        W17490   6.066   0.250  12.062  0.1680  0.0095  0.1695
13191W        W17491   9.894   1.718  32.344  0.1054  0.0137  0.0433
13192W        W17492  10.837   2.492   1.051  0.1258 -0.1349  0.1165
13193W        W17493  16.918   3.493  32.621 -0.6229 -0.1392  0.0079
13194W        W17494   2.501   4.249  33.575 -0.1289  0.0614 -0.3050
13195W        W17495  16.739   2.331  27.047  0.0512 -0.0598 -0.2371
13196W        W17496  23.111   5.919  24.888 -0.0155  0.1116 -0.0802
13197W        W17497  17.870   1.259  31.441  0.1785 -0.1411  0.0466
13198W        W17498   3.513   4.341  12.087  0.0834 -0.1665 -0.4119
13199W        W17499  17.870   0.968  22.011  0.1065  0.0196 -0.3793
13200W        W17500   2.710   3.586  26.473  0.1491 -0.0395  0.3051
13201W        W17501  19.583   3.054   7.571 -0.5079 -0.1018 -0.1167
13202W        W17502  21.391   0.353   8.650 -0.1431  0.0242 -0.0244
13203W        W17503  24.434   2.592   4.498  0.3812  0.3154  0.0854
13204W        W17504   1.326   2.722  26.833 -0.0243  0.0376  0.0350
13205W        W17505   7.416   2.804  36.108  0.1986  0.0647 -0.3214
13206W        W17506  10.378   2.372  30.551 -0.1402  0.1025  0.2034
13207W        W17507  21.518   6.248  14.782  0.2096  0.1025  0.0476
13208W        W17508   5.843   1.390   1.238 -0.0628 -0.2755  0.1061
13209W        W17509   8.784   2.755  27.615 -0.1582 -0.1484 -0.0081
13210W        W17510   1.183   3.914  11.706 -0.0324 -0.1677  0.0753
13211W        W17511   7.519   4.883  29.999  0.1825  0.1637  0.1531
13212W        W17512   9.703   5.422  24.425  0.0904 -0.0547 -0.0535
13213W        W17513  20.773   6.350   7.797 -0.3088  0.2650 -0.0544
13214W        W17514  19.492   4.344   7.398 -0.0510 -0.3014 -0.2653
13215W        W17515   1.894   3.745   7.216  0.1025 -0.2092 -0.1596
13216W        W17516  15.247   3.593  23.161  0.1351  0.0351  0.2954
13217W        W17517  21.043   0.426   5.192  0.0997  0.0022  0.0644
13218W        W17518   1.048   4.331  15.251 -0.3180 -0.3324  0.1893
13219W        W17519  13.016   0.710  14.137  0.1536 -0.1901  0.1323
13220W        W17520  10.587   2.780  13.474 -0.0039 -0.2559 -0.1678
13221W        W17521   2.351   4.843  36.122 -0.0360  0.2979  0.0449
13222W        W17522  23.272   3.151  33.250  0.0907  0.1064  0.0940
13223W        W17523   5.858   0.223  33.536  0.0262 -0.2368  0.2712
13224W        W17524  14.790   0.058  31.277 -0.2741  0.1305  0.0387
13225W        W17525   6.989   0.308  20.736  0.5264 -0.2157 -0.1422
13226W        W17526  11.978   2.528  26.122  0.0210  0.3520  0.2176
13227W        W17527   8.493   1.922  23.679  0.0614 -0.1725 -0.1480
13228W        W17528  14.061   1.490  29.171 -0.2239  0.1274 -0.0698
13229W        W17529  25.412   1.975  30.175 -0.0230  0.3287 -0.1138
13230W        W17530  21.194   4.444  32.137  0.0568  0.0102 -0.0362
13231W        W17531   8.357   4.328  22.181 -0.1471  0.0081 -0.2076
13232W        W17532   5.944   3.643   4.142 -0.0988 -0.2467  0.1451
13233W        W17533  26.191   1.399  10.935  0.2520 -0.1135 -0.2204
13234W        W17534  14.164   0.048  12.633 -0.2553  0.0769 -0.1935
13235W        W17535  13.382   0.492   4.689 -0.1387 -0.0069  0.0951
13236W        W17536   9.614   1.267  31.057  0.1097 -0.1266 -0.0173
13237W        W17537  13.746   0.643   4.330 -0.1179  0.1486 -0.3360
13238W        W17538  25.327   2.490   3.476 -0.0296  0.3883  0.1056
13239W        W17539   2.518   2.389   4.723 -0.1195 -0.2041 -0.0671
13240W        W17540  17.249   1.374  35.182 -0.1165  0.4309  0.1427
13241W        W17541   7.348   5.940  32.882 -0.1280 -0.3559  0.1597
13242W        W17542   4.170   3.056   3.041 -0.3138  0.1799 -0.1383
13243W        W17543   1.084   3.336   8.078  0.2154 -0.3478 -0.1870
13244W        W17544   9.347   4.076  27.485  0.0315 -0.4946  0.2056
13245W        W17545  10.856   5.476  23.773  0.1296 -0.0737 -0.0209
13246W        W17546   7.816   1.260  32.767 -0.0188 -0.0247  0.2272
13247W        W17547  11.772   4.611  27.002 -0.0054 -0.2500  0.0139
13248W        W17548   5.668   0.240  12.323 -0.0123  0.2364 -0.0179
13249W        W17549  18.523   2.292  34.649 -0.0120  0.0194  0.1211
13250W        W17550   6.086   4.677  33.222 -0.0431  0.0892 -0.0114
13251W        W17551   8.186   5.422  31.142  0.5131 -0.2053  0.1881
13252W        W17552  17.281   0.043   5.631 -0.1749  0.0023 -0.0900
13253W        W17553   5.324   3.744  29.790 -0.2098  0.1770  0.0800
13254W        W17554  20.187   3.668  23.305  0.2998 -0.2007 -0.2603
13255W        W17555  18.000   4.031  27.696 -0.1001  0.1064  0.2884
13256W        W17556  14.320   1.273  31.867 -0.1394  0.0073 -0.0453
13257W        W17557  26.217   0.116  29.739  0.0913  0.0566  0.0853
13258W        W17558   5.839   6.445  28.280 -0.2570  0.2787  0.0421
13259W        W17559  25.923   2.523  34.314 -0.1375 -0.1910 -0.1056
13260W        W17560  17.945   0.128  29.585 -0.0872 -0.0172 -0.0329
13261W        W17561  20.686   2.423  26.383  0.0562 -0.0362 -0.0854
13262W        W17562  18.604   0.760  10.685 -0.2681 -0.3246  0.1646
13263W        W17563  10.402   2.491   6.098  0.1256  0.1052  0.3453
13264W        W17564  10.544   2.561  10.720 -0.4946  0.0568  0.2767
13265W        W17565  16.026   4.138  30.463 -0.3279  0.2124 -0.0599
13266W        W17566  22.006   5.475  27.253 -0.0164 -0.0631  0.4093
13267W        W17567   4.981   3.324  30.232 -0.2779 -0.0525 -0.2151
13268W        W17568  21.832   0.862  11.293 -0.1510 -0.1177  0.2292
13269W        W17569  16.994   1.569  29.458 -0.0623 -0.1109  0.3405
13270W        W17570  10.935   0.425  27.599 -0.0001 -0.1959 -0.0445
13271W        W17571   4.896   4.712  32.795 -0.0802 -0.2266 -0.1499
13272W        W17572  11.888   1.501   1.895  0.1162 -0.2724 -0.0636
13273W        W17573  18.112   1.689  13.526  0.1399 -0.0017 -0.1886
13274W        W17574   4.259   1.371  10.214 -0.0442 -0.3215 -0.1308
13275W        W17575   2.727   3.162  30.800  0.1200 -0.1425 -0.0972
13276W        W17576   9.580   1.403  30.130  0.2679 -0.1096 -0.1248
13277W        W17577  16.962   0.731  24.495 -0.3886 -0.1156 -0.1052
13278W        W17578   1.517   4.008  33.457  0.2090  0.4174 -0.0653
13279W        W17579   8.167   4.072  24.095 -0.1837 -0.0390 -0.2794
13280W        W17580  13.271   5.277  29.389 -0.2951  0.0701  0.1967
13281W        W17581  22.203   0.164  27.041  0.0498 -0.1978  0.0247
13282W        W17582  20.390   3.063  12.160 -0.1070  0.3521  0.1773
13283W        W17583  21.922   5.226  20.750  0.0762  0.1145  0.0535
13284W        W17584  22.757   5.270  36.147  0.0825 -0.3094 -0.3510
13285W        W17585  19.592   0.471  27.723  0.0150  0.0503  0.1584
13286W        W17586  10.030   1.282  27.788 -0.1054  0.1841  0.0764
13287W        W17587  11.630   4.079   5.452 -0.2185  0.2584  0.0950
13288W        W17588  14.890   1.213   4.285  0.2336  0.1301 -0.1997
13289W        W17589  24.020   2.951  32.886  0.2420 -0.0866  0.1100
13290W        W17590  12.471   5.175   3.619 -0.0572  0.2227  0.1478
13291W        W17591   8.705   5.947  14.985 -0.0159 -0.1385 -0.0015
13292W        W17592  21.934   5.504  10.995  0.0514  0.1365 -0.0036
13293W        W17593  18.652   4.319  13.115  0.0867  0.3014 -0.1044
13294W        W17594  24.498   4.023   0.443 -0.0665 -0.3595  0.1830
13295W        W17595   7.320   0.345  20.315 -0.0953 -0.2627  0.0506
13296W        W17596  26.312   2.817  33.983  0.0743  0.0436 -0.1141
13297W        W17597  11.841   5.920   7.131 -0.0772 -0.1841  0.1848
13298W        W17598  11.229   3.708  20.317  0.0788 -0.1029 -0.0552
13299W        W17599   1.036   0.906  11.551 -0.0107 -0.3230 -0.0454
13300W        W17600  23.041   1.521  12.227 -0.2159  0.0030  0.1101
13301W        W17601  19.957   3.835  32.339 -0.3344  0.1079 -0.0693
13302W        W17602   0.166   5.641  20.736 -0.1607 -0.2575  0.1468
13303W        W17603   9.986   0.223   5.115  0.3409  0.1201  0.0321
13304W        W17604  25.718   2.169   9.353  0.1669  0.1342  0.3830
13305W        W17605  13.753   0.816  13.099 -0.2727 -0.0219 -0.1073
13306W        W17606   0.552   3.180  35.051 -0.1323  0.1440  0.0151
13307W        W17607  23.403   5.742   6.504 -0.0041 -0.3119  0.1588
13308W        W17608  25.767   4.321   9.242  0.2328  0.0179  0.1145
13309W        W17609   7.508   4.246  31.159  0.1142 -0.0308 -0.3330
13310W        W17610  16.143   4.969  27.968  0.1086  0.0225 -0.2912
13311W        W17611  18.819   4.193  13.640 -0.1155 -0.0215 -0.3231
13312W        W17612  24.647   5.986   4.405  0.0286  0.0293 -0.1203
13313W        W17613   0.327   6.160  13.803  0.1967  0.0855 -0.1921
13314W        W17614  12.943   3.027   2.867 -0.2758 -0.0293 -0.1774
13315W        W17615  16.271   3.524   8.681 -0.3108  0.4453 -0.1101
13316W        W17616  17.276   1.256  24.464  0.0746  0.0305 -0.0771
13317W        W17617   1.828   5.677  23.954  0.1912 -0.0336 -0.1345
13318W        W17618  12.477   3.628   9.903 -0.0694  0.1078 -0.3426
13319W        W17619  13.745   2.718  30.774 -0.1672 -0.0635  0.0062
13320W        W17620   3.538   4.496   4.735  0.1291 -0.0004 -0.1723
13321W        W17621  21.212   1.544   1.216 -0.2254  0.2806  0.1601
13322W        W17622   7.103   3.612  35.832  0.0380  0.2321 -0.1026
13323W        W17623  10.499   1.393   1.866  0.0298 -0.2441 -0.1495
13324W        W17624  10.067   3.540   2.199 -0.0952 -0.3104 -0.2278
13325W        W17625  11.762   0.901  33.414 -0.1581  0.0793  0.1145
13326W        W17626   1.776   2.796   4.833  0.1494  0.2863  0.1085
13327W        W17627  10.479   4.397  31.460 -0.1511 -0.1913  0.0886
13328W        W17628  19.858   3.589  12.739 -0.1363 -0.1210  0.3253
13329W        W17629   5.290   5.858  28.332  0.0951 -0.0958 -0.0005
13330W        W17630  13.989   5.337  27.828  0.0150  0.0394  0.3958
13331W        W17631   0.903   1.096  33.718 -0.2897  0.0542 -0.0608
13332W        W17632  22.929   3.303  32.866  0.1800  0.3917 -0.1111
13333W        W17633   7.144   5.206  34.128  0.0184  0.3910  0.4379
13334W        W17634  25.773   6.005   8.947 -0.1156 -0.2571  0.1761
13335W        W17635  20.551   2.006   4.209 -0.0299 -0.2571 -0.2449
13336W        W17636   5.416   1.509  10.928  0.0607  0.1272 -0.1392
13337W        W17637  21.559   1.794  30.129  0.0983 -0.2459 -0.0500
13338W        W17638   1.250   3.792   7.563  0.0038 -0.0048  0.0420
13339W        W17639  25.205   5.716  10.955  0.2187 -0.1104  0.0177
13340W        W17640  13.389   3.263  11.191  0.1610 -0.1348  0.0794
13341W        W17641  18.419   3.919  32.601  0.1174  0.1638  0.0584
13342W        W17642   4.235   0.606  28.797  0.0933 -0.0156 -0.2309
13343W        W17643  14.087   6.552  14.334  0.1518  0.0275  0.1299
13344W        W17644  15.437   3.282  27.814  0.2408  0.1064  0.1582
13345W        W17645  14.667   0.051  35.516 -0.2055 -0.0996  0.1116
13346W        W17646  26.373   0.399  22.312  0.3549 -0.2269 -0.4410
13347W        W17647  18.409   4.361  28.004  0.0927  0.0805 -0.0504
13348W        W17648  13.970   2.621  24.508 -0.0787 -0.1796  0.1152
13349W        W17649  13.498   6.532  32.596  0.1006  0.4136 -0.0145
13350W        W17650  19.372   0.688  26.541 -0.1262  0.2008  0.0711
13351W        W17651  19.708   1.969   1.537 -0.2235  0.2587  0.0367
13352W        W17652   7.212   1.575   3.170 -0.0365  0.0497 -0.2547
13353W        W17653  24.725   0.369  33.473  0.1481 -0.0845  0.0211
13354W        W17654  15.861   2.505  26.941  0.2667  0.0554  0.2207
13355W        W17655   1.794   3.205  33.334 -0.4153  0.1854  0.0080
13356W        W17656  21.741   3.474  10.181  0.2680 -0.1316  0.0425
13357W        W17657   1.550   6.412   5.908  0.0373 -0.2496  0.0262
13358W        W17658  11.080   4.204  24.792 -0.2503 -0.1841  0.1622
13359W        W17659  22.259   1.221  12.400 -0.0853 -0.0321  0.1353
13360W        W17660  22.426   5.600  31.739 -0.0666  0.2049  0.1312
13361W        W17661   7.333   3.218   9.505 -0.1357 -0.0984  0.0939
13362W        W17662  21.958   5.658  22.745  0.0080 -0.0591 -0.2089
13363W        W17663  25.707   1.292  34.984 -0.2701  0.2626 -0.1452
13364W        W17664  21.607   2.900   4.886  0.0817 -0.0438 -0.1265
13365W        W17665   3.140   2.623  14.405 -0.2208 -0.0889  0.1820
13366W        W17666   8.430   6.118  30.005 -0.1284 -0.2150  0.0293
13367W        W17667   3.209   4.109  27.491  0.0326 -0.3315 -0.3000
13368W        W17668  12.793   1.654  27.544  0.3020  0.2959 -0.2786
13369W        W17669  25.398   5.292   7.212 -0.2869 -0.0713  0.2298
13370W        W17670   8.493   2.407  29.459  0.0596  0.1650 -0.0968
13371W        W17671  20.510   0.797  11.440  0.2179 -0.0622 -0.2425
13372W        W17672   4.388   4.280   8.148  0.0581 -0.0254 -0.0016
13373W        W17673  19.661   0.832  35.911  0.0436 -0.0807  0.1393
13374W        W17674   9.285   3.334  12.057  0.0634  0.0691 -0.3596
13375W        W17675  14.134   6.241  15.072 -0.1240 -0.2096  0.2446
13376W        W17676   4.645   1.416   5.298  0.3276  0.0347  0.3527
13377W        W17677   7.398   4.425   4.957  0.0055  0.1702 -0.3769
13378W        W17678  17.623   1.560  36.019  0.2343 -0.3011  0.2452
13379W        W17679  20.005   0.116  27.750 -0.0299 -0.1104  0.1873
13380W        W17680   4.973   5.135  21.927  0.1556 -0.1835 -0.0231
13381W        W17681  10.705   4.980  23.008 -0.1369  0.0934 -0.0035
13382W        W17682   9.849   6.497  27.242  0.0933  0.0231 -0.2318
13383W        W17683  16.931   3.171   1.112 -0.2127 -0.1292  0.2372
13384W        W17684   5.874   4.323  35.436 -0.0524  0.0466 -0.1304
13385W        W17685  15.541   5.966  33.533 -0.0618  0.0600 -0.1862
13386W        W17686   0.403   0.891   3.417 -0.0969 -0.0313  0.0560
13387W        W17687   4.545   0.838  23.177  0.0124 -0.2767  0.0227
13388W        W17688   0.050   0.924  26.844  0.1786  0.0662 -0.1505
13389W        W17689  22.802   0.340  28.358  0.0788  0.2474  0.1020
13390W        W17690   1.115   0.630  12.050 -0.0928 -0.0786 -0.0701
13391W        W17691  18.749   5.336  10.451  0.1982  0.0150  0.1563
13392W        W17692  13.883   1.263  24.945  0.0048 -0.0365 -0.2127
13393W        W17693  14.938   1.675  31.053 -0.1228 -0.0703  0.1800
13394W        W17694  20.767   6.388  24.582  0.0935  0.0993  0.0583
13395W        W17695   4.723   5.356  22.344  0.3053 -0.0238 -0.1544
13396W        W17696  13.525   0.206  33.114 -0.0413 -0.2945  0.1064
13397W        W17697  10.449   5.729  23.978 -0.0131 -0.0089 -0.1155
13398W        W17698   8.755   5.280   4.368  0.0368 -0.1646 -0.3449
13399W        W17699   6.576   5.954  26.143 -0.2840 -0.0478  0.2306
13400W        W17700  20.331   5.874   1.219  0.4321 -0.4403 -0.2204
13401W        W17701  26.104   2.334   4.226  0.3464  0.0466 -0.1449
13402W        W17702  10.817   1.486   1.306 -0.1153 -0.1097  0.1320
13403W        W17703  13.331   3.229  13.798  0.0046  0.0105  0.1263
13404W        W17704  24.863   2.804   8.307 -0.0083  0.0239 -0.3797
13405W        W17705  23.845   0.941  27.721  0.1640 -0.3016  0.0931
13406W        W17706  11.532   0.939  31.076 -0.3814 -0.1542  0.0107
13407W        W17707   0.568   4.366  32.924 -0.4336  0.0511 -0.1032
13408W        W17708   8.246   5.484  32.914 -0.0189  0.2697  0.0563
13409W        W17709  21.052   5.305  24.928  0.0957  0.0150 -0.0852
13410W        W17710  26.104   4.653  27.864 -0.0435 -0.1255 -0.0863
13411W        W17711  14.618   2.820  23.337  0.2787  0.2731  0.0882
13412W        W17712  11.831   3.868  30.416 -0.0106 -0.0339  0.1927
13413W        W17713  10.133   3.640   0.321  0.2093 -0.0009  0.1384
13414W        W17714   3.947   4.894  34.591  0.0786  0.0869 -0.0583
13415W        W17715   4.954   1.916  27.596  0.0721  0.0437 -0.2932
13416W        W17716  24.251   2.648  30.494 -0.0993  0.1379 -0.0033
13417W        W17717  25.837   2.642   9.210 -0.1839  0.1143 -0.4338
13418W        W17718   8.403   5.169  29.666 -0.1674 -0.1362  0.2344
13419W        W17719  19.074   0.769   1.100  0.1599  0.0195  0.1914
13420W        W17720  18.189   5.165  33.093  0.3003 -0.1639  0.1666
13421W        W17721  12.616   0.895  30.261 -0.1015  0.2478  0.0603
13422W        W17722   7.294   5.171  27.058 -0.1362  0.0299  0.1100
13423W        W17723  22.489   5.219  28.382 -0.0135  0.0445 -0.0271
13424W        W17724   8.131   3.487  12.295 -0.3432  0.0715  0.0982
13425W        W17725  14.153   0.756   9.312 -0.2497 -0.4072  0.2421
13426W        W17726  21.722   0.668  15.128  0.2063 -0.2433  0.0693
13427W        W17727  18.760   2.785  34.822 -0.2034 -0.0662 -0.1107
13428W        W17728  24.686   5.754   4.851 -0.2003  0.0798 -0.1142
13429W        W17729   3.942   2.663   2.913 -0.0136  0.1994  0.1413
13430W        W17730   4.282   6.527  26.064 -0.1991  0.1677  0.0151
13431W        W17731   3.487   6.519   1.903  0.2129 -0.0830 -0.0095
13432W        W17732  15.571   6.109   9.280 -0.0282 -0.0873  0.2839
13433W        W17733  13.152   4.276   7.520 -0.0081 -0.1257 -0.0508
13434W        W17734  18.938   1.512  22.049  0.1429 -0.1541  0.0300
13435W        W17735  22.787   5.356  12.682  0.0169 -0.0239  0.3792
13436W        W17736  20.932   4.905   3.507  0.1050 -0.0401  0.1406
13437W        W17737  23.587   5.701   8.892 -0.1217  0.1789 -0.0062
13438W        W17738  10.142   2.844   5.847 -0.0459  0.3526  0.0350
13439W        W17739  23.081   1.096  13.887 -0.1248  0.2663  0.1518
13440W        W17740  25.004   3.346  29.571 -0.2108 -0.1339  0.0905
13441W        W17741  10.338   0.473  35.241  0.1531 -0.2410 -0.0622
13442W        W17742   1.925   5.978  23.600 -0.2184 -0.0607 -0.2273
13443W        W17743   6.624   2.398  21.151  0.0885  0.1678  0.0368
13444W        W17744   2.043   3.359  10.812  0.5138 -0.0696 -0.0902
13445W        W17745  13.648   3.102  31.432  0.1003 -0.0071  0.2573
13446W        W17746  13.739   0.256   0.769  0.1923  0.0105  0.0919
13447W        W17747   5.032   0.502  14.060  0.1784 -0.2857 -0.0967
13448W        W17748  11.175   5.093  23.305  0.2360  0.1673 -0.1259
13449W        W17749   7.727   4.190  22.761  0.4922  0.1214  0.0333
13450W        W17750   4.486   5.819  11.381  0.1663  0.0460  0.2325
13451W        W17751  23.484   5.856  22.542  0.4144 -0.0183 -0.0316
13452W        W17752   9.726   2.931   1.405  0.2456  0.2501  0.0264
13453W        W17753  26.300   1.976  30.169 -0.2465 -0.1292 -0.0266
13454W        W17754   3.625   3.202  22.071  0.0477 -0.3291  0.2289
13455W        W17755  12.182   6.568  33.583 -0.1841 -0.0571  0.2858
13456W        W17756   2.002   2.222   6.644  0.0076  0.1173 -0.3092
13457W        W17757  15.229   3.000  25.972  0.0151  0.1369  0.2924
13458W        W17758   5.049   3.572  31.753  0.3065  0.1365 -0.0863
13459W        W17759  19.169   5.802  27.107  0.2936  0.0557  0.0939
13460W        W17760   9.610   6.525  31.601 -0.2603 -0.1034  0.0436
13461W        W17761   1.909   4.020   3.655 -0.2289 -0.1252 -0.0892
13462W        W17762   6.077   5.478  27.823  0.0629  0.2033  0.2019
13463W        W17763  12.832   2.336   5.777 -0.1535  0.2481 -0.1046
13464W        W17764  18.734   4.703  23.409 -0.0676 -0.0564  0.0590
13465W        W17765  11.005   2.178  25.924 -0.3891 -0.0166  0.2234
13466W        W17766  16.271   1.684  15.293 -0.1318  0.3041 -0.5645
13467W        W17767  21.054   5.748  21.449 -0.0017  0.2787  0.1099
13468W        W17768   9.739   1.728  31.412 -0.3343  0.3990 -0.2447
13469W        W17769  23.778   2.931  28.289 -0.3595 -0.1280  0.2560
13470W        W17770   4.328   1.107   4.197 -0.0486  0.0039  0.0103
13471W        W17771  21.702   1.439  15.032 -0.3015 -0.3064  0.1320
13472W        W17772   4.906   0.286   3.633  0.1536  0.0330  0.2363
13473W        W17773  11.900   2.772   3.186  0.1379  0.3794  0.2403
13474W        W17774  14.284   4.284  22.388  0.1442  0.0144 -0.1753
13475W        W17775   8.813   4.169  22.661 -0.0433  0.1805  0.0216
13476W        W17776  22.141   3.229  29.074 -0.0442 -0.0737 -0.1573
13477W        W17777  26.234   0.430   7.830  0.2385 -0.0114 -0.3115
13478W        W17778  17.841   3.785  24.904  0.0937  0.2234  0.4410
13479W        W17779  14.102   5.292   0.400  0.1459  0.0228 -0.2463
13480W        W17780   6.656   1.983  20.851  0.0012 -0.2548 -0.0433
13481W        W17781  16.089   5.096   1.284 -0.0458  0.1351  0.2603
13482W        W17782   1.934   3.591  32.569 -0.1588  0.0972  0.3191
13483W        W17783  23.946   4.172   7.002  0.1438  0.0875  0.0472
13484W        W17784  14.230   4.586  29.860 -0.1410  0.2496 -0.0534
13485W        W17785   8.228   4.308  22.700 -0.0450 -0.0041 -0.5051
13486W        W17786  16.773   5.969  10.434  0.2625  0.2202 -0.0771
13487W        W17787  16.493   0.896  35.418  0.1360 -0.1105 -0.2430
13488W        W17788  26.231   2.163   3.198  0.0745  0.2030 -0.2818
13489W        W17789  23.347   3.262  34.371  0.3841 -0.2453  0.1732
13490W        W17790  20.310   3.688  29.431 -0.2226 -0.0961 -0.1265
13491W        W17791  13.629   5.553   0.411 -0.0616 -0.0162  0.2310
13492W        W17792  18.785   0.812  14.250 -0.0133  0.0281 -0.0147
13493W        W17793  14.377   2.217  34.900  0.2334 -0.2270 -0.0531
13494W        W17794  25.293   5.924  11.566 -0.0264 -0.0254 -0.0110
13495W        W17795  25.585   3.902  11.670  0.0442 -0.0476  0.1704
13496W        W17796  26.284   5.290  35.429  0.0398  0.2696 -0.1967
13497W        W17797  21.920   4.271  21.452  0.0025 -0.0458  0.1327
13498W        W17798  10.166   5.402  27.714 -0.1593 -0.1598 -0.0317
13499W        W17799   7.801   4.329  15.144  0.1733  0.1963 -0.1349
13500W        W17800   9.978   0.902  14.367 -0.1935 -0.2485  0.0773
13501W        W17801  17.106   6.208  10.126  0.0418 -0.1485  0.0737
13502W        W17802  10.974   4.924   7.258 -0.0063  0.0025  0.1808
13503W        W17803  14.115   3.941  26.112 -0.0340 -0.0398  0.1475
13504W        W17804   2.347   0.979   8.662 -0.1328  0.0749  0.0659
13505W        W17805   5.720   6.398   1.636 -0.3184 -0.0170 -0.1508
13506W        W17806   9.037   0.750   2.257  0.1520 -0.1285  0.0384
13507W        W17807   0.081   6.602  33.922  0.2261  0.0518 -0.3200
13508W        W17808  24.241   2.086  33.209 -0.0955  0.1731 -0.3750
13509W        W17809  12.559   3.341  32.262  0.0291 -0.1988 -0.0385
13510W        W17810   5.443   2.319  21.070  0.0560 -0.0490  0.0539
13511W        W17811  13.203   2.060   7.588  0.0461  0.2556  0.0010
13512W        W17812  24.095   5.982  22.115  0.0361  0.0237  0.0357
13513W        W17813  12.623   1.782  14.239 -0.0872 -0.0461  0.1627
13514W        W17814  17.861   4.534  23.339 -0.3848  0.0212  0.4027
13515W        W17815   6.439   2.421  11.680  0.0130  0.0888  0.0261
13516W        W17816  25.923   1.718   9.263  0.0319 -0.2201 -0.0576
13517W        W17817  18.903   3.466  26.583  0.2323 -0.1230  0.3080
13518W        W17818   8.597   1.944  28.118  0.2850 -0.0473  0.0086
13519W        W17819   7.493   0.682   7.107 -0.1858 -0.1605  0.0720
13520W        W17820  22.469   2.588   3.906  0.2589  0.0679 -0.0064
13521W        W17821  11.988   6.281   3.359  0.2900 -0.0324 -0.1004
13522W        W17822   8.739   3.758   0.561 -0.1629 -0.2841  0.0987
13523W        W17823   8.505   3.616  31.171  0.1297  0.1250  0.0142
13524W        W17824   9.607   0.532  28.310 -0.0905 -0.0894 -0.1261
13525W        W17825  10.461   3.160  34.958  0.1856 -0.1035 -0.1037
13526W        W17826   4.597   5.145  30.329 -0.3533 -0.1778 -0.1305
13527W        W17827   5.085   0.567  36.070 -0.1272 -0.1248 -0.1111
13528W        W17828   2.196   5.304  11.103  0.0209 -0.0532  0.1703
13529W        W17829   8.287   2.332   3.203 -0.4149 -0.1394  0.0493
13530W        W17830  24.297   4.048  14.335 -0.0301  0.0246  0.2702
13531W        W17831  14.400   3.258  29.150 -0.0599  0.1027 -0.2358
13532W        W17832   4.506   1.461   8.943 -0.2524 -0.1003  0.3449
13533W        W17833   4.186   5.560   6.267 -0.1951 -0.2230 -0.2854
13534W        W17834   6.843   3.232  13.304  0.0929  0.0817  0.1689
13535W        W17835  12.814   3.558   3.186 -0.1117 -0.1979 -0.0180
13536W        W17836  15.262   3.708   5.910 -0.0852 -0.0163 -0.0602
13537W        W17837  21.059   5.256  36.055  0.2229 -0.0992 -0.0122
13538W        W17838  17.977   4.574  11.759 -0.0294 -0.0583 -0.1656
13539W        W17839   4.493   0.310  11.344  0.0720 -0.1057 -0.2173
13540W        W17840   4.839   5.868  10.415 -0.0580  0.1050 -0.2238
13541W        W17841  15.661   5.173  35.143  0.0557 -0.0304  0.0620
13542W        W17842   6.464   4.411  10.007  0.1808 -0.0315  0.1341
13543W        W17843  13.826   2.333  13.647 -0.0322  0.1471 -0.0453
13544W        W17844   1.146   1.110  22.518 -0.1907  0.4405  0.1651
13545W        W17845   6.840   3.197  31.692 -0.0651  0.2050  0.1475
13546W        W17846   6.996   3.942  31.990 -0.2425 -0.5052 -0.1472
13547W        W17847  19.341   4.916  31.045 -0.0065  0.1339 -0.0854
13548W        W17848   6.061   2.361   1.736 -0.1760 -0.1856  0.0011
13549W        W17849  14.769   0.169  22.336  0.3246 -0.0508 -0.2457
13550W        W17850  16.292   4.922  13.169  0.0186 -0.1835  0.0620
13551W        W17851  14.516   1.886  30.140  0.2757 -0.3765  0.1402
13552W        W17852   3.236   0.741  21.124 -0.0317 -0.1850  0.0893
13553W        W17853  22.593   1.574   8.539  0.1927  0.1096  0.0501
13554W        W17854  25.240   4.244   5.988 -0.1413  0.2441 -0.2661
13555W        W17855  15.695   2.198  24.242  0.3579  0.1175 -0.0690
13556W        W17856  22.565   3.912   6.801 -0.0611  0.0811  0.0435
13557W        W17857  16.656   1.444  14.091  0.0815  0.1154  0.1819
13558W        W17858  23.286   6.547  11.687 -0.1207  0.0443 -0.3517
13559W        W17859  15.289   4.406  23.480 -0.2277 -0.0661  0.3129
13560W        W17860   8.512   5.362   0.442  0.0039 -0.0155  0.1269
13561W        W17861   0.331   0.425  11.016  0.0879 -0.1410  0.0726
13562W        W17862  22.829   6.473  28.550  0.0537 -0.3105  0.0985
13563W        W17863  14.840   2.220  11.588  0.1814 -0.1083 -0.1228
13564W        W17864  20.055   0.188  13.483  0.1160  0.1210 -0.0687
13565W        W17865  12.123   5.847  28.741  0.2203 -0.0744 -0.1672
13566W        W17866  12.918   0.529  32.444  0.1115 -0.1230  0.0734
13567W        W17867  22.852   2.690  24.389 -0.1693 -0.1921 -0.0783
13568W        W17868   1.570   1.338  21.381 -0.1163 -0.2836  0.2312
13569W        W17869   5.147   6.158  32.703  0.1929  0.2535 -0.2666
13570W        W17870  13.444   1.360  33.846 -0.1058 -0.4789  0.2273
13571W        W17871  10.101   4.370  23.964 -0.1354 -0.0210  0.0888
13572W        W17872  19.364   3.511   2.748 -0.0575  0.0118  0.0779
13573W        W17873  10.791   4.565  14.293  0.2393  0.3298 -0.1313
13574W        W17874  20.309   0.180  31.865  0.1414  0.2175 -0.2972
13575W        W17875  11.153   3.531   5.450  0.1077  0.0011  0.0715
13576W        W17876   7.236   0.458   0.977 -0.2534  0.2606  0.0845
13577W        W17877   0.357   2.863  14.655 -0.1479 -0.2283  0.2537
13578W        W17878  23.291   5.138   9.613 -0.0615 -0.1806  0.1637
13579W        W17879   7.318   1.098   6.232  0.1468  0.3787  0.3820
13580W        W17880  13.743   4.345  11.955  0.0135  0.1169  0.2249
13581W        W17881  11.289   0.104  25.864  0.1097 -0.2049  0.2127
13582W        W17882  15.630   1.583   2.361  0.3263  0.2558 -0.2810
13583W        W17883   2.011   3.511   9.939 -0.1283 -0.1737  0.2088
13584W        W17884  20.667   5.878  34.287 -0.1326 -0.3381 -0.1549
13585W        W17885   9.374   6.035  11.879 -0.1737 -0.0648 -0.1798
13586W        W17886  11.910   0.756  27.295  0.0371 -0.0387  0.1508
13587W        W17887   8.861   5.880   1.899  0.2484  0.3389 -0.2525
13588W        W17888   3.494   3.468   7.479  0.4405 -0.0472 -0.0174
13589W        W17889  13.323   3.760  25.627 -0.2560  0.3663 -0.0337
13590W        W17890  16.329   6.117   3.758 -0.1144 -0.1532 -0.1829
13591W        W17891   4.873   5.039  30.777  0.0603 -0.1346  0.1348
13592W        W17892   9.229   0.664  14.818 -0.0157  0.0911 -0.2594
13593W        W17893  18.306   2.731  26.720  0.0920 -0.3498  0.1508
13594W        W17894  22.868   2.322  27.689 -0.0066 -0.0790 -0.0285
13595W        W17895  13.750   6.533   9.414  0.2715 -0.1329  0.0839
13596W        W17896   1.564   5.612  11.212 -0.2407  0.1665 -0.0401
13597W        W17897  24.724   0.025   3.622 -0.4142  0.0678  0.2233
13598W        W17898   7.044   0.735  30.021 -0.0130 -0.0312  0.0477
13599W        W17899  10.910   5.577   8.452  0.0615  0.1694  0.2384
13600W        W17900   1.599   3.867  25.895 -0.1014  0.0481  0.1363
13601W        W17901  10.764   3.493   9.837  0.0689 -0.0800  0.3374
13602W        W17902   2.842   3.546  13.390  0.1639 -0.0868  0.2094
13603W        W17903  17.275   2.478  32.723  0.1080 -0.3754 -0.0820
13604W        W17904  21.843   5.035   5.888  0.1923 -0.2247 -0.0253
13605W        W17905  10.445   5.089   7.369  0.0806 -0.2290 -0.1657
13606W        W17906   5.800   3.573  12.947  0.0226 -0.0202 -0.1254
13607W        W17907   9.717   1.002  28.363  0.0307 -0.4040  0.2166
13608W        W17908   5.060   0.317  31.160 -0.1968  0.0849  0.2063
13609W        W17909  12.127   5.619  13.986 -0.3240 -0.0269 -0.3160
13610W        W17910  21.676   4.813  35.761  0.0184 -0.0917 -0.1437
13611W        W17911   9.274   2.404   7.427 -0.0997  0.0269  0.0686
13612W        W17912  10.112   5.388   7.186 -0.2654  0.0190  0.0728
13613W        W17913   8.739   1.457  28.419 -0.2989  0.1150  0.1632
13614W        W17914  11.104   1.980   1.430 -0.0330 -0.2160 -0.3163
13615W        W17915   2.451   5.790  32.536 -0.0426 -0.2150  0.0897
13616W        W17916  12.580   2.640   5.356 -0.3057 -0.0925  0.2834
13617W        W17917  25.165   4.312  23.257 -0.3167  0.1061 -0.0766
13618W        W17918  16.271   5.596   4.776 -0.0356  0.1287 -0.2349
13619W        W17919  13.723   0.363  11.864 -0.0663  0.3826  0.3335
13620W        W17920  19.963   0.654   0.158 -0.0085  0.2123  0.2642
13621W        W17921   1.525   5.887  15.268  0.1238 -0.0298 -0.1608
13622W        W17922  18.647   5.444   9.062 -0.0880  0.1322 -0.0680
13623W        W17923  15.746   2.560  24.813 -0.0616 -0.2452  0.1648
13624W        W17924  20.484   5.865   3.351  0.0639 -0.0352 -0.2183
13625W        W17925  24.270   0.273  22.064  0.1969  0.0243 -0.1885
13626W        W17926  16.157   4.486  28.691 -0.0075 -0.4663 -0.0258
13627W        W17927   4.822   3.712  10.212 -0.1003 -0.0155 -0.2246
13628W        W17928  11.421   2.866  10.401 -0.2183  0.2457 -0.1421
13629W        W17929  25.146   0.849  25.319 -0.1550  0.0090 -0.0040
13630W        W17930  24.617   1.716  30.736  0.0081 -0.1740  0.0236
13631W        W17931  20.235   0.060  34.332 -0.0140  0.0869  0.4826
13632W        W17932  10.141   3.119  30.759 -0.0187 -0.1515  0.0525
13633W        W17933  19.741   2.513   7.528 -0.0058 -0.3196 -0.1009
13634W        W17934  22.717   3.796   8.402 -0.0865  0.0802 -0.1318
13635W        W17935  13.383   2.165  24.758 -0.3381  0.0893  0.1326
13636W        W17936   9.145   3.241  15.317  0.0776 -0.0109  0.1814
13637W        W17937  15.869   6.147  22.700 -0.1486 -0.0966 -0.2411
13638W        W17938  20.677   2.965   0.573  0.1291 -0.1633  0.2542
13639W        W17939   5.377   6.070  14.870  0.1697 -0.2066  0.1211
13640W        W17940   4.360   5.321  15.354  0.1027 -0.0859  0.1176
13641W        W17941  16.283   4.393  33.574  0.0180  0.2473  0.0689
13642W        W17942   5.816   3.784  10.767 -0.1663 -0.2832 -0.2246
13643W        W17943   3.772   1.094  22.060 -0.0963 -0.2053  0.0989
13644W        W17944   6.162   5.192  31.825 -0.0981  0.2853 -0.2889
13645W        W17945  21.738   5.216   3.253 -0.0497  0.0368  0.0847
13646W        W17946  25.506   3.379  27.072 -0.1546 -0.0196  0.0183
13647W        W17947  13.143   5.313  13.226  0.2959 -0.3088  0.0193
13648W        W17948  12.267   4.524  35.885  0.0162  0.3141  0.1650
13649W        W17949  14.330   1.261   1.890  0.2638 -0.3325  0.1284
13650W        W17950  20.653   2.102  25.966 -0.0272 -0.0248  0.2024
13651W        W17951  11.950   5.832  36.046  0.0748  0.0921  0.2310
13652W        W17952  20.987   4.925   8.375 -0.0761  0.0460  0.1182
13653W        W17953  10.883   6.600   7.019 -0.3785  0.1133 -0.0084
13654W        W17954   5.970   2.100  31.140  0.0105 -0.2647  0.2428
13655W        W17955  16.637   0.441   6.371  0.2221 -0.3907 -0.3467
13656W        W17956  17.304   0.699  13.645 -0.3167 -0.0214  0.1515
13657W        W17957   9.497   3.663  30.649 -0.1555  0.0150 -0.3877
13658W        W17958  23.738   4.413  10.923 -0.2684  0.0462 -0.1297
13659W        W17959   3.395   3.497  33.254  0.3360  0.2213 -0.0494
13660W        W17960  21.273   0.425  31.704 -0.0557  0.0546 -0.2746
13661W        W17961   4.671   4.993  15.028 -0.3010  0.1470  0.1256
13662W        W17962  24.045   1.629  13.408 -0.1700 -0.1998  0.0732
13663W        W17963   3.709   5.284  23.369  0.0776 -0.1710 -0.1339
13664W        W17964  16.524   2.586   2.797 -0.2982 -0.0875  0.0608
13665W        W17965  20.760   2.579  28.585 -0.3602 -0.1031 -0.2466
13666W        W17966  20.874   1.964  33.949  0.0953  0.0188 -0.2501
13667W        W17967  22.060   4.927   8.234 -0.0935  0.2785 -0.0929
13668W        W17968  22.772   4.042  25.906 -0.1990 -0.0489 -0.3822
13669W        W17969   2.341   0.154  27.708  0.0170  0.2907 -0.1879
13670W        W17970  20.961   6.548  34.863 -0.1051 -0.1668 -0.2408
13671W        W17971   5.265   6.596   4.456  0.3215 -0.2638 -0.2615
13672W        W17972  19.297   3.031   7.155 -0.0718 -0.0828 -0.1776
13673W        W17973  14.379   0.668  27.099  0.3230 -0.0373 -0.1803
13674W        W17974  12.987   4.898  10.751  0.0494  0.2406 -0.1525
13675W        W17975  25.160   1.292   4.612 -0.3430  0.2645 -0.0513
13676W        W17976  14.206   5.752  28.334  0.2818 -0.0236 -0.2074
13677W        W17977   2.702   6.525  24.739  0.2497 -0.0441  0.0601
13678W        W17978  14.836   2.982  15.156 -0.0511  0.0691 -0.1778
13679W        W17979  26.031   0.567  29.990 -0.0698  0.1569 -0.1391
13680W        W17980  10.585   6.400  11.260 -0.1112 -0.0371  0.4359
13681W        W17981  11.796   6.437  10.421 -0.2620  0.0484  0.1900
13682W        W17982   4.148   6.200   8.224 -0.1477  0.0309 -0.0680
13683W        W17983  22.797   3.448   9.468 -0.1808 -0.1943 -0.2238
13684W        W17984  18.920   3.645  34.315  0.0911  0.0302  0.0530
13685W        W17985  19.873   3.510   1.193  0.1301  0.1172 -0.4403
13686W        W17986  21.742   2.179   8.893 -0.1569 -0.2579 -0.0771
13687W        W17987  21.897   2.880  29.651 -0.1796 -0.1357  0.1205
13688W        W17988   1.542   2.968  32.023 -0.2106 -0.1281 -0.0853
13689W        W17989   5.461   4.098  23.680 -0.3730 -0.3755  0.2417
13690W        W17990  23.644   5.447   0.970 -0.3693 -0.0223  0.1787
13691W        W17991   5.197   3.119  34.904  0.0315  0.0136  0.3359
13692W        W17992   7.863   3.568  25.495 -0.1622  0.1279  0.0241
13693W        W17993  12.137   2.931   3.606  0.2289  0.2610 -0.0139
13694W        W17994  17.667   3.671  21.785  0.3747 -0.2483 -0.3775
13695W        W17995   0.871   0.085  25.093  0.1235 -0.0078  0.1639
13696W        W17996  13.308   5.306  24.726  0.2208  0.0283 -0.0624
13697W        W17997  17.938   5.090  21.010  0.0846 -0.1986  0.1472
13698W        W17998  18.485   2.497  11.651 -0.0257 -0.1616 -0.2224
13699W        W17999  12.105   3.912  11.877  0.1331  0.0836  0.1410
13700W        W18000  10.746   5.129  30.834 -0.0175  0.0299 -0.3389
13701W        W18001  17.122   4.876   7.295 -0.1023  0.1145  0.0922
13702W        W18002   8.671   0.521  13.087 -0.0991  0.2442 -0.1317
13703W        W18003  21.931   3.657  14.105 -0.2371 -0.1930  0.0912
13704W        W18004  10.735   0.388  20.992  0.0115  0.1433 -0.4271
13705W        W18005   5.792   0.211  26.957 -0.4179  0.2778 -0.2150
13706W        W18006  14.188   4.577  13.688  0.3679 -0.2400 -0.3006
13707W        W18007   2.876   0.050  25.619  0.0972  0.0643 -0.2853
13708W        W18008  17.756   4.641  16.181  0.0830  0.3440 -0.2337
13709W        W18009   6.565   5.472  32.268  0.2281  0.1347  0.2361
13710W        W18010  15.548   3.017   7.632 -0.0322 -0.0047  0.0248
13711W        W18011   6.560   0.021   9.226  0.1236 -0.0652  0.2305
13712W        W18012   9.104   6.231   1.602  0.3001  0.1934  0.0959
13713W        W18013  21.644   2.095   6.544  0.4366 -0.1528 -0.1565
13714W        W18014   9.797   5.453  22.217  0.0884 -0.1267  0.1431
13715W        W18015  13.358   3.597  24.987  0.0895 -0.3126  0.0304
13716W        W18016   8.624   6.362   9.645  0.1599 -0.0798  0.2341
13717W        W18017  19.828   4.951  35.615  0.1324 -0.3123  0.0300
13718W        W18018  13.946   5.902  12.698  0.2761  0.1215  0.3037
13719W        W18019  11.700   1.812  21.478  0.1078 -0.0786  0.2433
13720W        W18020   5.746   0.277  25.922 -0.0788 -0.1939  0.0235
13721W        W18021   8.082   4.184   0.114 -0.1065  0.1982  0.2025
13722W        W18022  26.284   1.355   4.155  0.1295  0.4111  0.0103
13723W        W18023  10.832   4.643  29.426  0.0066  0.0245 -0.4549
13724W        W18024  16.673   2.439   3.693 -0.2634  0.2357 -0.2328
13725W        W18025  23.453   6.464  27.522 -0.3402 -0.3099 -0.2432
13726W        W18026  22.093   4.659  12.478  0.0462 -0.0391  0.2744
13727W        W18027   6.994   0.923   2.473  0.0165 -0.1338  0.1580
13728W        W18028  13.625   4.713  27.678  0.2642  0.0227 -0.1575
13729W        W18029  12.576   6.232   8.868  0.2817 -0.0286  0.2765
13730W        W18030  25.077   6.297   0.598 -0.0876 -0.1097 -0.2122
13731W        W18031   8.102   1.276  24.241  0.6283  0.0007 -0.0443
13732W        W18032   7.556   2.638  21.904  0.2703 -0.0360 -0.1425
13733W        W18033   8.621   2.970   5.915  0.1853  0.2339 -0.1916
13734W        W18034  17.904   4.126  14.449 -0.2737  0.0282  0.0523
13735W        W18035  11.602   2.988  30.407  0.0288  0.1015 -0.2432
13736W        W18036   5.429   5.810   2.393 -0.1273  0.0056  0.0516
13737W        W18037   0.009   6.016   2.334 -0.0224  0.0523  0.2160
13738W        W18038  17.793   6.179  11.127 -0.0678 -0.2855  0.2208
13739W        W18039   2.581   5.599  35.008 -0.0818 -0.2494 -0.0809
13740W        W18040  18.964   1.303   7.416 -0.1209 -0.0115  0.1069
13741W        W18041  20.491   5.599   5.744  0.2703  0.2421 -0.1471
13742W        W18042  21.406   1.235  25.122  0.0229  0.1369 -0.2699
13743W        W18043   3.979   4.324  15.104 -0.1614 -0.3298  0.0527
13744W        W18044   2.573   3.407  33.818 -0.1195 -0.2166 -0.1196
13745W        W18045  13.176   2.128   5.410 -0.0317  0.0076  0.0578
13746W        W18046   2.298   3.986  22.531 -0.1397 -0.0576 -0.1349
13747W        W18047  26.222   1.464  14.191 -0.0663 -0.2188  0.5538
13748W        W18048   9.810   1.764  27.683  0.1387  0.2745 -0.0997
13749W        W18049   8.587   6.541  31.544 -0.0702  0.2353 -0.0593
13750W        W18050  19.678   3.387  24.920  0.3708 -0.2139  0.1045
13751W        W18051   3.764   3.720  32.267  0.0063 -0.1734  0.2522
13752W        W18052  17.300   4.404  25.268  0.0631 -0.0204 -0.1368
13753W        W18053  12.700   0.874  11.654 -0.2881  0.1764 -0.1329
13754W        W18054   3.868   0.848  35.809  0.1477 -0.0524  0.1191
13755W        W18055  10.826   3.711  28.309 -0.1886 -0.0977  0.2199
13756W        W18056  15.076   0.797   3.877 -0.0594 -0.0375 -0.0914
13757W        W18057  18.936   0.903   7.702  0.1558 -0.3552 -0.0589
13758W        W18058  18.864   0.993  27.493 -0.1171 -0.2591  0.0303
13759W        W18059  11.778   5.402  21.871  0.1317  0.1149 -0.0318
13760W        W18060   9.641   1.641  22.951 -0.0371  0.1725  0.0454
13761W        W18061  18.613   0.126  34.733 -0.1239 -0.1472  0.0982
13762W        W18062   6.810   2.145   7.448 -0.2002  0.1372 -0.0139
13763W        W18063  16.387   5.307  24.778 -0.0569  0.0144  0.0561
13764W        W18064   0.718   4.996  24.487  0.0741 -0.0809 -0.1564
13765W        W18065   2.564   1.750  23.295  0.0544  0.0997 -0.1593
13766W        W18066   0.563   3.620  32.913 -0.0523  0.0483  0.1189
13767W        W18067   2.867   2.043  15.285 -0.1305  0.0172  0.1884
13768W        W18068  25.596   2.991   0.495  0.0126 -0.0420 -0.3365
13769W        W18069  11.878   2.974  34.301 -0.0071  0.3147 -0.1483
13770W        W18070  19.731   0.193  14.257 -0.2662  0.1247 -0.1307
13771W        W18071  13.027   0.007   9.517  0.0077  0.1145 -0.0094
13772W        W18072  15.499   0.675   4.075 -0.0686  0.0885  0.0194
13773W        W18073   1.034   3.764  25.798  0.0804 -0.2002  0.0389
13774W        W18074  22.292   3.774  23.817 -0.0602  0.2264  0.0703
13775W        W18075  25.429   1.749  34.996 -0.4582 -0.0116 -0.2629
13776W        W18076  18.474   0.125  29.729 -0.1418 -0.1056  0.3354
13777W        W18077  13.341   0.565  31.626  0.0863 -0.0804 -0.0715
13778W        W18078  15.989   2.673   2.092 -0.2588  0.2265  0.1344
13779W        W18079  23.995   4.153  28.368  0.2485  0.0882 -0.1152
13780W        W18080   9.078   3.776  31.979  0.0044  0.1762 -0.2414
13781W        W18081  22.198   1.741  13.726 -0.2271 -0.1366 -0.0501
13782W        W18082   2.296   4.112  29.382  0.2129 -0.0458 -0.1376
13783W        W18083  15.581   0.183  28.714 -0.2050 -0.2588 -0.1087
13784W        W18084   6.207   3.778  31.534 -0.1849 -0.0295  0.1804
13785W        W18085   8.887   4.376  28.265  0.1971 -0.0234 -0.0811
13786W        W18086  21.229   3.597  26.261  0.0014 -0.0400  0.1108
13787W        W18087   3.330   0.901  10.645  0.1199  0.0139  0.0218
13788W        W18088  18.545   4.881   1.283  0.2750  0.0742 -0.1093
13789W        W18089   7.020   4.844   4.739 -0.1599  0.0296  0.1914
13790W        W18090  13.673   3.049  27.393 -0.0545 -0.1027 -0.0816
13791W        W18091   1.704   5.938  34.812  0.0036  0.0440 -0.0587
13792W        W18092  19.302   5.377   4.012  0.0231 -0.0086 -0.0039
13793W        W18093  16.207   5.478  24.323 -0.1239  0.1880 -0.3261
13794W        W18094  10.705   2.071   7.641  0.1926 -0.2590  0.0802
13795W        W18095  10.358   2.794  28.068  0.0964  0.1985  0.0985
13796W        W18096  25.909   4.822   9.233 -0.0896  0.2551  0.1832
13797W        W18097  26.270   5.120  12.810 -0.0986  0.2407 -0.2545
13798W        W18098  22.130   6.502   2.379 -0.1073  0.0243  0.0708
13799W        W18099   8.708   4.756  32.560  0.4551 -0.1407  0.1371
13800W        W18100  21.096   0.894   7.666  0.0486  0.4102  0.0521
13801W        W18101   5.710   2.787  35.231  0.1255  0.0550  0.3386
13802W        W18102  20.086   2.544  33.728  0.0944  0.1499  0.0269
13803W        W18103  12.068   1.035   7.553 -0.1176 -0.0138 -0.0457
13804W        W18104  25.461   2.138  27.850 -0.0867  0.0746 -0.0169
13805W        W18105  12.687   2.020  26.319  0.1141 -0.0642  0.4866
13806W        W18106  16.257   2.272  12.951  0.4783 -0.1206 -0.0114
13807W        W18107   5.588   1.693  20.421  0.2437  0.0929 -0.1764
13808W        W18108  21.633   4.715  11.064  0.1703  0.0013  0.1340
13809W        W18109  10.232   2.561  33.587 -0.0760  0.1663  0.1801
13810W        W18110   8.206   3.981   9.980  0.0488 -0.0551  0.1734
13811W        W18111  10.920   0.943  27.780  0.1112 -0.0210  0.0553
13812W        W18112  18.101   4.641   8.774  0.1732  0.1609 -0.0878
13813W        W18113  10.938   5.921   9.553 -0.2754 -0.1722  0.0693
13814W        W18114  21.750   4.222  25.910 -0.0228 -0.2044 -0.2259
13815W        W18115   2.861   5.302   7.181  0.2442 -0.2684  0.0764
13816W        W18116   4.168   5.367  11.384  0.0974  0.3017  0.1088
13817W        W18117  18.531   6.108  30.739  0.1285  0.1288 -0.1400
13818W        W18118  21.022   1.333   3.516  0.0545  0.1554 -0.1684
13819W        W18119  10.186   3.473  35.785  0.0047  0.1324 -0.2891
13820W        W18120   6.479   3.443  33.827  0.2434 -0.0631  0.1195
13821W        W18121  20.751   4.836  22.448  0.0848 -0.1627 -0.2186
13822W        W18122  12.783   6.110   4.002 -0.2435 -0.1439  0.1154
13823W        W18123  13.189   2.340   6.465  0.1336  0.1715  0.3508
13824W        W18124  23.459   5.018  20.760  0.1197 -0.1372  0.0506
13825W        W18125  17.483   5.981   9.921 -0.0935  0.1808  0.0995
13826W        W18126  13.429   1.655  36.113  0.1501  0.0749  0.0215
13827W        W18127  18.162   5.281   2.472 -0.1024  0.0286 -0.1713
13828W        W18128   9.231   1.899  31.672  0.1212  0.2196 -0.0581
13829W        W18129  16.497   4.194  30.444  0.0273 -0.0644  0.2394
13830W        W18130  21.555   4.120   7.670 -0.1875 -0.1138  0.0574
13831W        W18131   8.715   4.260  32.778 -0.0430  0.0178  0.5138
13832W        W18132   7.194   4.214   4.519 -0.1515 -0.2312 -0.0328
13833W        W18133   8.583   1.919   6.979  0.1645 -0.2467 -0.0042
13834W        W18134  25.749   6.133  30.839 -0.1787 -0.1465 -0.1266
13835W        W18135  12.849   5.028   0.865 -0.2408  0.2257 -0.0178
13836W        W18136  17.993   0.742  25.729 -0.2163 -0.0375 -0.1703
13837W        W18137   7.271   1.516   7.302  0.0140  0.3017  0.0064
13838W        W18138  12.090   5.205  23.379  0.0714 -0.1008  0.0788
13839W        W18139  18.391   6.287   8.250 -0.0454 -0.2963 -0.2525
13840W        W18140  25.392   2.100  32.325  0.3544 -0.0962  0.2026
13841W        W18141  14.219   3.611  32.699  0.0620  0.1297 -0.1814
13842W        W18142  24.900   0.071  29.645  0.1074 -0.0735 -0.1478
13843W        W18143   2.364   3.055  14.542  0.0096 -0.2077 -0.0846
13844W        W18144  24.465   4.483  11.924 -0.3049 -0.2711 -0.2487
13845W        W18145  10.620   2.180  15.448 -0.0312  0.2986  0.2631
13846W        W18146  22.147   3.172  21.159 -0.1056 -0.0201  0.2494
13847W        W18147  17.347   3.910  14.391  0.1411  0.1613 -0.0569
13848W        W18148  10.529   1.996  26.172  0.3103 -0.0101 -0.2259
13849W        W18149  17.018   4.973  35.220 -0.2409  0.3791  0.1524
13850W        W18150  23.454   2.822  23.306  0.0144 -0.0108  0.0029
13851W        W18151   7.157   2.589  34.669  0.1657  0.0501 -0.1861
13852W        W18152  19.838   3.712  34.946 -0.1387  0.1984  0.0895
13853W        W18153  17.987   0.020  12.488  0.1124  0.1824  0.2767
13854W        W18154  16.036   3.986  33.345 -0.0616 -0.2094  0.0829
13855W        W18155  22.088   1.731   4.915 -0.2363 -0.0472  0.0632
13856W        W18156  11.111   3.758  14.370 -0.2630 -0.1954  0.1223
13857W        W18157  22.858   1.442  23.039  0.3425 -0.0476 -0.2817
13858W        W18158   2.070   4.354   0.990  0.3733 -0.1167  0.0343
13859W        W18159  18.898   1.753   4.060  0.0417 -0.2649  0.1059
13860W        W18160  23.182   5.580  10.367  0.2016 -0.2970  0.0433
13861W        W18161  19.168   5.795  13.636 -0.0611 -0.0689 -0.0467
13862W        W18162  18.322   1.127  31.331 -0.1769  0.2935  0.0007
13863W        W18163  13.311   5.324  21.162 -0.2128 -0.1181 -0.0458
13864W        W18164  25.078   5.994  26.259  0.3379 -0.0137  0.0067
13865W        W18165   0.141   0.289  25.873 -0.1852  0.0485  0.0565
13866W        W18166   2.196   1.127  34.705  0.1588 -0.1843  0.0124
13867W        W18167  15.482   1.683  35.193 -0.0130 -0.1987 -0.0716
13868W        W18168   4.007   4.197  11.889  0.3137  0.0231 -0.0360
13869W        W18169  18.036   3.837  11.328 -0.1920 -0.2314  0.1137
13870W        W18170  16.811   1.316   4.264 -0.0693  0.0009  0.1704
13871W        W18171  26.345   0.990  13.965  0.3047  0.0227 -0.1155
13872W        W18172  10.134   3.785  13.411  0.0038  0.0870 -0.0237
13873W        W18173   4.843   3.005  23.100 -0.0409 -0.0388  0.2103
13874W        W18174  11.303   5.494   8.816 -0.0138 -0.2553 -0.0264
13875W        W18175  20.996   3.837  13.467  0.2989  0.0492  0.2135
13876W        W18176   9.681   6.590   6.497 -0.0629  0.0796  0.0068
13877W        W18177   3.965   0.931  12.947  0.0651 -0.2641 -0.2773
13878W        W18178   5.835   1.947   1.510 -0.1196 -0.0237  0.0331
13879W        W18179  18.758   4.096  10.509 -0.2325  0.1125 -0.0603
13880W        W18180  12.419   1.841  25.825 -0.3267 -0.3196 -0.2789
13881W        W18181  15.093   5.203  10.301 -0.2026  0.0636 -0.1465
13882W        W18182   1.814   4.598   9.740 -0.0213 -0.0001  0.0108
13883W        W18183   3.196   5.778  27.450  0.0451  0.2157 -0.2351
13884W        W18184  25.005   1.699  22.396  0.0349  0.0410 -0.5255
13885W        W18185  12.697   0.134  29.987 -0.0903  0.2743 -0.0152
13886W        W18186   1.331   1.460  33.110 -0.0778 -0.1917 -0.0887
13887W        W18187  12.855   5.685   5.885 -0.1303  0.0347  0.0680
13888W        W18188   6.937   1.365   8.320 -0.4039 -0.1249 -0.0957
13889W        W18189  17.576   6.195  32.218  0.1973 -0.2822  0.0785
13890W        W18190  10.780   3.021  31.147 -0.1573  0.3858  0.2659
13891W        W18191   2.052   0.124  14.846 -0.1583 -0.0401 -0.1357
13892W        W18192  20.032   3.034   8.628 -0.1087  0.0567 -0.1562
13893W        W18193   8.483   2.621  11.902  0.2230 -0.3824 -0.2247
13894W        W18194   4.109   5.057  28.707  0.2545 -0.3252 -0.1784
13895W        W18195   1.806   1.032  24.678  0.3247 -0.1776 -0.0499
13896W        W18196  16.756   5.513  24.104 -0.0981 -0.2477 -0.1400
13897W        W18197  10.080   5.174  34.596  0.0776 -0.2637  0.0976
13898W        W18198  10.268   6.001  23.533  0.0321  0.0000  0.2304
13899W        W18199   8.529   1.498  35.484 -0.1728  0.0232 -0.0827
13900W        W18200  22.763   5.073   6.690 -0.0291 -0.3588  0.0109
13901W        W18201  18.496   6.542  24.725 -0.2088  0.1581 -0.0284
13902W        W18202  20.214   6.305  26.289  0.1770 -0.1889  0.2955
13903W        W18203   8.239   3.402  28.506 -0.1031 -0.0670 -0.1753
13904W        W18204  25.399   6.112  33.408  0.2327  0.1028 -0.2467
13905W        W18205  21.938   3.336   4.053  0.2427  0.1837 -0.0812
13906W        W18206   2.009   4.483  14.953  0.2414  0.1644  0.1257
13907W        W18207  15.115   4.366   1.199 -0.0654  0.0061 -0.0019
13908W        W18208   1.007   6.155  22.173 -0.0017 -0.0585 -0.0482
13909W        W18209   6.652   5.314  30.045 -0.0461  0.1231 -0.0742
13910W        W18210  23.678   1.826  23.090  0.0551 -0.0690 -0.0380
13911W        W18211  23.066   3.905  27.231 -0.0008  0.0513 -0.1085
13912W        W18212  20.003   3.727  35.410 -0.0625  0.4258 -0.4418
13913W        W18213   4.333   4.663   7.350 -0.2957  0.3047  0.2431
13914W        W18214  21.698   3.728  25.974  0.0954  0.1020  0.0014
13915W        W18215   8.003   1.832   2.542 -0.0396 -0.1668  0.4109
13916W        W18216  17.439   4.823  13.308 -0.1380  0.0800 -0.1784
13917W        W18217  12.777   6.247   6.133 -0.0654 -0.0487 -0.1135
13918W        W18218  22.757   2.149  10.518  0.3084 -0.0572  0.1221
13919W        W18219  12.510   1.376  32.157 -0.1275  0.2615  0.1541
13920W        W18220  17.603   3.605  34.812 -0.2220  0.0732  0.0332
13921W        W18221  14.968   1.170  31.142  0.1493 -0.1411  0.2031
13922W        W18222   9.285   1.941  32.160 -0.0183 -0.1973  0.0152
13923W        W18223   0.106   0.195  33.378 -0.0936  0.0468  0.1187
13924W        W18224  22.073   3.680  34.894 -0.0437  0.1271  0.1968
13925W        W18225   8.995   0.159  27.361 -0.2433  0.1389  0.1328
13926W        W18226  25.808   3.804   4.516 -0.0976 -0.0118  0.0869
13927W        W18227  26.149   1.679  10.487 -0.2461 -0.0817 -0.0279
13928W        W18228  15.875   2.183  10.462 -0.1285  0.0389 -0.0779
13929W        W18229  26.185   1.580   1.987  0.2167 -0.3383  0.1951
13930W        W18230   3.950   0.039  32.834  0.1132 -0.2413 -0.0962
13931W        W18231   7.646   4.519   8.040 -0.0125 -0.0524  0.0123
13932W        W18232   5.889   5.632  35.889  0.1469 -0.2680 -0.0020
13933W        W18233  16.690   1.375   6.991 -0.0154 -0.3063  0.2504
13934W        W18234  19.788   3.350  10.182 -0.0108 -0.0896 -0.1942
13935W        W18235   8.132   5.776  30.255  0.3078  0.1579  0.1322
13936W        W18236   7.614   5.830   4.676 -0.0824  0.0916 -0.7119
13937W        W18237  14.442   2.392  29.937 -0.2033  0.1622  0.0103
13938W        W18238  22.349   2.935  23.800  0.0010 -0.0898  0.1698
13939W        W18239  25.679   0.978   1.516  0.2212  0.0588  0.4508
13940W        W18240  19.584   3.659  31.471 -0.2394  0.1560 -0.3035
13941W        W18241   9.689   5.794  12.231 -0.1639  0.1422 -0.1205
13942W        W18242  21.051   5.608  30.931 -0.1436  0.0727  0.3240
13943W        W18243  25.003   3.794   6.046 -0.1194 -0.0239  0.1799
13944W        W18244  26.257   0.707  33.621  0.0612  0.0379 -0.2728
13945W        W18245  20.673   2.719  31.061 -0.1793  0.0426 -0.0171
13946W        W18246  23.141   6.150  11.381 -0.0455 -0.1003  0.2191
13947W        W18247   3.919   0.525  33.977 -0.2373  0.1733  0.0673
13948W        W18248   9.749   6.491   9.729 -0.1037  0.0500 -0.0184
13949W        W18249   6.771   4.101  11.645 -0.0160 -0.2932  0.0617
13950W        W18250   9.491   3.515   0.012 -0.1092 -0.1194  0.3179
13951W        W18251  10.126   1.451  13.579  0.1206  0.0078  0.2657
13952W        W18252   6.810   0.892   6.133 -0.0678 -0.3282 -0.2114
13953W        W18253  23.230   2.167   8.960  0.1214  0.0392 -0.0389
13954W        W18254   9.449   6.097   4.830 -0.0272 -0.1420 -0.0359
13955W        W18255  15.012   4.289   6.637 -0.0957 -0.0386  0.1018
13956W        W18256  25.212   1.083  31.457 -0.1165 -0.2347  0.0855
13957W        W18257  21.053   6.246  26.946 -0.0170  0.2213 -0.0172
13958W        W18258   1.786   3.593  33.656 -0.1159 -0.0895 -0.0816
13959W        W18259   9.078   2.903  21.691 -0.0503  0.0295 -0.2519
13960W        W18260  16.949   0.301  31.104 -0.1379  0.1070  0.3232
13961W        W18261  25.589   4.225  31.428  0.3063  0.1736  0.1125
13962W        W18262  11.747   1.369  24.162 -0.0792  0.1253  0.0823
13963W        W18263  10.990   4.241  34.093 -0.0403  0.1574  0.0098
13964W        W18264   6.540   4.716  22.153  0.0854 -0.0937 -0.1487
13965W        W18265  22.385   6.508  34.596  0.3104  0.1798  0.1834
13966W        W18266   1.120   3.229  25.866 -0.1053 -0.3341 -0.1872
13967W        W18267  24.719   6.373  27.933  0.0758 -0.0853  0.1627
13968W        W18268   0.814   4.356  25.673  0.1996 -0.0001  0.0073
13969W        W18269  23.766   1.563  34.305 -0.0337  0.0911 -0.2363
13970W        W18270   8.746   3.001  22.057  0.0020  0.0488  0.1591
13971W        W18271   4.156   6.493  34.654  0.3612 -0.2627  0.0689
13972W        W18272  14.796   4.544  21.249  0.2701 -0.1774 -0.2112
13973W        W18273  25.982   1.367   5.957  0.0724  0.1417 -0.1110
13974W        W18274  11.564   3.157   8.877  0.1002 -0.2270  0.1401
13975W        W18275  12.280   2.846  27.248  0.4172  0.0566 -0.0254
13976W        W18276  25.356   1.335  31.039 -0.2427 -0.0301 -0.1119
13977W        W18277   4.746   2.056  11.857  0.0947  0.1470  0.1139
13978W        W18278  17.137   1.448   2.642  0.0922 -0.1237 -0.0132
13979W        W18279  11.616   0.252   5.343 -0.0567  0.0794  0.0267
13980W        W18280  19.177   0.593   5.766 -0.0764  0.1085 -0.0623
13981W        W18281  12.375   0.342   6.640 -0.2108  0.2156  0.2309
13982W        W18282   3.463   2.552  34.579  0.1010 -0.2010  0.0091
13983W        W18283   4.709   5.014  35.787  0.0775  0.0227 -0.1356
13984W        W18284   8.329   4.117  30.414  0.2105 -0.3306  0.0368
13985W        W18285   3.869   5.745   9.688 -0.2866 -0.1123  0.0809
13986W        W18286   5.954   1.341  33.319  0.0893  0.2404 -0.1204
13987W        W18287  16.545   4.701   4.373  0.0152  0.0596  0.4191
13988W        W18288   8.933   2.296  34.471 -0.1609 -0.1124  0.1538
13989W        W18289  17.739   1.133  23.465  0.2548  0.4906  0.2051
13990W        W18290  15.189   6.366  20.927  0.0422  0.0440 -0.2489
13991W        W18291  22.237   4.286  24.451  0.1362  0.1154 -0.0558
13992W        W18292   5.552   1.804  15.200  0.0582  0.4930 -0.4046
13993W        W18293  24.732   2.479  35.549  0.0238 -0.0849  0.1702
13994W        W18294   4.546   2.672   6.150  0.0691 -0.0676 -0.0009
13995W        W18295   0.916   5.890   8.859  0.0545 -0.1501  0.3328
13996W        W18296  23.034   5.611  22.613  0.0602 -0.1452  0.1002
13997W        W18297  13.960   6.604  22.742 -0.0365  0.0931  0.1564
13998W        W18298  17.874   5.788  25.950  0.0482  0.0107 -0.2051
13999W        W18299  14.799   0.013   1.284 -0.2283  0.0975  0.1313
14000W        W18300  20.301   0.012  33.001  0.0039 -0.0913  0.2456
14001W        W18301  22.799   0.435  13.459  0.1913  0.0762  0.0741
14002W        W18302  21.890   1.793   6.088 -0.1027  0.0920 -0.1321
14003W        W18303   2.636   3.785   1.837 -0.0229 -0.0798  0.0050
14004W        W18304  22.698   4.185   2.111  0.2354  0.0192  0.1510
14005W        W18305   3.597   4.888  11.377  0.1315 -0.0948 -0.0561
14006W        W18306   2.863   3.870   9.785 -0.0768  0.0294 -0.2335
14007W        W18307  25.986   0.618   5.509 -0.0465  0.0448  0.1241
14008W        W18308   9.160   4.436  28.713 -0.2547  0.0301  0.0324
14009W        W18309  23.121   0.773   5.360  0.3065 -0.3602  0.1597
14010W        W18310  15.814   0.187  30.883  0.0428 -0.1210 -0.0240
14011W        W18311   7.455   1.388   1.750  0.0224  0.0858  0.4094
14012W        W18312   7.882   4.301   8.898  0.3542 -0.0272  0.4314
14013W        W18313   1.699   0.050   4.854 -0.0312 -0.1001  0.1575
14014W        W18314  20.550   3.617   7.212  0.1292  0.0447 -0.0677
14015W        W18315   7.818   6.607  22.792 -0.2240 -0.2503 -0.0619
14016W        W18316  14.561   2.842  24.251 -0.0406 -0.0783 -0.0469
14017W        W18317   8.089   2.800   6.011 -0.2163  0.0614 -0.0542
14018W        W18318  10.895   1.468  28.563 -0.0097 -0.0076  0.0465
14019W        W18319  17.091   0.100  34.578  0.0238  0.1226 -0.1120
14020W        W18320  21.545   4.344  35.008 -0.0723  0.0771 -0.0334
14021W        W18321   6.403   2.309  24.566  0.3297  0.0784  0.4755
14022W        W18322   9.967   4.558  23.528  0.3248  0.3790 -0.2187
14023W        W18323  12.357   1.258  29.250 -0.1180 -0.0432  0.1301
14024W        W18324   3.413   1.416   4.606 -0.0297 -0.0294 -0.3844
14025W        W18325   3.178   4.772   8.528  0.2232 -0.0523  0.0056
14026W        W18326  13.930   4.499   3.823  0.0257  0.2183  0.3708
14027W        W18327   0.460   1.337   7.297  0.0257  0.1732  0.0737
14028W        W18328   1.150   3.322   0.864  0.2273  0.1489  0.3813
14029W        W18329   2.467   6.250  21.519  0.1970 -0.1144  0.0120
14030W        W18330   9.131   0.244   8.652 -0.0014  0.1558 -0.1240
14031W        W18331   0.291   2.667  31.988 -0.0519 -0.1367 -0.0278
14032W        W18332   8.251   4.812  10.359 -0.3635  0.0875  0.1052
14033W        W18333  17.857   4.662  21.837 -0.0509 -0.0690  0.2961
14034W        W18334   3.747   1.509   5.026 -0.1552 -0.3937  0.1105
14035W        W18335  23.176   4.215  23.355  0.1100 -0.0385 -0.0229
14036W        W18336  26.351   4.090  10.658  0.1255 -0.0415  0.1980
14037W        W18337  11.810   5.999   8.448  0.0685  0.0399 -0.2069
14038W        W18338   5.519   3.920   9.359  0.2488 -0.1141  0.0664
14039W        W18339   2.852   4.832  24.933 -0.2482  0.1865 -0.0556
14040W        W18340  19.444   4.452  34.251 -0.1420  0.1128 -0.0047
14041W        W18341  19.187   3.182  34.673 -0.0553  0.1866 -0.1410
14042W        W18342  12.805   0.721  21.793  0.0553 -0.1018 -0.2090
14043W        W18343   8.845   5.379  35.581 -0.1675  0.0429  0.1512
14044W        W18344   2.913   4.403  20.978 -0.2533  0.4087  0.0453
14045W        W18345   9.888   1.146  31.469 -0.0973 -0.0198 -0.0292
14046W        W18346  21.094   0.054   9.321 -0.1505 -0.2098  0.1128
14047W        W18347   7.505   2.771   4.399  0.1943 -0.0237 -0.2428
14048W        W18348  23.381   2.457   4.306  0.0917  0.0463  0.0950
14049W        W18349  25.769   1.264  23.753  0.0356  0.0189 -0.1740
14050W        W18350  14.834   3.936   1.329 -0.1302 -0.3198  0.1021
14051W        W18351  11.778   0.738  11.324  0.0713 -0.0069  0.0735
14052W        W18352  23.150   6.078  12.516  0.0097 -0.0345  0.0408
14053W        W18353  12.757   3.088  10.642 -0.0098 -0.4643  0.0016
14054W        W18354   1.129   1.309  14.547  0.2373 -0.1889 -0.0378
14055W        W18355   5.874   3.034  20.630  0.0756  0.0989 -0.2301
14056W        W18356   2.803   3.910   7.605 -0.1171 -0.0149  0.1906
14057W        W18357   9.304   2.920  25.689  0.0565  0.2300 -0.0426
14058W        W18358   9.801   3.714   4.056  0.0031 -0.0596  0.2320
14059W        W18359   3.647   6.456  24.458  0.0068  0.0341  0.3387
14060W        W18360  14.836   1.206  10.307 -0.0460 -0.3400  0.0312
14061W        W18361   1.938   1.682  31.572  0.3582 -0.2141  0.1655
14062W        W18362  16.359   0.353  26.801 -0.0957  0.0512  0.1795
14063W        W18363  24.659   0.499  32.923 -0.1373  0.0677  0.2895
14064W        W18364   9.561   6.121  14.893 -0.0606  0.1036 -0.0674
14065W        W18365  21.582   1.144   8.783 -0.2536 -0.3443  0.0584
14066W        W18366  10.598   5.939  12.232  0.2703  0.1993 -0.1486
14067W        W18367   4.611   1.553  20.385  0.1080 -0.0478  0.1169
14068W        W18368   0.342   5.473  11.875 -0.1151 -0.0456 -0.0054
14069W        W18369  11.592   3.309  23.515 -0.0065 -0.1098  0.0464
14070W        W18370  21.992   3.567   1.052 -0.0252  0.0231 -0.2948
14071W        W18371  24.149   2.180  11.096  0.2913  0.0537 -0.0661
14072W        W18372  17.977   6.323   4.902  0.1808 -0.1131 -0.1658
14073W        W18373  14.915   4.516  25.812  0.2272  0.0317 -0.1190
14074W        W18374  26.214   3.683   9.833  0.4765  0.0330  0.1141
14075W        W18375  17.052   0.597  33.862  0.0933  0.1182  0.5125
14076W        W18376  13.164   5.672  15.487  0.0860 -0.2837 -0.1911
14077W        W18377   5.715   1.052  34.165  0.0671  0.2917  0.0714
14078W        W18378  11.583   4.068  28.749  0.2266  0.3689 -0.0660
14079W        W18379   7.206   5.388   1.340  0.2418 -0.0035  0.2974
14080W        W18380   4.147   1.238   0.215  0.0103  0.0059 -0.1235
14081W        W18381   1.078   4.495  29.760  0.1050 -0.2018 -0.0699
14082W        W18382   6.133   6.175   2.484 -0.2256 -0.2271 -0.1187
14083W        W18383   7.846   3.767  34.901 -0.0680 -0.0758  0.1178
14084W        W18384  19.808   5.928  31.203  0.0773 -0.3595  0.0541
14085W        W18385  17.117   0.865  26.953 -0.1942 -0.0155  0.2091
14086W        W18386   4.965   4.348  12.381 -0.1395  0.0522  0.0863
14087W        W18387  25.936   5.979  21.235 -0.2297  0.0191 -0.0848
14088W        W18388   5.289   1.151  11.449  0.1637  0.0060 -0.1397
14089W        W18389   6.160   4.604  32.261 -0.3037 -0.0703 -0.3548
14090W        W18390   4.797   0.380  15.325 -0.0961  0.0433  0.1643
14091W        W18391  21.300   1.961  22.516  0.0930 -0.1234 -0.0708
14092W        W18392   3.161   3.997  10.245  0.0166 -0.0367  0.1250
14093W        W18393  21.052   2.889   2.854 -0.1921  0.0378  0.2136
14094W        W18394  15.335   0.337  30.738  0.0386 -0.1129  0.5210
14095W        W18395   8.845   6.462  32.139 -0.0192 -0.1841  0.2096
14096W        W18396  17.584   5.555  28.858 -0.2357 -0.4220  0.1834
14097W        W18397  25.607   2.234   5.085  0.1522 -0.1230  0.1440
14098W        W18398  22.453   1.315   5.457 -0.1743  0.0667  0.0610
14099W        W18399   2.141   4.060   0.124 -0.2001 -0.0560  0.1131
14100W        W18400   4.773   1.144   6.459  0.0434 -0.2892  0.3476
14101W        W18401   0.887   4.512   3.583  0.1150 -0.1012  0.0170
14102W        W18402  13.149   0.585   1.459  0.1103 -0.0778  0.1407
14103W        W18403   4.131   3.827  28.830  0.1084  0.0827  0.0032
14104W        W18404   4.231   2.336  22.948  0.0484  0.1605  0.2266
14105W        W18405  17.802   5.737   2.316  0.0621 -0.0914 -0.0023
14106W        W18406   0.867   3.388  27.214 -0.1515  0.0248  0.0106
14107W        W18407  16.864   4.173   4.980  0.0592 -0.1076  0.2782
14108W        W18408   5.237   2.657  24.984 -0.0855 -0.1879  0.1993
14109W        W18409  13.426   3.253  27.837  0.1064  0.3184 -0.0549
14110W        W18410  17.156   1.778   9.934 -0.3374  0.0912  0.5107
14111W        W18411   8.527   1.930  13.348 -0.0290  0.1968 -0.1032
14112W        W18412  14.908   5.017  26.050  0.0431 -0.0973  0.1676
14113W        W18413   1.850   2.967  28.887 -0.1841  0.2813  0.1599
14114W        W18414  13.848   0.276  10.507 -0.2246 -0.0405  0.2019
14115W        W18415   5.453   3.484  31.484  0.4707 -0.0980 -0.0176
14116W        W18416  18.353   0.127   7.720 -0.1239 -0.2401  0.3008
14117W        W18417  13.368   2.930  28.172 -0.0277  0.0476  0.1021
14118W        W18418   8.652   5.746  33.074 -0.0649 -0.0329 -0.0597
14119W        W18419  21.883   1.673   6.858  0.0055  0.1262 -0.1567
14120W        W18420   2.593   4.131  31.220 -0.3196  0.0390  0.0916
14121W        W18421  10.663   1.393  22.414  0.2367 -0.0066  0.3101
14122W        W18422  11.934   0.050   8.488  0.1295 -0.1826 -0.1561
14123W        W18423  22.466   2.817  10.660  0.2303  0.0259  0.0412
14124W        W18424   8.414   2.971   7.122 -0.0609 -0.0731 -0.0340
14125W        W18425  22.760   4.466  22.196 -0.1716 -0.5611  0.4808
14126W        W18426   8.078   5.170  24.883 -0.0660  0.0984  0.0890
14127W        W18427  11.208   4.197   8.631 -0.0553 -0.1791 -0.0667
14128W        W18428   6.644   5.069  11.446 -0.2475  0.1270 -0.0214
14129W        W18429   0.370   3.320  13.655 -0.0038  0.4754 -0.2266
14130W        W18430   7.762   0.469  33.309  0.2744 -0.1347 -0.0157
14131W        W18431   8.268   1.922  30.763  0.0354  0.0700  0.1096
14132W        W18432  25.890   1.603  34.623 -0.0400  0.1733 -0.0752
14133W        W18433  16.211   4.494  30.085  0.1532  0.0861  0.0819
14134W        W18434  23.513   6.461   9.633 -0.0483 -0.0212 -0.3689
14135W        W18435   7.464   4.717  35.125 -0.0442  0.0759 -0.0021
14136W        W18436   8.046   5.091   3.283  0.1413 -0.2054 -0.0024
14137W        W18437   7.113   6.002  22.382 -0.3506  0.1578 -0.3921
14138W        W18438   4.834   3.166  24.403  0.0548 -0.0394 -0.0192
14139W        W18439  16.212   1.157   4.138 -0.2314 -0.3339 -0.0666
14140W        W18440  11.351   2.436   7.656  0.1523 -0.0914  0.1735
14141W        W18441  24.367   1.978  25.767  0.1351  0.0836 -0.1689
14142W        W18442   6.368   1.980  24.133  0.2361 -0.0201  0.3338
14143W        W18443  16.110   1.399  27.068  0.1989 -0.2857 -0.3260
14144W        W18444  25.717   3.271  20.673 -0.1329  0.1359  0.1445
14145W        W18445  20.213   2.235  20.633  0.2932  0.2491  0.0186
14146W        W18446  14.065   6.404  21.812 -0.2199  0.3510  0.0607
14147W        W18447   4.882   1.832  33.750  0.0836  0.0334 -0.3583
14148W        W18448   1.743   4.286  10.099 -0.0231 -0.0785  0.0984
14149W        W18449   1.423   5.297  10.867 -0.0236 -0.3608 -0.0783
14150W        W18450  19.575   3.263   8.481 -0.0804  0.0301  0.5058
14151W        W18451   3.819   0.430  23.116 -0.1181  0.2356  0.1195
14152W        W18452   6.163   1.010  24.225  0.1099 -0.1288  0.0688
14153W        W18453  16.699   6.386  31.137  0.2971 -0.0968  0.1980
14154W        W18454   5.064   5.269   7.831  0.0444  0.0024 -0.1626
14155W        W18455  20.729   3.114  27.743 -0.1073 -0.1672 -0.0544
14156W        W18456   5.308   0.537  23.698  0.2897  0.0346 -0.2080
14157W        W18457  15.799   6.452   3.718  0.1298  0.2937 -0.1904
14158W        W18458   6.698   3.081  35.437 -0.2976 -0.2256  0.2061
14159W        W18459   4.436   6.329  23.333  0.1176 -0.1422 -0.1460
14160W        W18460  20.816   3.216  11.457 -0.2700  0.0563  0.1847
14161W        W18461  24.703   5.565  31.611 -0.1048 -0.0960  0.3059
14162W        W18462   8.892   4.949  15.009  0.0680  0.1034  0.1891
14163W        W18463   2.769   1.686  30.700  0.0500 -0.0837  0.0700
14164W        W18464  16.469   6.213  23.659  0.2292 -0.1099 -0.1937
14165W        W18465   4.869   1.010  33.079  0.0389  0.2131  0.2027
14166W        W18466  11.503   2.350   3.956 -0.2550  0.4234 -0.0145
14167W        W18467  26.262   0.520  11.157 -0.1969  0.2097  0.0950
14168W        W18468  25.938   3.857   9.106  0.3682  0.0602 -0.4308
14169W        W18469  20.649   1.334  30.294 -0.1427 -0.0858  0.2968
14170W        W18470  13.115   1.837   6.478  0.0141 -0.1777 -0.1852
14171W        W18471  20.108   3.143  13.120 -0.0095  0.0022 -0.1556
14172W        W18472   7.832   0.968  14.815 -0.3905  0.0241 -0.0083
14173W        W18473  10.975   0.880  10.644  0.2200  0.0852 -0.2310
14174W        W18474  22.367   3.440   7.334 -0.1736  0.0748 -0.0876
14175W        W18475  12.160   4.444   7.867 -0.0508 -0.0846  0.1345
14176W        W18476   7.935   5.486  28.848 -0.0482  0.1701 -0.1899
14177W        W18477   4.344   2.202  20.715  0.1933  0.0254  0.0705
14178W        W18478  25.141   4.209  35.247  0.0122 -0.1179  0.3453
14179W        W18479  12.112   0.431  32.684  0.0629  0.1789 -0.0884
14180W        W18480   5.134   3.310  25.702 -0.0418  0.0941  0.1428
14181W        W18481  11.884   4.252  30.839 -0.1147 -0.0954 -0.0036
14182W        W18482  15.304   4.841  30.278 -0.1674  0.0292  0.1592
14183W        W18483   5.814   1.746   5.859 -0.1125 -0.1038  0.0129
14184W        W18484  11.768   0.946  21.805  0.0257 -0.2159  0.3255
14185W        W18485  18.546   5.255  13.469 -0.1525 -0.1254  0.0471
14186W        W18486  23.539   1.707   8.373 -0.0792  0.0063  0.0114
14187W        W18487  12.904   2.475  31.426  0.0286 -0.1232 -0.1307
14188W        W18488   3.681   3.438  29.032 -0.1511  0.2781 -0.0022
14189W        W18489  23.700   6.356  20.631 -0.1405  0.0555 -0.2123
14190W        W18490  17.003   6.542  21.677  0.1042  0.0371 -0.0201
14191W        W18491  24.260   5.423  31.626  0.0963  0.1302  0.2078
14192W        W18492   6.451   1.471  25.522 -0.1925 -0.0876  0.3336
14193W        W18493  17.266   4.672   3.412  0.0404  0.0704  0.0706
14194W        W18494   5.620   5.860   8.391 -0.3373 -0.0112 -0.0355
14195W        W18495   5.162   4.797  23.969  0.0734 -0.4040  0.1772
14196W        W18496   7.574   1.641  24.572  0.0747  0.0219  0.3291
14197W        W18497  13.387   4.662   1.982 -0.0990 -0.1153 -0.0244
14198W        W18498   7.854   1.479  27.353  0.2560  0.0444  0.0349
14199W        W18499  25.513   5.081  23.427 -0.0828  0.0184  0.2795
14200W        W18500   8.219   5.186  34.685  0.1127  0.1427 -0.2432
14201W        W18501  14.017   4.137  23.678  0.2861  0.1319 -0.1158
14202W        W18502  19.555   1.796  13.958 -0.0354  0.1793 -0.1787
14203W        W18503   9.311   0.377  11.604 -0.2515  0.0107 -0.1810
14204W        W18504  23.463   4.293  32.356 -0.2634 -0.0098 -0.1968
14205W        W18505  10.157   6.388  14.099  0.0084  0.1065 -0.1024
14206W        W18506  22.088   4.882   8.730  0.0672  0.2356  0.0545
14207W        W18507  21.367   0.713   5.515  0.0500  0.0416  0.0933
14208W        W18508  13.432   0.778  11.801  0.1877 -0.0900 -0.0162
14209W        W18509  26.169   0.341   2.947 -0.4526  0.2298 -0.0557
14210W        W18510  23.189   3.321  24.039  0.0528  0.1539 -0.0988
14211W        W18511  20.531   5.644  12.852  0.2264  0.1943  0.0184
14212W        W18512  18.470   1.800   0.518 -0.0196  0.0793 -0.0942
14213W        W18513  24.893   1.732  32.960  0.3432 -0.3375 -0.1290
14214W        W18514   2.216   0.744  26.937 -0.0736 -0.3595 -0.4163
14215W        W18515   1.395   5.408  15.158  0.0393  0.3316 -0.1133
14216W        W18516   1.977   4.175  34.542  0.1221  0.0983  0.2119
14217W        W18517  12.394   3.278   3.833  0.1591 -0.2165  0.1014
14218W        W18518  23.089   2.584  15.903  0.0716  0.1332 -0.0462
14219W        W18519   8.339   6.372   9.190 -0.1674  0.1531  0.0725
14220W        W18520   0.416   1.308   0.865  0.0151  0.1474 -0.0228
14221W        W18521   6.766   3.397  20.706 -0.3385 -0.0644 -0.1246
14222W        W18522   6.686   5.911  14.753  0.1017  0.1074 -0.1228
14223W        W18523   9.239   6.108   2.180  0.0108  0.0336  0.1648
14224W        W18524   8.173   4.789  22.727 -0.0432  0.0222 -0.2025
14225W        W18525  22.492   3.811  14.186 -0.0860  0.1223  0.1441
14226W        W18526   3.782   3.979   8.937  0.1723 -0.0121 -0.1871
14227W        W18527  20.520   3.876  31.312 -0.1746 -0.4000  0.2751
14228W        W18528  24.548   0.245   2.755 -0.0139  0.2956 -0.2618
14229W        W18529  22.023   1.143  12.925  0.0920 -0.0777  0.1992
14230W        W18530   5.449   0.691  11.342  0.0856  0.1200  0.0986
14231W        W18531  23.240   6.604  24.058  0.2616  0.0325 -0.0646
14232W        W18532  10.881   6.593   0.172 -0.2093  0.2872 -0.0710
14233W        W18533  21.156   1.270   9.853 -0.0595  0.0821 -0.0217
14234W        W18534  12.941   4.800  31.480  0.1533  0.0166 -0.1623
14235W        W18535   0.353   1.955   0.324  0.1635 -0.1653  0.1215
14236W        W18536  16.570   0.274   2.803  0.3617  0.3311 -0.2324
14237W        W18537  25.961   0.266  20.617  0.2204  0.3679 -0.1347
14238W        W18538   4.702   3.603  21.413 -0.2531  0.0464 -0.0328
14239W        W18539  24.798   5.583  27.237 -0.0549  0.0395 -0.3582
14240W        W18540   6.779   0.950  11.207  0.1654 -0.0062 -0.0342
14241W        W18541  11.044   6.069  15.302  0.1724 -0.0934  0.2259
14242W        W18542  16.117   4.528  10.762  0.0932 -0.1652 -0.2900
14243W        W18543  16.552   2.126  10.698 -0.0390 -0.1341 -0.0157
14244W        W18544  21.254   0.802  28.726 -0.1621  0.0487 -0.2821
14245W        W18545   3.893   5.505  33.732  0.2517 -0.2017  0.0169
14246W        W18546  24.079   6.570  34.003 -0.0269 -0.1181  0.0004
14247W        W18547  19.780   3.033  13.822  0.1905  0.1973  0.3100
14248W        W18548  21.312   2.443   9.206  0.3064 -0.1270 -0.0124
14249W        W18549   1.734   4.476  25.643  0.0028 -0.1185  0.2172
14250W        W18550  21.721   0.066  12.900 -0.1099  0.3640 -0.1645
14251W        W18551   9.162   3.845  11.120 -0.0941  0.0811  0.0689
14252W        W18552  11.307   6.375  13.028  0.0432 -0.0990  0.0267
14253W        W18553  17.117   4.349  31.621  0.0108 -0.1109  0.0765
14254W        W18554  14.334   3.788   3.069 -0.0596  0.3325 -0.0330
14255W        W18555  19.290   3.904  35.444  0.1561  0.0172 -0.0767
14256W        W18556   1.295   1.105   5.106  0.0196  0.1617 -0.3949
14257W        W18557  21.841   3.427  31.887  0.2066 -0.1544 -0.2773
14258W        W18558  12.762   4.747  24.523 -0.2659  0.2796  0.1894
14259W        W18559   6.923   3.419  25.660  0.0261  0.4828  0.2571
14260W        W18560  19.168   3.958  23.171  0.1234 -0.1801 -0.0109
14261W        W18561  22.684   2.171  34.674 -0.0634  0.1310 -0.3674
14262W        W18562   5.817   0.068  25.078  0.3251  0.1094  0.0478
14263W        W18563   0.283   0.321   4.085 -0.1901 -0.0094  0.0730
14264W        W18564  21.097   6.437  21.076 -0.0473 -0.1933 -0.1956
14265W        W18565   9.955   1.116  23.481 -0.0122 -0.2354 -0.1373
14266W        W18566   4.646   2.755   6.646  0.1706  0.0864  0.2129
14267W        W18567  18.113   1.286   1.804  0.3454  0.3883  0.1479
14268W        W18568  21.085   4.977   9.993  0.3554 -0.0407  0.1465
14269W        W18569  10.713   3.582  15.792  0.1431  0.2997  0.2895
14270W        W18570  11.471   3.768  22.703 -0.0905 -0.1290  0.1186
14271W        W18571  18.392   2.978  13.556 -0.4113  0.0493 -0.2046
14272W        W18572   6.482   5.577  33.237  0.1681 -0.3733 -0.0080
14273W        W18573  24.659   2.329  24.670  0.1652  0.2803 -0.1671
14274W        W18574   6.772   0.551  30.988  0.1340  0.1400  0.0435
14275W        W18575   5.406   1.303  32.597 -0.0273  0.0253 -0.1099
14276W        W18576  15.127   1.139  22.040 -0.0172 -0.1907  0.0861
14277W        W18577   0.565   5.033  11.109 -0.0926  0.4303 -0.0808
14278W        W18578  24.139   3.743   5.066  0.0931  0.0554  0.1435
14279W        W18579  18.168   0.557  28.903  0.1275 -0.0612 -0.0267
14280W        W18580   3.284   4.717  25.677 -0.0967 -0.1773 -0.0950
14281W        W18581  19.459   6.240  34.412 -0.1341 -0.1334  0.0786
14282W        W18582  13.871   6.383  34.267 -0.0965  0.0645  0.1489
14283W        W18583   9.088   6.223  14.673 -0.1111 -0.0726 -0.0407
14284W        W18584  22.546   1.142  26.679  0.2059 -0.2855 -0.1301
14285W        W18585   3.068   5.625   5.500 -0.1101  0.3065  0.1060
14286W        W18586  26.267   5.499  22.840 -0.0685 -0.1066  0.3286
14287W        W18587  13.653   6.478   3.048 -0.0709 -0.1596 -0.0901
14288W        W18588   5.879   4.135   6.922 -0.0811 -0.0272 -0.3360
14289W        W18589   4.716   0.308  20.239 -0.0184  0.1365  0.0479
14290W        W18590  11.429   3.503   9.209  0.1504 -0.0448 -0.3251
14291W        W18591  25.242   2.242   7.651  0.0359  0.0408 -0.0468
14292W        W18592  12.892   1.208  25.641  0.0616  0.0615 -0.2822
14293W        W18593   7.097   3.729   3.186  0.0800  0.1077  0.1909
14294W        W18594   6.177   0.877   3.356  0.0943  0.0011 -0.0557
14295W        W18595   7.346   2.377  23.068  0.1205 -0.0616 -0.1330
14296W        W18596  19.867   3.170  23.317 -0.0733 -0.0600 -0.1931
14297W        W18597   3.625   3.102   2.734  0.0711 -0.1883  0.0369
14298W        W18598  11.294   2.640  35.179 -0.0802 -0.1987  0.0400
14299W        W18599  25.734   0.938   9.901  0.0127 -0.1065 -0.3272
14300W        W18600   9.400   3.498   4.816 -0.0264 -0.3590  0.0714
14301W        W18601   7.925   4.648   6.806 -0.1253 -0.1485  0.4294
14302W        W18602   7.771   3.292   3.172 -0.0236  0.3124  0.0664
14303W        W18603  17.807   1.905  29.634  0.0530  0.2297 -0.1123
14304W        W18604  17.746   4.955  11.619 -0.1120 -0.1133 -0.3569
14305W        W18605   1.464   2.161   1.692  0.0682 -0.1697  0.0617
14306W        W18606  16.915   3.112  28.340 -0.0323 -0.3508  0.3721
14307W        W18607   8.642   3.858  13.223  0.0701  0.1137 -0.0690
14308W        W18608   2.693   0.150  31.543 -0.1842  0.0899 -0.1960
14309W        W18609  21.432   5.304  33.323  0.0646  0.0538  0.1708
14310W        W18610  13.516   0.775  27.192 -0.1738  0.0149 -0.0626
14311W        W18611  20.652   5.618   2.643  0.0351 -0.0134  0.1542
14312W        W18612  18.154   4.658   7.052  0.0507  0.3317  0.1919
14313W        W18613  20.596   1.839  13.150 -0.1280 -0.1807  0.4572
14314W        W18614  17.278   6.102  22.888 -0.1751  0.0193  0.0715
14315W        W18615   1.636   4.967  27.645  0.2967  0.0872 -0.0757
14316W        W18616  13.334   4.037  29.487  0.0697  0.0173  0.1271
14317W        W18617   7.435   5.372   8.147 -0.0794 -0.0505  0.1900
14318W        W18618  10.170   2.434   2.119  0.2274  0.1696 -0.1448
14319W        W18619   5.850   4.580   0.628 -0.0040 -0.1061  0.0841
14320W        W18620   4.596   0.749   2.326  0.0507 -0.1552 -0.1935
14321W        W18621  20.001   2.259   6.827 -0.2848  0.0092  0.0328
14322W        W18622  24.831   4.965  26.413  0.0305 -0.1627  0.1388
14323W        W18623   4.515   0.585  25.489  0.1070 -0.0373  0.1018
14324W        W18624  23.532   0.736   4.883  0.0138 -0.1956  0.2317
14325W        W18625  19.521   5.932  26.600 -0.2802 -0.1806 -0.0886
14326W        W18626  18.997   4.277   0.748  0.0582 -0.0528  0.1719
14327W        W18627  15.337   5.187  13.518 -0.1462 -0.0696 -0.0343
14328W        W18628  21.348   1.259  14.305 -0.4064 -0.1006 -0.1086
14329W        W18629  19.875   6.599  25.496  0.0656 -0.0014 -0.0378
14330W        W18630   1.028   5.631  29.284  0.0538  0.2214 -0.0750
14331W        W18631  20.788   3.592  29.671  0.1823 -0.3472 -0.2494
14332W        W18632  23.029   2.606  32.544  0.2053 -0.0966  0.2471
14333W        W18633   7.705   2.348  27.150 -0.0588  0.1942 -0.0655
14334W        W18634  14.561   4.682   5.802  0.0084  0.0957  0.1354
14335W        W18635  20.973   4.926   5.790  0.4707 -0.0270  0.0157
14336W        W18636   7.035   3.148  10.177  0.0308 -0.2751 -0.3624
14337W        W18637  19.852   5.104  31.724 -0.0165 -0.0415 -0.1033
14338W        W18638   0.107   0.879   6.417 -0.1252 -0.1696 -0.0889
14339W        W18639  20.865   0.479   8.316 -0.0303 -0.1197  0.0067
14340W        W18640   8.804   2.270  36.046  0.0078 -0.0844 -0.1944
14341W        W18641   3.500   2.953   5.862 -0.0370  0.2149 -0.0305
14342W        W18642   3.362   0.097  31.208 -0.1133 -0.0817 -0.0753
14343W        W18643   1.950   4.970  23.662 -0.0085  0.0319 -0.2650
14344W        W18644  17.926   3.255   0.185 -0.2912 -0.2170  0.1389
14345W        W18645  10.799   0.484  32.460 -0.0085 -0.1507 -0.0606
14346W        W18646   4.833   1.593  28.132 -0.1289  0.1448  0.0140
14347W        W18647  14.486   6.499  10.047  0.1230 -0.0036 -0.0350
14348W        W18648  25.122   1.494  13.144 -0.1674  0.0445 -0.0277
14349W        W18649  13.634   3.053  13.322  0.1839 -0.0617 -0.3100
14350W        W18650   3.286   3.623  10.910 -0.1894  0.2433  0.2335
14351W        W18651   3.400   6.578  28.755  0.0844 -0.0007 -0.0821
14352W        W18652  22.825   2.563  31.648 -0.2318 -0.0251 -0.5098
14353W        W18653  17.014   1.689   4.638  0.1890 -0.3714  0.2770
14354W        W18654  15.079   1.033  26.698 -0.2438 -0.0920 -0.1011
14355W        W18655   3.162   1.311  32.455  0.0911 -0.1011  0.0629
14356W        W18656  23.379   4.641  33.018 -0.0235  0.0987 -0.2751
14357W        W18657  26.055   1.221  28.666 -0.1971 -0.0608 -0.1639
14358W        W18658  20.861   0.646  31.222  0.0030  0.1153 -0.2322
14359W        W18659  12.951   3.506  10.845 -0.0621 -0.0300  0.0015
14360W        W18660  15.315   6.160  33.948  0.0703 -0.1866  0.4007
14361W        W18661   0.658   4.827  28.023 -0.0018 -0.1949 -0.1147
14362W        W18662  22.321   1.595  12.779 -0.3188 -0.1533  0.0989
14363W        W18663   0.290   2.977  25.575  0.0063 -0.0227 -0.0570
14364W        W18664  13.383   4.894   4.957  0.1606 -0.0828  0.1284
14365W        W18665   3.198   3.259  30.910 -0.3362 -0.1500  0.1088
14366W        W18666  24.659   1.249   0.180  0.1132 -0.1796  0.0171
14367W        W18667  10.983   1.517  13.999  0.1558 -0.0816  0.1347
14368W        W18668  12.579   6.042  29.213 -0.0176  0.0244  0.1815
14369W        W18669  17.552   1.023   2.000 -0.0558  0.3326 -0.0237
14370W        W18670  11.373   2.403   5.784  0.0545  0.0252 -0.0798
14371W        W18671   1.979   1.307  32.327 -0.0507 -0.2560 -0.0995
14372W        W18672  10.947   1.065  24.601  0.0496 -0.0751 -0.3851
14373W        W18673  21.141   0.160  30.721  0.1934 -0.3993 -0.2715
14374W        W18674  20.540   5.731  14.057 -0.1176 -0.3388  0.1938
14375W        W18675  16.997   3.556   7.908  0.1764 -0.0177 -0.2228
14376W        W18676   1.109   5.513   5.293  0.3034 -0.2554  0.3251
14377W        W18677   2.011   4.180  35.464  0.1054 -0.2354  0.0178
14378W        W18678   4.977   1.558  24.034  0.0956 -0.1108  0.0520
14379W        W18679  14.327   4.810  31.409  0.0187 -0.0984 -0.4694
14380W        W18680   5.474   6.413  30.972  0.1492  0.1091 -0.0930
14381W        W18681  20.337   5.798  32.046 -0.0714  0.1695  0.0314
14382W        W18682   5.337   5.913  21.873 -0.3016  0.0544  0.1273
14383W        W18683  11.786   6.555  33.224  0.1226  0.1435  0.0059
14384W        W18684   5.213   0.840  32.714 -0.2614 -0.0216  0.1419
14385W        W18685  22.378   4.905  27.940  0.0135 -0.2594 -0.1385
14386W        W18686  11.199   2.564  33.215  0.0888 -0.0858 -0.0669
14387W        W18687   0.486   2.647   9.328  0.0477  0.0657 -0.3721
14388W        W18688  21.903   4.290  12.947  0.0213  0.0268  0.4194
14389W        W18689  19.949   5.894   2.160  0.0424 -0.2997 -0.0785
14390W        W18690  18.279   1.010  33.155  0.0326  0.0781  0.1012
14391W        W18691   7.884   6.282   0.955  0.0279  0.0001 -0.1770
14392W        W18692   8.318   2.946  12.548  0.0036 -0.1162 -0.1069
14393W        W18693  22.634   2.901  11.133  0.1175  0.1568 -0.0363
14394W        W18694   4.350   4.789  35.424  0.1530 -0.0140  0.0812
14395W        W18695  16.718   3.891   0.643  0.3560  0.3335  0.0454
14396W        W18696  25.969   3.932   5.419  0.3121 -0.0682 -0.1229
14397W        W18697   9.697   1.263  33.559  0.2468 -0.1330  0.2104
14398W        W18698   7.133   5.291  26.053  0.0097  0.1710 -0.1761
14399W        W18699   9.185   4.213   7.663  0.0182 -0.1170  0.0263
14400W        W18700  11.782   5.559  33.170 -0.2268  0.2914  0.1353
14401W        W18701   7.493   5.959  25.036  0.1233  0.1971  0.2902
14402W        W18702  24.444   1.680   4.420 -0.0638  0.1624 -0.0288
14403W        W18703   9.085   5.530  32.863 -0.4119  0.2405 -0.1111
14404W        W18704  19.900   1.055   1.078 -0.0855  0.1732 -0.1841
14405W        W18705  16.221   2.566  10.463  0.0900 -0.2272  0.0248
14406W        W18706  25.549   2.034   2.462 -0.1486  0.2824 -0.1442
14407W        W18707  16.292   0.705   0.006 -0.3172 -0.0395 -0.1821
14408W        W18708  20.272   1.919   7.865 -0.2030 -0.2577 -0.0719
14409W        W18709  24.330   4.628  23.019  0.0423  0.0026 -0.3103
14410W        W18710  11.457   2.211   8.188  0.4371  0.0508  0.0198
14411W        W18711   4.849   0.905  30.729 -0.1385 -0.2351 -0.2250
14412W        W18712   6.110   3.310   9.833  0.2306 -0.3443 -0.4273
14413W        W18713  23.579   2.347  23.046 -0.0959  0.3103 -0.5776
14414W        W18714  23.397   0.988  25.365 -0.3633  0.1353  0.2125
14415W        W18715  21.195   1.347  13.427 -0.1878 -0.0804 -0.0325
14416W        W18716  23.213   2.811  22.008  0.3303  0.0896 -0.0336
14417W        W18717  15.645   2.979  12.819 -0.0092 -0.0963  0.3952
14418W        W18718  18.209   4.059  26.699  0.0006  0.2439  0.0953
14419W        W18719  19.970   1.004   9.710  0.0771 -0.3426 -0.1064
14420W        W18720  15.925   5.781  28.086 -0.1967  0.4131  0.1157
14421W        W18721  24.302   0.919  30.408  0.1849  0.0421 -0.3918
14422W        W18722  15.102   1.955  23.065  0.1745 -0.2516  0.1659
14423W        W18723   6.442   0.902  29.326  0.0632 -0.2217 -0.2415
14424W        W18724   0.880   2.948  13.961  0.1724  0.2488  0.1629
14425W        W18725  23.568   2.844  12.841  0.0225 -0.2120  0.3538
14426W        W18726  10.411   3.772   3.162 -0.0954  0.2389  0.0963
14427W        W18727  16.853   1.155  23.607  0.0189  0.2758 -0.0135
14428W        W18728  13.139   4.102  13.473  0.1249  0.1118 -0.1088
14429W        W18729  14.266   5.147   0.936  0.1815  0.2484 -0.1638
14430W        W18730  22.722   1.044  22.208  0.1086  0.5397  0.0102
14431W        W18731   1.455   4.168  34.469  0.2473 -0.0849  0.0125
14432W        W18732   0.215   2.505  31.015  0.2800 -0.2334  0.0399
14433W        W18733   9.340   2.533  33.559 -0.0290  0.0232 -0.0963
14434W        W18734   0.597   5.091   1.440 -0.1569  0.0389  0.0797
14435W        W18735   4.616   1.586  21.306 -0.4301 -0.0948  0.0174
14436W        W18736  16.785   2.514   5.433  0.3205  0.1460  0.1172
14437W        W18737  25.760   1.062   0.744  0.2099  0.1421  0.2489
14438W        W18738  13.265   4.013   5.332  0.4385  0.0754  0.0704
14439W        W18739   5.123   5.769   4.496 -0.4288  0.2153 -0.0717
14440W        W18740  18.899   2.169   7.282 -0.3809 -0.3606  0.1490
14441W        W18741  25.508   1.042  35.422  0.1803  0.0382 -0.3153
14442W        W18742   2.258   4.409   2.528 -0.2499 -0.3170 -0.2080
14443W        W18743   3.212   4.981   8.955 -0.0664 -0.3594  0.0760
14444W        W18744  18.104   5.214  24.359 -0.2660 -0.0515  0.0400
14445W        W18745  25.724   3.778  12.121  0.0753 -0.1001  0.0467
14446W        W18746  12.819   0.039   9.066  0.0728  0.0268  0.0848
14447W        W18747  20.473   3.223  11.074  0.3315  0.2575 -0.0381
14448W        W18748   2.353   4.804   9.894 -0.2306  0.0835  0.1936
14449W        W18749  13.120   1.989   5.987 -0.2069  0.1638 -0.0922
14450W        W18750   5.655   2.822  14.868 -0.1900 -0.0812  0.1672
14451W        W18751  25.395   4.365   6.896  0.0290  0.1879  0.0465
14452W        W18752  18.864   2.988  31.417  0.3269  0.1134 -0.0430
14453W        W18753   5.605   2.908  33.281  0.0423  0.3984 -0.2977
14454W        W18754  24.621   3.058  29.749  0.1809 -0.0813 -0.0308
14455W        W18755  18.162   1.709  11.461  0.0054 -0.0878  0.0597
14456W        W18756  10.669   2.149  34.193 -0.1265  0.1006 -0.1125
14457W        W18757  21.394   6.520  12.017  0.2373  0.0279  0.0153
14458W        W18758  16.354   5.534   7.405 -0.0332  0.1247  0.1981
14459W        W18759   0.283   0.940  27.317 -0.1476 -0.0618  0.0072
14460W        W18760  10.697   1.573  21.533 -0.2127  0.3481  0.0490
14461W        W18761   9.445   1.275  26.613 -0.0744  0.0390 -0.0744
14462W        W18762  19.504   1.019  35.458 -0.1622  0.3664 -0.2956
14463W        W18763   1.892   4.526  28.207  0.1400 -0.1061  0.3328
14464W        W18764   9.369   3.154   8.977 -0.2534  0.0700  0.1976
14465W        W18765  14.624   4.490  28.444 -0.0765  0.0977  0.0562
14466W        W18766  17.802   6.057  11.988 -0.0814  0.2280 -0.1051
14467W        W18767   4.350   0.467  26.410 -0.0771  0.1222  0.0458
14468W        W18768   8.223   0.671   3.999  0.1417  0.0113  0.0575
14469W        W18769  20.607   5.984   9.452 -0.0346 -0.0587 -0.0429
14470W        W18770   6.188   2.865   5.018  0.0744 -0.3037  0.2542
14471W        W18771   4.282   5.269  34.598  0.2097  0.1536 -0.0756
14472W        W18772  17.427   5.888  10.463 -0.2152  0.0505 -0.1320
14473W        W18773   0.486   2.825  30.074 -0.3170 -0.2499  0.3392
14474W        W18774   4.329   4.263  29.008  0.2175 -0.0854 -0.2057
14475W        W18775  25.816   0.531  21.004 -0.5208 -0.1883 -0.0141
14476W        W18776  17.166   3.211  33.558 -0.3114  0.1806  0.0557
14477W        W18777  12.174   2.107  35.138  0.0050  0.1034  0.2492
14478W        W18778   7.498   0.006   5.706  0.2315 -0.3623  0.0163
14479W        W18779  13.751   5.020  28.104 -0.0652  0.0997  0.1054
14480W        W18780  16.697   0.518   9.170  0.0824  0.0235  0.1360
14481W        W18781  18.605   3.425  12.877 -0.0688 -0.1162  0.4032
14482W        W18782  24.834   1.604   9.463  0.1390  0.0102 -0.1099
14483W        W18783   5.359   1.814   8.574 -0.0878  0.0810 -0.1124
14484W        W18784   0.247   3.273   2.744 -0.0160  0.6937 -0.1964
14485W        W18785  18.776   3.443   0.355 -0.1626  0.2217  0.1086
14486W        W18786  23.990   6.505  13.628  0.3263 -0.1718 -0.0931
14487W        W18787  26.428   5.179   9.774  0.0409  0.2123  0.1100
14488W        W18788   2.225   2.449   2.754  0.3358 -0.0050  0.0039
14489W        W18789  21.044   2.216   3.231  0.0682  0.2397  0.0641
14490W        W18790  16.341   4.302  15.206 -0.1902 -0.1193 -0.1827
14491W        W18791  20.082   1.486  21.527  0.0246 -0.2100 -0.0492
14492W        W18792   5.603   2.033  25.453 -0.2506 -0.0031 -0.2488
14493W        W18793   5.256   5.454  21.698  0.0564  0.2552  0.2496
14494W        W18794   6.944   3.715   3.664  0.0378  0.1507 -0.0535
14495W        W18795  14.365   5.042   5.418 -0.3809  0.2917  0.2927
14496W        W18796   8.636   3.199  35.861 -0.1619  0.0963 -0.1462
14497W        W18797   6.260   1.381   2.233  0.2021 -0.0517  0.0448
14498W        W18798   1.956   4.183   5.883 -0.1459  0.0712  0.0668
14499W        W18799  13.224   2.329   0.188  0.0072  0.3028  0.0982
14500W        W18800  21.682   0.015  22.908 -0.0127  0.0147 -0.0108
14501W        W18801   4.610   0.259   6.259  0.0542  0.0975  0.2292
14502W        W18802  25.490   4.497  10.749  0.4072 -0.1136  0.1021
14503W        W18803  19.746   2.482  21.407  0.1487  0.1780  0.1087
14504W        W18804  12.942   2.434  21.758 -0.1963  0.0306  0.2503
14505W        W18805  20.848   6.222   0.346 -0.1143 -0.2993 -0.0033
14506W        W18806  19.584   1.739   0.133 -0.1911  0.1227 -0.2412
14507W        W18807  10.244   6.211  35.407  0.0440 -0.2070  0.2090
14508W        W18808   0.154   4.631   2.355  0.2781  0.1096 -0.1208
14509W        W18809   7.689   1.233   7.248 -0.1677  0.1060 -0.1849
14510W        W18810  18.438   0.982   3.264  0.1640  0.0000 -0.0493
14511W        W18811  21.717   0.391  13.377  0.2590  0.0302  0.2229
14512W        W18812   2.077   0.985  27.700  0.0172  0.0598 -0.1489
14513W        W18813  21.437   4.279  12.268  0.1156 -0.0553  0.0266
14514W        W18814  21.253   4.552   8.311 -0.1133 -0.1303  0.2650
14515W        W18815   6.241   2.694  34.971  0.3068  0.0847 -0.3111
14516W        W18816  22.887   3.561   7.543  0.0504  0.2858  0.0206
14517W        W18817  14.464   4.697  22.201  0.0082 -0.2791  0.0234
14518W        W18818  14.744   2.125  29.044  0.1892 -0.0319  0.0163
14519W        W18819   6.988   3.161  25.132  0.0001  0.3146 -0.2390
14520W        W18820   8.064   6.353   6.878  0.0054 -0.1748 -0.0386
14521W        W18821   1.293   0.127  28.947  0.0560  0.1315 -0.1488
14522W        W18822  18.025   4.951   4.542  0.0651 -0.1005  0.3683
14523W        W18823   4.864   6.243  28.423 -0.2625 -0.0179 -0.0360
14524W        W18824  25.874   2.404  27.945 -0.3218 -0.3216  0.1156
14525W        W18825  21.820   0.157  10.608  0.0945 -0.1919 -0.3036
14526W        W18826  20.527   1.393   6.675 -0.0713 -0.1498  0.0524
14527W        W18827   8.346   0.524   6.662  0.2412 -0.0445  0.1053
14528W        W18828  16.903   1.854  28.938 -0.1444  0.2871 -0.1481
14529W        W18829   5.966   5.216   2.160 -0.1298 -0.3396 -0.1774
14530W        W18830  13.649   3.288   0.975  0.1265 -0.0907  0.1186
14531W        W18831  24.449   0.973  27.930  0.1378  0.3728 -0.3360
14532W        W18832  25.013   3.822   2.325 -0.0345  0.1018 -0.1581
14533W        W18833  17.178   3.023  31.044 -0.0680 -0.0134  0.1362
14534W        W18834  24.899   2.275  36.011 -0.1914  0.0125  0.0957
14535W        W18835  17.610   1.207  33.432  0.0338 -0.0151  0.2791
14536W        W18836  17.272   0.360  11.894  0.3821  0.2167 -0.2219
14537W        W18837  18.814   5.617   4.140 -0.1215 -0.1632  0.2321
14538W        W18838   8.138   4.433  26.887 -0.1664 -0.0811 -0.2087
14539W        W18839  11.348   1.033  10.354  0.0886  0.0424  0.3427
14540W        W18840  11.592   4.373  31.218 -0.1700  0.1675 -0.1983
14541W        W18841  18.107   2.983  29.692  0.0611 -0.1604 -0.0351
14542W        W18842  19.693   2.382  12.050  0.0205  0.2650 -0.0364
14543W        W18843   8.074   0.753  27.011 -0.0016  0.1242 -0.0879
14544W        W18844  23.706   2.681   2.839  0.1753 -0.4384 -0.1073
14545W        W18845   8.507   1.525  26.808 -0.1190 -0.0741  0.2412
14546W        W18846   2.163   1.243  14.238 -0.2961  0.0854 -0.0085
14547W        W18847   4.300   2.052  27.230  0.2801  0.0689 -0.0482
14548W        W18848  14.235   4.980  11.695 -0.1223  0.0258 -0.3662
14549W        W18849   0.076   3.902  10.192  0.2558  0.1536  0.1432
14550W        W18850  12.911   3.064   8.171  0.1515 -0.0891  0.1506
14551W        W18851   8.758   0.224  12.642 -0.0004  0.0186  0.2847
14552W        W18852  24.646   5.745  30.133  0.2840 -0.3406 -0.0989
14553W        W18853  25.525   6.561   9.719  0.2920 -0.0260  0.1735
14554W        W18854  14.538   4.111  14.465  0.1533 -0.0598 -0.3044
14555W        W18855  17.871   5.323   7.799 -0.4027  0.2334  0.1618
14556W        W18856  26.177   2.973  24.354 -0.2301 -0.1283  0.0954
14557W        W18857   1.689   0.607  32.717  0.0133 -0.1160  0.0480
14558W        W18858  18.952   1.092   5.059 -0.0850  0.0322  0.0367
14559W        W18859   3.975   4.736   0.987 -0.0530  0.0999 -0.1690
14560W        W18860   5.090   6.150   6.269 -0.0528  0.2611  0.0234
14561W        W18861  12.990   4.088   6.260  0.2305  0.1463 -0.0832
14562W        W18862  24.965   3.736   6.548 -0.2863  0.0003 -0.0936
14563W        W18863   8.189   1.860  36.112 -0.1748 -0.0001  0.2652
14564W        W18864  24.388   1.001  20.639  0.1024 -0.0601  0.0727
14565W        W18865   2.928   3.072  14.646 -0.1298 -0.0751  0.4063
14566W        W18866   9.109   4.877  27.069 -0.1358 -0.2354  0.0976
14567W        W18867  23.640   1.597   6.976  0.0078  0.1833  0.2272
14568W        W18868  21.070   4.413  29.542 -0.3823  0.2416  0.0914
14569W        W18869  26.013   1.694   2.443 -0.1192 -0.0623 -0.2614
14570W        W18870  10.245   4.762  13.975 -0.6843 -0.0010  0.3048
14571W        W18871  10.026   3.491  30.440 -0.1024 -0.3445  0.1270
14572W        W18872  23.990   6.059  33.809 -0.0472  0.2704 -0.0528
14573W        W18873  19.732   5.565  31.616 -0.0674  0.0278  0.1875
14574W        W18874  24.702   1.831  35.726 -0.1341  0.0546 -0.0286
14575W        W18875  21.276   2.512  35.954 -0.0797  0.1899  0.2864
14576W        W18876   7.026   6.535  35.606 -0.1891 -0.1717 -0.1353
14577W        W18877  22.877   1.906   1.346 -0.1406  0.3406  0.0816
14578W        W18878  19.838   5.447   0.083 -0.1284 -0.2012 -0.0275
14579W        W18879  15.003   2.069  15.131  0.1557 -0.2588 -0.0941
14580W        W18880   1.407   6.207   8.274  0.1479 -0.1545  0.3371
14581W        W18881  23.932   4.573  13.409  0.0652  0.1595 -0.0044
14582W        W18882  11.524   0.876  13.633 -0.2222  0.0657 -0.1179
14583W        W18883  25.897   4.762   5.978  0.0047  0.2394 -0.4060
14584W        W18884   7.069   5.480  31.019 -0.0873  0.0890  0.0774
14585W        W18885  15.260   0.907  24.961 -0.1329  0.1888 -0.1263
14586W        W18886  16.747   0.296  13.010 -0.2540 -0.1998 -0.0882
14587W        W18887  13.026   0.385  25.569 -0.0176 -0.3312  0.0954
14588W        W18888   3.332   5.744  32.724 -0.0063  0.1225  0.0600
14589W        W18889  16.532   2.280   5.046  0.0271  0.0028 -0.0211
14590W        W18890  23.137   3.599  23.647 -0.1928 -0.1046 -0.0071
14591W        W18891  11.173   6.606  11.581  0.1270 -0.1859  0.2653
14592W        W18892   4.441   4.536  31.300 -0.1866  0.1637 -0.0265
14593W        W18893   1.486   4.021  29.077  0.1450 -0.2267 -0.1467
14594W        W18894   8.112   2.043   4.182 -0.1305 -0.0796  0.0276
14595W        W18895   9.606   1.001  31.924  0.0960 -0.1882  0.1390
14596W        W18896  18.542   5.513  33.863 -0.1585  0.0473 -0.2506
14597W        W18897  11.332   1.581  27.180  0.1315 -0.1091 -0.1295
14598W        W18898   4.066   0.743  21.823  0.1119  0.2380  0.1156
14599W        W18899   6.997   2.287  29.623 -0.0615  0.3929  0.1401
14600W        W18900  11.192   0.564  32.806  0.0600  0.2663 -0.1219
14601W        W18901  18.108   5.836  23.552  0.2709 -0.2280  0.1371
14602W        W18902  15.660   1.101   7.019 -0.0403 -0.1269  0.4432
14603W        W18903  14.534   2.351  26.162 -0.2667 -0.0443 -0.1569
14604W        W18904   6.923   3.724  28.357  0.0253 -0.0296  0.3104
14605W        W18905   8.142   3.415  21.779 -0.4731 -0.1526  0.0377
14606W        W18906   4.462   3.420   6.567  0.0207 -0.0575 -0.0981
14607W        W18907  22.868   4.727   7.609 -0.1158 -0.1428  0.2420
14608W        W18908  15.750   5.149  16.049 -0.0327  0.3415  0.0477
14609W        W18909   4.483   4.378  21.675  0.1028 -0.1558 -0.0255
14610W        W18910  16.574   0.893   8.849 -0.1196 -0.0953 -0.0260
14611W        W18911  10.922   0.376  22.812  0.0417 -0.1307 -0.0580
14612W        W18912   6.306   3.602  12.912 -0.1088 -0.3760  0.0855
14613W        W18913  15.874   1.216   2.022 -0.2622  0.2927 -0.1345
14614W        W18914   8.325   2.681  31.212  0.3374  0.2692  0.1622
14615W        W18915  26.113   1.670   6.348 -0.1397 -0.0765 -0.1316
14616W        W18916  11.318   4.441  29.564 -0.0606  0.1378 -0.0733
14617W        W18917   2.103   3.024  34.703 -0.0200 -0.1157  0.3101
14618W        W18918   6.301   5.101   8.505 -0.0050  0.2250 -0.5809
14619W        W18919  12.585   1.238  13.031  0.3838 -0.0615 -0.0931
14620W        W18920  11.763   5.574  29.008 -0.1697 -0.1819  0.0347
14621W        W18921  24.898   5.871  21.499 -0.3061  0.2702  0.2706
14622W        W18922   8.961   0.614   0.651  0.1513 -0.0266  0.0659
14623W        W18923  24.772   1.623  29.383  0.0019 -0.1443  0.1795
14624W        W18924   3.930   2.492  28.920  0.0719  0.1873 -0.0591
14625W        W18925  25.195   1.435   0.900  0.1118 -0.0971 -0.1743
14626W        W18926  20.509   6.134   8.239  0.0317 -0.0334 -0.1322
14627W        W18927   8.044   5.850  27.513  0.1523  0.1095  0.1751
14628W        W18928   3.076   1.236  14.418  0.0517  0.0925  0.1751
14629W        W18929  15.999   0.379  11.995  0.0332 -0.2901  0.0962
14630W        W18930   3.944   5.405   4.553 -0.2127  0.1891 -0.0674
14631W        W18931   2.615   1.716  11.152  0.0664  0.2869 -0.0593
14632W        W18932  14.038   3.883  36.094 -0.0062 -0.0059 -0.0389
14633W        W18933  19.298   2.074   9.522 -0.1897 -0.1980  0.0465
14634W        W18934  18.829   4.353  24.289 -0.1053 -0.1490  0.1249
14635W        W18935  15.790   5.881  27.563  0.2159 -0.0764  0.1979
14636W        W18936  21.208   1.919  31.138  0.1507  0.1381 -0.0844
14637W        W18937  24.161   0.783  35.753 -0.3277 -0.1884 -0.0337
14638W        W18938   4.660   3.786  23.585  0.0525 -0.2174  0.3076
14639W        W18939  20.397   2.378   0.362 -0.0516  0.1615 -0.2066
14640W        W18940  13.710   1.566   7.204 -0.2523 -0.1688  0.1941
14641W        W18941  17.432   0.490  30.149  0.3298 -0.1131  0.2227
14642W        W18942  14.538   4.954  29.171  0.0174  0.1025 -0.0701
14643W        W18943  16.643   1.380  15.087 -0.0182  0.0103 -0.0315
14644W        W18944  18.063   2.331  26.945 -0.1236 -0.1163 -0.0738
14645W        W18945   8.744   4.827   4.660 -0.0870 -0.0278  0.1067
14646W        W18946   2.333   4.023   2.800  0.0227 -0.0474 -0.0136
14647W        W18947  23.435   5.683   7.568 -0.3172  0.0034 -0.0984
14648W        W18948  15.000   0.294   9.108 -0.1630  0.0551 -0.0857
14649W        W18949  22.221   0.532   8.354 -0.0900 -0.0206  0.0775
14650W        W18950   9.065   1.381  21.062 -0.0600 -0.1947  0.1077
14651W        W18951   3.477   3.160   4.774  0.2267  0.2323  0.2054
14652W        W18952  24.184   0.588  11.661  0.0812  0.0032  0.0503
14653W        W18953  24.375   1.732   9.689  0.2166 -0.4185 -0.2493
14654W        W18954   5.671   0.706  30.091  0.2055 -0.3221  0.0709
14655W        W18955   2.381   2.888  24.484  0.3000  0.2655  0.0425
14656W        W18956  18.103   5.513   8.800 -0.1934 -0.1152  0.3774
14657W        W18957   3.073   4.259  23.840  0.0014 -0.2912 -0.3238
14658W        W18958   9.741   2.342   2.642 -0.1282  0.0597  0.0564
14659W        W18959   4.978   3.511  32.713 -0.0786 -0.2603 -0.2222
14660W        W18960  22.565   4.980   9.117 -0.0276 -0.3025  0.0169
14661W        W18961  12.812   5.843   2.502  0.2520 -0.2377  0.0166
14662W        W18962  18.989   5.054  14.784  0.1093  0.0272  0.1883
14663W        W18963   8.388   4.275  33.251  0.3786  0.0492 -0.1266
14664W        W18964   5.769   5.732  34.864 -0.1393 -0.0307  0.2908
14665W        W18965  20.184   2.228  12.814  0.0672 -0.0179 -0.1636
14666W        W18966   6.908   4.874  12.847  0.1740  0.1961 -0.1977
14667W        W18967   3.729   3.111  33.159  0.0196 -0.1257  0.1069
14668W        W18968   5.528   5.261  26.801  0.1990 -0.2275  0.4364
14669W        W18969   4.404   5.262   1.601 -0.0077  0.1104  0.1814
14670W        W18970  10.829   1.805  22.665  0.0646  0.1336 -0.0781
14671W        W18971   7.661   6.496  31.956 -0.1116 -0.2462 -0.1397
14672W        W18972  15.390   3.298  31.651 -0.2484 -0.0836 -0.0885
14673W        W18973  14.071   3.010  11.288  0.0286 -0.2633  0.0366
14674W        W18974   5.946   4.757   5.880  0.1612  0.2254  0.0434
14675W        W18975   4.889   3.754  11.844  0.0065 -0.0914 -0.0414
14676W        W18976   4.956   3.158   8.596 -0.2298  0.2724  0.1813
14677W        W18977   9.566   5.854  30.864  0.2604 -0.2646  0.1921
14678W        W18978  10.335   4.510  27.080  0.3661 -0.2138  0.1953
14679W        W18979   3.232   1.982  30.510 -0.2006 -0.1350  0.1239
14680W        W18980  10.217   1.290  28.264 -0.3720  0.3766 -0.2379
14681W        W18981  10.985   4.656  23.517 -0.2703 -0.1790  0.0797
14682W        W18982   1.866   3.999  14.786 -0.4779 -0.1089  0.0892
14683W        W18983  24.202   4.723   5.600  0.1415 -0.2967 -0.0143
14684W        W18984   1.357   2.963  30.490  0.2333  0.1376 -0.2112
14685W        W18985   2.296   4.722  24.498 -0.3053 -0.1575  0.1663
14686W        W18986  14.903   4.723   2.160 -0.0754 -0.2327 -0.1433
14687W        W18987   8.750   4.461   2.266 -0.0444  0.1528 -0.2271
14688W        W18988  19.826   3.158  30.447  0.3774  0.2247  0.1333
14689W        W18989  17.435   4.437   2.475 -0.1475  0.1168  0.0982
14690W        W18990  22.499   5.042  13.557 -0.0961  0.0995 -0.0499
14691W        W18991  12.797   5.910  15.653 -0.1798  0.1593  0.0467
14692W        W18992   4.390   3.672   1.904 -0.1744 -0.0042  0.1080
14693W        W18993   4.227   4.872  15.038  0.0116 -0.2721 -0.3044
14694W        W18994   3.353   0.409   3.661 -0.0573 -0.0166  0.0655
14695W        W18995  20.918   2.606   8.869  0.2798 -0.0626  0.0854
14696W        W18996   0.663   1.152  21.502 -0.2231 -0.1323 -0.2829
14697W        W18997  25.545   5.924   0.566 -0.2543  0.0417  0.2671
14698W        W18998  13.501   4.094   5.799  0.0069  0.3231  0.0396
14699W        W18999  24.061   4.205  22.292 -0.3304  0.2758 -0.0651
14700W        W19000   6.330   5.420  23.761 -0.1458  0.0800 -0.0912
14701W        W19001  23.921   1.201   5.087  0.3482  0.0449  0.2802
14702W        W19002   7.039   5.970   9.169  0.1447  0.2151  0.0062
14703W        W19003   9.934   1.988   6.871 -0.1261 -0.1547 -0.0013
14704W        W19004   4.291   1.287  28.951 -0.1515  0.2008  0.0505
14705W        W19005   8.547   5.328  34.254  0.1015  0.0137  0.1630
14706W        W19006  22.286   4.641   1.943  0.2280 -0.3135  0.0379
14707W        W19007   4.904   5.106  10.290 -0.0489  0.1315 -0.2359
14708W        W19008  21.172   0.910  26.416 -0.3212 -0.0925 -0.1361
14709W        W19009  15.160   6.079  30.845 -0.1760  0.2674 -0.2944
14710W        W19010   3.752   2.562  14.317 -0.1000  0.0466  0.0796
14711W        W19011  16.548   1.300  34.530 -0.0608 -0.1622  0.2868
14712W        W19012  17.819   0.558   1.058 -0.0317 -0.0382 -0.0802
14713W        W19013   5.534   2.589  34.054 -0.0525 -0.1239  0.2414
14714W        W19014  23.095   2.887  31.462 -0.1037  0.1820  0.2017
14715W        W19015  23.528   5.970  22.060 -0.0808 -0.1320  0.1968
14716W        W19016  13.438   3.186   2.190 -0.0415 -0.1640 -0.0923
14717W        W19017   6.582   3.356  32.637  0.1436  0.1093 -0.2241
14718W        W19018   1.098   3.601  31.528 -0.1232 -0.2143 -0.1922
14719W        W19019   7.287   6.127  35.452 -0.1692 -0.1128  0.1857
14720W        W19020  12.236   0.985  28.213 -0.1624  0.3042 -0.1222
14721W        W19021   9.866   4.922  28.537 -0.2113  0.1004  0.1366
14722W        W19022  25.394   1.355   5.146 -0.3923 -0.3117  0.1764
14723W        W19023   0.598   0.494   5.686  0.0096  0.1913  0.0169
14724W        W19024  18.186   1.499  14.806 -0.0239 -0.0420  0.0212
14725W        W19025  14.274   3.280   6.619  0.3094  0.2180 -0.0673
14726W        W19026   2.736   5.162   7.720  0.1542  0.1082 -0.1704
14727W        W19027   0.433   2.059  20.472 -0.1390  0.2718 -0.1657
14728W        W19028  20.759   6.172  36.042  0.2840  0.0251  0.3398
14729W        W19029  26.054   4.739  22.207  0.0928 -0.3016 -0.0548
14730W        W19030   5.583   3.586  23.518 -0.0000 -0.1700 -0.0441
14731W        W19031   5.814   4.922  35.672 -0.0685  0.0038  0.2512
14732W        W19032  21.469   5.050   4.197  0.2199  0.1634 -0.2683
14733W        W19033   1.782   0.940   5.851 -0.1961 -0.2036  0.0660
14734W        W19034   0.336   3.379   5.334  0.0733  0.0783 -0.1217
14735W        W19035  13.642   3.618  31.302  0.0398  0.2768  0.0690
14736W        W19036   6.018   1.364   4.463  0.1475  0.0904  0.2276
14737W        W19037  15.706   1.626   1.868  0.2402 -0.2271 -0.0122
14738W        W19038  18.729   0.673  35.069  0.1295  0.2445 -0.0178
14739W        W19039   3.585   5.144  30.082 -0.0387 -0.0692  0.0666
14740W        W19040   7.967   3.614  28.869  0.3676 -0.0325 -0.1626
14741W        W19041  19.118   4.698  35.281  0.0776  0.1960  0.1675
14742W        W19042  17.295   4.869   4.420 -0.2310 -0.0747  0.1915
14743W        W19043  13.532   4.016   1.756  0.0742 -0.2377 -0.2399
14744W        W19044   7.512   2.156  35.485  0.2683 -0.0173 -0.2291
14745W        W19045   4.454   2.405  14.203 -0.2031 -0.0294 -0.0998
14746W        W19046   7.939   1.734   3.465  0.2215 -0.1468 -0.3010
14747W        W19047  19.806   0.945   3.231  0.0587 -0.0275 -0.0602
14748W        W19048  22.597   1.435  27.451  0.1409  0.0755 -0.1476
14749W        W19049  18.540   5.522  35.578 -0.2234 -0.1962  0.2154
14750W        W19050  20.399   2.650  22.316  0.2301  0.0244  0.1679
14751W        W19051  24.064   5.954  34.407  0.1621  0.0401  0.2269
14752W        W19052  24.027   1.105   7.501  0.1282 -0.0628  0.0017
14753W        W19053  21.976   1.318  33.998  0.0210  0.0249 -0.0308
14754W        W19054  24.658   5.433  33.533 -0.0737  0.1997  0.1179
14755W        W19055   4.542   2.896   8.464  0.3510  0.0062  0.1014
14756W        W19056   0.398   0.516  35.405  0.2611 -0.0212  0.1520
14757W        W19057   8.943   6.529  22.164 -0.3622  0.1121  0.1751
14758W        W19058   6.785   2.285  30.528  0.0926  0.1640  0.0725
14759W        W19059  26.056   5.339   1.771  0.0215  0.1742  0.0885
14760W        W19060  25.985   0.652   0.424  0.1833  0.1292  0.0296
14761W        W19061   4.931   1.314  25.670 -0.1516 -0.1248  0.0572
14762W        W19062   2.952   2.555  23.282 -0.0566 -0.2725  0.1151
14763W        W19063   3.397   5.173   3.045 -0.1292  0.0230  0.0032
14764W        W19064  17.461   0.076   1.964  0.0370 -0.2007 -0.0398
14765W        W19065   3.402   6.452   2.449 -0.2578  0.1382  0.1624
14766W        W19066   4.630   4.803  27.396 -0.1675 -0.1843  0.0302
14767W        W19067  21.944   0.986  30.465 -0.0014  0.0210  0.2722
14768W        W19068   2.830   1.297  32.074  0.5519 -0.2530  0.1385
14769W        W19069   7.821   3.690  20.757  0.1242 -0.1261 -0.2996
14770W        W19070  15.957   2.297   8.639 -0.1451  0.0016  0.1704
14771W        W19071  10.437   3.661  13.853 -0.0071 -0.3788 -0.1111
14772W        W19072   2.185   1.380  13.012  0.0975  0.1024  0.0358
14773W        W19073  19.936   3.462  14.183 -0.4487  0.0809  0.0782
14774W        W19074  23.432   5.798  30.707 -0.0851 -0.1505  0.3245
14775W        W19075  15.328   6.425  10.986 -0.5389  0.0957 -0.0695
14776W        W19076  13.580   2.315   7.946 -0.0287  0.2344 -0.1635
14777W        W19077  14.904   1.339   9.072 -0.2519  0.4599  0.0195
14778W        W19078  23.067   6.155  24.358  0.0598  0.0980  0.1217
14779W        W19079  24.864   6.319  21.786 -0.0111  0.0882 -0.1961
14780W        W19080  17.008   6.013  29.183 -0.0818 -0.1030  0.2769
14781W        W19081  10.763   2.983   5.163 -0.1970 -0.1210  0.0745
14782W        W19082   3.939   0.861  27.611 -0.1696 -0.0636 -0.2045
14783W        W19083  18.391   2.748  21.689  0.0830  0.1451 -0.2287
14784W        W19084  16.000   2.916  35.386 -0.1997 -0.4262  0.3539
14785W        W19085  20.103   4.659  27.167  0.0808 -0.4106 -0.1602
14786W        W19086  16.981   6.380  10.983  0.2043  0.1797 -0.1916
14787W        W19087   7.073   2.198  21.879 -0.0412 -0.1950 -0.0148
14788W        W19088   9.932   4.476  22.601 -0.0105  0.1578  0.2402
14789W        W19089  18.624   0.956   0.883  0.2037 -0.0651 -0.2390
14790W        W19090  16.387   5.133   4.534  0.1101  0.3113  0.0441
14791W        W19091  15.745   1.692  31.105 -0.1417  0.2330  0.1133
14792W        W19092   8.376   0.710  22.476  0.2175 -0.1486 -0.0487
14793W        W19093  20.902   2.802  26.825 -0.0898  0.1272 -0.2027
14794W        W19094  13.998   5.781  20.753 -0.2856 -0.1658 -0.0523
14795W        W19095  10.546   5.042   0.825 -0.0573 -0.2290 -0.1455
14796W        W19096   4.602   4.527  26.432  0.0273  0.0482 -0.4934
14797W        W19097  10.511   3.479   6.029  0.2906  0.0096  0.0195
14798W        W19098  22.788   4.384  34.848 -0.2336 -0.1964  0.0607
14799W        W19099   8.499   0.819   4.442 -0.2037 -0.4296  0.0293
14800W        W19100  22.150   6.090   7.413  0.1048  0.2037 -0.1237
14801W        W19101  19.955   6.166  23.459  0.0607 -0.0991  0.1462
14802W        W19102   4.027   2.689  24.622  0.0042  0.2401  0.0066
14803W        W19103  26.246   0.359   4.271  0.4666  0.1900 -0.1329
14804W        W19104   0.409   6.093  14.385  0.0780 -0.2880 -0.0412
14805W        W19105  14.164   2.392  14.036 -0.2548  0.2148 -0.1153
14806W        W19106  15.366   3.475   2.023 -0.1462  0.0560 -0.0693
14807W        W19107  11.317   1.100   3.937  0.0715 -0.0692  0.1042
14808W        W19108  12.195   0.037  26.444 -0.1392  0.2200 -0.0049
14809W        W19109  25.147   5.353  33.712  0.4485 -0.0890 -0.0242
14810W        W19110  16.263   0.772   9.278  0.1580  0.3808 -0.0872
14811W        W19111   1.382   0.439  25.842  0.0583  0.6690 -0.0584
14812W        W19112  20.057   0.148  26.548  0.0066 -0.2055  0.2015
14813W        W19113  23.105   3.707  33.154  0.0488  0.5308  0.1856
14814W        W19114   8.117   2.741  13.482 -0.0933 -0.1858 -0.2623
14815W        W19115  17.868   2.656  30.498 -0.0609 -0.0797 -0.0135
14816W        W19116  19.795   5.892  31.983 -0.1832  0.4775 -0.0099
14817W        W19117   0.762   1.039   0.057 -0.0020 -0.3378 -0.4420
14818W        W19118   2.768   3.385  22.078  0.2310 -0.0331  0.1129
14819W        W19119   3.086   2.093  28.193  0.0088  0.0055 -0.0350
14820W        W19120  23.870   4.815  26.506  0.0660 -0.0431 -0.0582
14821W        W19121  24.377   5.668  25.660  0.2419 -0.0790 -0.0233
14822W        W19122  16.970   4.959  36.134  0.1676 -0.0449 -0.6224
14823W        W19123   6.963   5.728   0.279 -0.1012 -0.1898 -0.2586
14824W        W19124  19.915   5.791  26.291 -0.0479  0.0253 -0.0874
14825W        W19125  13.363   5.637  32.874  0.3214  0.0486  0.0664
14826W        W19126   7.773   5.551  29.357 -0.0832  0.0818 -0.0809
14827W        W19127  13.428   1.008   1.432 -0.2147  0.1721  0.2600
14828W        W19128  14.726   6.196  30.354 -0.1863  0.0297 -0.2392
14829W        W19129  22.351   5.185  25.743  0.3756 -0.0883  0.0281
14830W        W19130  25.253   1.578   0.069 -0.1337  0.1231  0.0125
14831W        W19131  19.501   0.521  25.413  0.3686 -0.1516 -0.0900
14832W        W19132  17.517   1.597  13.598  0.0795 -0.1560 -0.2003
14833W        W19133   0.807   5.674  32.110 -0.1086  0.1900  0.0805
14834W        W19134  23.458   0.035  10.499 -0.2014  0.0748 -0.3063
14835W        W19135  21.243   3.933  25.862  0.0639  0.0599  0.0119
14836W        W19136  19.109   3.381  31.173 -0.1565 -0.0558  0.0621
14837W        W19137  26.065   5.207  26.186  0.0555 -0.1695 -0.0917
14838W        W19138  11.312   3.672  28.860  0.2528 -0.1576  0.1768
14839W        W19139  15.453   1.996   2.149 -0.0344  0.2114 -0.1171
14840W        W19140  14.034   3.413  27.399 -0.0254  0.0062  0.0833
14841W        W19141  25.988   0.257  14.357 -0.0335  0.1612  0.2086
14842W        W19142   3.012   0.625  28.622 -0.2181 -0.0121 -0.1264
14843W        W19143   7.523   5.961   9.438  0.0017 -0.1828 -0.0422
14844W        W19144   9.172   3.176  35.914 -0.3386 -0.1040  0.0563
14845W        W19145  18.017   2.200  28.249 -0.0646  0.0745  0.0606
14846W        W19146  23.851   2.299  33.460  0.1180 -0.1261 -0.3909
14847W        W19147  14.429   3.684  35.947  0.1946  0.2640 -0.0948
14848W        W19148  13.998   4.019   5.901 -0.2363  0.3332 -0.1647
14849W        W19149  24.374   3.256  25.468 -0.0615 -0.1452 -0.2583
14850W        W19150   0.598   1.561  23.578 -0.2135 -0.0925  0.0507
14851W        W19151   7.475   0.360  30.758  0.0850  0.0798  0.1219
14852W        W19152  24.570   1.764   7.095 -0.2313  0.0630  0.3604
14853W        W19153   8.604   0.252  32.012 -0.1159 -0.2845  0.3605
14854W        W19154   7.162   3.846   0.523  0.2114 -0.2279 -0.1702
14855W        W19155   0.695   5.380  33.799  0.1337  0.0679  0.0636
14856W        W19156  15.015   2.357  22.773  0.0803 -0.1065 -0.0657
14857W        W19157  24.706   1.355  33.873 -0.3290  0.3287 -0.0785
14858W        W19158   4.023   4.021  22.124  0.3292 -0.0789 -0.0811
14859W        W19159   4.865   5.708   0.024 -0.2668 -0.0147 -0.1173
14860W        W19160   4.868   3.861   4.674  0.1428  0.1229  0.0867
14861W        W19161   9.200   1.242  28.289  0.0308  0.3021  0.0173
14862W        W19162   2.430   2.652  20.240  0.3730 -0.0265  0.2876
14863W        W19163  21.010   0.347   1.228  0.2438 -0.1312  0.0390
14864W        W19164   5.712   0.994   4.457 -0.0138 -0.0923 -0.0334
14865W        W19165  21.156   5.318   5.396 -0.0034  0.1783 -0.2707
14866W        W19166  26.162   4.384   1.091 -0.0141  0.1578 -0.0918
14867W        W19167  22.567   3.460  22.425 -0.0487 -0.0200 -0.1813
14868W        W19168   0.985   3.015  35.388  0.0027 -0.0405 -0.1470
14869W        W19169  14.921   4.694   4.041  0.2820  0.2220 -0.0233
14870W        W19170   6.430   1.467   0.407  0.0539  0.1055 -0.2752
14871W        W19171  20.410   2.429   2.089 -0.0638 -0.1306 -0.1010
14872W        W19172  21.309   4.786  32.806  0.0680 -0.1649  0.2883
14873W        W19173   2.845   0.350   3.676 -0.0442 -0.0300  0.1332
14874W        W19174   9.332   5.813   8.430  0.0651 -0.1560  0.0169
14875W        W19175  17.767   5.091  32.891 -0.2443 -0.2001  0.1244
14876W        W19176  18.786   1.854  26.183  0.1218 -0.0673  0.2381
14877W        W19177  16.679   2.621  10.217 -0.3158 -0.1397 -0.0275
14878W        W19178  14.811   5.868   0.933 -0.0824  0.0660 -0.0107
14879W        W19179  12.651   4.339  23.713  0.2749 -0.1052 -0.2145
14880W        W19180  12.855   5.076  23.382 -0.0129 -0.2966 -0.1328
14881W        W19181  11.776   5.373  26.735 -0.0921 -0.4779 -0.3032
14882W        W19182   3.731   1.546   2.793  0.2874 -0.0081  0.1219
14883W        W19183   8.915   2.281  32.109 -0.0619 -0.2433 -0.2407
14884W        W19184   9.857   5.012  33.786  0.3233 -0.2505 -0.3455
14885W        W19185  16.508   1.726  24.018  0.0111 -0.2480 -0.2603
14886W        W19186  11.435   4.919  27.915  0.0046  0.1991 -0.1699
14887W        W19187  13.249   2.425  28.057  0.1708  0.1642  0.0283
14888W        W19188  13.470   3.339   6.886  0.0273  0.2456 -0.1692
14889W        W19189  19.311   5.467  23.879  0.0283 -0.2777 -0.0501
14890W        W19190  21.264   5.316  33.858  0.1432  0.2696 -0.3117
14891W        W19191   6.030   2.496  15.124  0.0958 -0.2485 -0.0502
14892W        W19192  20.129   3.071   4.732  0.0920  0.1293 -0.1576
14893W        W19193  17.496   3.181  30.014  0.0279  0.1928 -0.2242
14894W        W19194  10.656   5.212  25.201 -0.1574  0.0567  0.0010
14895W        W19195  16.893   3.896  22.087  0.1584 -0.3302 -0.2576
14896W        W19196  10.217   4.193  28.870  0.0049  0.0309  0.1486
14897W        W19197   3.276   3.429  23.381 -0.0077  0.0801 -0.1588
14898W        W19198   8.348   2.615  24.596 -0.0720  0.0022 -0.0081
14899W        W19199  10.130   3.851   1.311 -0.1320  0.3831 -0.2671
14900W        W19200   0.488   1.572  11.570 -0.1559 -0.0721 -0.0935
14901W        W19201   3.932   4.015  26.930 -0.2271  0.2658 -0.1145
14902W        W19202   0.057   5.400   4.258  0.2298 -0.0716  0.2232
14903W        W19203   2.604   4.572   5.697 -0.0064 -0.1798  0.0598
14904W        W19204  18.141   2.116  33.553  0.2234 -0.3134  0.0029
14905W        W19205  26.400   5.794   3.510 -0.0578 -0.1741  0.2109
14906W        W19206   8.984   5.145   1.254  0.1597 -0.2347  0.1079
14907W        W19207  10.018   2.320  13.475 -0.0697  0.1125 -0.0951
14908W        W19208  13.094   3.575  34.438  0.0907  0.2056 -0.2242
14909W        W19209  12.804   5.374  26.687  0.0474  0.0564 -0.0212
14910W        W19210  23.945   6.238  23.662 -0.2411 -0.1905  0.1152
14911W        W19211   0.395   5.928  31.966 -0.1824  0.3432 -0.0552
14912W        W19212  23.211   3.394   2.138  0.2540  0.2479 -0.1717
14913W        W19213  22.325   2.044   1.962 -0.0402 -0.1199  0.1682
14914W        W19214  18.900   5.202   7.077 -0.3369  0.0413  0.0493
14915W        W19215   8.218   1.767   6.700  0.2411  0.2976 -0.0777
14916W        W19216  20.617   2.698   7.542 -0.1020 -0.5174 -0.0840
14917W        W19217   3.464   0.209  12.263  0.2898 -0.0421 -0.2176
14918W        W19218   5.056   3.265  10.013 -0.2315 -0.0495  0.0828
14919W        W19219   5.147   3.453  27.506 -0.0620  0.0614 -0.2198
14920W        W19220   5.735   4.751   7.605  0.0934  0.1603 -0.0180
14921W        W19221  23.750   5.750  27.775  0.1439 -0.2195 -0.2824
14922W        W19222   8.831   5.603  25.143  0.0393  0.1277 -0.1923
14923W        W19223   2.182   5.523  34.009 -0.0787  0.3099 -0.2534
14924W        W19224  11.940   6.330  26.124 -0.1954  0.2648 -0.3428
14925W        W19225  16.074   5.912  35.578 -0.1315  0.0725  0.2053
14926W        W19226  16.385   2.878   6.333  0.0157 -0.1792  0.0827
14927W        W19227  22.037   0.808  34.869 -0.0159  0.0281  0.1460
14928W        W19228  16.537   2.858  32.198 -0.2670 -0.1285  0.0029
14929W        W19229  20.772   2.454  21.976  0.0727  0.1980 -0.0968
14930W        W19230   5.215   2.258  26.780  0.0298 -0.0229 -0.1832
14931W        W19231  25.523   3.276  14.035 -0.0487  0.1155 -0.1190
14932W        W19232  23.781   3.418   2.412 -0.0317 -0.0982  0.2332
14933W        W19233  20.932   0.254   2.801 -0.2437 -0.1033 -0.3860
14934W        W19234  12.114   0.978  35.040  0.0808  0.1524 -0.0990
14935W        W19235  14.903   4.689  23.584  0.0755 -0.1846  0.1380
14936W        W19236   9.710   3.032  26.604  0.2190 -0.3618  0.0612
14937W        W19237  14.490   0.306   9.240 -0.1053  0.0723  0.3566
14938W        W19238   6.860   0.980  14.992 -0.0197  0.0879 -0.0785
14939W        W19239   6.405   5.563   2.192 -0.1324  0.0568 -0.0707
14940W        W19240  26.027   1.326   2.823  0.4320  0.1063  0.1965
14941W        W19241   5.080   1.493  14.084  0.1201 -0.0404 -0.0324
14942W        W19242   7.190   1.806   8.224  0.1886 -0.2908 -0.1995
14943W        W19243   4.514   4.762   0.872 -0.1684 -0.0556  0.1190
14944W        W19244   6.565   1.222  24.963 -0.0187 -0.1454  0.0450
14945W        W19245   8.272   2.920  23.210  0.1554  0.0916 -0.2372
14946W        W19246   2.372   3.033  10.566  0.3573  0.1659  0.0535
14947W        W19247  26.077   5.593  33.586 -0.0883  0.0414  0.1291
14948W        W19248   6.067   0.109   3.969 -0.0181  0.0815 -0.0498
14949W        W19249  25.393   1.263  15.300  0.0107  0.0636  0.2087
14950W        W19250  25.575   2.045  26.857  0.0899  0.0531 -0.0264
14951W        W19251  10.853   2.246  24.196 -0.2460 -0.3774  0.1004
14952W        W19252   2.182   5.920  28.079 -0.2227  0.0110 -0.1811
14953W        W19253  12.221   1.661  23.344 -0.0486  0.1200  0.1555
14954W        W19254   8.579   4.926  25.926 -0.0120  0.1584 -0.1356
14955W        W19255   8.349   5.092  22.361  0.3871 -0.3226 -0.1507
14956W        W19256   8.677   3.672   2.883  0.0712  0.2150  0.0064
14957W        W19257   3.699   1.214  10.503  0.0560  0.3223  0.0039
14958W        W19258  21.586   1.685  24.935 -0.0367  0.0050  0.0447
14959W        W19259   7.980   2.751   3.051 -0.1203 -0.0193  0.0993
14960W        W19260   3.566   4.288  31.269 -0.0109 -0.0359 -0.0253
14961W        W19261   2.636   2.737   5.545  0.3044  0.1454 -0.1044
14962W        W19262   5.455   3.245   6.588  0.2799 -0.1490  0.0553
14963W        W19263  18.324   0.347  31.102  0.0969 -0.1753 -0.2736
14964W        W19264   1.625   4.762  26.430  0.1317  0.1250 -0.0368
14965W        W19265  15.549   6.385   9.722 -0.0092 -0.2127 -0.0939
14966W        W19266  11.418   0.794   0.707  0.1506 -0.1418  0.2076
14967W        W19267  20.416   4.585  10.485  0.0017 -0.0090 -0.1176
14968W        W19268  25.729   5.826   1.774 -0.3631  0.0025  0.1054
14969W        W19269  25.933   3.529  27.280  0.1112 -0.0082  0.2760
14970W        W19270  25.106   2.346  30.949  0.1150 -0.0699  0.0546
14971W        W19271   3.987   0.073   8.126  0.2666 -0.0865 -0.1926
14972W        W19272  10.735   0.795  32.823  0.2482  0.0062 -0.0116
14973W        W19273  15.039   0.840   0.406 -0.0726  0.3335 -0.0344
14974W        W19274  22.162   2.318  25.342 -0.1481 -0.0475 -0.0517
14975W        W19275   7.829   5.134   7.364 -0.1153  0.1452 -0.2724
14976W        W19276   5.090   1.739  15.147 -0.0440 -0.0609  0.1405
14977W        W19277  18.889   1.301   3.504  0.1943 -0.1157  0.0066
14978W        W19278   5.534   3.567  24.620 -0.0499  0.4331  0.3279
14979W        W19279   7.174   3.519  13.632 -0.1461 -0.2178 -0.1286
14980W        W19280  19.277   4.936  27.192  0.0455 -0.1173 -0.0620
14981W        W19281   8.775   4.493  35.686 -0.0056 -0.1577  0.1031
14982W        W19282  11.190   5.333   4.153  0.0041  0.1154 -0.0400
14983W        W19283  19.425   5.147  10.045  0.1562  0.2552  0.1879
14984W        W19284   6.877   6.360  29.012 -0.0341  0.2037  0.3824
14985W        W19285  12.567   4.038   7.891  0.0033 -0.0740 -0.2810
14986W        W19286  21.329   3.936   2.687 -0.1742 -0.0293  0.0286
14987W        W19287  23.224   2.150  11.232  0.1006 -0.1978  0.2307
14988W        W19288  11.044   5.504   9.826 -0.3501 -0.0376 -0.1641
14989W        W19289  25.027   2.469  25.632  0.1013  0.0412 -0.1588
14990W        W19290   6.865   0.517  31.471 -0.0072 -0.1557 -0.1928
14991W        W19291   4.997   3.105  25.027  0.2621  0.0347  0.0923
14992W        W19292   7.598   6.346  26.427  0.0446  0.0984  0.0947
14993W        W19293   4.258   3.755  20.964  0.0077 -0.2334  0.1941
14994W        W19294  14.769   4.351   7.665 -0.0960 -0.0573  0.3065
14995W        W19295  12.522   3.101   0.772 -0.0505  0.3535 -0.1992
14996W        W19296   1.102   3.019   7.753  0.2358 -0.0824  0.0921
14997W        W19297  23.756   5.203  12.114 -0.1009 -0.0284 -0.0802
14998W        W19298   6.086   4.139   5.250 -0.3491  0.4083 -0.1166
14999W        W19299   4.995   4.651   5.599  0.5340  0.1003 -0.1231
15000W        W19300  25.118   3.637  23.702  0.2238 -0.0088 -0.0530
15001W        W19301   0.228   0.358   9.998  0.2101 -0.1013  0.0706
15002W        W19302  21.143   4.840  21.151  0.2692 -0.0981 -0.0665
15003W        W19303  21.582   4.483  27.152  0.3417  0.0904 -0.1632
15004W        W19304  15.878   0.756  34.952 -0.1358 -0.0178 -0.3152
15005W        W19305   9.387   0.315  34.760  0.2243 -0.0579 -0.0186
15006W        W19306  24.262   5.482  26.996 -0.0971  0.0379  0.0425
15007W        W19307   7.233   5.167  28.413 -0.3796 -0.3005 -0.1995
15008W        W19308   9.507   0.881   2.211  0.0868 -0.2114 -0.0456
15009W        W19309  12.738   4.619  12.771 -0.0007 -0.0693  0.1239
15010W        W19310  12.828   2.242   7.280  0.1163 -0.3120 -0.1351
15011W        W19311   6.542   4.114  31.751  0.1326 -0.0943  0.0834
15012W        W19312  13.836   5.886  22.852 -0.2690 -0.3106 -0.0441
15013W        W19313   9.064   4.723  23.973 -0.0613 -0.3381  0.0857
15014W        W19314   4.303   5.330   7.160  0.0107 -0.3164 -0.1831
15015W        W19315  26.260   2.629  23.874 -0.1909  0.4178 -0.1594
15016W        W19316  19.267   2.109   6.387  0.1156 -0.1127 -0.1245
15017W        W19317   9.574   3.676  31.951 -0.0884 -0.3461  0.0782
15018W        W19318   4.519   1.201  33.441  0.0937 -0.0170 -0.1393
15019W        W19319  11.817   3.459  33.526  0.2087  0.1775 -0.0121
15020W        W19320   5.035   2.867   1.884 -0.0595  0.0632  0.1708
15021W        W19321   3.815   0.510   1.237  0.1299  0.2112  0.1683
15022W        W19322   7.153   1.049  34.293 -0.1401 -0.1069  0.1623
15023W        W19323  12.109   0.988  24.308 -0.1223 -0.1376  0.0583
15024W        W19324   7.212   3.936   4.949  0.3210 -0.2847  0.1644
15025W        W19325   9.413   1.369  14.416  0.2015  0.0720 -0.1897
15026W        W19326  11.893   2.011  23.413 -0.2982  0.2040 -0.1891
15027W        W19327  13.539   3.063  29.336 -0.2064 -0.0021  0.3268
15028W        W19328   6.004   3.870   1.811  0.1268 -0.0442 -0.3539
15029W        W19329  21.892   2.576  15.000  0.0328  0.0436 -0.1940
15030W        W19330  20.427   2.782  34.075  0.1194  0.1714 -0.1146
15031W        W19331  11.667   1.274   8.140 -0.0577 -0.0595  0.0471
15032W        W19332  20.320   2.037   3.528  0.0343  0.0478 -0.0851
15033W        W19333  18.138   5.201  12.300  0.0120  0.1520  0.3880
15034W        W19334  21.223   3.891  33.648  0.0200 -0.0900 -0.1388
15035W        W19335   2.428   3.528  25.436 -0.1567 -0.1429  0.2981
15036W        W19336  22.082   3.195  10.990  0.1380 -0.2022  0.3573
15037W        W19337  10.962   2.809  14.453 -0.2199 -0.3837  0.3468
15038W        W19338  25.153   1.512   3.357 -0.0720  0.0801  0.2997
15039W        W19339  13.949   0.047  10.929  0.2391 -0.0218  0.0741
15040W        W19340  24.045   1.630  24.865 -0.0221 -0.1541 -0.0136
15041W        W19341  15.917   3.671   9.035 -0.0469  0.0236 -0.0525
15042W        W19342  14.425   2.904  34.346 -0.0917 -0.2214 -0.1130
15043W        W19343   9.132   4.614  11.887 -0.2692  0.3267 -0.2550
15044W        W19344   9.756   4.243   2.645 -0.2788 -0.3570 -0.1734
15045W        W19345   5.337   2.298  22.516  0.0449  0.1073  0.0461
15046W        W19346   7.084   1.260  23.175 -0.0857 -0.0296  0.0157
15047W        W19347  24.502   4.388  30.617 -0.1149 -0.0131  0.0049
15048W        W19348   6.715   6.472   1.907  0.4646  0.0095  0.0896
15049W        W19349   4.978   1.761  29.833 -0.0329 -0.1173 -0.0359
15050W        W19350  13.278   2.062   0.580 -0.2472 -0.3181 -0.3028
15051W        W19351  20.248   1.967  25.100 -0.1339  0.0316  0.1311
15052W        W19352  17.492   4.203  32.919  0.0133 -0.0884  0.1075
15053W        W19353   9.102   4.280  25.518  0.1701  0.3261 -0.2144
15054W        W19354   8.154   4.618  12.170  0.0379 -0.0266  0.0396
15055W        W19355  21.834   5.388  14.262 -0.1373  0.1017 -0.1787
15056W        W19356  22.913   1.585   2.307  0.0454  0.0465  0.0743
15057W        W19357  11.840   5.601  14.457 -0.2214  0.2048 -0.1162
15058W        W19358  22.555   5.949  10.207  0.1759  0.3276 -0.0472
15059W        W19359  18.603   5.032  22.110  0.0793 -0.2695 -0.2856
15060W        W19360  10.898   4.959  21.295 -0.0805  0.1996  0.0065
15061W        W19361  15.017   1.987  35.163  0.1954 -0.1788 -0.0020
15062W        W19362   8.676   3.310  11.102  0.2552  0.1714  0.1967
15063W        W19363   0.106   2.438   2.803  0.0626  0.0849 -0.0593
15064W        W19364   3.082   0.423  24.840  0.0905  0.0942 -0.0844
15065W        W19365   1.581   1.940   6.612  0.4069 -0.2554 -0.1823
15066W        W19366  24.454   1.727  34.091 -0.0539 -0.1005  0.2207
15067W        W19367  10.294   5.135  21.419  0.0028 -0.0569  0.1051
15068W        W19368  13.494   1.544   1.423  0.2066  0.0184  0.1310
15069W        W19369  12.061   1.410  21.908 -0.0043  0.2645 -0.2353
15070W        W19370  19.755   3.983  25.591 -0.2028 -0.2151 -0.4772
15071W        W19371  18.096   2.800  15.472 -0.1469  0.1114  0.2195
15072W        W19372   4.503   1.655   4.912  0.2678 -0.0267  0.2382
15073W        W19373  15.175   6.482  24.916  0.0405 -0.1233  0.2451
15074W        W19374  23.275   4.017  31.918 -0.0061  0.1878 -0.0368
15075W        W19375   9.698   1.580  29.725 -0.3589 -0.1701  0.3560
15076W        W19376   0.231   4.155  35.773  0.2426  0.0498 -0.0670
15077W        W19377  15.443   2.877  35.072  0.0634  0.2405  0.1836
15078W        W19378   7.091   1.780  27.455 -0.0873 -0.1362 -0.2115
15079W        W19379   6.437   5.791  13.450 -0.3158 -0.1257 -0.0868
15080W        W19380  24.817   0.209   9.338  0.1608  0.1936  0.0204
15081W        W19381   0.818   3.011   5.271 -0.1229  0.4458  0.1307
15082W        W19382  15.445   3.940  29.949  0.1130  0.1303  0.0887
15083W        W19383   8.991   3.749  14.555 -0.0426  0.3184  0.2079
15084W        W19384  26.177   4.160  34.492  0.2398 -0.0284 -0.0491
15085W        W19385  19.360   3.698  28.369  0.0961  0.1707  0.1278
15086W        W19386   3.123   6.583  20.488  0.1258 -0.5080  0.1009
15087W        W19387  24.466   0.117   6.211  0.2762  0.1029 -0.1882
15088W        W19388  24.871   0.878  11.173  0.0637  0.0488 -0.0131
15089W        W19389   7.404   6.115   6.482 -0.1650 -0.0533 -0.0861
15090W        W19390  10.181   2.473   7.032  0.2329  0.0400 -0.0894
15091W        W19391  10.273   3.794  26.413 -0.1251  0.1894 -0.1667
15092W        W19392  20.581   4.275  28.529 -0.4170 -0.0383  0.1207
15093W        W19393  20.735   2.955  32.579 -0.2812  0.3603  0.0058
15094W        W19394   9.564   4.975   1.239  0.2387  0.1494 -0.0389
15095W        W19395  20.404   0.290   3.835  0.3688  0.0733  0.4837
15096W        W19396  12.616   3.452   5.133  0.1510 -0.2243  0.2407
15097W        W19397   3.286   3.499  26.478 -0.1689 -0.0788 -0.1088
15098W        W19398  22.177   3.016  23.309 -0.2413 -0.2487 -0.1727
15099W        W19399  11.679   1.347  35.626  0.2055 -0.0952 -0.1891
15100W        W19400  18.392   0.561  24.232  0.2275 -0.0812 -0.1823
15101W        W19401  22.076   1.310  32.289 -0.1139 -0.0771  0.0825
15102W        W19402   5.405   2.030  21.487 -0.1911  0.2448 -0.2447
15103W        W19403   6.913   5.778  13.295 -0.0399  0.1317 -0.0869
15104W        W19404  10.535   1.752  30.931 -0.4137  0.0006  0.2127
15105W        W19405   2.522   4.660   2.207 -0.4126  0.3330 -0.1548
15106W        W19406   7.032   2.070  35.370  0.0935 -0.2235  0.0970
15107W        W19407   8.185   4.847   7.196 -0.0776 -0.1204 -0.3175
15108W        W19408   5.645   2.538  25.627  0.0556  0.1810  0.0708
15109W        W19409  16.163   0.197  25.280  0.0251  0.0271  0.1201
15110W        W19410   8.312   5.381  28.363 -0.3121 -0.0355  0.1374
15111W        W19411  17.876   1.474  29.381  0.1354 -0.0556  0.1829
15112W        W19412  10.711   3.922   4.009 -0.0454  0.2030 -0.0789
15113W        W19413   4.910   1.333  23.583  0.0001 -0.1136  0.3683
15114W        W19414   2.834   5.756  30.529 -0.1317  0.2926  0.2567
15115W        W19415  18.905   1.180  10.585  0.2618 -0.0980  0.2879
15116W        W19416  17.583   3.186  32.659 -0.2403  0.1173  0.1613
15117W        W19417   3.433   3.575   5.138 -0.0334  0.2728  0.5104
15118W        W19418   4.315   0.885   6.315 -0.1131 -0.0351  0.1047
15119W        W19419  13.720   6.436  16.211 -0.1533 -0.0375 -0.0987
15120W        W19420  21.042   0.780  30.736 -0.0985  0.2326  0.1709
15121W        W19421  14.875   1.586  13.058 -0.0579  0.1800 -0.0195
15122W        W19422  18.476   1.933   3.806  0.1077 -0.1881 -0.0186
15123W        W19423  18.450   0.768  27.821 -0.1142 -0.1239  0.1861
15124W        W19424  23.332   4.365   7.584  0.0651  0.1315 -0.2074
15125W        W19425  18.180   2.704   5.639 -0.1657 -0.5019  0.0751
15126W        W19426  24.035   4.266  21.810 -0.1562 -0.0547 -0.1035
15127W        W19427  26.169   2.387  13.933  0.2343 -0.0101 -0.2348
15128W        W19428  22.891   1.780  27.918 -0.3827  0.1220 -0.4798
15129W        W19429  10.374   1.852  30.216 -0.3304  0.0477 -0.2710
15130W        W19430  17.601   4.350  20.975  0.0640  0.0087  0.1496
15131W        W19431  11.636   0.099   1.649 -0.1090  0.0290  0.1296
15132W        W19432   9.646   2.535  10.208  0.0588  0.1017  0.0654
15133W        W19433  12.034   5.413  14.853  0.1333 -0.1090 -0.1032
15134W        W19434  10.173   3.677  23.951 -0.2731  0.0052 -0.0458
15135W        W19435  21.891   2.836   2.610 -0.0931  0.1480 -0.0537
15136W        W19436  10.684   5.445   8.877 -0.3597 -0.0340 -0.2157
15137W        W19437  23.886   2.450  30.095 -0.1403 -0.2096  0.1306
15138W        W19438  16.059   2.075   9.054  0.0896 -0.2932  0.2957
15139W        W19439   1.645   1.357  14.305  0.0740  0.0264  0.3004
15140W        W19440  23.432   6.025  33.651 -0.1548  0.0846  0.1907
15141W        W19441  11.856   1.646  15.259  0.1574  0.0107 -0.1222
15142W        W19442  19.857   2.962  25.154 -0.0125 -0.0478  0.0872
15143W        W19443   4.899   4.835   4.683  0.1001  0.1528 -0.0350
15144W        W19444   9.170   1.040  22.327  0.0051 -0.1407  0.1737
15145W        W19445  24.562   4.259  31.307  0.0987 -0.0583  0.1600
15146W        W19446  17.101   6.386   5.279  0.1808  0.3828  0.4820
15147W        W19447   7.091   3.307  27.991  0.1995 -0.0767 -0.3850
15148W        W19448   1.818   2.084  13.683 -0.1050 -0.2041  0.1425
15149W        W19449  26.380   2.885   2.654  0.0826  0.0520 -0.1667
15150W        W19450   9.058   2.059   5.294 -0.5350  0.0883 -0.2446
15151W        W19451  18.585   0.884  33.529 -0.0357 -0.1149 -0.2178
15152W        W19452  18.389   1.566  33.428 -0.1963 -0.2434 -0.0173
15153W        W19453   5.521   2.703   4.321 -0.1069 -0.0354 -0.0096
15154W        W19454   3.751   3.530  14.981 -0.1926 -0.3394 -0.0690
15155W        W19455  17.890   6.166  24.213  0.2343  0.1041  0.3254
15156W        W19456   0.752   6.040  21.024  0.1538  0.2457 -0.0046
15157W        W19457   2.328   4.157  15.190 -0.2784  0.0535  0.0606
15158W        W19458   2.519   1.556   4.282 -0.2986 -0.1615 -0.1061
15159W        W19459  23.324   0.431  21.879 -0.2296 -0.0960  0.0883
15160W        W19460   7.061   5.681  23.397 -0.2628  0.1897  0.1873
15161W        W19461   8.023   3.684   9.117  0.2757 -0.2090  0.0844
15162W        W19462  23.741   5.304   7.585 -0.1492  0.1033  0.2483
15163W        W19463  19.214   4.522   3.459 -0.1010  0.1220  0.2395
15164W        W19464  17.627   0.018  29.984  0.0432  0.3064 -0.0538
15165W        W19465   6.223   2.677  29.864 -0.1932 -0.0274 -0.0360
15166W        W19466   6.548   5.802   9.045  0.4416  0.1299 -0.0324
15167W        W19467  22.828   1.642   7.114 -0.0424 -0.0547 -0.6420
15168W        W19468   7.538   0.557  12.600  0.1191 -0.0864 -0.2166
15169W        W19469  10.265   2.118  23.456  0.0579 -0.2991  0.1269
15170W        W19470  23.860   0.551   7.004 -0.0260 -0.1614  0.3618
15171W        W19471  17.759   0.526   4.765 -0.0523 -0.0389  0.1651
15172W        W19472  25.305   0.065  24.883  0.1156 -0.1275 -0.0128
15173W        W19473  25.668   6.397  27.680  0.1574 -0.1267  0.0394
15174W        W19474  10.643   0.379  33.430 -0.1151  0.2699 -0.0248
15175W        W19475  11.108   2.444  14.105  0.0261  0.0867 -0.3643
15176W        W19476  16.313   3.761  25.376  0.5438 -0.3471 -0.4355
15177W        W19477  10.932   2.510  12.171 -0.0327  0.3880  0.0118
15178W        W19478  16.813   1.862  34.923  0.1036  0.3698 -0.0972
15179W        W19479   9.568   5.717  11.391 -0.0381 -0.2659  0.0314
15180W        W19480   9.510   2.631   0.118 -0.1377 -0.0251  0.3340
15181W        W19481   4.184   0.185  30.921 -0.0165  0.4487  0.1125
15182W        W19482   7.207   0.970  33.743 -0.0692  0.2453  0.0154
15183W        W19483   0.127   3.732  26.142  0.0365 -0.4381  0.0092
15184W        W19484  18.994   2.114   3.057  0.4146 -0.0634  0.1916
15185W        W19485  11.455   1.042  26.342  0.1859 -0.2067 -0.1547
15186W        W19486   7.716   0.870  21.247  0.0636  0.0770  0.0228
15187W        W19487   4.857   2.843  22.611  0.0749 -0.3810 -0.4142
15188W        W19488  19.552   3.418  32.146 -0.0220  0.2055  0.0250
15189W        W19489   7.490   3.322  32.017 -0.0693  0.2019 -0.1242
15190W        W19490  19.746   1.481   0.727  0.2022  0.2194 -0.0299
15191W        W19491  21.670   2.348  28.013 -0.2632 -0.2836  0.0463
15192W        W19492   9.707   3.177  31.925  0.0324 -0.2833 -0.0590
15193W        W19493   1.359   0.060  13.759 -0.4381 -0.1280 -0.1911
15194W        W19494   5.674   0.031   7.907 -0.1745  0.1700  0.0441
15195W        W19495  14.140   5.140  13.561  0.5074  0.1742 -0.2173
15196W        W19496   9.720   0.226   0.997  0.1107  0.0232  0.2119
15197W        W19497  13.503   2.736  12.947 -0.0062  0.0137 -0.1251
15198W        W19498  19.528   3.487   9.671  0.0937 -0.1037  0.2077
15199W        W19499  13.647   5.150   2.327  0.0922  0.2175  0.2075
15200W        W19500  21.194   3.039  21.255 -0.1758  0.0161  0.1257
15201W        W19501   0.171   5.111   2.279 -0.0064  0.0613  0.0881
15202W        W19502  15.254   0.257   7.531 -0.0143  0.2486  0.0246
15203W        W19503   0.848   3.695  11.299  0.0525 -0.0877  0.2424
15204W        W19504   2.529   2.632  20.888  0.1345 -0.0959  0.3133
15205W        W19505  21.282   3.634   2.262 -0.2694 -0.1467 -0.0793
15206W        W19506  13.295   4.279   6.956  0.0172  0.1792  0.3714
15207W        W19507  25.469   5.095  27.975 -0.2915  0.0315  0.1145
15208W        W19508  18.822   1.837   1.188 -0.0449 -0.0949 -0.0435
15209W        W19509   2.466   5.470  22.765  0.1251 -0.2173  0.0582
15210W        W19510   1.455   4.584   4.582 -0.1056 -0.2768 -0.0915
15211W        W19511  21.544   4.742   3.396 -0.0789  0.1163 -0.0743
15212W        W19512  16.925   2.243   2.802  0.0930  0.0642 -0.1197
15213W        W19513   2.465   1.631  31.353  0.1679  0.1602  0.0198
15214W        W19514   5.864   6.466   7.368  0.1692  0.1143  0.0589
15215W        W19515   9.463   1.564  10.175 -0.0008  0.4370  0.1940
15216W        W19516   6.540   6.300  30.664 -0.3259  0.0321  0.0268
15217W        W19517   1.476   5.268   3.838 -0.1517  0.0988  0.2151
15218W        W19518  12.216   0.484  33.674  0.3600 -0.0085  0.0958
15219W        W19519   5.293   6.462  32.321 -0.3203 -0.4107 -0.4439
15220W        W19520   3.179   3.876  32.306 -0.1462 -0.3344 -0.0341
15221W        W19521   6.326   4.186  25.434 -0.3105 -0.0644 -0.1001
15222W        W19522   0.035   0.575  29.239  0.0925  0.3583  0.0354
15223W        W19523  21.716   0.046   5.021 -0.0250  0.1483  0.0798
15224W        W19524  19.170   1.418  25.397 -0.3027 -0.0929  0.1969
15225W        W19525  12.385   5.609  10.646 -0.0417 -0.0685  0.0354
15226W        W19526   9.247   1.689  23.866  0.0803 -0.0986  0.0744
15227W        W19527   1.152   2.675  23.856 -0.2595 -0.1373 -0.2394
15228W        W19528  12.806   3.229   0.007 -0.0044  0.2602 -0.0141
15229W        W19529  22.305   5.557  21.952 -0.3317 -0.1687 -0.0953
15230W        W19530  13.739   1.941  35.396  0.2429 -0.1517 -0.1405
15231W        W19531   6.536   1.912   3.817 -0.0675  0.1850 -0.1728
15232W        W19532   7.672   4.764  23.997 -0.3513  0.0620 -0.0095
15233W        W19533   5.799   1.266  29.331 -0.3241  0.0516 -0.2451
15234W        W19534   7.802   2.158  30.638  0.0042  0.0783 -0.1316
15235W        W19535  14.797   0.660   3.321  0.0618  0.2018  0.0842
15236W        W19536  24.754   5.988   2.336  0.1672  0.0028 -0.1947
15237W        W19537   7.194   3.099  28.455  0.1587  0.0490 -0.4444
15238W        W19538  10.465   3.770  29.697  0.1775 -0.3035 -0.0454
15239W        W19539  19.849   3.964  34.185  0.1690  0.0328  0.0271
15240W        W19540   7.458   6.198  12.631  0.1142 -0.0423 -0.1741
15241W        W19541  13.604   6.505   5.758 -0.2085 -0.0316  0.0164
15242W        W19542  11.371   6.202  24.464  0.1000 -0.0948 -0.1648
15243W        W19543   3.530   0.308  14.557  0.1188 -0.0258 -0.0026
15244W        W19544   1.514   5.709  33.163  0.0616 -0.0405 -0.2342
15245W        W19545  25.685   4.725  13.762 -0.1038 -0.0273  0.1034
15246W        W19546  14.350   2.918   4.096 -0.0581 -0.2657 -0.1028
15247W        W19547   6.102   3.284   3.804  0.2331 -0.3839 -0.0947
15248W        W19548  23.978   3.340   3.768  0.0589  0.0992 -0.1790
15249W        W19549   4.694   5.500  12.882 -0.0449  0.0955  0.2863
15250W        W19550   0.926   5.339  30.525  0.1230  0.0130  0.0786
15251W        W19551  14.814   2.743  30.542  0.1257 -0.0771  0.3329
15252W        W19552  13.250   5.411  25.587  0.3228 -0.0572 -0.1570
15253W        W19553  19.246   5.023   3.164 -0.0738  0.1907 -0.0431
15254W        W19554   2.164   0.927   3.931 -0.3041 -0.0210  0.3789
15255W        W19555   6.190   3.751  34.240 -0.1804  0.0644  0.1888
15256W        W19556  11.764   0.505  34.292  0.2118 -0.1488 -0.1189
15257W        W19557  14.156   4.687  21.802 -0.1131  0.1387 -0.1770
15258W        W19558   8.873   2.374   8.624 -0.0772  0.2931  0.3697
15259W        W19559  24.475   3.112   1.734 -0.0626  0.0316 -0.0255
15260W        W19560   6.647   6.246   6.824 -0.1858 -0.0433  0.2535
15261W        W19561  18.805   6.352   9.599 -0.2035  0.0685  0.0376
15262W        W19562  23.150   3.642   1.651  0.1749  0.2355  0.1068
15263W        W19563  16.511   6.297   7.586 -0.1820 -0.1720 -0.1179
15264W        W19564  13.637   5.453  29.742 -0.1356  0.1422  0.2384
15265W        W19565  12.426   3.375  15.296 -0.3204  0.1276  0.0209
15266W        W19566  15.578   4.942  22.344  0.4212  0.2339 -0.0210
15267W        W19567   6.719   0.216   5.207  0.3201  0.3356  0.0749
15268W        W19568  13.713   2.488  22.917 -0.4857 -0.1358 -0.2652
15269W        W19569   6.370   0.815  21.749 -0.3653  0.0554 -0.2256
15270W        W19570  10.322   1.802  27.630  0.1392  0.1617  0.0472
15271W        W19571  16.240   0.005  29.470 -0.2489  0.0916 -0.0359
15272W        W19572   6.241   0.279  23.801 -0.0430  0.4341 -0.0758
15273W        W19573  20.763   0.217   0.485 -0.1684 -0.1017  0.0548
15274W        W19574   5.002   1.296  10.034  0.2828 -0.0337 -0.0985
15275W        W19575  24.007   3.373   1.756  0.1398 -0.2104 -0.3214
15276W        W19576  16.773   2.803  27.253 -0.1672 -0.1579  0.1184
15277W        W19577  19.978   5.063  35.158  0.1190 -0.0890 -0.0486
15278W        W19578  25.375   4.806  35.345  0.1130 -0.0257  0.0946
15279W        W19579   1.764   6.379  12.789 -0.0372 -0.0356  0.2765
15280W        W19580   6.670   0.510  11.371  0.0183 -0.0837  0.3194
15281W        W19581  24.781   2.929  13.172 -0.1341 -0.0036  0.1262
15282W        W19582  11.578   2.842  29.456 -0.1374 -0.0376  0.1197
15283W        W19583   2.521   2.113   2.296  0.0607 -0.1188 -0.3353
15284W        W19584   4.680   1.546  32.916 -0.0438 -0.0653 -0.1016
15285W        W19585  17.375   2.135  20.886  0.2039 -0.0993 -0.1017
15286W        W19586  25.045   1.888  26.269  0.1830  0.2059  0.0026
15287W        W19587  15.162   2.561  25.026 -0.2089 -0.2082  0.0457
15288W        W19588  12.938   2.407  32.808  0.1193 -0.0906  0.2097
15289W        W19589  22.650   5.971  11.495 -0.1259  0.0039 -0.2151
15290W        W19590   7.500   5.880   6.074 -0.1203  0.1536  0.1988
15291W        W19591  16.767   2.176  14.485 -0.0993 -0.0254 -0.2338
15292W        W19592   5.714   3.014   1.074 -0.0736 -0.2466  0.1275
15293W        W19593   0.958   3.529   3.530  0.0508 -0.3274  0.0840
15294W        W19594  24.020   3.825  15.828  0.0158  0.0366  0.1082
15295W        W19595   5.798   2.496   3.727  0.1541 -0.1243  0.0378
15296W        W19596   4.156   5.109   7.952 -0.2788 -0.0620 -0.1156
15297W        W19597   8.038   1.674  10.520  0.0462 -0.6393  0.1206
15298W        W19598   6.695   1.288  21.791 -0.0278 -0.4505  0.1908
15299W        W19599   1.866   2.116  10.469 -0.3441  0.0149 -0.2339
15300W        W19600  19.372   1.350  11.872 -0.2702  0.1905 -0.0838
15301W        W19601  21.698   1.765   2.742  0.0675 -0.2149 -0.2270
15302W        W19602   8.445   2.424  13.341 -0.1308  0.0094 -0.1676
15303W        W19603  13.997   0.224   2.918 -0.2887 -0.1724 -0.0572
15304W        W19604  23.053   1.215  21.268  0.0394 -0.2279 -0.2230
15305W        W19605  20.193   1.003   2.500 -0.1985  0.3875  0.0870
15306W        W19606  22.976   0.446  21.197  0.0874 -0.4482  0.3320
15307W        W19607  12.945   5.438  33.345  0.0646 -0.1712  0.2023
15308W        W19608  16.455   0.395  10.692  0.2106 -0.0076  0.1159
15309W        W19609   4.884   5.341  10.724  0.0054 -0.1342 -0.0357
15310W        W19610   4.466   2.033   2.607 -0.2223  0.0332  0.1330
15311W        W19611   8.583   2.199  14.590 -0.1204 -0.1666  0.0622
15312W        W19612  13.356   1.728  12.819  0.1375  0.1356 -0.1803
15313W        W19613   9.692   1.042  22.483 -0.0319 -0.1856 -0.2420
15314W        W19614   6.808   1.219   9.343  0.1218 -0.0862 -0.0523
15315W        W19615   1.222   5.979  23.069  0.0764 -0.1172  0.3283
15316W        W19616  22.990   3.030  13.389  0.0020  0.2776 -0.0339
15317W        W19617   9.436   2.615  34.283  0.2038 -0.0405 -0.0192
15318W        W19618  22.410   4.119  32.714  0.0078 -0.0547  0.2097
15319W        W19619   2.666   1.410  26.332 -0.0028 -0.0130  0.4122
15320W        W19620  11.810   1.933  11.037 -0.0469  0.1279 -0.3025
15321W        W19621  25.800   2.737  12.385 -0.1005  0.0982  0.2147
15322W        W19622  16.202   1.933   1.677 -0.1045  0.0453 -0.2262
15323W        W19623   1.639   1.610  23.262  0.0632 -0.0285 -0.0547
15324W        W19624  16.300   3.281   9.126  0.0863 -0.0586  0.1895
15325W        W19625   8.160   4.661  34.847  0.1862 -0.2619  0.3255
15326W        W19626  16.588   0.358   3.776 -0.1585 -0.0231 -0.1624
15327W        W19627  12.953   6.127  36.078  0.0778  0.2316 -0.0320
15328W        W19628  21.375   0.175  30.259 -0.2758  0.0656 -0.1426
15329W        W19629  22.926   6.137  31.825  0.2617  0.3701 -0.0348
15330W        W19630  20.586   1.576  34.170  0.0218 -0.2653  0.2984
15331W        W19631   7.096   0.435   5.761 -0.1279  0.0371  0.1042
15332W        W19632   2.882   2.483   1.465 -0.3396  0.1982 -0.0427
15333W        W19633   6.473   2.015  25.604  0.0588 -0.1524  0.0285
15334W        W19634   4.166   1.580  27.220  0.2636 -0.0148  0.0650
15335W        W19635  18.596   1.635  13.397 -0.0463  0.1091  0.0425
15336W        W19636  15.794   3.102  24.879 -0.3330  0.1662 -0.1791
15337W        W19637   2.053   1.011   4.771 -0.0421  0.1734 -0.1787
15338W        W19638  24.836   6.215  33.460 -0.2624 -0.3177 -0.1604
15339W        W19639  26.349   1.824   5.126 -0.1991 -0.0732  0.2774
15340W        W19640  22.247   0.905  24.880 -0.1437 -0.1100  0.0674
15341W        W19641   8.236   2.730  28.479 -0.2384 -0.0172  0.2496
15342W        W19642  13.710   3.041  22.166  0.0274  0.1522  0.1313
15343W        W19643   5.057   4.370  15.383 -0.5314 -0.1813  0.0108
15344W        W19644  12.692   2.229   3.607  0.0335 -0.1395  0.3241
15345W        W19645   6.862   5.523   0.760 -0.1250  0.0234 -0.0592
15346W        W19646  11.750   3.526   1.861 -0.0501 -0.1231 -0.0534
15347W        W19647  15.802   2.899  26.566 -0.1317  0.0509 -0.0190
15348W        W19648   9.419   5.877  21.417 -0.0688 -0.2025  0.2977
15349W        W19649  10.960   0.324  26.775 -0.1720 -0.2413  0.0590
15350W        W19650   5.622   2.546   0.300 -0.0486  0.1466 -0.2623
15351W        W19651  13.823   0.077  35.067  0.2263 -0.0911  0.3423
15352W        W19652   6.119   3.296  25.799  0.0122 -0.1786 -0.0347
15353W        W19653  17.284   1.537   8.681 -0.2935  0.1431 -0.1435
15354W        W19654   9.453   1.831  14.480 -0.2810 -0.2572 -0.0231
15355W        W19655  14.424   4.160   0.063 -0.1995 -0.0891  0.1920
15356W        W19656  14.092   6.158  25.086 -0.0580  0.1240 -0.2231
15357W        W19657  26.058   4.463  31.249 -0.1810 -0.1693 -0.1855
15358W        W19658  19.338   3.321   0.074 -0.0117  0.0770  0.0234
15359W        W19659   1.364   3.642   1.874 -0.0047 -0.2637  0.1406
15360W        W19660   4.580   3.786  13.086 -0.0489  0.0450  0.2396
15361W        W19661  15.918   2.974  27.156  0.1276  0.2184  0.0476
15362W        W19662   7.622   0.378   2.779  0.3365 -0.2213  0.1533
15363W        W19663  19.483   5.466   2.374  0.2468 -0.2387 -0.3053
15364W        W19664  10.734   5.072   9.641  0.1041  0.0009  0.0854
15365W        W19665   8.664   5.415   6.971  0.0931  0.0920 -0.0627
15366W        W19666  20.328   4.913  22.823 -0.0517  0.1976 -0.1347
15367W        W19667   9.367   4.285  16.008  0.3856  0.4134 -0.0314
15368W        W19668   5.607   4.111  28.888  0.0358  0.1737 -0.3286
15369W        W19669  25.100   1.827  21.110  0.1374  0.1680 -0.0316
15370W        W19670   7.481   3.899  14.035  0.0286 -0.1943 -0.4183
15371W        W19671  23.192   6.049  28.020 -0.0308  0.0990  0.0625
15372W        W19672  10.600   5.616  29.590  0.1430  0.0510  0.2479
15373W        W19673  24.502   2.606  15.161  0.0856 -0.0092 -0.0748
15374W        W19674  13.092   5.572  22.320 -0.1068 -0.0337  0.1544
15375W        W19675  19.376   0.196  22.942 -0.0710  0.1723  0.0147
15376W        W19676  19.831   6.126   8.896  0.2181 -0.0801  0.0042
15377W        W19677   1.930   1.850   4.808 -0.0042  0.1520  0.2985
15378W        W19678   0.558   0.804   6.592  0.1776  0.4059 -0.1931
15379W        W19679  18.721   0.773   2.346  0.0336  0.0140 -0.1426
15380W        W19680   4.519   3.122  12.450  0.0647  0.1562  0.1545
15381W        W19681  19.379   6.038  21.860  0.0899  0.1205  0.0398
15382W        W19682   6.549   1.485   5.339 -0.1208  0.0056 -0.0767
15383W        W19683   5.493   0.565  33.071 -0.0062  0.1806  0.2262
15384W        W19684  11.812   3.323   9.765  0.1645  0.0074  0.0506
15385W        W19685  15.620   0.365  34.807  0.1456  0.1447 -0.0077
15386W        W19686  16.519   0.180  29.147 -0.1456 -0.3658  0.0310
15387W        W19687   0.505   2.355  11.773  0.0444 -0.1651  0.2116
15388W        W19688  14.435   3.705  25.069  0.0857 -0.0210  0.2275
15389W        W19689  23.897   1.026  15.006  0.0620 -0.0359  0.0552
15390W        W19690   2.181   6.269  30.278  0.2166  0.3310  0.2208
15391W        W19691  22.576   4.178  26.370  0.1583 -0.0017  0.1473
15392W        W19692  19.022   4.546   9.531 -0.0391  0.1559 -0.2407
15393W        W19693   0.312   4.234  24.353 -0.0899  0.2558 -0.1632
15394W        W19694  18.102   3.375   1.003  0.3482  0.2654  0.1888
15395W        W19695  12.936   2.827   1.383 -0.3388  0.2824  0.2670
15396W        W19696   9.457   0.002  26.971 -0.1368  0.1101 -0.4240
15397W        W19697   8.440   6.155   1.840  0.0323 -0.1494 -0.2015
15398W        W19698  16.164   0.596   8.834 -0.1541 -0.2367  0.0575
15399W        W19699  10.488   3.259   1.776 -0.1370  0.0356  0.0627
15400W        W19700  24.581   4.111  34.946 -0.2505  0.0149 -0.1039
15401W        W19701   6.686   5.081   8.200  0.0683  0.1481  0.1334
15402W        W19702  22.960   4.365  27.643  0.3723  0.0244  0.0119
15403W        W19703   8.366   6.269  26.106  0.1310 -0.0655 -0.1361
15404W        W19704   5.730   0.141  21.238  0.2072  0.3771  0.1243
15405W        W19705  15.740   6.172  30.182  0.0917  0.0846 -0.1240
15406W        W19706   0.103   3.984   1.106 -0.0302  0.1390 -0.2281
15407W        W19707  24.196   6.488  10.321 -0.0032 -0.0043 -0.0467
15408W        W19708  24.783   1.451  20.777 -0.0995 -0.0248  0.1573
15409W        W19709   6.690   6.202  13.478  0.1419 -0.0320  0.0547
15410W        W19710   3.652   4.414   1.049  0.0375  0.2634  0.1163
15411W        W19711   1.577   0.293  22.477  0.1469 -0.1121  0.1774
15412W        W19712   7.495   6.498  10.673  0.2699  0.3521  0.1000
15413W        W19713   1.816   3.864  22.438  0.0408 -0.3104 -0.0620
15414W        W19714  13.951   3.835  21.391 -0.3032  0.2760 -0.0950
15415W        W19715  22.817   2.993  21.756 -0.1880 -0.0998  0.3773
15416W        W19716   8.213   3.206  13.684 -0.2315 -0.1188 -0.0882
15417W        W19717   5.344   0.034   1.420  0.0235 -0.2044 -0.1093
15418W        W19718  22.218   5.490  35.444  0.2052  0.4158 -0.0547
15419W        W19719  11.525   0.773   6.758  0.0808 -0.0153 -0.2240
15420W        W19720  15.673   0.782  33.916 -0.1192  0.0433 -0.1621
15421W        W19721  25.819   5.428  26.575  0.2177 -0.5372 -0.0634
15422W        W19722   1.905   2.046   6.205 -0.1881 -0.3303 -0.1773
15423W        W19723   1.626   0.203   9.581  0.4440  0.0677 -0.1714
15424W        W19724   5.490   3.333  20.388  0.0142  0.2689  0.0056
15425W        W19725   0.246   6.445  30.588 -0.3310 -0.2799  0.2088
15426W        W19726  19.010   6.160  12.278  0.1419  0.1704  0.1220
15427W        W19727   4.487   3.520  28.126 -0.0982 -0.1134 -0.0497
15428W        W19728  22.674   1.520  35.187  0.0529 -0.1429 -0.1206
15429W        W19729   1.581   0.923   4.707  0.2305 -0.3393 -0.0702
15430W        W19730  23.268   1.320  25.736  0.0413  0.1376  0.0514
15431W        W19731  13.278   4.643  25.105 -0.1951 -0.1111 -0.1707
15432W        W19732  12.132   5.836   1.734  0.0428 -0.0301  0.3059
15433W        W19733  22.822   4.277  10.086 -0.0757 -0.0468 -0.0252
15434W        W19734  21.131   4.080  33.023  0.1635  0.1948  0.1360
15435W        W19735  17.768   5.338  30.502 -0.1012 -0.1681  0.0313
15436W        W19736   5.953   4.101   5.966  0.1447 -0.0184  0.1484
15437W        W19737  25.985   0.623  23.545 -0.0757 -0.0942  0.5255
15438W        W19738  14.653   0.480  21.970  0.1062 -0.1589  0.2396
15439W        W19739  10.365   2.959  25.875  0.2854 -0.3332  0.0725
15440W        W19740  19.553   5.927  22.323  0.1693 -0.0608  0.1347
15441W        W19741  13.706   3.705  27.624 -0.2452  0.0880  0.0265
15442W        W19742  25.080   2.312   0.769  0.0081 -0.1420 -0.2221
15443W        W19743   2.317   3.750  12.166 -0.2170  0.0527  0.1438
15444W        W19744  18.921   1.832   6.126  0.2286 -0.1144  0.0703
15445W        W19745  12.620   1.534  31.649  0.2915 -0.2689  0.0020
15446W        W19746  25.504   1.250  22.312 -0.3326  0.3589  0.0921
15447W        W19747   0.228   5.072  10.597  0.1072 -0.0076 -0.0884
15448W        W19748  21.255   2.496  27.127  0.0341 -0.2700 -0.1921
15449W        W19749  13.485   0.077  26.853 -0.0265  0.0838 -0.0069
15450W        W19750  11.284   3.128  29.053  0.4092  0.1535  0.0264
15451W        W19751  23.822   3.941  10.810  0.0590 -0.1111 -0.4016
15452W        W19752   0.434   5.614  23.914 -0.0064  0.1144  0.2383
15453W        W19753  16.271   1.973  15.840 -0.1988 -0.2459  0.1060
15454W        W19754   5.218   6.131  27.182 -0.2701  0.1576  0.0970
15455W        W19755  24.661   1.928   8.269  0.0536 -0.2450 -0.0632
15456W        W19756   5.447   0.070  20.446 -0.1746 -0.0496 -0.0660
15457W        W19757   5.806   1.556   7.872 -0.0544 -0.1572 -0.2469
15458W        W19758  17.433   2.228  35.423  0.1806 -0.0751 -0.0043
15459W        W19759   6.220   3.376  15.436  0.2406  0.2839  0.0446
15460W        W19760   0.506   5.231  14.707 -0.1294 -0.0310  0.1104
15461W        W19761  12.868   6.141   8.055  0.2384  0.1672  0.0181
15462W        W19762  13.794   1.828   8.260 -0.1067  0.0451 -0.1359
15463W        W19763  18.017   2.483  12.102 -0.0788 -0.1219 -0.1377
15464W        W19764  10.293   1.651   2.982 -0.0703  0.2475  0.2862
15465W        W19765  14.941   5.789  13.439 -0.0937 -0.2392 -0.0122
15466W        W19766   5.114   4.317  34.225  0.0765  0.1430  0.1077
15467W        W19767   3.809   6.521   7.204 -0.0990  0.2263 -0.1567
15468W        W19768  12.134   3.107   7.011 -0.0249 -0.0246  0.1008
15469W        W19769   1.796   4.218  12.748  0.1139  0.0448 -0.2806
15470W        W19770  21.723   6.468  33.695  0.0589 -0.1244 -0.0835
15471W        W19771  14.415   6.406   3.512 -0.0223 -0.3216  0.3313
15472W        W19772   5.847   5.941   1.385  0.3066  0.1173 -0.0634
15473W        W19773  20.808   4.542  26.226 -0.2700  0.0887  0.1391
15474W        W19774  22.841   5.489  25.027 -0.3632 -0.0151  0.1280
15475W        W19775  16.766   4.999   8.199 -0.0420 -0.0764 -0.1018
15476W        W19776  21.628   4.384  28.501 -0.3355 -0.0349 -0.0204
15477W        W19777  20.158   2.232   1.008  0.1720  0.1452 -0.0954
15478W        W19778  23.600   6.401  24.293 -0.2405 -0.3061 -0.1672
15479W        W19779   4.399   5.477  28.958  0.0982 -0.0880 -0.1543
15480W        W19780  14.695   4.340  11.170  0.0490  0.1637 -0.0007
15481W        W19781   8.409   1.422  13.461  0.0379  0.1188 -0.1194
15482W        W19782   0.875   4.102  24.774  0.3113  0.0092 -0.0600
15483W        W19783   9.542   6.179  24.928  0.0038 -0.2374  0.1695
15484W        W19784   2.332   5.594  14.158 -0.0139  0.0134  0.1846
15485W        W19785   3.594   2.812   3.685 -0.0255 -0.1857  0.3734
15486W        W19786  18.476   0.859  28.748 -0.1628 -0.1130  0.1889
15487W        W19787  18.897   3.540   6.329  0.1407 -0.0869  0.0927
15488W        W19788  11.390   2.716  13.022  0.0984  0.2323 -0.0198
15489W        W19789  14.712   6.024  27.041 -0.1525 -0.2326  0.0315
15490W        W19790   3.006   4.498   6.914  0.2504  0.0153 -0.4488
15491W        W19791   8.337   1.318  35.898  0.0035  0.3709 -0.0006
15492W        W19792   9.348   3.623  29.716  0.0956  0.1410  0.2140
15493W        W19793  12.304   4.151  28.215  0.6745  0.3380 -0.2359
15494W        W19794   3.933   5.450  29.768  0.2681  0.1097  0.0195
15495W        W19795  22.204   6.392  10.327 -0.5887  0.3096 -0.2540
15496W        W19796  24.881   2.136  10.871 -0.0020 -0.1343 -0.1421
15497W        W19797   5.203   5.121  32.836  0.0939  0.0395 -0.1012
15498W        W19798   6.873   5.192  27.263  0.1349  0.0021 -0.2213
15499W        W19799  11.219   3.306  28.140 -0.1434  0.0094 -0.2226
15500W        W19800   2.251   3.492   6.942 -0.1213  0.1064 -0.2368
15501W        W19801  19.881   4.050   5.320 -0.0858  0.1996 -0.0155
15502W        W19802  11.626   1.399  26.719 -0.2623  0.0292 -0.0190
15503W        W19803  11.945   1.379  14.186  0.2136  0.0265 -0.2878
15504W        W19804  24.354   1.297  30.894  0.2440  0.0002 -0.0651
15505W        W19805  21.525   0.557  30.596  0.1897  0.2264  0.0949
15506W        W19806  26.177   5.416   2.353 -0.1317  0.0951 -0.0824
15507W        W19807  23.863   3.721  31.195  0.0682 -0.0663 -0.0799
15508W        W19808  19.224   0.111  28.922  0.0592  0.0219 -0.1154
15509W        W19809  10.409   2.169  28.036  0.0737  0.2196  0.2178
15510W        W19810  11.870   1.675  25.075  0.0774  0.1488 -0.2769
15511W        W19811  26.338   0.969   0.258  0.3838 -0.0797  0.1430
15512W        W19812  12.437   0.106   6.087  0.0954 -0.1296 -0.0092
15513W        W19813  21.891   0.891   9.672  0.1965 -0.2537 -0.2148
15514W        W19814   4.118   0.520  28.052  0.1024 -0.0084  0.0666
15515W        W19815  20.712   2.236   6.254  0.1499 -0.2426  0.1720
15516W        W19816  19.192   6.276  13.607  0.0685  0.0798  0.2198
15517W        W19817  24.070   3.977  34.777 -0.2903 -0.0114 -0.0213
15518W        W19818  21.553   0.766   9.099  0.0794  0.0156 -0.1588
15519W        W19819  14.599   5.822  13.891 -0.0711  0.1135  0.2128
15520W        W19820  17.880   1.785   5.840  0.1888  0.1334 -0.1618
15521W        W19821  10.765   3.541  28.847 -0.2837 -0.0063  0.1218
15522W        W19822  10.828   4.901   3.571 -0.0176  0.0707  0.0377
15523W        W19823   2.281   6.200  33.603  0.1605 -0.1172 -0.0204
15524W        W19824  12.418   5.684  15.917  0.0880 -0.1066  0.0188
15525W        W19825  25.096   5.508  31.882  0.4686 -0.1251 -0.0297
15526W        W19826  13.351   2.050  34.623 -0.0595  0.1590 -0.2971
15527W        W19827   2.740   5.001   9.647 -0.3123 -0.1866 -0.1116
15528W        W19828   7.700   5.164  27.549  0.2927 -0.4066  0.0648
15529W        W19829  18.615   5.873  15.261  0.1648 -0.2139  0.2268
15530W        W19830  26.109   0.135   1.718 -0.6008  0.0634  0.1147
15531W        W19831   6.697   4.717   3.195 -0.1326  0.0398  0.0926
15532W        W19832   5.907   5.016   1.040  0.3088  0.0098  0.0950
15533W        W19833  20.932   4.813   7.409  0.0541 -0.2253  0.1457
15534W        W19834  11.622   1.531   9.235 -0.1684 -0.0723 -0.2079
15535W        W19835   6.315   2.222  10.018 -0.0775 -0.1161 -0.1525
15536W        W19836  13.509   2.834  33.322  0.0238  0.1429 -0.0086
15537W        W19837  16.039   4.677  15.423 -0.0028  0.2404 -0.0534
15538W        W19838  22.357   0.019  30.385 -0.1058  0.1608  0.3826
15539W        W19839  20.828   6.225  33.886 -0.1910 -0.0026  0.1475
15540W        W19840  20.843   0.899   5.056 -0.0818 -0.1243 -0.3466
15541W        W19841  17.639   2.288  21.688 -0.1670 -0.0529 -0.2162
15542W        W19842   1.487   3.769  32.453  0.1445 -0.2601  0.0938
15543W        W19843   5.822   1.609  12.513 -0.2192 -0.0224  0.1330
15544W        W19844   2.660   4.136   6.633  0.0521  0.0056  0.0832
15545W        W19845  11.935   1.419  33.457  0.1257  0.4141 -0.0795
15546W        W19846   2.408   0.895  31.141 -0.1313 -0.0023 -0.1119
15547W        W19847  17.069   6.452  25.330  0.0688  0.0988  0.1879
15548W        W19848   5.592   5.306  34.758 -0.0007  0.2494  0.1371
15549W        W19849  21.294   3.001  27.818  0.1282 -0.6207  0.0678
15550W        W19850  25.654   5.189  13.954 -0.2030  0.1753  0.0437
15551W        W19851  21.771   6.323  28.295 -0.1228  0.2582 -0.0983
15552W        W19852   1.056   3.199  31.887  0.2147 -0.0824 -0.1554
15553W        W19853  25.173   3.988  31.701 -0.1064  0.0494  0.1750
15554W        W19854  10.608   1.392  30.284  0.1600 -0.0436  0.2739
15555W        W19855   9.738   6.077  34.990 -0.1490  0.0051  0.0733
15556W        W19856   9.305   2.338   7.948 -0.0103  0.0953 -0.2320
15557W        W19857  23.831   6.092   2.432  0.2515 -0.1418  0.2682
15558W        W19858  20.974   6.580  29.993  0.1693 -0.2517 -0.0566
15559W        W19859   1.011   2.677  21.241  0.0952 -0.2195  0.1156
15560W        W19860   2.093   1.820  33.027 -0.2776  0.0733 -0.0202
15561W        W19861   4.432   5.368  31.234 -0.3066 -0.2039 -0.2602
15562W        W19862   7.356   4.108  25.854  0.2734  0.0577  0.2871
15563W        W19863  17.044   3.532   0.233  0.0706 -0.0048 -0.0614
15564W        W19864  19.022   3.361   4.988  0.1606 -0.1581 -0.5145
15565W        W19865  24.057   4.041  33.017  0.2115 -0.1273  0.0411
15566W        W19866  17.082   3.932  12.353  0.0555 -0.4127 -0.1819
15567W        W19867  20.914   0.395   5.649  0.0243 -0.3943  0.1657
15568W        W19868   8.338   5.885  25.770  0.0753  0.1667  0.0720
15569W        W19869  23.691   2.776  26.470 -0.0908 -0.1052  0.1279
15570W        W19870  12.764   6.441  21.817 -0.3989  0.0769  0.1864
15571W        W19871   8.597   4.819  29.220 -0.0266 -0.0719  0.0635
15572W        W19872   0.842   1.171  30.827  0.1200  0.1895  0.2002
15573W        W19873  25.136   4.552  12.648 -0.2401 -0.0456  0.0202
15574W        W19874   3.450   1.457   0.874  0.0783  0.2351  0.1441
15575W        W19875   0.906   6.192  22.717  0.0719 -0.1099 -0.0464
15576W        W19876   4.852   1.099   3.486 -0.3127  0.3388  0.1315
15577W        W19877   9.327   2.758  21.311 -0.1004  0.2771 -0.1151
15578W        W19878   0.368   3.401  27.063 -0.0580 -0.0266  0.1761
15579W        W19879   4.588   3.071  26.374 -0.1163  0.0207 -0.1097
15580W        W19880  10.407   5.433   1.439 -0.0339  0.2092 -0.1440
15581W        W19881   4.165   0.310  10.714  0.3177  0.2564  0.0512
15582W        W19882  19.551   0.857  21.396 -0.1283  0.0806  0.1345
15583W        W19883  15.398   0.845  30.898  0.2392  0.2001 -0.1616
15584W        W19884   5.401   3.080   5.141 -0.1095  0.0789 -0.0060
15585W        W19885   8.156   3.858  28.281 -0.4486 -0.2311  0.0194
15586W        W19886   7.234   3.318  26.509 -0.1102 -0.2630 -0.1194
15587W        W19887  10.017   6.560  10.139  0.0246 -0.2459  0.0524
15588W        W19888  20.385   0.470   0.331 -0.0859  0.1466 -0.0941
15589W        W19889  22.317   5.039  24.806  0.1162  0.4797 -0.0650
15590W        W19890  24.138   5.515  30.390 -0.1178  0.0728  0.1185
15591W        W19891  10.640   3.977   8.718  0.0775  0.1055 -0.0308
15592W        W19892  25.619   4.687   4.727  0.0555 -0.3320 -0.1194
15593W        W19893  26.343   6.291  26.385 -0.0756  0.0787 -0.0499
15594W        W19894   1.158   3.133  12.165  0.2060  0.0125  0.0807
15595W        W19895   2.631   5.721  13.763  0.0834  0.2589 -0.0212
15596W        W19896   1.469   2.420  22.690  0.0706  0.2897 -0.0264
15597W        W19897   1.751   2.238  32.607  0.0242  0.0988  0.0969
15598W        W19898  16.412   4.798   6.211  0.1106  0.0001 -0.2302
15599W        W19899   0.832   3.158  31.405  0.2249 -0.1055  0.0738
15600W        W19900   5.235   4.450  13.381  0.0841  0.0525  0.0510
15601W        W19901  22.036   0.737  32.836 -0.1231 -0.0389  0.1930
15602W        W19902   7.135   6.205  12.231  0.3852  0.0072 -0.0946
15603W        W19903  20.546   1.247  21.420  0.1012 -0.0276  0.0953
15604W        W19904   7.106   5.216  15.452 -0.1310  0.0423 -0.0090
15605W        W19905  19.215   3.771  13.657 -0.0732 -0.0267  0.2340
15606W        W19906   0.772   2.011   2.740 -0.0196 -0.3222  0.1286
15607W        W19907  15.843   4.753  26.115  0.0322 -0.2482  0.0458
15608W        W19908   1.081   3.396  30.590 -0.0111 -0.3798 -0.0065
15609W        W19909  19.023   5.384  22.905  0.0422 -0.0556 -0.0271
15610W        W19910  12.062   5.569  24.933  0.1440  0.0129 -0.1434
15611W        W19911  24.066   1.368  32.574 -0.0420  0.3049 -0.1298
15612W        W19912  17.072   1.054  25.900  0.1124  0.0460 -0.0238
15613W        W19913  21.506   2.674   9.693  0.2592  0.2902 -0.0234
15614W        W19914  15.847   5.162  26.430 -0.0380  0.3988 -0.0129
15615W        W19915   5.452   5.446  24.864 -0.1064 -0.0883  0.0095
15616W        W19916  23.901   0.444  26.861 -0.0540  0.0952  0.0745
15617W        W19917  20.797   4.926  35.201 -0.0603 -0.1636 -0.1556
15618W        W19918  10.349   2.915   6.363 -0.3174 -0.0342  0.0157
15619W        W19919  10.217   4.106  13.991 -0.2094 -0.0545 -0.0448
15620W        W19920   7.355   0.302   1.396  0.1636 -0.1224 -0.0891
15621W        W19921   6.141   2.464   3.010  0.0755 -0.2353  0.0270
15622W        W19922  12.142   4.641  14.507  0.1356  0.2845  0.2777
15623W        W19923   0.145   1.769  26.908 -0.0370 -0.1725  0.0338
15624W        W19924  14.957   0.859  35.303 -0.2119  0.0920  0.2803
15625W        W19925  15.251   1.255  12.560 -0.3383 -0.0973  0.1048
15626W        W19926   1.488   4.314  30.543 -0.0293 -0.3136 -0.0203
15627W        W19927  15.781   4.043  25.434  0.1303  0.1173 -0.1161
15628W        W19928  24.076   0.303  21.213  0.1648 -0.0839  0.2277
15629W        W19929   6.954   0.127  31.163 -0.0136 -0.2046 -0.2472
15630W        W19930  16.889   5.167  14.550 -0.1545 -0.0734 -0.0580
15631W        W19931  19.755   6.433  29.435  0.0005  0.1531  0.0767
15632W        W19932   2.116   6.187  19.982  0.0120 -0.0570 -0.0902
15633W        W19933   8.904   4.983   5.617 -0.0985  0.1271  0.1436
15634W        W19934   8.637   0.773  25.188 -0.1767  0.0336  0.0026
15635W        W19935  22.565   6.493   1.635 -0.2413 -0.2325  0.1099
15636W        W19936  20.386   0.331  30.329 -0.0464 -0.2585  0.3266
15637W        W19937   3.905   2.386  33.666 -0.1504 -0.0206 -0.2162
15638W        W19938  23.858   4.509  35.564 -0.0447 -0.2067  0.1718
15639W        W19939   9.355   4.691  29.553 -0.2346  0.1737  0.0094
15640W        W19940   9.210   4.265   3.282 -0.0734  0.0336  0.1145
15641W        W19941  20.699   2.070  27.856  0.1125 -0.1767 -0.0300
15642W        W19942  17.207   4.304  27.596 -0.2142 -0.0809  0.0442
15643W        W19943   7.137   0.662  22.408  0.2424 -0.0861 -0.1100
15644W        W19944   2.936   4.741  35.385 -0.1121  0.3250 -0.0987
15645W        W19945  16.328   2.470  15.770  0.4732  0.1473 -0.1056
15646W        W19946   9.293   1.885  29.712  0.0917  0.0750  0.0956
15647W        W19947   2.565   5.899  14.535  0.0013  0.0443  0.2940
15648W        W19948  14.057   1.209  12.992 -0.1861  0.1059  0.0383
15649W        W19949   1.277   2.829   8.198 -0.0966  0.1187  0.2023
15650W        W19950  16.092   1.936   7.924  0.0186 -0.0429  0.6309
15651W        W19951  15.468   2.130   1.643  0.2108 -0.0609 -0.1186
15652W        W19952   5.892   6.229  21.110 -0.0896  0.1217 -0.0687
15653W        W19953  18.263   0.794   2.497  0.3951 -0.0279 -0.0670
15654W        W19954   3.859   4.150   8.027 -0.3152 -0.1287 -0.2877
15655W        W19955  23.588   0.916   9.688  0.1842  0.0160 -0.1397
15656W        W19956  15.152   1.142  23.952  0.1082 -0.2545 -0.0538
15657W        W19957  15.087   0.965  10.782 -0.1096 -0.0945 -0.3032
15658W        W19958  23.814   2.182  27.403  0.1972  0.3352  0.1481
15659W        W19959   9.735   3.024   9.452 -0.0005  0.0726  0.1604
15660W        W19960  14.789   1.400  29.739  0.2014  0.1090  0.3020
15661W        W19961  13.616   5.346  11.921 -0.2481  0.1035 -0.4220
15662W        W19962  13.040   2.830  34.918  0.0516  0.1862 -0.2013
15663W        W19963  24.937   3.242  30.081  0.0314 -0.1133  0.2640
15664W        W19964  10.171   1.002  30.418  0.0645  0.0271  0.0876
15665W        W19965  18.662   5.728  10.918 -0.0336  0.2445  0.0788
15666W        W19966  18.648   4.205  21.982  0.0001 -0.2005 -0.1094
15667W        W19967   0.400   1.379   5.478  0.2729 -0.1687 -0.0488
15668W        W19968  13.291   4.197  34.804 -0.0059 -0.1131  0.1108
15669W        W19969  13.305   6.410  30.262 -0.1329  0.3197  0.0812
15670W        W19970  20.346   6.027   6.224  0.1815 -0.1574 -0.0550
15671W        W19971  23.786   4.090  29.791 -0.4730 -0.2672 -0.2483
15672W        W19972   8.723   4.953  33.885  0.0101 -0.1281 -0.1007
15673W        W19973   3.670   5.994  28.967  0.0604 -0.0975 -0.3234
15674W        W19974   4.595   0.428   5.766 -0.0607  0.1307  0.2869
15675W        W19975  20.974   4.011   3.012 -0.0104  0.0316 -0.0984
15676W        W19976  17.654   6.228  32.736  0.1555  0.0423 -0.2237
15677W        W19977  24.555   2.813   3.001 -0.0639  0.2756  0.0539
15678W        W19978  15.010   1.285  25.194  0.0550  0.0098  0.0181
15679W        W19979  25.999   6.052  33.217 -0.2012 -0.1142 -0.2466
15680W        W19980  16.276   0.316   0.863 -0.0156 -0.0943  0.2799
15681W        W19981  18.291   5.896   2.605 -0.0488  0.0769 -0.0248
15682W        W19982   7.854   3.192  26.769 -0.0578  0.1670 -0.1058
15683W        W19983   3.503   1.897  12.906 -0.2337  0.0295  0.0448
15684W        W19984   4.007   4.628   2.760 -0.2576  0.0377 -0.2295
15685W        W19985   2.462   4.102  21.666  0.0975 -0.1328  0.0854
15686W        W19986  14.704   0.214   9.737 -0.1166  0.0633 -0.0514
15687W        W19987  19.596   1.458   5.294  0.1958 -0.0579 -0.1001
15688W        W19988  13.018   4.428   2.444 -0.1410  0.3997  0.1819
15689W        W19989  22.485   5.717  26.233  0.0989 -0.2292 -0.3374
15690W        W19990  19.965   3.629  21.589 -0.0358 -0.0842  0.0674
15691W        W19991  18.252   1.472   3.194 -0.1323 -0.1050 -0.0526
15692W        W19992   8.444   4.010   7.183 -0.1290 -0.0566 -0.4385
15693W        W19993  25.968   4.762  24.882 -0.1588 -0.1395 -0.4165
15694W        W19994  12.933   1.205  35.399  0.0490  0.0736  0.0947
15695W        W19995   9.836   1.219   4.691 -0.4325 -0.1926 -0.1139
15696W        W19996   9.605   4.096  33.118 -0.2015 -0.2363 -0.3863
15697W        W19997  24.558   2.036  27.937  0.1781 -0.0023 -0.2777
15698W        W19998   8.146   5.138  29.217 -0.0901  0.2287 -0.1163
15699W        W19999  16.514   0.911   9.726  0.0128 -0.1555  0.1142
15700W        W20000  21.861   6.315  26.901 -0.4352 -0.1002  0.1038
15701W        W20001   5.644   5.856  27.214 -0.0214  0.2169 -0.3394
15702W        W20002   2.103   0.322  29.087 -0.2253 -0.0858  0.2964
15703W        W20003   8.353   4.027  10.795  0.1406 -0.0255  0.0821
15704W        W20004   6.737   6.045  11.232  0.0110 -0.0418  0.0160
15705W        W20005  11.515   0.738   3.690 -0.0380 -0.0279  0.2072
15706W        W20006  18.908   4.608   7.871  0.2531  0.0143  0.2849
15707W        W20007  12.306   0.155  11.408  0.1724 -0.0413  0.2255
15708W        W20008  23.462   0.855   7.036 -0.1926 -0.0845 -0.0227
15709W        W20009   3.320   0.937  28.918  0.0202  0.1625 -0.2599
15710W        W20010  12.872   0.914  34.989 -0.0067 -0.2226  0.1753
15711W        W20011  21.065   0.484   9.061 -0.3613 -0.2083 -0.1203
15712W        W20012   9.096   6.419  31.523 -0.1270  0.0218 -0.1514
15713W        W20013  19.350   1.226  11.339  0.0296  0.1221 -0.4109
15714W        W20014  20.988   4.090   8.423 -0.1468 -0.1533  0.1829
15715W        W20015   4.178   0.005  31.667 -0.1037  0.1201  0.1517
15716W        W20016   4.355   4.781  34.962 -0.0414  0.0341  0.1698
15717W        W20017   3.715   5.739   0.548 -0.1515  0.0961 -0.1570
15718W        W20018  19.025   4.474  14.068 -0.0426  0.0475  0.1775
15719W        W20019  13.813   3.769   7.775  0.0838 -0.0982  0.1216
15720W        W20020  14.358   2.928  10.370  0.2285 -0.0582 -0.3428
15721W        W20021  18.848   6.515  21.992 -0.1831  0.0486  0.0847
15722W        W20022   1.611   0.804  34.066 -0.1793 -0.2982 -0.1910
15723W        W20023  21.529   5.655   2.150 -0.0137 -0.0305 -0.1255
15724W        W20024  13.462   2.694  32.833  0.2194 -0.2932  0.0264
15725W        W20025  21.446   2.472  11.364  0.2344 -0.2150  0.2688
15726W        W20026  20.348   1.530  27.769 -0.2749  0.0304 -0.0953
15727W        W20027  23.235   4.871  14.065 -0.1763  0.4260 -0.0668
15728W        W20028   2.726   2.495   7.805 -0.1110  0.1252  0.4617
15729W        W20029  10.162   4.091   6.778  0.0307 -0.2055  0.0717
15730W        W20030  24.055   1.940   2.402  0.2654 -0.1147 -0.2344
15731W        W20031  19.567   2.727  22.464  0.0395  0.0029  0.0550
15732W        W20032  16.880   0.415  23.648 -0.0874  0.0787 -0.0745
15733W        W20033   9.644   0.443   3.624  0.0235  0.0032 -0.1642
15734W        W20034  22.066   2.180  21.071 -0.0232  0.2484 -0.4012
15735W        W20035   8.335   6.156  23.962  0.0698  0.1132  0.3107
15736W        W20036   6.864   0.671  34.213 -0.1521  0.2377  0.0506
15737W        W20037   6.421   5.630  11.216 -0.2101 -0.0267 -0.0052
15738W        W20038  13.648   1.147  10.683 -0.0024  0.2706 -0.1859
15739W        W20039  16.435   0.613  23.791 -0.0983 -0.1142  0.0805
15740W        W20040  23.499   4.969  23.491  0.3562 -0.0457 -0.1702
15741W        W20041  25.638   5.962  26.306  0.0021 -0.0171  0.0945
15742W        W20042   2.824   4.065   0.613 -0.0664 -0.0323 -0.4149
15743W        W20043  11.839   4.840   4.510 -0.1373 -0.3035 -0.2007
15744W        W20044  15.622   5.872  27.098 -0.2433  0.3032  0.0988
15745W        W20045  19.960   2.118  24.323  0.2233  0.1385  0.1478
15746W        W20046   3.242   5.115  11.003 -0.1661 -0.0383 -0.1045
15747W        W20047  13.463   1.232  32.285 -0.0294  0.0706 -0.1312
15748W        W20048   1.604   2.252   3.528 -0.1297  0.0789  0.0739
15749W        W20049  22.862   1.758  24.855  0.1218  0.1290  0.0691
15750W        W20050   2.350   4.701  33.500  0.2326 -0.2578 -0.3422
15751W        W20051   7.107   4.325  35.147 -0.1157 -0.1188 -0.3795
15752W        W20052  20.314   5.742  21.425 -0.0685  0.3183 -0.2146
15753W        W20053   9.484   3.890  24.119 -0.0412  0.0177 -0.0750
15754W        W20054   4.429   2.191   0.155 -0.1479  0.0859 -0.2406
15755W        W20055  13.251   4.154  30.756 -0.2024  0.0934  0.0362
15756W        W20056  19.493   2.933   4.373 -0.0596  0.0551 -0.1999
15757W        W20057   5.468   1.873  22.766  0.0150  0.0862 -0.1013
15758W        W20058   0.238   3.415  33.273 -0.0024 -0.0299 -0.4040
15759W        W20059  11.773   3.215  29.118 -0.1549  0.1542  0.0757
15760W        W20060  13.149   4.936   2.307  0.1754 -0.0217  0.1074
15761W        W20061  24.965   1.754  28.946 -0.1667 -0.3458  0.0962
15762W        W20062  23.681   4.904  14.228 -0.0417 -0.2781  0.1967
15763W        W20063  23.869   2.193  35.848 -0.1148 -0.0745 -0.0627
15764W        W20064  19.420   3.611  28.965 -0.0056 -0.3024  0.0197
15765W        W20065  16.896   5.985   5.537 -0.1575 -0.3696 -0.2376
15766W        W20066   6.186   1.538  23.924 -0.0123 -0.3748  0.0527
15767W        W20067  13.125   5.061  28.582 -0.3740  0.1714  0.3574
15768W        W20068  19.458   3.201  30.758 -0.2096  0.0105 -0.1977
15769W        W20069  23.493   5.770  14.147 -0.3279 -0.1699 -0.1349
15770W        W20070   2.944   3.905  11.627 -0.0084  0.1497 -0.1050
15771W        W20071   9.844   0.757   4.452 -0.1245  0.3268 -0.1163
15772W        W20072  25.176   1.850   0.524  0.1205 -0.0364 -0.1832
15773W        W20073  11.211   2.899   8.583  0.1666  0.1607  0.1638
15774W        W20074  10.044   1.096  25.254 -0.1613 -0.0712 -0.3629
15775W        W20075  14.527   2.495  34.009 -0.0971  0.5090 -0.0514
15776W        W20076   3.751   3.958  30.298  0.1965  0.1354 -0.0511
15777W        W20077  11.212   6.551  26.427 -0.0503  0.2165  0.0756
15778W        W20078  16.738   2.006  25.800 -0.2122 -0.3720 -0.2658
15779W        W20079   9.812   0.706   9.744 -0.1802  0.0261  0.0074
15780W        W20080   1.039   0.516   4.241  0.1079  0.0152  0.1242
15781W        W20081  14.254   4.725   7.936  0.0726 -0.0809  0.1459
15782W        W20082  17.456   2.611   6.031 -0.0663 -0.3950 -0.2488
15783W        W20083  25.115   0.913   2.212 -0.2200 -0.1741 -0.1265
15784W        W20084  10.616   5.749  24.480  0.0456  0.0440  0.4133
15785W        W20085  14.158   6.333   5.158  0.4953 -0.2514 -0.2741
15786W        W20086  16.087   4.258   2.316  0.0734 -0.1387 -0.0042
15787W        W20087  21.152   5.947  27.338 -0.0963 -0.1340 -0.3043
15788W        W20088  18.639   5.246  34.666 -0.0530  0.0086  0.2067
15789W        W20089  11.862   1.711  27.107 -0.0674 -0.0861 -0.3043
15790W        W20090  25.576   4.498   2.994  0.1528  0.4478  0.0633
15791W        W20091  22.480   0.971  25.272  0.0133 -0.2232 -0.2672
15792W        W20092  13.019   2.603   8.290  0.0870  0.0527 -0.0221
15793W        W20093  16.892   0.077  32.705 -0.1279  0.0449 -0.0234
15794W        W20094  16.940   6.122  30.599 -0.2223 -0.0818 -0.0004
15795W        W20095   2.490   2.615  26.828  0.3073 -0.1786  0.1048
15796W        W20096  22.526   2.385  28.084  0.0915 -0.3349 -0.0079
15797W        W20097  24.431   0.129   3.218 -0.0900  0.0124  0.0995
15798W        W20098   9.813   2.515  25.358 -0.0270 -0.2737  0.1669
15799W        W20099   9.505   5.322  28.331 -0.1846  0.0132 -0.2836
15800W        W20100   5.696   1.906  14.652  0.1898  0.0429  0.0023
15801W        W20101  18.873   0.306  22.932 -0.1778 -0.2064 -0.3710
15802W        W20102   5.009   5.276   8.397  0.3826 -0.2123  0.0367
15803W        W20103  16.974   4.798   1.753 -0.0650  0.0131 -0.2966
15804W        W20104  15.143   2.851  34.518  0.1792 -0.2606 -0.2981
15805W        W20105  19.277   2.931  23.695 -0.1229 -0.1331 -0.1282
15806W        W20106  12.332   0.332   8.326  0.1867 -0.2904  0.0294
15807W        W20107  25.749   5.319  24.222  0.2573  0.0103 -0.1111
15808W        W20108   2.812   5.161   2.623 -0.0470  0.3938 -0.1358
15809W        W20109  23.840   3.349  32.665 -0.1997 -0.0008  0.0470
15810W        W20110  19.326   5.487  11.387 -0.1483  0.1567  0.4524
15811W        W20111  19.290   4.544  28.509 -0.0032  0.1295 -0.1263
15812W        W20112  11.201   4.260   6.368  0.1674 -0.1675 -0.2828
15813W        W20113  18.824   0.263  21.031  0.1521 -0.1876 -0.2394
15814W        W20114  13.574   0.902  22.521 -0.0523 -0.0144  0.0108
15815W        W20115  12.653   2.814  24.157 -0.3261  0.0134  0.0108
15816W        W20116  16.492   1.212   7.967 -0.2005 -0.0118  0.1172
15817W        W20117  22.903   6.537   8.554  0.3620 -0.4122 -0.1918
15818W        W20118   7.725   4.419  13.399 -0.0801 -0.0928  0.0750
15819W        W20119   4.072   4.644  20.828 -0.0007 -0.1867  0.1975
15820W        W20120  24.264   2.640   7.551 -0.1975  0.1932 -0.0440
15821W        W20121  23.253   3.241  35.333 -0.1642 -0.0396  0.1975
15822W        W20122   7.563   0.082   2.383  0.1193  0.0581  0.1870
15823W        W20123  11.533   3.238  11.015  0.1195  0.0375 -0.0177
15824W        W20124   5.977   3.309  14.726 -0.1817 -0.0343  0.0540
15825W        W20125  16.040   2.897  13.758  0.2277  0.0964  0.1263
15826W        W20126   1.848   1.408  22.779 -0.0671 -0.2331  0.3249
15827W        W20127  25.534   0.732   0.282 -0.0167  0.1122 -0.2809
15828W        W20128  16.071   0.145  20.541  0.1300 -0.1922  0.2100
15829W        W20129  24.276   5.907   3.898  0.2109  0.0750  0.1643
15830W        W20130   8.339   0.193  12.886 -0.1389 -0.3598 -0.1824
15831W        W20131  25.724   2.166   3.352 -0.0731  0.0454  0.0542
15832W        W20132  21.350   6.020   1.029 -0.0242  0.0502 -0.2109
15833W        W20133  17.586   1.337   3.904 -0.1464  0.1258  0.1556
15834W        W20134   8.453   1.021   8.453 -0.0511  0.1873  0.0838
15835W        W20135   7.544   3.236  29.647  0.2053 -0.2003  0.1223
15836W        W20136   3.320   2.737  21.770  0.0925 -0.0964  0.1555
15837W        W20137  16.812   2.559  32.550  0.5080  0.2486 -0.2728
15838W        W20138  18.634   1.390  33.910 -0.0151 -0.1269  0.2269
15839W        W20139  17.348   5.274   7.555 -0.0151  0.2507 -0.0327
15840W        W20140  18.639   4.057  23.359  0.2734  0.0181  0.0745
15841W        W20141  20.260   4.697   7.866  0.0510  0.2136 -0.1485
15842W        W20142  23.288   0.998   5.789  0.1736 -0.1454  0.0651
15843W        W20143   7.373   3.016   7.446  0.0685  0.0590 -0.0528
15844W        W20144   1.929   4.499  31.019 -0.0025 -0.2503 -0.0975
15845W        W20145   2.775   1.392   6.262  0.0654 -0.4941  0.1884
15846W        W20146   1.196   3.709  31.045  0.1501 -0.1466  0.1071
15847W        W20147  24.657   4.656   1.210 -0.2206  0.2407 -0.2487
15848W        W20148  11.046   1.078  27.282  0.0983 -0.1002 -0.2088
15849W        W20149  25.839   2.039  22.994  0.0233  0.0678 -0.0638
15850W        W20150  10.781   0.426  30.139 -0.1623  0.0985  0.0569
15851W        W20151  19.262   0.263  33.941  0.1729 -0.0579  0.1920
15852W        W20152   4.575   1.660  11.636 -0.2939  0.0419 -0.0360
15853W        W20153   6.867   4.873  34.411 -0.1518  0.0259 -0.1014
15854W        W20154   3.291   5.470  33.829 -0.1078  0.2198 -0.2033
15855W        W20155   9.505   2.354  13.619  0.1193  0.0411 -0.0822
15856W        W20156   5.828   2.585  30.691  0.2673  0.0287 -0.1684
15857W        W20157  23.190   0.704  35.935 -0.3121  0.1246  0.0571
15858W        W20158  25.389   3.413   2.037 -0.0802  0.0228  0.0247
15859W        W20159  23.935   0.983   2.398  0.0234 -0.2090  0.0282
15860W        W20160  22.492   2.674  15.250 -0.0195 -0.0968 -0.0869
15861W        W20161   1.973   4.561  30.503 -0.1173  0.2211 -0.0598
15862W        W20162   0.191   3.113   1.275  0.0805 -0.2647 -0.3038
15863W        W20163   0.624   1.640   8.253  0.1538 -0.0194  0.1558
15864W        W20164   2.316   0.017  32.336 -0.2463 -0.2404 -0.3054
15865W        W20165  12.687   6.335  12.679 -0.1200  0.1658  0.3761
15866W        W20166   0.030   2.869  30.631 -0.1020 -0.0318  0.2679
15867W        W20167   3.703   3.759  29.433  0.3482  0.0932 -0.0699
15868W        W20168   0.773   6.276  24.692 -0.1287 -0.0998  0.0560
15869W        W20169  11.341   6.006   2.176  0.1627 -0.1443 -0.0317
15870W        W20170   8.303   4.592   8.755  0.1870 -0.0744 -0.1287
15871W        W20171  16.833   0.878  14.350 -0.0948 -0.1999 -0.1558
15872W        W20172  16.088   3.974   0.258 -0.2157  0.0369  0.1223
15873W        W20173  24.418   4.749   0.051  0.1253  0.1346  0.0276
15874W        W20174  20.950   3.238   4.296  0.3236 -0.2033 -0.0069
15875W        W20175  16.029   4.331  31.507  0.2609  0.1733 -0.3514
15876W        W20176  15.685   3.346  35.251  0.0511  0.1624 -0.2185
15877W        W20177  18.308   5.200   1.652  0.1567 -0.1686  0.1211
15878W        W20178   9.177   4.904   4.374  0.3564 -0.2008  0.1190
15879W        W20179   6.313   4.699  24.879 -0.0357 -0.1771 -0.0134
15880W        W20180  25.345   0.461  25.603  0.0579  0.0703  0.1509
15881W        W20181  11.171   3.881   3.226 -0.3115 -0.0308 -0.3449
15882W        W20182   1.513   5.550  36.096 -0.1125 -0.1755  0.0552
15883W        W20183   0.286   3.593  29.025 -0.1726  0.1289 -0.0475
15884W        W20184   7.585   6.464  25.822 -0.3829  0.1005 -0.2694
15885W        W20185  20.208   4.841  14.278 -0.0030 -0.1241 -0.0077
15886W        W20186  24.289   3.349   6.679 -0.0606  0.2106 -0.1207
15887W        W20187  19.716   5.416  28.408  0.1021 -0.2043 -0.1829
15888W        W20188   4.232   3.059  23.781 -0.2469  0.1492 -0.0769
15889W        W20189   8.170   2.030  31.753  0.1958  0.0864  0.1188
15890W        W20190   3.285   4.756  29.955 -0.1158  0.0967  0.4325
15891W        W20191   8.204   2.991  34.315  0.1419 -0.0239 -0.3404
15892W        W20192  10.350   5.558   0.713  0.1582 -0.1494 -0.0114
15893W        W20193  26.380   2.891  29.899 -0.1355  0.1899  0.2439
15894W        W20194  18.435   3.774   8.667  0.0193  0.1663 -0.0910
15895W        W20195  12.740   1.971  35.124 -0.1068 -0.0506 -0.1196
15896W        W20196   0.410   4.013  33.274 -0.0386  0.1575  0.0508
15897W        W20197  19.241   0.849  27.711 -0.0768  0.3078 -0.0516
15898W        W20198   7.228   2.428   1.687 -0.2672  0.1863  0.1009
15899W        W20199   2.085   4.829   8.513 -0.2655 -0.1177 -0.2919
15900W        W20200  11.592   5.640  20.860  0.0478  0.1147 -0.1445
15901W        W20201   1.190   2.165   8.760 -0.2565 -0.0885 -0.0318
15902W        W20202   5.146   3.212   2.290 -0.1066 -0.4169 -0.0947
15903W        W20203   1.020   4.640   8.578 -0.0730  0.1969  0.0594
15904W        W20204  22.534   5.267  32.456 -0.1152 -0.1712  0.0639
15905W        W20205   7.551   2.318  10.309 -0.3007  0.1675  0.0475
15906W        W20206  20.886   3.738   1.117  0.1078  0.3096  0.2982
15907W        W20207  26.325   2.656  25.763 -0.2250  0.1784  0.1249
15908W        W20208  20.982   0.134  33.988  0.0053 -0.1674 -0.2555
15909W        W20209  13.753   2.798  15.701  0.0565  0.1502  0.1458
15910W        W20210   6.824   4.782  33.798  0.1885  0.1843  0.1095
15911W        W20211  21.040   0.905   8.136 -0.1461 -0.1761  0.1594
15912W        W20212  21.527   5.864   7.869  0.1696 -0.1876 -0.1804
15913W        W20213  22.835   2.595  10.326 -0.1813 -0.0305 -0.1508
15914W        W20214  23.657   5.078  10.018  0.1453  0.0496  0.0063
15915W        W20215   1.666   4.867  14.911 -0.0485  0.0933 -0.2525
15916W        W20216  21.395   1.395  23.128 -0.2623  0.0942 -0.0575
15917W        W20217  11.982   3.925  24.598  0.0114  0.0321  0.2341
15918W        W20218   5.532   4.663  32.248 -0.0817 -0.0997 -0.2477
15919W        W20219   4.199   1.194  13.926 -0.0036  0.3473  0.2646
15920W        W20220   3.742   2.500  20.938 -0.0108 -0.0565 -0.2134
15921W        W20221   1.168   0.189  12.443  0.0373 -0.1037  0.1569
15922W        W20222  12.903   5.098  15.070 -0.2186 -0.0324 -0.2752
15923W        W20223   4.862   5.406   9.427 -0.2133 -0.1733  0.3146
15924W        W20224  14.295   1.623   2.256  0.1074  0.2075  0.1453
15925W        W20225  17.472   0.747  14.872  0.2412 -0.0924 -0.1144
15926W        W20226  17.204   3.222  23.921  0.2205  0.2362 -0.1069
15927W        W20227  11.500   1.043   9.157  0.0846  0.0693  0.0149
15928W        W20228   6.951   3.888   2.207  0.2036  0.0746 -0.0077
15929W        W20229  16.016   0.805  22.177  0.3253  0.1976  0.0391
15930W        W20230  16.713   5.984  11.734 -0.0768  0.0696  0.3023
15931W        W20231  15.301   1.585   8.882  0.1386 -0.2631 -0.1433
15932W        W20232  25.107   1.362  11.220  0.3370 -0.0356  0.0018
15933W        W20233  10.641   0.567  29.091  0.0476  0.1400  0.2401
15934W        W20234  10.780   4.891  23.939 -0.1532 -0.1981  0.1579
15935W        W20235   5.758   2.570  29.700 -0.0479  0.1592 -0.2018
15936W        W20236   7.754   3.216  11.679 -0.0621 -0.2528  0.2838
15937W        W20237  17.891   4.428   7.686 -0.0969 -0.2352  0.1287
15938W        W20238   2.640   6.594  11.468  0.0531 -0.0409  0.0632
15939W        W20239  15.054   3.393   4.456  0.3630 -0.1258  0.0831
15940W        W20240  10.640   1.023   8.893 -0.1424 -0.0185 -0.0189
15941W        W20241  14.089   4.028  11.250  0.1714 -0.3913  0.0047
15942W        W20242  17.210   3.944  13.847 -0.0349 -0.0249  0.0595
15943W        W20243  14.102   5.726  21.224  0.0061 -0.4811  0.0237
15944W        W20244  17.992   3.706   7.300  0.3170  0.1014 -0.1871
15945W        W20245   6.371   0.087  24.954 -0.0082  0.0046 -0.0320
15946W        W20246  25.955   1.477  25.329 -0.0643 -0.0648 -0.0952
15947W        W20247   6.668   3.066   6.879  0.0553 -0.0890 -0.1354
15948W        W20248  16.991   3.793   1.124  0.1741 -0.0666  0.2237
15949W        W20249  14.638   5.217  30.657  0.1185 -0.2238 -0.2330
15950W        W20250  17.129   3.929  23.412  0.0373  0.2693 -0.1607
15951W        W20251  26.183   4.421  10.265 -0.1647 -0.0036 -0.0484
15952W        W20252  19.030   5.346  33.752  0.0669  0.0261 -0.1204
15953W        W20253   5.711   1.945  30.202  0.1975  0.1453 -0.1147
15954W        W20254  14.021   5.263   6.542 -0.1647  0.0482  0.3057
15955W        W20255  15.441   0.218   4.808 -0.1283 -0.1888 -0.0989
15956W        W20256  12.269   4.597   3.747 -0.1715 -0.3231 -0.2493
15957W        W20257  24.173   6.088  26.726  0.0464 -0.0907  0.4827
15958W        W20258  15.450   0.755  26.941  0.2275  0.3617  0.2338
15959W        W20259   5.606   5.655  10.783  0.1450 -0.1206  0.1471
15960W        W20260   5.091   0.598   7.150  0.0169  0.1258 -0.1884
15961W        W20261  17.492   2.965  32.130  0.1306  0.1867 -0.0112
15962W        W20262  25.587   5.949   2.933  0.2806  0.0370  0.1417
15963W        W20263   5.344   6.355   7.426  0.2843 -0.0734 -0.2191
15964W        W20264   0.059   1.676  33.520 -0.2844 -0.0853 -0.0930
15965W        W20265   2.690   1.851  34.849  0.0170  0.3631  0.1972
15966W        W20266  24.513   1.303  29.050 -0.0394  0.1504 -0.0123
15967W        W20267   8.812   3.473  28.727 -0.3609 -0.0609  0.0186
15968W        W20268   6.411   2.757   9.930 -0.1801  0.3137 -0.2367
15969W        W20269  13.514   5.032  15.807  0.0629 -0.2796 -0.1817
15970W        W20270   1.463   2.928   6.792  0.2245 -0.3717 -0.0395
15971W        W20271  22.325   3.256  11.419 -0.0707  0.1846  0.3246
15972W        W20272   3.313   5.407   5.161  0.0739  0.1907  0.0599
15973W        W20273  18.294   0.853  26.715 -0.0745 -0.1188 -0.0333
15974W        W20274  24.550   4.878  11.020 -0.0563  0.3107  0.2097
15975W        W20275  25.623   3.227  12.363  0.1216  0.0238 -0.1065
15976W        W20276  17.039   2.674  32.004 -0.0611  0.0077  0.0951
15977W        W20277  17.623   3.297   2.292 -0.1981  0.0769 -0.1012
15978W        W20278  20.735   1.227   4.705 -0.0154  0.2299 -0.1207
15979W        W20279  12.649   5.865   1.478  0.0350 -0.2228 -0.0533
15980W        W20280   1.092   0.710  15.173 -0.2755  0.0503 -0.1326
15981W        W20281  11.377   6.307   9.578  0.0939 -0.0704 -0.1651
15982W        W20282  20.565   4.562   4.696 -0.0570 -0.2123  0.0875
15983W        W20283  12.232   5.609   9.884 -0.0738  0.2288  0.0192
15984W        W20284  15.699   5.557  26.175  0.3854 -0.4076  0.1769
15985W        W20285  18.710   0.993  23.707  0.1087 -0.1811  0.1041
15986W        W20286  12.384   3.487  11.967 -0.0142 -0.0350  0.1410
15987W        W20287  18.770   1.309   7.914 -0.0851 -0.0272 -0.1431
15988W        W20288   0.587   1.420  10.077 -0.1810 -0.1197  0.1800
15989W        W20289  11.136   4.807  29.095 -0.3740  0.1021  0.2195
15990W        W20290   6.250   4.535  22.930  0.0936 -0.1572 -0.1605
15991W        W20291   1.311   0.476   8.761  0.1384 -0.0502 -0.1590
15992W        W20292   2.877   3.388  12.086  0.1249  0.0055 -0.0719
15993W        W20293  25.864   6.163  35.655 -0.1662  0.1474 -0.0558
15994W        W20294  13.005   6.132  32.898  0.1134  0.2270 -0.0898
15995W        W20295  16.829   4.107  14.329  0.1995  0.1531  0.2505
15996W        W20296  19.029   6.480  23.189 -0.0282 -0.3371  0.0992
15997W        W20297  16.481   3.191   6.669  0.2295  0.0138 -0.1692
15998W        W20298   0.539   5.100  21.541  0.0488  0.0345 -0.1207
15999W        W20299  20.955   3.416   1.943  0.0012  0.0263  0.1217
16000W        W20300   5.447   4.303  12.412  0.0086 -0.3666  0.0304
16001W        W20301   4.081   3.048   4.980  0.2530  0.3444  0.0218
16002W        W20302  24.191   1.081   3.237  0.2465  0.0765  0.2580
16003W        W20303   4.291   5.044  10.970 -0.1284  0.1570  0.2171
16004W        W20304   2.206   3.817  24.219  0.0027 -0.0539  0.0594
16005W        W20305  24.041   2.168  30.529 -0.1834 -0.2881 -0.0855
16006W        W20306  16.797   4.080  31.878  0.2904  0.0269  0.1354
16007W        W20307  20.589   5.317   4.142  0.1062  0.0637 -0.3615
16008W        W20308   6.970   6.060  29.798 -0.3572 -0.1006  0.1240
16009W        W20309   4.671   3.723  12.305  0.1390  0.0409  0.1578
16010W        W20310  21.175   2.497  10.119  0.0968 -0.1611 -0.4225
16011W        W20311  24.547   5.767  32.023  0.2601 -0.3084  0.0421
16012W        W20312  23.859   5.978  11.024 -0.0116  0.2183  0.2335
16013W        W20313  17.924   5.538   4.419 -0.2396 -0.0868 -0.0917
16014W        W20314  10.044   3.247  29.331 -0.0599  0.3284 -0.2007
16015W        W20315   3.078   6.096   7.323 -0.3607  0.0324  0.1042
16016W        W20316  23.752   0.420   2.584 -0.1783 -0.1498  0.0667
16017W        W20317  17.623   0.825   5.577 -0.1896  0.1148  0.1857
16018W        W20318  15.853   4.096  15.209 -0.0499 -0.0584  0.0380
16019W        W20319  22.768   3.947  12.238  0.1410  0.1728 -0.1120
16020W        W20320   1.342   3.062   1.732 -0.0390  0.2678  0.2026
16021W        W20321  12.729   2.639  26.300  0.0925 -0.2711  0.1662
16022W        W20322  11.051   1.582   7.084 -0.0356 -0.0339  0.0729
16023W        W20323   2.898   2.243   3.293  0.1162 -0.0393 -0.0174
16024W        W20324   2.379   2.152  11.298 -0.0272 -0.3004  0.1857
16025W        W20325   7.701   4.353   1.731 -0.2131  0.0189 -0.1215
16026W        W20326  24.275   1.278  33.451 -0.0248 -0.0709 -0.1189
16027W        W20327   9.930   0.110   4.576  0.1495 -0.0584  0.1136
16028W        W20328   1.369   4.997  32.693  0.0103  0.0086  0.2063
16029W        W20329  26.012   2.592  15.561  0.2196  0.0617  0.0230
16030W        W20330   5.481   2.099   5.868  0.3239 -0.2175 -0.2426
16031W        W20331  16.968   1.306  12.966  0.1495  0.0112 -0.0914
16032W        W20332  14.809   0.302  11.951 -0.0577 -0.4901 -0.0067
16033W        W20333  13.898   5.373  32.789  0.1690  0.1584  0.0453
16034W        W20334  11.282   1.441   8.527 -0.0640  0.1483 -0.1317
16035W        W20335   7.038   2.902   2.534  0.2979 -0.1423  0.1767
16036W        W20336   0.914   6.444   8.194  0.1121  0.2413  0.2404
16037W        W20337   1.996   5.532   2.509  0.2173 -0.0244 -0.1181
16038W        W20338   5.029   1.020   7.541 -0.1246  0.1276  0.0826
16039W        W20339   3.038   4.909  11.407  0.0853  0.1735 -0.0547
16040W        W20340  23.310   4.583  23.054  0.1660 -0.2880  0.1840
16041W        W20341   4.219   2.424   9.200 -0.0612 -0.1584  0.0506
16042W        W20342  23.351   5.561   5.460 -0.0017 -0.0177  0.0705
16043W        W20343   5.602   2.305  14.990 -0.4372  0.0469 -0.2262
16044W        W20344  15.618   1.793  26.870  0.2882  0.0983 -0.1327
16045W        W20345  13.093   5.689   4.043 -0.2574 -0.0028  0.3068
16046W        W20346  22.526   2.414  21.151  0.0606 -0.1720  0.0632
16047W        W20347  23.820   1.906  25.715  0.2804 -0.1136 -0.2207
16048W        W20348   9.590   2.064  29.020 -0.0035 -0.0529 -0.0014
16049W        W20349  13.255   1.279  22.305  0.1797  0.0337  0.0919
16050W        W20350  21.504   0.072  35.026 -0.0981 -0.0223  0.0002
16051W        W20351  17.027   3.249   5.645 -0.0209  0.1081  0.1986
16052W        W20352   0.160   5.261   1.815 -0.0653 -0.2707 -0.2472
16053W        W20353   2.753   1.866  30.209  0.3808  0.1334 -0.0654
16054W        W20354   7.319   0.953  25.484 -0.0084  0.2673 -0.1565
16055W        W20355  11.301   2.455  36.139  0.2029 -0.2057 -0.1555
16056W        W20356  25.425   2.489  34.250  0.0030 -0.1184 -0.2578
16057W        W20357  17.065   0.723  13.224 -0.0178  0.1250  0.3555
16058W        W20358  11.790   3.162  13.922  0.2028 -0.2287 -0.2747
16059W        W20359  15.736   6.287  25.281 -0.1105 -0.0847  0.2072
16060W        W20360  23.490   4.150   9.919 -0.1862  0.1372 -0.1833
16061W        W20361   6.061   3.217  12.362 -0.1537 -0.3585  0.0580
16062W        W20362  20.146   2.299  11.921  0.1245  0.1736  0.0487
16063W        W20363   1.929   0.786   7.691  0.2672  0.0989  0.1849
16064W        W20364   3.096   2.517  24.965 -0.2500 -0.1082 -0.3620
16065W        W20365   4.724   3.947  15.312  0.3668  0.1101 -0.2326
16066W        W20366  18.478   1.663  32.945 -0.0325 -0.0640 -0.1295
16067W        W20367   2.312   4.155  24.795  0.2036 -0.0471 -0.1256
16068W        W20368  17.682   5.462   9.187 -0.0497 -0.0178  0.0885
16069W        W20369  25.265   3.657  12.264 -0.0545  0.1893  0.4903
16070W        W20370  25.397   1.127   5.583  0.0629 -0.1076 -0.0840
16071W        W20371   6.196   4.502  27.108 -0.1271 -0.2107 -0.1197
16072W        W20372  13.996   1.883  28.363 -0.1156  0.0973  0.0276
16073W        W20373  16.717   4.448   1.475 -0.2171 -0.0129  0.1256
16074W        W20374   9.524   0.826  31.288 -0.1960  0.1764  0.0195
16075W        W20375   6.564   4.660  26.821  0.0400 -0.1263 -0.0777
16076W        W20376   2.113   3.463   6.494  0.2793  0.1971  0.1620
16077W        W20377  18.161   0.275  12.864 -0.0540  0.1146 -0.0020
16078W        W20378  19.056   0.071  12.513  0.1893  0.2373  0.0943
16079W        W20379  10.808   3.989   6.186 -0.0224  0.0120  0.1899
16080W        W20380  11.624   1.346   4.756  0.1323  0.1620 -0.2139
16081W        W20381   7.049   3.838   1.142 -0.0742 -0.0770  0.1148
16082W        W20382  22.632   0.725  35.941 -0.2461 -0.0687 -0.2047
16083W        W20383   6.576   3.084  30.220 -0.1802  0.0553 -0.1965
16084W        W20384  21.080   2.059  27.382 -0.1613 -0.2019 -0.0197
16085W        W20385   0.468   4.680  24.137  0.1048 -0.0339 -0.3548
16086W        W20386  13.045   1.557  30.978 -0.5158  0.0553  0.0877
16087W        W20387   4.989   1.550   7.696  0.1227  0.0120 -0.0437
16088W        W20388  11.981   5.693  30.753 -0.1711  0.0936  0.0761
16089W        W20389  20.340   3.924  21.803  0.0568  0.1026 -0.0976
16090W        W20390   9.932   6.171  14.508 -0.2555  0.1400 -0.0120
16091W        W20391  11.103   2.735  31.686  0.0937 -0.0264  0.0228
16092W        W20392  16.368   5.821   2.440 -0.0031  0.0140  0.1624
16093W        W20393   2.773   5.371   5.137  0.1044  0.2310 -0.0973
16094W        W20394   8.656   1.752  35.894  0.1235  0.1698 -0.0610
16095W        W20395   3.499   1.481  34.826  0.0811  0.2836 -0.0740
16096W        W20396   2.479   5.057   6.040 -0.0510 -0.1601 -0.0854
16097W        W20397   2.888   6.415  31.280  0.2138 -0.3621 -0.1367
16098W        W20398   2.465   4.157   5.164 -0.0473  0.1387  0.0574
16099W        W20399  11.098   6.587  35.420 -0.1145 -0.2112 -0.0414
16100W        W20400  10.201   0.631  28.284  0.0480 -0.2660  0.0697
16101W        W20401  18.536   4.477  15.325  0.1635 -0.1212 -0.2130
16102W        W20402  10.074   4.508  35.846 -0.1394 -0.1080  0.0442
16103W        W20403   5.881   0.629  33.882 -0.0715  0.1648 -0.0837
16104W        W20404  23.225   5.221  15.000  0.0170  0.1048 -0.2709
16105W        W20405   6.627   1.535  29.244  0.0987 -0.1790  0.0183
16106W        W20406  25.267   0.561  28.986 -0.2845 -0.1037 -0.3280
16107W        W20407  10.326   4.813  29.244 -0.2203 -0.0817 -0.0594
16108W        W20408   6.821   5.985  32.979 -0.1912  0.3861 -0.0951
16109W        W20409  22.914   5.150  20.843  0.0976  0.0020  0.1330
16110W        W20410  25.688   2.030   8.528 -0.2320  0.1846 -0.0988
16111W        W20411   7.318   0.582  27.946 -0.0374  0.0701  0.1007
16112W        W20412   9.517   2.993  12.898  0.2383 -0.2257 -0.1033
16113W        W20413   4.256   5.926  26.470  0.0594  0.0697  0.1806
16114W        W20414   5.596   5.142  22.569  0.0264  0.2197  0.2370
16115W        W20415  14.610   4.635  31.978  0.0375 -0.0542 -0.0732
16116W        W20416  20.876   6.045   1.733 -0.1272  0.1696  0.0351
16117W        W20417  23.896   4.923  28.734 -0.2154  0.1167 -0.1023
16118W        W20418   8.253   5.606  20.660 -0.0868  0.0988 -0.2467
16119W        W20419  14.556   6.572  32.316 -0.4095  0.0315  0.1035
16120W        W20420   3.281   0.077   7.364 -0.1230  0.1621  0.0651
16121W        W20421   8.687   4.206   9.004  0.3045 -0.0432  0.0379
16122W        W20422   8.403   5.372  30.178  0.3940  0.2294 -0.2653
16123W        W20423  21.116   3.596  33.988  0.0290  0.0733  0.0695
16124W        W20424  14.249   4.411  27.673 -0.0500 -0.4226  0.0206
16125W        W20425  25.470   4.221   4.626  0.0273 -0.2466 -0.1136
16126W        W20426  23.586   2.157  14.742  0.0148  0.3016 -0.3423
16127W        W20427   0.647   3.430  28.655  0.0832  0.0469 -0.2090
16128W        W20428  18.606   1.040   9.177  0.0355 -0.1165 -0.1927
16129W        W20429  15.579   3.876  33.354 -0.0008 -0.0181  0.2586
16130W        W20430  14.288   0.522  23.595 -0.0892 -0.1700  0.3507
16131W        W20431   8.518   5.630  31.527  0.1626 -0.1173 -0.1118
16132W        W20432  14.537   0.554  25.298 -0.0470  0.0197  0.0362
16133W        W20433   6.286   0.752   3.824  0.3679  0.0534 -0.1706
16134W        W20434  16.668   3.068  31.706  0.2627 -0.1371 -0.3735
16135W        W20435  13.364   6.516   9.118 -0.2664  0.0114 -0.0196
16136W        W20436   5.522   0.631  31.809 -0.0569  0.3595  0.0713
16137W        W20437  21.459   0.002  29.847  0.2815  0.0312  0.2496
16138W        W20438   8.821   6.508   4.281  0.1174  0.0796  0.1472
16139W        W20439   6.462   1.950  13.378 -0.0205  0.1325 -0.3335
16140W        W20440  23.082   2.962  12.573  0.2850  0.4638 -0.3188
16141W        W20441   4.734   0.217   8.843  0.1194  0.1530  0.0517
16142W        W20442  16.594   4.063  26.562 -0.3176  0.1556  0.0395
16143W        W20443  14.700   0.932  24.952 -0.3719  0.0720 -0.2360
16144W        W20444   0.836   1.494  26.249  0.0390  0.0805 -0.1523
16145W        W20445  14.675   3.352  25.404  0.0421  0.2365 -0.1617
16146W        W20446  16.270   2.405  35.134  0.1707  0.1128 -0.0289
16147W        W20447   3.189   4.688  23.538  0.0705  0.1370 -0.1900
16148W        W20448  18.505   1.518  23.386 -0.0421 -0.2056  0.1782
16149W        W20449  24.342   3.126  26.044 -0.0782  0.0393  0.0770
16150W        W20450   9.896   4.345   0.532 -0.0879 -0.1629  0.1355
16151W        W20451   4.051   2.617   9.866  0.1119 -0.0215 -0.1479
16152W        W20452  21.719   2.212   5.941  0.0314  0.2903 -0.1684
16153W        W20453  21.114   2.047   1.423  0.2705 -0.1371 -0.3704
16154W        W20454  11.577   3.020   1.229 -0.0225  0.2363  0.2808
16155W        W20455  12.699   1.130  12.454 -0.0471 -0.0425  0.0072
16156W        W20456  18.065   3.808   6.433  0.2341 -0.0035 -0.1893
16157W        W20457  17.889   4.628  29.718 -0.3462  0.1707  0.3041
16158W        W20458  17.360   0.433   4.279  0.2186  0.0765  0.0878
16159W        W20459   5.982   0.535   1.022  0.0553 -0.0087  0.0194
16160W        W20460   2.317   0.410   1.830 -0.1622 -0.1043 -0.1534
16161W        W20461   9.432   2.513   9.688  0.0766  0.1141  0.1710
16162W        W20462   3.024   1.179  21.077 -0.0343 -0.0177  0.0990
16163W        W20463  10.035   5.241  33.353 -0.0393  0.2727  0.1128
16164W        W20464   2.790   4.265   1.998 -0.0313  0.1789  0.0417
16165W        W20465  11.140   1.774   3.368 -0.0824 -0.0364  0.1112
16166W        W20466   8.248   6.014   7.905 -0.2137  0.0551  0.0326
16167W        W20467  19.811   0.448  28.207  0.1674  0.0060  0.2218
16168W        W20468   6.710   1.433  32.294 -0.2833  0.1608 -0.0151
16169W        W20469  24.705   6.263  32.722  0.0917 -0.3133  0.1595
16170W        W20470   1.899   3.154  10.341 -0.2293  0.0574  0.1584
16171W        W20471  14.915   5.255  32.850 -0.2977 -0.0912  0.1961
16172W        W20472  24.758   4.733  25.347  0.0517  0.2631 -0.2106
16173W        W20473   5.639   2.920   7.546 -0.6251 -0.1400 -0.0314
16174W        W20474  20.436   5.345  34.359  0.0368  0.3059  0.0507
16175W        W20475  21.512   2.868  14.097 -0.0458  0.3455 -0.3029
16176W        W20476   0.779   5.777  27.541 -0.1837  0.2011  0.3298
16177W        W20477   6.719   3.899  34.406 -0.1536 -0.1865  0.1647
16178W        W20478  25.244   4.953  14.942 -0.1297 -0.0468 -0.2250
16179W        W20479  25.567   6.483  10.202 -0.0822  0.1151  0.2471
16180W        W20480  16.691   4.825  32.714  0.1747 -0.1017 -0.1253
16181W        W20481  12.026   4.225  31.771 -0.0966  0.1527 -0.1436
16182W        W20482  21.722   3.950   0.763 -0.0194 -0.2817  0.0162
16183W        W20483   0.762   4.606  23.669  0.4487 -0.1568 -0.0487
16184W        W20484   2.479   4.981   4.407 -0.2613  0.2089 -0.0411
16185W        W20485  19.760   2.103   4.041 -0.3795  0.3904 -0.1561
16186W        W20486   6.852   2.022  28.840 -0.1313  0.0922 -0.0186
16187W        W20487   2.591   2.629  24.115 -0.1303 -0.2343  0.0770
16188W        W20488   7.045   1.951   1.535 -0.0100 -0.0806  0.2844
16189W        W20489  22.922   2.245  26.258  0.0095 -0.0346 -0.0684
16190W        W20490   5.932   4.565  21.047  0.0177  0.1317  0.0691
16191W        W20491  10.065   2.341  31.950 -0.0716  0.2607  0.3930
16192W        W20492  19.647   3.766   0.823  0.0638  0.1324  0.2042
16193W        W20493   8.709   5.854  22.653 -0.0785  0.5073 -0.1615
16194W        W20494  12.919   4.138  32.755  0.0431  0.0606  0.1366
16195W        W20495  24.141   3.302   8.942 -0.1357 -0.0600  0.2315
16196W        W20496  19.358   4.336  31.022 -0.4102 -0.0484 -0.0438
16197W        W20497  16.575   3.470   5.531 -0.1662  0.0118  0.0506
16198W        W20498  24.594   2.251  35.150  0.0165 -0.3731 -0.0428
16199W        W20499  16.622   3.908   8.661 -0.0459 -0.2062  0.2573
16200W        W20500  15.530   3.615   7.501  0.2325 -0.0673 -0.0324
16201W        W20501   0.128   1.001  31.476  0.0973  0.3651 -0.1584
16202W        W20502   4.572   1.357  26.050  0.2165 -0.0391 -0.1937
16203W        W20503  14.854   5.967  33.979  0.1458 -0.0923  0.3312
16204W        W20504   2.246   5.218  35.717  0.1353 -0.0937  0.1304
16205W        W20505   7.134   2.951  34.953 -0.0970 -0.3479  0.2175
16206W        W20506  10.818   2.128  21.623 -0.0692  0.2831  0.1785
16207W        W20507   4.045   3.751  32.688  0.2873 -0.0027  0.2740
16208W        W20508  19.463   3.186  12.005  0.0055 -0.1069 -0.0257
16209W        W20509   4.682   2.264  26.633  0.2015  0.0384  0.2402
16210W        W20510  17.370   0.256  29.568 -0.2406 -0.1378 -0.0390
16211W        W20511  22.865   5.595   4.278 -0.3326 -0.1674 -0.1243
16212W        W20512   4.741   3.924   7.956 -0.0128 -0.2736 -0.2021
16213W        W20513   7.592   5.763  27.728 -0.2271  0.1215  0.2686
16214W        W20514  25.047   2.452  25.096  0.0763  0.0301 -0.0973
16215W        W20515   5.733   0.686   3.169 -0.0112 -0.1291 -0.2731
16216W        W20516  20.799   5.557   3.082  0.1033 -0.0957 -0.1816
16217W        W20517   0.048   1.921  33.053  0.0733 -0.0620  0.0682
16218W        W20518  19.996   2.451  34.198  0.2710  0.0003 -0.1349
16219W        W20519   3.288   4.116  35.555 -0.1536 -0.2865 -0.1952
16220W        W20520   2.302   3.473  10.419  0.0532  0.0541 -0.0598
16221W        W20521  15.458   0.055  26.276 -0.2458 -0.0246  0.1384
16222W        W20522  13.593   1.981   4.647  0.0065  0.0487 -0.0707
16223W        W20523   0.337   2.764  34.694 -0.3486 -0.2604 -0.3221
16224W        W20524  11.067   2.558  23.395 -0.1935 -0.1721 -0.1005
16225W        W20525   7.727   1.560   4.409 -0.0837 -0.0634  0.1173
16226W        W20526  14.270   4.403  35.246  0.3016  0.1065  0.2991
16227W        W20527   2.810   1.658  28.967 -0.0106 -0.0155 -0.3454
16228W        W20528  21.948   5.036  33.244  0.0184  0.3309 -0.2768
16229W        W20529  14.196   5.073  25.360 -0.0973  0.2306  0.0627
16230W        W20530   6.279   6.398   5.661  0.0933  0.0175  0.1929
16231W        W20531  26.293   3.279  27.042 -0.2069  0.1440 -0.0534
16232W        W20532  11.087   5.014  34.858  0.0266  0.1059  0.0678
16233W        W20533   0.463   4.119   1.724 -0.3928 -0.1866  0.0102
16234W        W20534   1.257   0.052   5.077  0.1873  0.0740  0.1156
16235W        W20535   5.891   0.541   4.207 -0.1845 -0.0463 -0.0289
16236W        W20536   1.542   6.523  21.966  0.0792  0.0896 -0.0025
16237W        W20537   6.860   6.286  31.424  0.1732  0.2559  0.1881
16238W        W20538   8.115   0.460  28.022  0.1505 -0.1503 -0.0147
16239W        W20539  14.953   0.914   5.241  0.2748  0.1660 -0.0232
16240W        W20540  23.193   5.493  31.101 -0.0935  0.1569 -0.0954
16241W        W20541  26.040   1.962  12.022 -0.0193  0.2457  0.2748
16242W        W20542  20.280   2.754  26.425 -0.3025 -0.1052  0.3081
16243W        W20543  23.351   3.448   7.252  0.3010 -0.2204  0.0665
16244W        W20544  14.498   5.147  15.789 -0.0568 -0.1094  0.0282
16245W        W20545  10.375   2.807   0.871 -0.1980  0.0670  0.2085
16246W        W20546  25.625   1.517   2.196 -0.1077 -0.0203 -0.1347
16247W        W20547  17.652   4.991  31.698 -0.1585 -0.3759  0.1626
16248W        W20548  18.677   5.726  33.357 -0.3051 -0.1591  0.1540
16249W        W20549  24.437   3.228  34.560 -0.1404  0.0484  0.3282
16250W        W20550  18.358   2.314  24.292  0.2141  0.2095 -0.0043
16251W        W20551  24.549   4.982  10.488  0.4300 -0.1909 -0.2521
16252W        W20552   3.805   2.948  31.938  0.1263  0.0398  0.0238
16253W        W20553  13.524   6.192   6.865  0.3276  0.0783 -0.0548
16254W        W20554  22.274   5.829  33.238 -0.4664  0.0377 -0.2558
16255W        W20555  12.679   4.861  26.698  0.0876 -0.0697  0.0021
16256W        W20556  20.845   6.495  12.006 -0.0341 -0.2554  0.1172
16257W        W20557  25.341   3.451   9.607 -0.0072 -0.0636 -0.2704
16258W        W20558  14.376   4.355   6.612  0.0114  0.1959  0.0262
16259W        W20559   9.783   3.802   4.559  0.2567  0.2788  0.1379
16260W        W20560   3.361   0.766  34.218 -0.2343 -0.0306  0.2714
16261W        W20561  18.468   6.328  14.836  0.0105 -0.0997 -0.0521
16262W        W20562  13.052   0.217  26.687 -0.2105 -0.0364  0.1812
16263W        W20563   3.959   5.113   3.628 -0.0677 -0.0943 -0.1130
16264W        W20564   9.281   1.672  31.147 -0.0163  0.1212 -0.0864
16265W        W20565   5.537   5.879  20.864  0.2670 -0.0314 -0.3461
16266W        W20566   0.713   2.460   5.211 -0.0780 -0.0877 -0.1730
16267W        W20567   8.377   4.851  35.678  0.0569  0.1880  0.0445
16268W        W20568  19.140   5.762   5.272  0.2407 -0.2376 -0.0656
16269W        W20569  18.714   4.821  24.868 -0.0903  0.0264 -0.1249
16270W        W20570   4.634   1.651   3.278 -0.1629  0.3838  0.1666
16271W        W20571  15.100   4.788  10.715 -0.1923 -0.0588  0.0633
16272W        W20572  15.725   4.319   0.221  0.3147 -0.0390 -0.1708
16273W        W20573   1.431   0.765  29.441 -0.1730 -0.0752  0.0928
16274W        W20574   0.040   4.990  13.305  0.1407 -0.2602  0.1394
16275W        W20575   1.167   5.711  20.858  0.1081  0.1225  0.1459
16276W        W20576  16.555   4.646  10.460 -0.0870  0.3617  0.0207
16277W        W20577   0.700   4.606   8.147 -0.1356 -0.1931 -0.0450
16278W        W20578  20.335   4.853  33.827 -0.0991 -0.3414 -0.1059
16279W        W20579  19.380   2.913   6.692  0.1381 -0.1278  0.2557
16280W        W20580   6.793   2.588  35.073  0.1280 -0.0583  0.1347
16281W        W20581  19.475   5.532   1.318 -0.1645 -0.2796 -0.0728
16282W        W20582   3.318   3.363   9.987 -0.0002 -0.2453 -0.0322
16283W        W20583   6.866   5.204  13.234  0.2723  0.0338 -0.1544
16284W        W20584   0.021   3.429   9.328  0.2824 -0.1312  0.3738
16285W        W20585  16.498   0.793  34.060 -0.3169 -0.2681  0.1366
16286W        W20586   3.059   4.210  32.733 -0.0859 -0.2281  0.0931
16287W        W20587  26.348   0.573  20.682 -0.3031  0.2642 -0.1100
16288W        W20588  14.065   5.241  12.144  0.0331  0.1393 -0.0684
16289W        W20589  21.629   3.393  21.227 -0.0720  0.0375  0.1088
16290W        W20590  11.869   4.725  28.101 -0.1109  0.0174 -0.1202
16291W        W20591   1.177   1.222  27.663  0.2483  0.1163  0.1154
16292W        W20592  12.136   1.521  35.680  0.1733 -0.1727 -0.1688
16293W        W20593  22.781   5.581  10.022  0.0988  0.1670 -0.2715
16294W        W20594  15.747   6.481  32.682 -0.0697  0.3203 -0.2136
16295W        W20595  25.979   1.180   2.349 -0.1882  0.3120  0.0035
16296W        W20596   6.686   1.418  28.250 -0.0302  0.2723 -0.1632
16297W        W20597  20.738   4.111  23.884 -0.2043  0.0740 -0.0917
16298W        W20598   8.616   5.115  13.102 -0.1983  0.1654  0.4133
16299W        W20599  22.049   4.429  25.560 -0.2142  0.2464 -0.3051
16300W        W20600   1.206   0.355   1.700 -0.3037  0.1366  0.0719
16301W        W20601   2.155   4.177  26.384 -0.1742 -0.0174  0.1692
16302W        W20602  22.240   4.706  23.843 -0.0608 -0.3499  0.1943
16303W        W20603   4.909   2.514  30.320  0.3507 -0.2879 -0.2820
16304W        W20604  21.533   5.620   5.244 -0.1424  0.0557  0.1499
16305W        W20605  21.236   0.318  10.696 -0.0088 -0.0943 -0.2716
16306W        W20606   8.749   2.379  27.287  0.0844 -0.0251  0.2342
16307W        W20607  17.242   3.816  24.851 -0.2116 -0.0263 -0.1247
16308W        W20608  25.999   3.145   3.605  0.0806 -0.2839 -0.0562
16309W        W20609  10.199   2.408  23.035  0.0599 -0.0119 -0.0039
16310W        W20610  20.742   0.560  28.126 -0.0280 -0.0513  0.1244
16311W        W20611  13.944   0.395  21.058  0.0116  0.0143 -0.0859
16312W        W20612   3.882   5.965  29.776 -0.0046 -0.3505  0.3257
16313W        W20613  21.024   6.131  11.686  0.0085  0.3204  0.0368
16314W        W20614  22.749   1.034   5.147  0.1168 -0.1249  0.1923
16315W        W20615   2.479   1.054  24.087  0.1129  0.0020 -0.2736
16316W        W20616  24.318   0.046  29.598  0.1026 -0.2408  0.2375
16317W        W20617  16.778   5.670   1.383  0.1766 -0.0129  0.1118
16318W        W20618  13.369   2.650  21.013  0.0048 -0.1526 -0.2943
16319W        W20619  17.928   5.548  28.476  0.0977 -0.2408 -0.0360
16320W        W20620   5.152   3.858  12.321 -0.2391  0.0475  0.2865
16321W        W20621   8.466   2.495  20.686  0.3576 -0.0457 -0.1672
16322W        W20622  25.237   5.956   1.637 -0.0125  0.0386 -0.1534
16323W        W20623   2.956   0.020  34.649 -0.0361  0.2716  0.3480
16324W        W20624  18.245   0.511  10.496 -0.0020 -0.0536  0.0252
16325W        W20625  25.031   5.749   8.512  0.0109 -0.2964  0.0280
16326W        W20626  13.803   2.278  12.964  0.0515 -0.3730 -0.1410
16327W        W20627  24.354   1.608  28.694 -0.1349  0.1922  0.1024
16328W        W20628   9.936   1.073  24.207 -0.0239  0.2410  0.1745
16329W        W20629  13.734   4.928  33.490  0.1848  0.0545  0.0851
16330W        W20630  12.714   4.666  13.947 -0.0720 -0.2512 -0.0378
16331W        W20631   1.435   1.949   4.865 -0.0274  0.2234 -0.2250
16332W        W20632  10.132   5.551   6.320  0.0438  0.1090  0.4243
16333W        W20633   5.638   5.674  27.696 -0.0163  0.1152  0.1112
16334W        W20634   8.698   2.888   2.114 -0.2936  0.0358 -0.0420
16335W        W20635  21.659   5.568  30.430 -0.0533 -0.0803 -0.1023
16336W        W20636   8.881   5.004  11.727 -0.1639 -0.0822 -0.1139
16337W        W20637   2.426   1.795  35.954 -0.1805  0.0589 -0.1470
16338W        W20638  12.454   3.332  21.611 -0.0974  0.0384 -0.0198
16339W        W20639   0.748   1.261  12.434  0.0160 -0.0883 -0.0572
16340W        W20640  15.848   0.018  21.056 -0.0879  0.2186 -0.1386
16341W        W20641  19.140   5.537  13.185  0.1259 -0.0572  0.0403
16342W        W20642  19.170   2.652  11.345  0.1171 -0.0070  0.0142
16343W        W20643  16.240   2.595  13.353  0.2260  0.4555  0.1798
16344W        W20644   2.068   4.028  23.792 -0.1104 -0.0026  0.1217
16345W        W20645  23.256   4.735  26.070 -0.1542 -0.1043  0.0256
16346W        W20646  16.631   5.259   6.566 -0.2017  0.1372  0.0395
16347W        W20647   3.948   1.692  28.051 -0.2738  0.1310  0.1961
16348W        W20648   1.989   2.329   4.642 -0.2528  0.0506  0.1017
16349W        W20649  14.144   3.941  35.174  0.1416  0.0012 -0.3125
16350W        W20650   0.744   2.147   3.213 -0.0995 -0.2643  0.1444
16351W        W20651  25.484   6.356   8.032  0.0429  0.1586 -0.0100
16352W        W20652   2.391   6.002  30.650  0.0620 -0.1285 -0.2961
16353W        W20653   3.875   2.863  33.625  0.0847  0.1581  0.1349
16354W        W20654   9.494   6.379   0.822  0.1621  0.0601  0.0225
16355W        W20655   5.416   3.305  29.530 -0.2037  0.3486 -0.0626
16356W        W20656   7.747   1.351  26.809  0.1151  0.0242 -0.1970
16357W        W20657   0.993   4.922  31.678 -0.0817  0.0958  0.0496
16358W        W20658  20.267   3.345   2.762 -0.1416  0.1685  0.0596
16359W        W20659   0.095   1.085   1.311 -0.0721 -0.0412 -0.1400
16360W        W20660  10.050   2.142  29.285  0.0081  0.1588 -0.1146
16361W        W20661  13.385   5.644  33.756  0.0240 -0.1637 -0.0737
16362W        W20662  24.842   3.764  35.216 -0.0552  0.3619  0.1137
16363W        W20663   9.661   0.285  12.470 -0.1694  0.0041  0.2638
16364W        W20664   0.006   4.953  32.506  0.3372  0.3756 -0.3247
16365W        W20665   1.193   0.017  27.035  0.1245  0.2009 -0.0766
16366W        W20666  14.023   1.696   2.708  0.0796  0.1422  0.0352
16367W        W20667   7.221   4.621  14.683 -0.2314 -0.2560  0.1088
16368W        W20668  24.731   0.647  11.709  0.4064  0.1147 -0.2387
16369W        W20669  21.950   1.870  21.667 -0.2698  0.0393  0.0023
16370W        W20670  18.954   2.538   9.048  0.1999  0.1008 -0.0628
16371W        W20671   8.663   6.396  25.212 -0.3420 -0.5133  0.1796
16372W        W20672   9.342   0.821   9.480 -0.0549 -0.1400 -0.2376
16373W        W20673   0.581   5.612  10.995  0.2027  0.2371  0.1874
16374W        W20674  21.499   1.102  15.381  0.1204 -0.1414  0.0452
16375W        W20675   4.708   4.148  24.310  0.0957  0.2712  0.0618
16376W        W20676  18.900   6.204  11.113 -0.0099 -0.0375  0.4020
16377W        W20677  13.412   0.233   9.649 -0.1726  0.2350 -0.1707
16378W        W20678  24.829   1.502  24.875  0.1223  0.2408 -0.1916
16379W        W20679  12.695   6.403  34.272  0.1337 -0.1197 -0.0646
16380W        W20680   5.736   0.317  32.189  0.0422 -0.0621  0.0159
16381W        W20681  18.296   6.026  11.170 -0.2206 -0.3183  0.1995
16382W        W20682  10.087   2.833  14.920  0.1436 -0.3684  0.0486
16383W        W20683  22.619   2.717  27.758  0.0999  0.1904  0.0065
16384W        W20684  17.787   2.337  31.949 -0.0020 -0.1528 -0.0900
16385W        W20685   5.353   4.762   3.683  0.0740 -0.2009 -0.2381
16386W        W20686  24.409   1.844   0.428  0.1058 -0.2763 -0.1006
16387W        W20687   9.300   2.851  22.699  0.3073  0.1134  0.0568
16388W        W20688   2.297   3.466   9.108  0.1498 -0.0320  0.0637
16389W        W20689  15.349   1.765  10.116  0.0594  0.0909  0.0101
16390W        W20690  25.899   5.656   3.248  0.2737 -0.1863  0.0946
16391W        W20691  17.468   4.947  21.205  0.0829  0.0224  0.0962
16392W        W20692  12.345   6.558   8.086  0.1013  0.1181 -0.0572
16393W        W20693  25.115   0.064  20.368 -0.1860  0.1903 -0.1866
16394W        W20694   8.420   4.199   5.765 -0.0381 -0.0394 -0.0896
16395W        W20695   4.060   3.895  29.766  0.5145 -0.0302 -0.1228
16396W        W20696  17.765   5.502   6.240 -0.0624  0.1012  0.0145
16397W        W20697  13.175   3.878  13.009  0.0155 -0.0523 -0.1622
16398W        W20698   0.615   4.892  31.261 -0.0851 -0.0949 -0.0752
16399W        W20699   3.415   0.975  35.717  0.2352 -0.0359 -0.0444
16400W        W20700   8.221   1.074   0.142 -0.1928  0.0296 -0.3289
16401W        W20701  16.986   3.050  13.977 -0.0677 -0.1246 -0.1373
16402W        W20702  18.362   4.562  30.224  0.0383 -0.1317 -0.1132
16403W        W20703  15.214   5.374  29.998  0.0840  0.1927  0.1008
16404W        W20704  14.448   2.349   3.031  0.4127  0.0720  0.0310
16405W        W20705  14.925   1.771   8.074 -0.0519 -0.1871 -0.0763
16406W        W20706  14.340   2.012   2.589 -0.2860 -0.0903  0.0951
16407W        W20707   0.061   6.479  32.537  0.1385 -0.0576  0.1515
16408W        W20708  24.907   5.184   6.980  0.0327 -0.0054 -0.1021
16409W        W20709  12.022   4.192   0.053 -0.0596  0.0814 -0.0836
16410W        W20710  22.529   2.152  28.549 -0.2272 -0.0095  0.2094
16411W        W20711   3.053   5.450   7.974  0.0623  0.2335  0.0070
16412W        W20712   4.386   1.968  22.662 -0.4788  0.0122 -0.3115
16413W        W20713  16.821   1.880  12.229 -0.1197 -0.0355  0.0961
16414W        W20714   8.683   1.666  25.418  0.1510  0.2264 -0.3033
16415W        W20715   3.234   1.992   1.545 -0.1339  0.0569 -0.2730
16416W        W20716  20.803   0.719  26.170  0.0790  0.0723  0.1345
16417W        W20717   9.295   3.906   4.459 -0.0762 -0.3100 -0.0382
16418W        W20718  25.966   1.649  33.560 -0.2374 -0.0810 -0.3500
16419W        W20719  15.741   0.462   2.964 -0.1000 -0.2028 -0.1177
16420W        W20720  22.784   5.368  27.853  0.2079  0.0162 -0.1676
16421W        W20721   7.393   1.853   5.929 -0.1185 -0.0116  0.0193
16422W        W20722  20.892   4.381   6.009 -0.1735  0.1622  0.2621
16423W        W20723   5.838   2.141  26.774 -0.2663 -0.1608 -0.1889
16424W        W20724   1.252   1.158   1.725  0.1012  0.0644  0.0320
16425W        W20725   1.210   2.961   4.063  0.1956  0.0984 -0.2278
16426W        W20726  15.498   5.980  29.234 -0.1237  0.1467  0.0913
16427W        W20727   1.482   6.549  36.014 -0.1686  0.1704 -0.0776
16428W        W20728  11.391   0.334   2.001  0.1423 -0.1939  0.4010
16429W        W20729  20.065   3.774   8.049  0.2923 -0.1983 -0.1648
16430W        W20730   0.825   1.293  10.744  0.2173 -0.1597 -0.2807
16431W        W20731  23.478   3.317  12.014  0.1515 -0.0002  0.2608
16432W        W20732  16.203   6.051  21.441  0.0860 -0.0995 -0.2235
16433W        W20733  18.914   5.547  21.605 -0.2622 -0.0719  0.0655
16434W        W20734   8.385   2.827  26.098  0.0022 -0.0963  0.0211
16435W        W20735  14.514   1.715   7.091  0.0241  0.2770  0.1316
16436W        W20736  15.536   0.589   8.774 -0.2197  0.1394 -0.1597
16437W        W20737  25.053   2.183  34.341  0.2605  0.1265 -0.0456
16438W        W20738   9.347   2.847  31.825 -0.1557 -0.0020 -0.0974
16439W        W20739   6.200   0.148  35.123 -0.1107 -0.2276  0.1120
16440W        W20740  21.269   0.638  14.931  0.0891  0.1300 -0.2595
16441W        W20741  23.741   4.688   2.913 -0.5132 -0.1385 -0.0726
16442W        W20742  10.152   4.858  35.033  0.0361  0.2347  0.3018
16443W        W20743  11.098   0.382   4.050 -0.3449  0.0832 -0.1961
16444W        W20744  24.181   5.878  23.151  0.1902 -0.0583  0.0341
16445W        W20745   6.553   0.622  35.047 -0.0658  0.1293  0.1817
16446W        W20746   3.864   3.571   1.013 -0.0115  0.0893  0.0642
16447W        W20747  15.416   1.184   4.353 -0.1126 -0.0407 -0.1700
16448W        W20748   3.172   1.227   0.443  0.1034 -0.1109 -0.0293
16449W        W20749  13.886   5.245  24.622  0.0375  0.0096 -0.3238
16450W        W20750  13.159   0.897  14.832  0.1618 -0.1714  0.1137
16451W        W20751   0.436   2.151  10.626  0.2080 -0.1187 -0.0356
16452W        W20752   0.830   5.072  29.346  0.3482  0.0993 -0.2190
16453W        W20753  16.626   1.156  30.904  0.2060 -0.0744 -0.2131
16454W        W20754   1.354   4.684   6.487 -0.5127  0.2592 -0.1494
16455W        W20755  24.390   5.858   1.450 -0.0196 -0.0208 -0.0183
16456W        W20756  25.543   4.066  23.803  0.0413  0.2785 -0.0937
16457W        W20757  22.146   4.096   1.687 -0.1363 -0.1356 -0.2511
16458W        W20758   2.765   1.934   6.182 -0.0788  0.3230  0.1406
16459W        W20759  15.673   2.041  35.570  0.2459  0.0280  0.1686
16460W        W20760  26.088   2.429  23.195  0.1451 -0.0556 -0.0743
16461W        W20761   2.017   3.144  27.761 -0.0813 -0.0848 -0.1194
16462W        W20762   3.643   3.337  25.110 -0.2358 -0.1297 -0.1048
16463W        W20763  21.216   2.095   5.995 -0.0439  0.1393  0.0618
16464W        W20764  24.995   4.742   5.333  0.0801 -0.1374 -0.0246
16465W        W20765   5.211   3.305   6.122  0.3520 -0.0369 -0.2824
16466W        W20766  11.739   5.347   2.391 -0.3028  0.0175  0.1494
16467W        W20767  24.437   4.080  24.748  0.0971  0.1984 -0.0714
16468W        W20768  21.614   5.682   9.876  0.3149  0.1913 -0.0355
16469W        W20769   1.882   2.525  35.609  0.3033  0.0975 -0.0792
16470W        W20770   1.867   3.708  10.447 -0.1833 -0.2363  0.3882
16471W        W20771   3.167   3.403  25.990 -0.2695 -0.1286 -0.2786
16472W        W20772  10.202   1.073   6.371  0.0444 -0.0681 -0.1119
16473W        W20773  22.140   3.345   6.380 -0.3188 -0.0812  0.0200
16474W        W20774   5.239   4.168   6.942 -0.2217 -0.0626 -0.2112
16475W        W20775   5.637   1.434   1.755  0.1070  0.0686 -0.1726
16476W        W20776   6.819   5.997   5.104 -0.1508 -0.1113  0.1128
16477W        W20777  10.491   6.515  10.143 -0.1500 -0.1250 -0.0898
16478W        W20778  24.402   6.566  36.026  0.0905  0.1600  0.0932
16479W        W20779  13.701   1.401  35.243 -0.0287  0.1952 -0.4309
16480W        W20780   1.590   1.834  12.493  0.0515 -0.0926  0.1608
16481W        W20781  21.191   6.247  10.778  0.2885 -0.1201 -0.1170
16482W        W20782  23.223   1.996   2.919  0.3375  0.2422  0.1190
16483W        W20783   9.506   6.365  14.432 -0.2802  0.0308  0.1077
16484W        W20784  23.072   0.719  28.106  0.0032 -0.4685  0.1857
16485W        W20785  19.963   0.470  25.730  0.0597 -0.0151 -0.0561
16486W        W20786  11.965   4.509  24.328 -0.0339 -0.0328  0.1651
16487W        W20787   3.703   0.958  28.466  0.2296  0.0664 -0.1057
16488W        W20788  17.196   1.888  32.107  0.0769  0.3369  0.0523
16489W        W20789  13.345   3.870  32.516 -0.3565 -0.3407 -0.0543
16490W        W20790  14.185   1.846  33.484 -0.1589 -0.2084  0.1008
16491W        W20791   6.273   2.693   6.805 -0.0069 -0.0171 -0.2890
16492W        W20792  26.015   1.528   7.302  0.0424  0.2648  0.1095
16493W        W20793  13.782   1.521  12.595 -0.1616 -0.1197  0.0086
16494W        W20794  22.708   6.050  22.587  0.0709  0.1642 -0.1639
16495W        W20795  24.566   4.782  14.690  0.0731  0.2062 -0.0784
16496W        W20796   8.668   0.375  24.263 -0.1029 -0.2931 -0.0084
16497W        W20797   2.210   4.420  32.632  0.3233  0.0980 -0.0214
16498W        W20798   4.919   2.620  34.777 -0.0011  0.0052  0.3425
16499W        W20799  17.641   6.244   9.341 -0.0281 -0.2519 -0.0290
16500W        W20800  13.171   5.929   3.629  0.0783 -0.2410  0.0285
16501W        W20801  15.414   0.480  34.339  0.3014 -0.0174 -0.0458
16502W        W20802   2.750   6.592   6.690 -0.0628 -0.0920 -0.1957
16503W        W20803   4.183   3.574   8.949  0.0070 -0.2285 -0.0639
16504W        W20804   4.574   1.579  25.370  0.0022  0.0276  0.1860
16505W        W20805  12.718   4.103   7.247  0.0228 -0.2275 -0.1631
16506W        W20806  21.720   5.806  28.210  0.1024 -0.0137  0.1205
16507W        W20807  20.934   1.444  14.615  0.0596 -0.2892 -0.2724
16508W        W20808  26.178   0.988   7.711  0.1260  0.3410  0.1084
16509W        W20809  19.393   5.754  28.259 -0.0593  0.1437  0.1545
16510W        W20810  12.594   4.593   3.331  0.0164  0.0660 -0.1472
16511W        W20811   0.407   3.894  24.690 -0.6517 -0.1464 -0.1469
16512W        W20812   8.465   4.016  34.121 -0.1006  0.1524 -0.2773
16513W        W20813  15.833   0.555  11.443  0.1479  0.2205  0.1052
16514W        W20814  24.693   6.233  26.435  0.0629  0.1713  0.0031
16515W        W20815   6.892   3.721   7.345 -0.1202 -0.2242 -0.1964
16516W        W20816  24.816   1.161  11.606  0.2510 -0.4475 -0.1107
16517W        W20817   8.941   3.704   9.067  0.1594  0.1990 -0.0536
16518W        W20818  12.562   1.291  33.733  0.0651 -0.1594 -0.0850
16519W        W20819   3.416   4.233  21.502  0.2012 -0.0746  0.2091
16520W        W20820  25.856   0.639   2.279 -0.0144  0.1381  0.0398
16521W        W20821   5.623   5.084   6.136  0.0223  0.4406  0.1794
16522W        W20822   8.545   1.961  15.613 -0.0860 -0.3115  0.0935
16523W        W20823  26.015   1.337  13.247  0.1409  0.0913  0.1349
16524W        W20824  25.148   1.208   9.403  0.0588 -0.0451  0.0305
16525W        W20825   1.263   4.869   9.076 -0.2407 -0.2866 -0.1760
16526W        W20826   6.242   2.235  21.755 -0.4145 -0.3093 -0.1240
16527W        W20827   6.046   1.972  15.014  0.0831 -0.1071  0.1351
16528W        W20828  20.127   1.163  28.062 -0.2074 -0.0812 -0.0167
16529W        W20829  21.983   3.175  27.764  0.1510 -0.0239 -0.0639
16530W        W20830   3.227   1.701  11.714 -0.0645  0.0556 -0.0469
16531W        W20831  10.012   0.557  30.528  0.0179  0.0518  0.1100
16532W        W20832  25.128   2.484  33.265 -0.0221  0.1791 -0.1691
16533W        W20833   0.216   5.864  29.783 -0.0131  0.3051 -0.2242
16534W        W20834   6.368   6.322  35.899  0.1770 -0.1490 -0.1587
16535W        W20835  21.152   1.550  26.304  0.3586  0.2083  0.2459
16536W        W20836  11.575   1.082   7.584 -0.1957 -0.1288 -0.1544
16537W        W20837  16.430   4.674  31.219  0.1428 -0.0287 -0.1242
16538W        W20838  25.976   6.280  23.918 -0.1681 -0.1518  0.0531
16539W        W20839   3.149   3.342  13.786  0.0166  0.1857  0.0494
16540W        W20840   3.973   5.195  30.866 -0.1644 -0.0102 -0.0610
16541W        W20841  18.145   4.809  10.918 -0.0940 -0.2055 -0.0291
16542W        W20842   7.641   4.811  28.065 -0.0879  0.0776  0.0093
16543W        W20843  16.381   3.914  20.653  0.0185 -0.1903  0.1192
16544W        W20844  23.112   5.275  21.583  0.2159  0.1874  0.1462
16545W        W20845   7.478   3.517  21.237  0.1367 -0.0460  0.1304
16546W        W20846   8.274   1.358  27.526  0.4910  0.2024  0.0662
16547W        W20847  25.448   3.990  34.384 -0.2252 -0.0180  0.0777
16548W        W20848   5.027   3.121   3.574 -0.2921 -0.1291 -0.0045
16549W        W20849  24.010   6.179   9.510  0.2211  0.2153 -0.1219
16550W        W20850  18.788   3.572   7.836 -0.1222  0.0839  0.2636
16551W        W20851   9.012   5.120  34.326  0.0410 -0.4009 -0.1693
16552W        W20852  10.359   0.370  32.056  0.2415  0.1858  0.0873
16553W        W20853  15.230   0.229  30.125 -0.1335  0.3430  0.2009
16554W        W20854  21.919   5.640  13.427  0.0442  0.1632  0.1466
16555W        W20855  17.345   4.836  27.404 -0.2076  0.1318 -0.2702
16556W        W20856   0.345   0.542  23.297 -0.1472  0.0446  0.0566
16557W        W20857   8.089   6.017  29.606 -0.5414 -0.0085  0.2935
16558W        W20858  24.336   1.734  31.641  0.1637 -0.2918  0.2963
16559W        W20859  22.219   1.466  15.181 -0.0350  0.3057 -0.0291
16560W        W20860  20.049   4.994  28.244 -0.0217 -0.1963  0.1615
16561W        W20861   6.579   0.181  34.280 -0.2391 -0.2321  0.0605
16562W        W20862  16.904   2.751   5.858 -0.3337 -0.2750 -0.0594
16563W        W20863  17.139   6.107  15.426 -0.2160  0.0764 -0.1657
16564W        W20864  17.363   2.379   1.960  0.5765 -0.0335  0.1771
16565W        W20865  23.488   2.975  27.774 -0.2503  0.0381 -0.2948
16566W        W20866   6.649   6.154  25.096  0.3387 -0.0122  0.2278
16567W        W20867   8.707   3.597  13.687  0.1544  0.0955  0.1036
16568W        W20868  10.908   2.183   8.927  0.1647 -0.0114  0.2009
16569W        W20869  19.277   4.348  32.170  0.3389 -0.1264  0.1589
16570W        W20870   0.715   5.898  11.385  0.0183  0.0209  0.1765
16571W        W20871   7.197   5.722  21.881  0.3297 -0.1465  0.1461
16572W        W20872  23.943   3.417  34.970 -0.0675 -0.2114  0.2901
16573W        W20873  20.540   0.725  32.599  0.0919  0.1515 -0.0729
16574W        W20874  16.100   2.518  24.417  0.2981 -0.0753 -0.0919
16575W        W20875  13.264   3.495  14.266  0.2273 -0.3165 -0.3584
16576W        W20876   6.605   3.230   9.972 -0.2666  0.3985 -0.3341
16577W        W20877  14.810   5.421   8.308  0.0402 -0.2405  0.0695
16578W        W20878  24.197   6.554  34.698  0.1695  0.1202  0.1586
16579W        W20879   3.706   1.367  25.529  0.0645  0.0517  0.1577
16580W        W20880  24.136   2.037   3.395  0.0135 -0.1309  0.2802
16581W        W20881  24.063   1.116   1.909  0.0474 -0.2032 -0.1427
16582W        W20882  18.184   2.264   4.296  0.1504  0.2040 -0.0054
16583W        W20883   2.978   2.317   9.960 -0.0617 -0.0054 -0.0646
16584W        W20884  12.472   4.914   5.657  0.0873 -0.1978  0.1419
16585W        W20885  25.242   0.071  33.458 -0.2007  0.1912  0.2235
16586W        W20886   3.253   2.300  26.542 -0.2263 -0.0530 -0.1378
16587W        W20887   8.365   3.934  11.610 -0.0010  0.1689 -0.2935
16588W        W20888   4.754   2.218  13.758  0.0760  0.0466 -0.0494
16589W        W20889  25.746   5.847  20.308 -0.0028 -0.0191 -0.0252
16590W        W20890  18.142   5.932  15.367  0.1827 -0.1186  0.1115
16591W        W20891  12.825   1.882  34.569  0.1362 -0.2310  0.0701
16592W        W20892  21.540   3.697  15.338 -0.0620  0.0764  0.0268
16593W        W20893  10.149   4.907  26.141  0.1288  0.0799 -0.4119
16594W        W20894  13.001   5.209  33.818 -0.1325 -0.0493 -0.1017
16595W        W20895   1.440   6.572  25.534  0.0333  0.0362  0.1385
16596W        W20896  19.398   4.350   8.630 -0.0481 -0.0158 -0.1013
16597W        W20897   4.684   0.647  20.628 -0.3976 -0.0164 -0.4012
16598W        W20898  21.163   0.420  29.097 -0.2101  0.0354 -0.0051
16599W        W20899   8.691   2.978  28.998 -0.0956 -0.0142 -0.1627
16600W        W20900  18.164   3.337  28.738  0.3025  0.0059 -0.3245
16601W        W20901  17.885   3.790  33.849 -0.1358  0.1831 -0.0906
16602W        W20902  19.946   2.379   5.422 -0.0405 -0.0030 -0.0758
16603W        W20903  10.378   2.902  14.292  0.1219 -0.0263 -0.1143
16604W        W20904  22.103   2.272  12.109  0.2118  0.1553  0.0682
16605W        W20905   9.856   4.268  24.729 -0.0828 -0.0427 -0.0290
16606W        W20906  14.140   6.108  31.243  0.0703 -0.1813 -0.3024
16607W        W20907  13.898   4.685   4.761 -0.1801 -0.0970 -0.0020
16608W        W20908  20.810   3.457  25.030 -0.0827 -0.0322  0.0571
16609W        W20909   9.205   1.112   9.100  0.4090 -0.0321 -0.2334
16610W        W20910   1.385   5.021  10.490 -0.0593 -0.0077  0.1779
16611W        W20911  25.066   4.845   3.140  0.1299 -0.1501 -0.0540
16612W        W20912   1.486   0.563  13.464  0.0793  0.1122  0.1529
16613W        W20913  11.910   0.392   2.801  0.0660  0.0013  0.2071
16614W        W20914  14.467   5.622  15.664 -0.0287 -0.1613  0.2139
16615W        W20915   4.514   6.359  13.598 -0.1729 -0.1185 -0.1873
16616W        W20916   5.711   5.240  15.146  0.3976 -0.2349 -0.1374
16617W        W20917  25.021   0.356   4.176  0.1512  0.2097  0.0195
16618W        W20918  17.657   1.747  26.966  0.2736 -0.1066  0.0804
16619W        W20919  19.890   0.029   5.181  0.2642 -0.1938  0.1685
16620W        W20920   0.565   4.749  22.334  0.0534 -0.0000  0.0073
16621W        W20921  18.100   5.576  21.171  0.1791  0.2368 -0.2206
16622W        W20922   4.478   4.698  36.047 -0.0152  0.3477 -0.2347
16623W        W20923  13.458   0.271  10.795 -0.0826 -0.0983  0.1267
16624W        W20924  16.025   5.019  26.956  0.1360  0.0820 -0.0286
16625W        W20925   5.618   0.776  25.838  0.0926 -0.0342 -0.0604
16626W        W20926   4.028   0.676   2.321 -0.1429 -0.4369 -0.0591
16627W        W20927   1.464   0.202   0.324 -0.1287  0.0137  0.1201
16628W        W20928   1.811   2.585  11.859 -0.1383  0.0917  0.0542
16629W        W20929   9.283   2.852  23.206 -0.0358 -0.1978 -0.0899
16630W        W20930   2.943   1.717  12.159  0.2536  0.1931 -0.2510
16631W        W20931  17.777   5.843   2.850  0.2273 -0.0522 -0.0515
16632W        W20932  20.717   2.854  10.300  0.0763  0.2523  0.0482
16633W        W20933   1.129   3.439  15.107  0.0517 -0.3532  0.0399
16634W        W20934  10.041   3.403  26.572 -0.3012  0.0294 -0.1352
16635W        W20935   5.023   2.440  33.633 -0.2314  0.0870  0.0757
16636W        W20936  22.255   4.035   3.221  0.0357 -0.1759 -0.0591
16637W        W20937   9.156   5.614  33.389 -0.1963 -0.0540 -0.3853
16638W        W20938  11.421   1.083  12.443  0.0056 -0.3243  0.0798
16639W        W20939  12.246   2.045  10.283 -0.2934 -0.2559  0.2636
16640W        W20940  18.438   3.502   8.261  0.1337 -0.2263 -0.0983
16641W        W20941  10.883   4.676   2.897  0.1738  0.2688 -0.0616
16642W        W20942  15.660   4.837   7.865  0.1187 -0.1229  0.0628
16643W        W20943  11.740   2.426  11.022  0.1915  0.0275  0.0907
16644W        W20944  25.513   4.012  15.082  0.1802  0.0205  0.0092
16645W        W20945  25.208   6.302  23.530 -0.2613 -0.1625  0.3063
16646W        W20946   1.954   4.149  33.742 -0.0786  0.3420 -0.0178
16647W        W20947  19.709   5.002   0.838 -0.0349  0.1038 -0.2537
16648W        W20948   3.508   2.662   0.879  0.3093  0.0428  0.1402
16649W        W20949  13.690   1.097  26.013  0.0516  0.0409 -0.0334
16650W        W20950   1.963   6.561   1.972 -0.0588 -0.4801 -0.2260
16651W        W20951  18.407   3.799  13.257 -0.2957  0.3146  0.0483
16652W        W20952   3.273   2.473  25.645 -0.1354  0.2134  0.0318
16653W        W20953  18.090   0.234  35.565 -0.1162 -0.0106  0.0376
16654W        W20954  23.291   5.346  30.508  0.0095  0.1315 -0.0356
16655W        W20955  24.264   2.326  10.576  0.0346 -0.4293 -0.0460
16656W        W20956  10.983   3.427  30.463  0.0511  0.0567 -0.2115
16657W        W20957   6.268   4.915  11.146  0.3909 -0.1516 -0.0277
16658W        W20958   6.339   2.416  32.373  0.1644  0.0141  0.1805
16659W        W20959  12.661   1.509  26.708 -0.0984 -0.2745  0.1275
16660W        W20960   3.328   3.132   9.510  0.0165  0.1289  0.2788
16661W        W20961   8.028   0.348   5.634  0.0660 -0.0426  0.2622
16662W        W20962  23.314   3.003   2.938  0.0076 -0.0043 -0.2398
16663W        W20963  17.193   6.360   9.070  0.0526  0.1391 -0.3719
16664W        W20964  22.992   6.102  29.936 -0.3551 -0.0249  0.0837
16665W        W20965  24.148   5.146   2.229 -0.0194 -0.0946 -0.1084
16666W        W20966   7.946   0.090  33.656 -0.0495  0.0588 -0.0387
16667W        W20967   7.365   4.445  32.822 -0.0742  0.1074  0.4300
16668W        W20968  23.071   1.617   6.673  0.1573 -0.0970  0.1692
16669W        W20969   6.811   2.352   5.679 -0.0861 -0.1562  0.1233
16670W        W20970  16.961   4.227   9.700 -0.2219  0.1547  0.2335
16671W        W20971   7.545   2.336  25.225  0.0628 -0.1298 -0.1936
16672W        W20972  12.847   4.710  28.236  0.4299  0.2978 -0.1830
16673W        W20973   5.124   5.166   5.945  0.1411  0.0716 -0.0276
16674W        W20974   1.543   5.975  34.318  0.0800 -0.1562 -0.1728
16675W        W20975  20.707   5.544   6.380  0.3653  0.0892  0.0357
16676W        W20976  12.554   1.795   9.302  0.2731 -0.0696  0.4524
16677W        W20977  14.729   2.998  14.647 -0.2643 -0.0898 -0.4945
16678W        W20978  23.586   0.783  23.958  0.0012  0.0142 -0.1263
16679W        W20979  13.047   5.952  25.333  0.0649  0.0311 -0.0404
16680W        W20980  16.532   3.128  26.980  0.0456 -0.1335  0.2524
16681W        W20981   0.204   3.921  28.143  0.1410  0.0118 -0.1104
16682W        W20982  21.058   0.875  14.524  0.1614  0.0694 -0.1753
16683W        W20983  10.876   5.082  13.467 -0.0355 -0.3159  0.0241
16684W        W20984  20.977   0.986  13.967 -0.0608 -0.4348  0.2107
16685W        W20985  23.107   2.634  34.570  0.0335 -0.3080 -0.0234
16686W        W20986   6.519   0.117  27.635 -0.0718 -0.3480 -0.0592
16687W        W20987  16.070   0.137  11.021  0.1172  0.0574  0.1296
16688W        W20988   5.431   6.288  21.255  0.1445 -0.0399 -0.0554
16689W        W20989   4.041   1.229   6.045  0.0791 -0.2127  0.2541
16690W        W20990   2.132   1.416  26.454 -0.3191 -0.1465 -0.1508
16691W        W20991  16.300   1.415   6.637  0.0563 -0.3192  0.1376
16692W        W20992   3.206   5.077   6.836  0.1027 -0.0824  0.0465
16693W        W20993   7.474   4.398  23.144  0.0139 -0.0428  0.0219
16694W        W20994  22.419   3.711  25.802  0.2007  0.2747  0.3155
16695W        W20995  21.236   4.487  10.108  0.1326 -0.3902  0.1419
16696W        W20996  21.084   0.637  12.602  0.1887 -0.1728 -0.0049
16697W        W20997  24.886   5.149   1.137 -0.0918 -0.0568  0.0387
16698W        W20998   3.921   1.740   7.351  0.0448 -0.2201  0.0347
16699W        W20999   1.374   4.126  25.541 -0.2535  0.0096 -0.1779
16700W        W21000  11.267   4.014  34.838  0.1080  0.0185 -0.0392
16701W        W21001   6.735   5.324  14.757  0.1559  0.1796  0.3140
16702W        W21002  24.056   3.843   8.739 -0.1286 -0.0429  0.0235
16703W        W21003   1.533   6.538  34.453  0.2673 -0.0750 -0.1681
16704W        W21004  18.692   4.628  34.194 -0.2268 -0.1676  0.1193
16705W        W21005   9.585   2.645  26.876 -0.3968  0.0027 -0.3347
16706W        W21006   8.340   2.723  27.872  0.2930 -0.0311 -0.0345
16707W        W21007   2.232   4.112  10.453 -0.2339 -0.6604 -0.0840
16708W        W21008   4.643   0.035  30.498  0.1579  0.1765  0.0331
16709W        W21009   7.132   3.813  28.995 -0.2299  0.0937  0.1440
16710W        W21010  16.683   0.748  29.099  0.0264 -0.0661 -0.0225
16711W        W21011  18.728   5.834   6.517  0.0347 -0.3729  0.1668
16712W        W21012  23.369   2.689  13.449  0.1398  0.1825 -0.0601
16713W        W21013  22.492   4.283  22.550  0.0472  0.1522  0.0396
16714W        W21014   4.940   4.056  22.369  0.1129  0.0982  0.1139
16715W        W21015  22.540   4.611  29.937  0.0780 -0.1148  0.2927
16716W        W21016  12.496   2.026  13.769  0.0941 -0.0102  0.1487
16717W        W21017  20.785   2.219  29.360 -0.1696 -0.2187  0.1596
16718W        W21018  18.524   1.701  25.257 -0.0312 -0.1095  0.2473
16719W        W21019   9.402   1.905   7.693 -0.2686  0.0311 -0.1538
16720W        W21020   3.706   1.034  14.017 -0.1977 -0.1644  0.0675
16721W        W21021   6.287   0.098  10.580 -0.0266 -0.1707  0.0595
16722W        W21022  11.626   1.905  20.837  0.0998  0.2734  0.0232
16723W        W21023   0.620   3.134  30.516  0.1474  0.2691  0.0553
16724W        W21024  17.527   2.456  11.319  0.1678 -0.2350 -0.2155
16725W        W21025  24.815   4.491   4.105  0.0572 -0.0370  0.1882
16726W        W21026   6.597   0.739  14.311  0.0842  0.1051  0.1760
16727W        W21027   0.055   0.243  14.207  0.0800  0.1300  0.3169
16728W        W21028  11.016   6.443   4.924 -0.1497  0.0656 -0.0216
16729W        W21029   5.566   2.428   9.420  0.0483  0.1061  0.0206
16730W        W21030  18.503   6.001  22.995  0.0353 -0.1066 -0.0145
16731W        W21031   8.459   5.539  10.035  0.0158 -0.1508  0.0200
16732W        W21032   5.875   4.139   6.431  0.1984 -0.0058  0.0474
16733W        W21033   6.924   3.193   3.083  0.2336 -0.1910  0.2480
16734W        W21034  25.031   3.165   0.124  0.0305 -0.3009 -0.2814
16735W        W21035  22.280   1.406  13.323 -0.0147 -0.0802  0.1157
16736W        W21036   3.218   4.857  28.676 -0.0851 -0.0457 -0.0410
16737W        W21037   9.519   5.463  21.657 -0.0297  0.3218  0.1661
16738W        W21038  18.042   3.570  31.763 -0.0061  0.0557  0.0072
16739W        W21039   2.716   4.768  26.941 -0.1439 -0.0702 -0.1896
16740W        W21040  11.327   6.518  29.858 -0.1955  0.0017 -0.3385
16741W        W21041  11.529   1.974  29.173  0.1697  0.2085  0.0025
16742W        W21042  19.456   4.231  14.303  0.0307 -0.0909 -0.0302
16743W        W21043  18.712   3.942  14.816 -0.0697  0.1483 -0.1537
16744W        W21044  10.136   0.692  10.369 -0.2816 -0.1935 -0.0979
16745W        W21045  23.349   1.463  23.262  0.1532 -0.1837 -0.0208
16746W        W21046   8.123   0.675  11.836 -0.3257 -0.0905 -0.0552
16747W        W21047  20.051   3.654  13.213  0.6031 -0.1629  0.0578
16748W        W21048   0.663   4.705   0.350  0.1608  0.0975  0.1801
16749W        W21049   6.085   6.142  26.970  0.0943  0.1746 -0.0526
16750W        W21050   1.503   4.020   5.796  0.2191 -0.0830 -0.0564
16751W        W21051   0.287   4.676   9.044  0.0534 -0.2033 -0.1399
16752W        W21052  20.145   6.423  23.088  0.1882  0.2348 -0.2267
16753W        W21053   3.321   4.137  29.163 -0.3283  0.2153 -0.0260
16754W        W21054  10.424   3.713  11.531  0.4154 -0.0014  0.1605
16755W        W21055   5.849   5.388   8.345 -0.0023 -0.2992 -0.0936
16756W        W21056  12.186   3.485  20.659  0.1018 -0.1799  0.2180
16757W        W21057   9.650   5.155  25.460  0.1518 -0.1164 -0.1868
16758W        W21058   2.256   5.806  13.344  0.2956 -0.0752 -0.0891
16759W        W21059   9.516   3.076  27.150  0.2732  0.1691 -0.0242
16760W        W21060   9.691   1.929  13.395 -0.0466  0.0548 -0.3793
16761W        W21061   4.922   1.520   5.729 -0.2252 -0.1940  0.1329
16762W        W21062  20.013   3.324   7.329 -0.1493 -0.3231 -0.0082
16763W        W21063  24.123   2.818   6.027 -0.1829 -0.1132 -0.0666
16764W        W21064  10.366   6.500  15.338 -0.0712  0.2386  0.0837
16765W        W21065  21.896   3.509   2.718  0.1218  0.1366 -0.2266
16766W        W21066   2.366   0.982   6.075 -0.1172  0.0474  0.0521
16767W        W21067   8.654   5.509  11.725  0.2233  0.0647  0.0505
16768W        W21068  22.844   0.683   8.014 -0.0392 -0.2344  0.2965
16769W        W21069   1.945   3.532  12.715  0.0556 -0.0723 -0.2279
16770W        W21070   9.574   5.380  33.600 -0.1235  0.0474 -0.1931
16771W        W21071  14.269   6.126  22.380 -0.2955 -0.1419 -0.2087
16772W        W21072   7.216   0.378   8.303 -0.1704 -0.3591  0.3796
16773W        W21073  22.868   6.235  29.040 -0.2929  0.1746 -0.0950
16774W        W21074  26.090   4.031   0.157  0.1269  0.0590  0.1619
16775W        W21075   3.266   5.804   8.428  0.1360 -0.0516 -0.3827
16776W        W21076  12.979   1.263  15.663  0.1446  0.1070 -0.1776
16777W        W21077  21.888   1.129  23.320 -0.1835 -0.0603 -0.0940
16778W        W21078  17.851   2.512  23.387 -0.0495  0.2380 -0.0990
16779W        W21079   8.871   5.438  10.309 -0.1759  0.0410  0.1009
16780W        W21080  21.022   2.504  29.659 -0.1429 -0.0056  0.0499
16781W        W21081  11.137   3.392  12.528  0.2490  0.0025 -0.0616
16782W        W21082  12.706   5.233   7.741  0.0819 -0.2284  0.3327
16783W        W21083   5.685   3.555  34.124  0.0641 -0.0718  0.0279
16784W        W21084   8.371   6.286  28.352  0.0267 -0.0687 -0.1712
16785W        W21085  13.727   4.293  22.409  0.0131 -0.0814  0.2118
16786W        W21086  24.877   2.181   0.325 -0.2058 -0.0069 -0.1160
16787W        W21087  20.806   2.739   5.311 -0.2960  0.0937  0.0477
16788W        W21088  18.189   1.247  27.010 -0.0477 -0.2828 -0.1729
16789W        W21089  15.426   1.803  15.289  0.1898  0.1025  0.1780
16790W        W21090  21.670   2.572   0.250 -0.1755 -0.0275  0.1285
16791W        W21091   3.569   5.619   7.562  0.2490  0.0640  0.1666
16792W        W21092   4.188   3.944  27.968  0.0388 -0.3154  0.1141
16793W        W21093   2.928   2.023  23.524 -0.2387  0.1155  0.3836
16794W        W21094  14.434   6.096   4.379  0.1060 -0.2015  0.1280
16795W        W21095   7.229   4.498  28.943  0.1446 -0.1619 -0.1327
16796W        W21096  13.677   3.855   4.919  0.3478 -0.3040 -0.0968
16797W        W21097  15.097   4.297  30.327  0.0374 -0.4638 -0.2750
16798W        W21098  12.974   5.035   7.132  0.2263 -0.0543 -0.1000
16799W        W21099  26.297   3.113   3.130 -0.3459  0.1990 -0.1980
16800W        W21100  18.543   6.360  32.527 -0.3446 -0.2013 -0.1882
16801W        W21101  24.810   0.531  30.951 -0.0993  0.2483  0.1155
16802W        W21102  21.867   2.259   2.909 -0.0712 -0.1250 -0.0185
16803W        W21103  20.844   5.814  24.772  0.0180  0.0434  0.0824
16804W        W21104   0.258   3.842  13.718  0.2668 -0.0517  0.4589
16805W        W21105   5.740   3.813  35.497 -0.0967  0.2407 -0.1739
16806W        W21106  15.941   5.715   9.284 -0.3064  0.0680  0.0084
16807W        W21107  19.490   0.483  30.710 -0.0096 -0.0904 -0.1237
16808W        W21108   2.855   6.100   9.801  0.0832  0.2064  0.4066
16809W        W21109  23.153   1.990   2.063  0.1656  0.0325  0.0811
16810W        W21110   3.805   2.825  10.684 -0.0546  0.0840  0.2120
16811W        W21111  18.040   0.465  21.237  0.2592  0.0393 -0.1421
16812W        W21112  18.007   1.999  22.354  0.1201  0.1893 -0.4482
16813W        W21113   7.178   0.770  28.343 -0.1322  0.1262 -0.0169
16814W        W21114  18.373   0.097  14.125  0.2223  0.0287  0.0016
16815W        W21115   5.628   1.942  13.287 -0.0003 -0.0913  0.3475
16816W        W21116  23.660   0.675   2.205  0.0297  0.2156 -0.1359
16817W        W21117  18.220   2.778  34.604 -0.0441 -0.2788 -0.0228
16818W        W21118   6.358   1.268  29.584 -0.2211  0.1970 -0.0839
16819W        W21119   2.746   0.862   8.929  0.0155  0.2567 -0.1329
16820W        W21120  15.872   2.096  24.736  0.2587 -0.1141 -0.0876
16821W        W21121   1.451   4.124  14.374 -0.2073 -0.4102 -0.4236
16822W        W21122   8.624   6.087  23.088 -0.0636 -0.2221  0.0987
16823W        W21123  14.606   0.797  22.374 -0.0072  0.0404  0.1129
16824W        W21124  22.421   4.699  25.867  0.4111 -0.3175  0.1448
16825W        W21125   3.986   6.385   5.207 -0.2063 -0.1262  0.2902
16826W        W21126   0.024   3.572   3.232 -0.2073  0.1700 -0.2565
16827W        W21127   0.737   0.531  11.760 -0.0879  0.1988  0.0425
16828W        W21128   1.716   3.400  34.105 -0.0376  0.3849 -0.3244
16829W        W21129  10.300   3.462  12.740 -0.0878 -0.2580  0.1605
16830W        W21130  15.524   3.450  29.017 -0.0979 -0.1879 -0.3041
16831W        W21131   7.622   1.365  10.425 -0.1778  0.4167 -0.2384
16832W        W21132  16.695   1.991   3.836  0.3145 -0.0031 -0.0196
16833W        W21133  14.072   5.191   3.094  0.0469 -0.0639  0.0308
16834W        W21134   8.285   1.374  32.999 -0.2058  0.0840 -0.0272
16835W        W21135   4.791   6.412  27.165 -0.0630 -0.0057  0.0850
16836W        W21136  11.279   5.270  23.900 -0.0221 -0.2811 -0.0294
16837W        W21137  13.517   3.429  30.534 -0.0939  0.2958  0.1406
16838W        W21138  13.193   2.678  30.754  0.1517  0.1942 -0.1437
16839W        W21139   9.790   5.819  32.678  0.2271  0.2656 -0.3107
16840W        W21140   0.087   1.536   6.555  0.1615  0.1811  0.0967
16841W        W21141  14.729   2.434  32.533 -0.1967 -0.0628  0.0282
16842W        W21142  20.811   1.991   8.025  0.0967  0.0662 -0.1694
16843W        W21143  12.826   1.888   9.753 -0.0470 -0.1602 -0.0933
16844W        W21144  18.644   0.200  10.577  0.0790  0.1465 -0.0135
16845W        W21145  18.252   4.422  27.547 -0.1371 -0.1574 -0.1003
16846W        W21146  26.050   2.300   8.886  0.1476  0.2577 -0.1123
16847W        W21147   7.307   2.543  28.668  0.0967 -0.0740  0.0022
16848W        W21148   0.743   0.893   3.987 -0.0262 -0.0989 -0.0480
16849W        W21149  14.098   1.931  14.240 -0.0119  0.1848  0.1823
16850W        W21150  15.099   2.480  28.921 -0.1977 -0.0609  0.2904
16851W        W21151   0.633   4.417   9.254 -0.3250  0.0773 -0.3185
16852W        W21152   5.740   0.354  35.387 -0.1146  0.0663 -0.2851
16853W        W21153  11.334   4.529  28.260  0.0780  0.1173  0.3005
16854W        W21154   0.808   1.403  24.881  0.1124 -0.1571 -0.0180
16855W        W21155  21.515   1.301   3.671 -0.0507  0.0465 -0.3480
16856W        W21156  22.914   0.619  26.002 -0.2457  0.1287 -0.1580
16857W        W21157   6.366   3.590  29.483  0.2408 -0.2760  0.0904
16858W        W21158   9.041   6.152  29.145 -0.1048  0.4004  0.2118
16859W        W21159   0.573   2.756  28.657  0.1781 -0.0486  0.0426
16860W        W21160  18.754   2.422  21.509  0.0800 -0.1324  0.0505
16861W        W21161   7.909   3.986  13.165 -0.0276 -0.0318  0.0509
16862W        W21162   2.323   4.496   7.433  0.1582 -0.3393  0.1804
16863W        W21163  21.221   0.897  25.651 -0.0437  0.5027  0.0173
16864W        W21164  24.070   5.288   4.919 -0.2859 -0.1725 -0.1222
16865W        W21165   8.927   2.050  33.349  0.0321  0.0746 -0.0010
16866W        W21166   1.021   6.532   1.289  0.0875 -0.0575 -0.1981
16867W        W21167  11.927   0.140   5.830 -0.1679 -0.2235 -0.0146
16868W        W21168  25.796   0.725   6.889  0.0039  0.1780  0.2322
16869W        W21169   9.946   0.315  33.478 -0.1924  0.0166  0.0338
16870W        W21170  22.604   6.017   1.499  0.2245 -0.2630 -0.1044
16871W        W21171  15.196   4.471  30.739  0.0398 -0.1858  0.0501
16872W        W21172  17.065   1.451  15.401 -0.0649  0.1846  0.2739
16873W        W21173   1.219   2.050   0.848  0.0617  0.0079  0.0288
16874W        W21174   3.717   2.530   6.328 -0.0041 -0.2240 -0.0458
16875W        W21175  15.711   2.329   0.231 -0.0541 -0.1007 -0.1177
16876W        W21176   6.046   5.599  15.148 -0.0759 -0.3195  0.0016
16877W        W21177   2.676   1.115   7.943  0.1054 -0.2382  0.0184
16878W        W21178   5.346   4.212  31.034 -0.1105  0.0940 -0.0308
16879W        W21179  26.073   1.723  25.821  0.1527  0.0957 -0.0990
16880W        W21180  12.438   2.408  24.413 -0.0445 -0.2932  0.0516
16881W        W21181  22.901   4.709  10.439  0.3496  0.3297 -0.1063
16882W        W21182  21.615   6.045   4.256  0.2093  0.0270 -0.1435
16883W        W21183  26.016   4.304   2.929 -0.5054 -0.0956  0.1514
16884W        W21184  14.969   3.128  28.178  0.0627  0.1409  0.2909
16885W        W21185   7.188   1.172   3.792 -0.2584  0.1400 -0.0731
16886W        W21186   0.361   3.956   5.370  0.1234  0.3766 -0.2652
16887W        W21187   8.284   2.682   1.906  0.1492  0.0034  0.1753
16888W        W21188  19.598   6.341  14.224  0.1772 -0.2259  0.0652
16889W        W21189   6.797   3.402   4.510 -0.2386  0.2099  0.1856
16890W        W21190  15.511   6.527  12.515  0.0901  0.1850 -0.3711
16891W        W21191  11.726   5.810   7.945 -0.0547 -0.1048  0.0296
16892W        W21192   9.061   4.975  29.121 -0.0421 -0.1186  0.1934
16893W        W21193  17.676   5.768   8.579  0.1425 -0.2333  0.0748
16894W        W21194  20.312   3.303  21.005  0.3833 -0.0139 -0.0753
16895W        W21195   1.689   2.298  12.821 -0.2933  0.0524  0.2393
16896W        W21196   4.506   3.555   3.036 -0.1817  0.1167 -0.3675
16897W        W21197  14.728   0.456  30.631  0.2666 -0.0072  0.2445
16898W        W21198  11.650   6.459  33.720  0.1649 -0.0542  0.2269
16899W        W21199  18.330   1.146   1.389  0.2753 -0.2082  0.0470
16900W        W21200  15.364   0.558   5.399  0.0400  0.2098  0.1965
16901W        W21201  24.780   5.979  10.814  0.2000  0.0592 -0.3814
16902W        W21202   5.748   5.071   0.552  0.2111 -0.1340 -0.2036
16903W        W21203   6.941   3.006   4.809 -0.2301  0.1542  0.0177
16904W        W21204  12.702   1.619  35.437 -0.2444 -0.3833  0.1824
16905W        W21205  17.219   1.637  30.794 -0.1939 -0.2258  0.0751
16906W        W21206  10.581   2.688  24.196 -0.3074  0.0453  0.0524
16907W        W21207  24.704   0.602  13.496 -0.2194  0.3319  0.1033
16908W        W21208   4.100   6.014  25.933 -0.0058 -0.2979  0.1643
16909W        W21209   2.025   3.536  22.881  0.0584 -0.2484  0.2260
16910W        W21210   9.868   2.639  29.317  0.1014 -0.1324 -0.0484
16911W        W21211   6.116   4.560   4.335 -0.3561 -0.0424 -0.1392
16912W        W21212   6.985   4.485  27.596  0.1840 -0.0851  0.1241
16913W        W21213  23.591   2.502   4.729  0.2983  0.1761 -0.0159
16914W        W21214  17.770   1.599  24.253  0.1093  0.0668 -0.3033
16915W        W21215  23.612   0.507   8.753 -0.3182 -0.2349  0.0323
16916W        W21216   7.054   4.515   7.750 -0.0187  0.0202  0.0642
16917W        W21217   0.162   5.642   0.795  0.1062 -0.0745  0.1643
16918W        W21218  26.262   3.176  13.264  0.0221 -0.0768  0.1681
16919W        W21219   2.709   6.282   2.644  0.0455  0.1173 -0.0754
16920W        W21220  18.509   3.751  21.927 -0.1226  0.1834 -0.1960
16921W        W21221  21.113   3.405  27.551 -0.1246  0.1379 -0.3012
16922W        W21222   9.132   4.684  34.015  0.0401  0.0777  0.0005
16923W        W21223   9.929   5.158   0.433  0.0263 -0.1953 -0.3035
16924W        W21224  11.380   6.558   2.397 -0.2892 -0.0969 -0.3246
16925W        W21225  13.577   4.347  14.169  0.1124 -0.4545  0.3371
16926W        W21226  18.724   4.546  26.708  0.0530  0.0433  0.1135
16927W        W21227  11.791   5.836   9.600  0.1505 -0.0172 -0.0855
16928W        W21228  19.327   6.110   4.678  0.1352  0.0398 -0.0505
16929W        W21229  12.027   6.176  22.174 -0.0749  0.0470 -0.1848
16930W        W21230   2.322   1.113   2.881 -0.1240 -0.0689  0.0408
16931W        W21231  22.595   5.137  24.141 -0.2346  0.0491  0.0388
16932W        W21232   1.081   5.744   6.953 -0.2483  0.1954 -0.0208
16933W        W21233   6.071   2.660   4.123 -0.1419  0.2134  0.1935
16934W        W21234  10.628   1.650   9.751  0.0091 -0.4041 -0.1338
16935W        W21235   9.223   4.272  11.500  0.1755  0.0042 -0.0503
16936W        W21236   3.037   3.793  28.576  0.1130  0.2664 -0.1747
16937W        W21237   2.723   3.518   8.772  0.0776  0.0520 -0.0215
16938W        W21238   4.336   3.428  28.563  0.1767  0.0066 -0.0250
16939W        W21239   9.566   3.145  31.447  0.0477  0.0746 -0.1349
16940W        W21240   1.084   3.366  24.278 -0.0218  0.0108 -0.2743
16941W        W21241  15.356   3.922  34.694 -0.2049 -0.2859 -0.1910
16942W        W21242  16.383   6.164  34.063  0.1983  0.5946  0.3519
16943W        W21243   6.021   1.478  35.541 -0.3366 -0.0047 -0.3126
16944W        W21244   1.462   4.794  12.538 -0.1519 -0.1195  0.1000
16945W        W21245  18.827   5.923  13.935  0.0583 -0.2492  0.1141
16946W        W21246   8.493   5.178  21.822 -0.2527 -0.1146  0.1472
16947W        W21247   1.280   1.535   6.533  0.0389  0.0830  0.1461
16948W        W21248  21.134   1.092  31.116  0.1505  0.2620 -0.0418
16949W        W21249  16.455   2.002  27.414  0.2233  0.0048 -0.1135
16950W        W21250  19.977   1.935  32.119  0.1058 -0.1742  0.2667
16951W        W21251  26.413   4.317  20.868 -0.1304 -0.1513 -0.2005
16952W        W21252  21.794   4.877  13.985  0.0861  0.2396  0.0115
16953W        W21253  16.803   1.479  25.885  0.0690  0.0926 -0.0883
16954W        W21254  21.253   5.769  28.364 -0.2805  0.0271  0.1656
16955W        W21255   0.844   0.469  34.356  0.2788 -0.2860 -0.1797
16956W        W21256   0.868   0.200  23.386  0.3174  0.2076  0.1852
16957W        W21257   3.966   3.810  24.421  0.0524  0.2471  0.0249
16958W        W21258  16.774   3.938  32.829  0.1980 -0.5638 -0.2752
16959W        W21259   9.864   2.798   4.925  0.0986  0.0211 -0.2048
16960W        W21260  22.559   6.064  14.276 -0.1612 -0.0363  0.0879
16961W        W21261  11.718   5.975  25.726  0.3012  0.0673  0.2409
16962W        W21262  22.413   6.242  23.926 -0.0593  0.1353 -0.1218
16963W        W21263  23.605   0.325  20.824 -0.1429 -0.0375 -0.0644
16964W        W21264  20.763   2.437  32.412  0.3028 -0.0553  0.0618
16965W        W21265  24.473   0.102  34.270  0.0817  0.0711  0.1317
16966W        W21266   7.186   2.422  21.031 -0.1862  0.3300 -0.2474
16967W        W21267   5.942   3.924  35.973  0.2241  0.0532  0.1803
16968W        W21268  19.193   6.454  32.420 -0.0592  0.1496 -0.0128
16969W        W21269   1.363   2.518  12.006 -0.0506 -0.1344 -0.3723
16970W        W21270  20.429   1.411   8.450 -0.2320  0.2521 -0.0622
16971W        W21271   1.552   0.361  21.639  0.3321 -0.1108 -0.0512
16972W        W21272  24.072   2.835   9.982 -0.1351  0.0012 -0.0631
16973W        W21273   1.851   1.434  32.774 -0.0641  0.0136  0.0932
16974W        W21274  12.433   3.085   1.280 -0.0297  0.0612  0.0218
16975W        W21275  16.043   2.538  26.191  0.1167 -0.1727 -0.0871
16976W        W21276  25.336   5.475   7.736 -0.0579 -0.1747  0.3319
16977W        W21277  17.313   0.931  10.952  0.1018 -0.0349 -0.5386
16978W        W21278   6.907   4.381  12.863 -0.0748 -0.0997 -0.1033
16979W        W21279   8.607   2.044  15.087  0.0176  0.0907  0.0717
16980W        W21280  11.698   1.832  12.712 -0.0236 -0.4025  0.0153
16981W        W21281   8.326   1.792  13.819 -0.1138 -0.0500  0.1556
16982W        W21282  13.168   0.616  34.553 -0.2301  0.0407 -0.1150
16983W        W21283  22.718   3.534  15.271 -0.0104  0.0782  0.0368
16984W        W21284   6.217   0.602  35.450 -0.0286  0.0528  0.0379
16985W        W21285  12.645   6.369  27.703 -0.1518 -0.0414 -0.1830
16986W        W21286   6.804   5.680  10.913  0.0557  0.1344 -0.1296
16987W        W21287   9.025   6.410  23.248 -0.0138  0.0945  0.0514
16988W        W21288  11.864   5.574  15.298 -0.0999 -0.1777  0.4714
16989W        W21289  11.599   2.517  15.086  0.0508 -0.2439  0.0815
16990W        W21290   0.090   3.304  14.525 -0.1521  0.1085 -0.1208
16991W        W21291  11.488   2.039  35.892 -0.1103  0.0453  0.1162
16992W        W21292   8.638   1.116  22.244  0.2629 -0.1738  0.0993
16993W        W21293   4.982   3.536  24.684 -0.2027  0.1803 -0.1914
16994W        W21294  23.668   0.546   3.211 -0.0566 -0.0124  0.1605
16995W        W21295  14.038   2.662   5.898 -0.1121 -0.0115  0.0058
16996W        W21296   2.578   5.297  21.361  0.0751  0.0321 -0.1623
16997W        W21297  15.830   2.817  22.838  0.2353  0.1423 -0.1377
16998W        W21298   3.734   3.794  31.405 -0.0361 -0.0555  0.1702
16999W        W21299   9.619   1.953  35.774 -0.2156 -0.0938 -0.1900
17000W        W21300   1.471   3.171  35.116  0.0804  0.0734  0.2514
17001W        W21301  11.247   4.058   5.049 -0.0134 -0.1477 -0.1088
17002W        W21302   5.230   4.236  35.966 -0.2255 -0.2614  0.1898
17003W        W21303  23.670   6.203   4.484  0.0540  0.2150 -0.1263
17004W        W21304  11.405   5.771  31.104 -0.3927 -0.0102  0.2700
17005W        W21305  23.835   1.036  22.138 -0.3999 -0.0908  0.0419
17006W        W21306  24.064   6.136  14.665  0.3442 -0.1692 -0.1122
17007W        W21307  24.535   3.714  28.596 -0.3085  0.1339  0.2834
17008W        W21308  10.420   5.518  34.528 -0.1683  0.0320 -0.0554
17009W        W21309  17.512   1.808  14.455 -0.0209  0.2020 -0.0490
17010W        W21310  15.110   0.604  29.758 -0.1075 -0.1732  0.0393
17011W        W21311  15.947   5.123  30.753 -0.0718  0.0642  0.0863
17012W        W21312   7.108   3.070  15.087  0.1932  0.2498 -0.1929
17013W        W21313  20.167   3.860   8.938  0.2080 -0.2846 -0.2082
17014W        W21314  25.110   2.913   6.667 -0.4788  0.1645  0.1546
17015W        W21315   8.588   3.114  27.955 -0.1110 -0.1886 -0.0689
17016W        W21316  20.875   6.320  34.401 -0.0958 -0.2111  0.0965
17017W        W21317  10.663   5.439  28.171  0.2326  0.1536 -0.2416
17018W        W21318   3.032   6.224   4.064  0.1142 -0.0967  0.1984
17019W        W21319  24.482   4.573  12.528  0.2595 -0.1037 -0.2275
17020W        W21320  12.133   4.740  30.757 -0.0044 -0.2993  0.1091
17021W        W21321  15.815   1.663  34.824  0.0038  0.0529 -0.0190
17022W        W21322  21.656   3.921  22.380 -0.3538 -0.2057 -0.2229
17023W        W21323   8.728   2.911  26.479  0.1678 -0.2306  0.2440
17024W        W21324   5.584   0.105  35.788  0.0136 -0.0095  0.0826
17025W        W21325   2.579   4.928  29.301  0.0183 -0.2155 -0.1333
17026W        W21326  18.739   1.315  29.499  0.0518 -0.0551  0.2080
17027W        W21327  25.925   5.720  28.995  0.0270 -0.1412  0.3705
17028W        W21328  21.584   1.843  27.289 -0.0155  0.0813  0.0906
17029W        W21329  17.638   4.142  11.160  0.2428  0.0645  0.0123
17030W        W21330  11.811   4.770   1.260  0.0081 -0.3846 -0.0341
17031W        W21331   1.487   3.608   9.765  0.2262  0.0314 -0.0992
17032W        W21332  23.972   4.622  22.646 -0.0306  0.1059  0.1108
17033W        W21333   0.654   3.233  29.149 -0.0551  0.1027  0.0043
17034W        W21334   9.040   4.897  24.819  0.2081 -0.1600  0.0650
17035W        W21335  10.538   2.995  22.004  0.0258  0.3352 -0.1866
17036W        W21336   9.274   5.180  30.835 -0.0078 -0.1765  0.1514
17037W        W21337   6.936   1.363  33.547  0.0220  0.1548 -0.0079
17038W        W21338  13.138   3.672  15.283  0.1916 -0.3426  0.1861
17039W        W21339  22.443   6.260  15.159 -0.0820 -0.4036  0.1763
17040W        W21340   4.754   0.654  31.297 -0.2253  0.1687 -0.0035
17041W        W21341   8.837   4.320  22.194 -0.0430 -0.0871 -0.1781
17042W        W21342   9.881   6.076  25.252  0.1665  0.2986  0.4919
17043W        W21343  12.981   1.884  26.764 -0.2232  0.1425 -0.0199
17044W        W21344  23.619   2.016  28.533 -0.0737 -0.3786 -0.1689
17045W        W21345   8.158   6.586  25.213 -0.0245  0.2284  0.0919
17046W        W21346  25.769   0.480   1.816 -0.0563 -0.0440  0.1065
17047W        W21347   1.956   4.693  11.764  0.0499  0.0927  0.4526
17048W        W21348  26.014   4.504   5.585  0.0055  0.3663  0.2173
17049W        W21349   5.119   2.801   9.027  0.2439  0.2836 -0.0870
17050W        W21350  15.450   1.999  26.415 -0.0745  0.0447 -0.1720
17051W        W21351   9.668   0.295   9.356 -0.0779 -0.0281  0.0458
17052W        W21352   0.869   2.366  12.129 -0.0138 -0.1929 -0.0471
17053W        W21353  20.305   2.545   9.556 -0.2502  0.0782  0.3492
17054W        W21354   2.386   1.818   1.627  0.2722 -0.1332  0.1767
17055W        W21355  18.999   0.246  30.545  0.2297 -0.0621 -0.1589
17056W        W21356   6.123   4.922   2.679  0.3693  0.0616 -0.0193
17057W        W21357  25.857   3.331  34.419  0.0101 -0.1111  0.1025
17058W        W21358   0.171   1.863   1.485  0.2929  0.1965  0.2172
17059W        W21359   2.706   2.160  12.115  0.0089 -0.2221 -0.0357
17060W        W21360   4.450   3.596  24.530  0.0483 -0.0298 -0.0842
17061W        W21361   0.845   6.110   6.544  0.1759  0.1318 -0.0868
17062W        W21362  16.312   6.397  22.479  0.1166  0.1627 -0.2283
17063W        W21363  20.408   4.895  32.495 -0.0193 -0.1484 -0.1518
17064W        W21364  25.954   0.458  29.503  0.2288 -0.0701  0.0476
17065W        W21365  16.095   2.916  30.720 -0.1170  0.2683  0.2555
17066W        W21366   8.714   2.501  10.868 -0.0055 -0.1329  0.1463
17067W        W21367  11.668   5.120  12.795 -0.0841 -0.0878  0.0466
17068W        W21368  15.851   0.668  31.073 -0.0233 -0.1499 -0.0145
17069W        W21369   3.005   5.562  11.750 -0.0688 -0.1221  0.3137
17070W        W21370   1.415   6.409   7.140 -0.0460  0.0487  0.2375
17071W        W21371   2.002   1.103   6.879  0.1494  0.0227 -0.0113
17072W        W21372   9.870   3.124  11.187 -0.0502  0.0902  0.0584
17073W        W21373  16.183   1.892  22.693  0.0168 -0.1591 -0.2503
17074W        W21374   8.635   5.506   5.303  0.1646  0.1276  0.2278
17075W        W21375   4.915   5.544  13.965 -0.4492 -0.0671  0.1034
17076W        W21376   0.274   1.404  27.538 -0.2238 -0.0273 -0.4612
17077W        W21377   5.979   5.731   2.434  0.3030  0.0101 -0.3590
17078W        W21378  19.948   4.618  10.697 -0.0756  0.0156 -0.0068
17079W        W21379   9.027   4.005   8.150 -0.0575  0.0409  0.0157
17080W        W21380  17.267   4.232   7.166 -0.2354 -0.0551 -0.2124
17081W        W21381  12.920   5.250   4.898  0.1052 -0.0818 -0.0305
17082W        W21382   1.252   5.918  25.490  0.0462 -0.1551  0.4321
17083W        W21383  22.716   1.772   1.870  0.1490 -0.0388  0.0230
17084W        W21384  19.007   4.800  32.037  0.0721 -0.0363 -0.0507
17085W        W21385  17.086   4.878  13.740  0.0890 -0.0637  0.1772
17086W        W21386  23.767   3.101  25.208 -0.4352 -0.3597  0.1241
17087W        W21387  26.097   0.657  12.088 -0.0840 -0.1005  0.3704
17088W        W21388  21.797   6.167   1.189 -0.1897 -0.0709 -0.0085
17089W        W21389  12.902   2.231  29.203 -0.1992 -0.4074  0.3075
17090W        W21390   1.190   1.731   8.543 -0.1545 -0.1266 -0.0839
17091W        W21391   3.215   0.287  30.744 -0.2106  0.0408  0.1799
17092W        W21392  12.047   2.957  28.702 -0.1701  0.4254 -0.3320
17093W        W21393   4.919   6.570  23.380 -0.1189  0.1899  0.2055
17094W        W21394  23.733   0.254  30.465 -0.1890 -0.1331  0.1053
17095W        W21395   9.722   3.385  28.838  0.1422  0.2093  0.0926
17096W        W21396  15.318   4.870  13.153  0.0589  0.0008  0.0888
17097W        W21397   9.617   0.721  24.363  0.0694  0.0220 -0.1070
17098W        W21398   1.143   1.327  34.445  0.1624 -0.2919 -0.0376
17099W        W21399  18.798   5.717  27.838 -0.2955 -0.0149  0.2489
17100W        W21400  16.810   4.831  22.592  0.0825  0.2096  0.1340
17101W        W21401   6.991   4.690   5.175  0.0693  0.1744  0.0604
17102W        W21402  16.977   0.104   7.716 -0.1260 -0.1138  0.2868
17103W        W21403  19.403   5.744   6.390  0.0238 -0.0316 -0.0458
17104W        W21404   8.417   4.821   0.357  0.0620  0.1144  0.0441
17105W        W21405   0.940   2.775  35.840  0.1503  0.0575 -0.0737
17106W        W21406  11.865   4.832  14.160  0.1832 -0.1302  0.0314
17107W        W21407   5.015   4.509  14.865 -0.2601 -0.0538 -0.0301
17108W        W21408   8.824   0.859  12.323 -0.0255 -0.1276  0.1503
17109W        W21409  19.421   3.393   4.072  0.1591 -0.1776  0.0667
17110W        W21410   0.614   2.759   1.975  0.2720  0.0513 -0.0234
17111W        W21411  10.661   3.239  28.425  0.2807  0.1093 -0.2621
17112W        W21412  20.766   1.798   3.303 -0.1647  0.0226 -0.1906
17113W        W21413  12.059   2.585   2.489 -0.1293  0.0011  0.1112
17114W        W21414   4.283   4.860  10.059  0.1905  0.2123 -0.2083
17115W        W21415   3.523   0.953  10.104 -0.2043 -0.0786 -0.1595
17116W        W21416  16.148   3.697   8.189 -0.1762 -0.0977 -0.0111
17117W        W21417  10.279   2.601  31.463 -0.1288 -0.0272  0.1878
17118W        W21418  14.282   3.268   1.695  0.3832  0.0297  0.2141
17119W        W21419   9.128   1.271  24.107  0.0402 -0.1293  0.2547
17120W        W21420  13.575   4.298  30.346 -0.0594  0.1293 -0.2615
17121W        W21421  10.070   3.477  31.862 -0.0267 -0.1561  0.0472
17122W        W21422   5.650   3.939  15.369 -0.0961  0.0247  0.0169
17123W        W21423  23.343   5.514  34.576  0.3989 -0.2055  0.0112
17124W        W21424  24.929   6.563  34.943  0.0194  0.1723  0.4254
17125W        W21425  21.738   2.298  21.477 -0.0442  0.2893  0.3519
17126W        W21426  17.257   0.857  16.634 -0.2474 -0.2246  0.0325
17127W        W21427   6.321   5.156  34.405 -0.0407 -0.1201 -0.2304
17128W        W21428  20.202   2.248  26.505 -0.0098 -0.1317  0.0269
17129W        W21429  26.391   0.870  23.240 -0.2777 -0.0505  0.2518
17130W        W21430  26.188   6.514  20.263 -0.2259  0.1840  0.0173
17131W        W21431  25.103   1.778  10.263 -0.3047  0.0051  0.0088
17132W        W21432  18.203   4.546  26.592 -0.1553 -0.1999  0.3011
17133W        W21433   3.983   1.663  34.821  0.0174  0.1347 -0.0115
17134W        W21434  12.574   6.422  30.543 -0.0769 -0.0170 -0.2660
17135W        W21435   8.182   3.244  26.211 -0.3261 -0.1541 -0.1900
17136W        W21436  11.454   4.972   5.367  0.0071  0.0885  0.1481
17137W        W21437  13.929   3.218  15.497  0.1025  0.0068  0.0238
17138W        W21438  23.893   6.069   2.929  0.3789 -0.3505  0.0452
17139W        W21439  12.712   3.200  30.920 -0.0159  0.1684  0.0563
17140W        W21440   3.847   2.449   3.944 -0.0759 -0.3169 -0.3954
17141W        W21441  24.403   4.139   2.880  0.0591  0.0248 -0.0824
17142W        W21442   8.908   5.277  26.040 -0.1640 -0.1226 -0.0928
17143W        W21443  21.160   4.452   5.562  0.1590  0.0668 -0.2204
17144W        W21444   5.829   5.976  22.127 -0.2718 -0.0544 -0.2222
17145W        W21445   3.869   2.759   9.421  0.0445 -0.3026  0.1624
17146W        W21446   9.050   5.176  13.258 -0.3126  0.1366 -0.2082
17147W        W21447   2.622   5.893  32.068 -0.0313 -0.2573  0.0422
17148W        W21448  21.167   3.309   8.825  0.3682 -0.1278  0.1608
17149W        W21449   7.643   1.034   3.525  0.3450 -0.0057  0.0530
17150W        W21450  17.425   2.530  13.351 -0.1608  0.2570 -0.1256
17151W        W21451  13.344   1.107   0.537 -0.1053 -0.0729  0.2456
17152W        W21452  12.613   5.309  10.949 -0.0748  0.3044 -0.3975
17153W        W21453  25.847   5.077   0.620 -0.0403 -0.1254  0.1458
17154W        W21454   5.178   0.209  14.928 -0.2319 -0.2430  0.0982
17155W        W21455   6.340   3.716   3.828 -0.0312  0.3294  0.0051
17156W        W21456  22.176   3.462  22.172  0.1453  0.2050  0.1521
17157W        W21457   3.296   1.459  36.142 -0.0352 -0.2993 -0.1434
17158W        W21458   8.595   2.201   2.700  0.1600 -0.3572  0.1126
17159W        W21459  15.957   6.462  28.442 -0.0886  0.2218  0.1318
17160W        W21460   0.783   6.594  22.972  0.1602  0.0392  0.1034
17161W        W21461  17.557   1.390   2.414 -0.2129 -0.0377  0.2226
17162W        W21462  12.003   5.601  27.672 -0.2919 -0.0130 -0.0678
17163W        W21463   4.272   0.512  15.049  0.1014 -0.1766 -0.2214
17164W        W21464   0.707   6.582   4.955 -0.3162  0.2474 -0.3389
17165W        W21465   5.529   2.709  32.343  0.0540  0.1401  0.2471
17166W        W21466  12.770   6.263  24.810 -0.2402  0.3050  0.1310
17167W        W21467   9.635   2.020  26.118  0.0045 -0.0061 -0.1545
17168W        W21468  16.469   4.325   4.676 -0.1633 -0.2838 -0.0451
17169W        W21469  13.725   3.908  27.128  0.3503 -0.0544 -0.1886
17170W        W21470  23.487   4.394   6.717  0.1509  0.0888 -0.5123
17171W        W21471  13.628   3.547  34.500 -0.0857  0.0724 -0.1498
17172W        W21472   3.022   5.261   8.504 -0.0942  0.3976  0.0421
17173W        W21473  21.909   5.567   1.784  0.1232  0.0053 -0.3174
17174W        W21474  12.280   3.254  31.867  0.1630 -0.1408 -0.2012
17175W        W21475  10.150   2.409   6.540  0.1077  0.1444  0.4180
17176W        W21476   0.868   0.228   5.387  0.2458 -0.0745  0.2146
17177W        W21477  15.681   3.309   4.600  0.0115 -0.0048  0.3016
17178W        W21478  10.563   6.547  34.546  0.0897 -0.1363 -0.1200
17179W        W21479  12.136   5.134   7.123 -0.1120  0.1028 -0.0098
17180W        W21480  23.360   4.440  29.792  0.3475 -0.0862  0.0116
17181W        W21481   4.156   0.638  23.420 -0.2811  0.1464  0.0945
17182W        W21482   0.740   3.697  34.188 -0.2344  0.4895 -0.0776
17183W        W21483  20.800   4.029   3.541 -0.5240  0.0507  0.1265
17184W        W21484   6.013   4.557  24.210  0.0885 -0.1107  0.0571
17185W        W21485   4.747   2.982   8.018  0.0998  0.1415 -0.0089
17186W        W21486   3.831   4.945   8.726 -0.0188  0.0591  0.0301
17187W        W21487   6.821   3.455  22.045 -0.0346 -0.2462  0.1542
17188W        W21488   1.864   3.507  27.431 -0.1610  0.1101  0.0411
17189W        W21489  17.297   1.857  11.977 -0.2783 -0.0966  0.1395
17190W        W21490   7.857   1.823  31.016  0.0101 -0.0937  0.1778
17191W        W21491   3.468   3.360  25.595  0.0285  0.0158  0.2162
17192W        W21492   6.216   2.306   6.471  0.0407 -0.4466 -0.0755
17193W        W21493   0.458   5.403  29.110 -0.2227  0.0346 -0.0403
17194W        W21494  24.409   1.931  29.573  0.0069 -0.0619  0.1817
17195W        W21495  23.677   4.552   0.913 -0.1689 -0.2005 -0.0510
17196W        W21496  26.249   1.954   7.657  0.1177  0.0799 -0.0151
17197W        W21497  22.801   6.255  14.841 -0.1544  0.1326 -0.0222
17198W        W21498   1.827   2.979  15.725  0.1420  0.2056  0.1591
17199W        W21499  16.256   1.537   0.293  0.1027  0.0449 -0.0511
17200W        W21500  12.525   6.562  28.416  0.1002 -0.0434 -0.1034
17201W        W21501   5.395   2.237  32.069 -0.2639 -0.3723  0.0651
17202W        W21502  25.496   4.024   8.471  0.2900  0.1840 -0.0133
17203W        W21503  17.248   0.009  31.406 -0.4988  0.0621  0.0085
17204W        W21504   7.529   5.067  14.494  0.2539 -0.0117 -0.2398
17205W        W21505  22.699   5.104  10.234  0.0501 -0.3163 -0.1404
17206W        W21506  24.755   3.744   7.446  0.0179  0.2236  0.1912
17207W        W21507   9.908   6.055   6.468 -0.1309  0.0873  0.0788
17208W        W21508  24.863   0.883  24.447 -0.1801  0.2641 -0.2747
17209W        W21509  17.436   2.211  10.260 -0.0681  0.0274 -0.0314
17210W        W21510   3.711   3.513   6.172 -0.2902  0.0550  0.0236
17211W        W21511  25.110   6.022   9.844 -0.1320 -0.0079 -0.2146
17212W        W21512   6.629   5.452  15.260  0.3932  0.0441  0.1907
17213W        W21513   3.677   3.236  14.574  0.0181  0.2448  0.0880
17214W        W21514   1.330   1.478  19.699  0.0476  0.0744  0.0301
17215W        W21515   1.138   1.315  21.631  0.0551 -0.0709 -0.0217
17216W        W21516   6.977   6.220   9.876  0.5018  0.0847 -0.2447
17217W        W21517   4.848   5.160  28.082 -0.0350 -0.0142  0.2168
17218W        W21518  15.064   0.742   4.402  0.3446 -0.0659 -0.0043
17219W        W21519  17.549   4.604  34.010  0.1106 -0.0095  0.2091
17220W        W21520  16.571   4.274  32.512  0.0864 -0.0946 -0.0054
17221W        W21521   8.118   1.774  26.957  0.0650 -0.2582  0.1243
17222W        W21522   9.606   6.044  26.741  0.1765  0.0877 -0.0511
17223W        W21523   1.761   3.820   6.714 -0.1287  0.2051 -0.1169
17224W        W21524  12.586   3.305  26.673  0.0834  0.0403  0.0877
17225W        W21525  13.271   0.016   5.034  0.0176 -0.1338  0.1379
17226W        W21526  13.764   0.979  14.774  0.2120 -0.0711 -0.2149
17227W        W21527  24.876   6.369  30.833  0.0954  0.2025 -0.0071
17228W        W21528  11.424   5.710  23.850  0.0993 -0.2823 -0.2662
17229W        W21529  10.284   5.966  32.648  0.2138  0.2064 -0.0542
17230W        W21530  11.049   0.080   5.624 -0.1583  0.0093  0.2072
17231W        W21531  23.602   3.590   4.018  0.1358 -0.0770 -0.2304
17232W        W21532   3.287   5.733   0.354 -0.1799  0.1367  0.1645
17233W        W21533  18.430   4.135  11.737 -0.0681  0.0271 -0.0053
17234W        W21534   0.272   0.983   3.925  0.3259  0.0332  0.1775
17235W        W21535  17.497   3.491   0.103 -0.2842  0.1380 -0.2729
17236W        W21536  20.191   4.943   1.214 -0.0647  0.0090 -0.2121
17237W        W21537  11.587   5.624  13.964 -0.4625 -0.0014  0.1322
17238W        W21538   4.332   6.578  23.752  0.2818 -0.0433 -0.0717
17239W        W21539  14.704   6.529  21.158 -0.2683  0.0846 -0.0252
17240W        W21540  11.651   0.515   2.366  0.1467  0.0345 -0.2558
17241W        W21541   2.132   4.951  14.941  0.0905 -0.2210 -0.4471
17242W        W21542   6.142   3.206   1.273  0.0235  0.1944  0.3894
17243W        W21543  16.987   2.243   4.182 -0.1680 -0.1182 -0.3287
17244W        W21544  16.693   3.827  23.153 -0.0332 -0.2092  0.0618
17245W        W21545  23.962   3.412  33.692  0.1504  0.0875  0.1153
17246W        W21546  25.192   3.022  25.134 -0.0908  0.1757 -0.1250
17247W        W21547  14.058   5.350  30.075 -0.1498  0.1609 -0.0221
17248W        W21548  16.145   2.163  35.589 -0.1943 -0.1077  0.0179
17249W        W21549   6.062   1.190  10.747  0.0117 -0.1485 -0.1021
17250W        W21550   2.499   1.651   9.958  0.0629  0.0054 -0.2722
17251W        W21551   2.827   0.864  11.980 -0.0964  0.1644 -0.1578
17252W        W21552  11.583   0.769  10.100 -0.2571  0.2691  0.0537
17253W        W21553  13.805   0.583  26.761  0.1551 -0.0232 -0.4014
17254W        W21554  10.849   6.075  10.039  0.2130  0.0430 -0.3564
17255W        W21555  22.982   2.097  31.455 -0.1273  0.2559 -0.0112
17256W        W21556   6.222   1.839   5.267 -0.0775 -0.0907  0.1737
17257W        W21557  19.182   0.635  34.263  0.2949 -0.0610  0.0451
17258W        W21558  17.021   2.799  29.566 -0.1801 -0.2032  0.2210
17259W        W21559   4.425   2.626  13.768 -0.3594 -0.2416 -0.0192
17260W        W21560   6.703   0.128  21.328  0.0008  0.1244  0.0206
17261W        W21561  13.154   6.604  36.141  0.0358  0.1079 -0.2197
17262W        W21562   3.009   3.398   1.861  0.0627  0.1659  0.0855
17263W        W21563  25.693   4.846  29.892 -0.1452 -0.0160 -0.2026
17264W        W21564   1.478   3.392  31.735 -0.2136  0.0187  0.0837
17265W        W21565  16.223   5.370   6.860 -0.0090  0.0278  0.3268
17266W        W21566  19.605   1.563  22.909  0.2492 -0.2775  0.2635
17267W        W21567  19.932   2.784  11.798 -0.3781  0.1870  0.0468
17268W        W21568   1.497   4.586  30.066  0.0747  0.1064  0.2261
17269W        W21569  19.186   0.005   7.074  0.0168  0.2115  0.0851
17270W        W21570  19.667   5.886   5.348  0.1352 -0.2399 -0.1205
17271W        W21571  22.029   3.600   5.451  0.1584  0.1026  0.0086
17272W        W21572   0.194   1.940  23.558 -0.1768  0.0227  0.0953
17273W        W21573   5.470   5.418  24.369  0.1282 -0.0065  0.1990
17274W        W21574  17.266   5.346   6.168 -0.2459 -0.2187 -0.2632
17275W        W21575   4.536   0.812   0.955  0.1280  0.0800  0.1443
17276W        W21576  22.742   3.547  13.715 -0.1417  0.0108  0.0839
17277W        W21577   9.075   2.450  31.637 -0.6453  0.2938 -0.0416
17278W        W21578   6.739   0.509  21.629  0.0516 -0.2797  0.3619
17279W        W21579   1.129   3.772   4.774 -0.1295 -0.2743  0.1692
17280W        W21580  18.017   0.428  13.725  0.0948  0.0794  0.2516
17281W        W21581   4.942   0.211  10.608  0.1293  0.0355 -0.0772
17282W        W21582  24.720   4.574  33.133 -0.1330 -0.0933 -0.0123
17283W        W21583  23.726   4.540  34.570 -0.0336  0.0723 -0.0760
17284W        W21584  17.284   0.803  10.353 -0.0367  0.0014 -0.0079
17285W        W21585   5.467   4.596  24.327 -0.0446  0.1015  0.0795
17286W        W21586  12.726   0.690   9.883  0.0570 -0.0241  0.1471
17287W        W21587   1.325   0.944  28.993 -0.1773  0.0638 -0.1073
17288W        W21588   8.948   3.034   7.065 -0.0531 -0.0136  0.0506
17289W        W21589  17.358   1.669  35.665  0.0862 -0.2392  0.3224
17290W        W21590  25.678   3.255   5.984  0.1763  0.0200  0.0914
17291W        W21591   5.701   2.142  21.855  0.0550  0.3852 -0.0071
17292W        W21592   1.587   2.848   5.790 -0.2173  0.1094  0.1100
17293W        W21593   4.776   3.151  21.703  0.1513 -0.2338  0.0035
17294W        W21594   1.788   2.782   3.528 -0.3771 -0.2179 -0.3352
17295W        W21595  10.644   2.114   8.251  0.1705  0.0740  0.0625
17296W        W21596  17.422   0.837  24.721  0.0240  0.3309 -0.1481
17297W        W21597  23.120   0.549  23.275  0.1314  0.2033  0.1260
17298W        W21598   1.225   1.133   2.209  0.3250  0.4355  0.0562
17299W        W21599  23.481   4.794   5.810  0.0420  0.4401  0.0868
17300W        W21600   4.180   0.607  13.390 -0.3206  0.3386  0.1133
17301W        W21601   7.907   0.423  14.879 -0.1925  0.3140  0.0060
17302W        W21602   4.022   3.344  24.685 -0.2888  0.1698 -0.0505
17303W        W21603  14.891   6.066   5.726  0.0428 -0.0859 -0.1452
17304W        W21604   4.789   0.810   9.701  0.2900 -0.0677 -0.2900
17305W        W21605  25.730   5.169  22.215 -0.1032  0.0881 -0.1308
17306W        W21606  11.648   2.546  34.222  0.2473 -0.1866 -0.1347
17307W        W21607  24.938   5.530  15.212 -0.0556 -0.2855 -0.3570
17308W        W21608   3.475   4.728  14.410 -0.1912 -0.1292 -0.0768
17309W        W21609  16.919   4.168  34.007 -0.0017  0.0811 -0.1182
17310W        W21610   9.013   0.239   2.804 -0.0181  0.0988  0.1804
17311W        W21611   0.676   4.564  21.343 -0.2270 -0.2070 -0.2665
17312W        W21612  16.466   3.635  29.668  0.2261 -0.3896 -0.0008
17313W        W21613   5.661   6.174  22.767  0.0573  0.1109  0.1589
17314W        W21614   4.488   4.317  12.659 -0.0074 -0.0388  0.1181
17315W        W21615  20.492   1.331  20.527  0.1573  0.1168 -0.0708
17316W        W21616   3.464   0.376  30.347 -0.0876 -0.1770  0.0607
17317W        W21617  14.592   4.538  35.640  0.0911 -0.3965  0.0287
17318W        W21618  13.990   0.499  15.446  0.2616 -0.0434  0.0034
17319W        W21619  26.166   2.785   8.866  0.0745 -0.2077 -0.1289
17320W        W21620  19.297   1.926  22.570  0.1576  0.1593  0.0160
17321W        W21621   8.211   3.165  28.945  0.1023  0.0268  0.2481
17322W        W21622  21.187   4.464   1.631 -0.0085  0.2242  0.2051
17323W        W21623  12.135   1.250   5.316 -0.1034  0.1135 -0.3251
17324W        W21624   8.654   1.693  32.792  0.0908  0.3826 -0.1531
17325W        W21625   0.767   6.004  35.098 -0.0999  0.1313 -0.0467
17326W        W21626  14.224   3.765  20.967 -0.0729  0.0545  0.4189
17327W        W21627   0.067   5.243  33.638 -0.1490 -0.0663 -0.0095
17328W        W21628  23.317   3.526  32.592 -0.3208  0.0576 -0.0532
17329W        W21629   6.375   1.687  21.802  0.0364 -0.1028  0.2238
17330W        W21630   1.556   4.488  27.875  0.1125 -0.1691  0.3464
17331W        W21631   0.231   2.418  21.423 -0.0638 -0.2155 -0.0106
17332W        W21632   4.120   4.471  34.423  0.2182 -0.2969  0.1848
17333W        W21633  19.059   0.450  27.546  0.0791 -0.2541  0.1743
17334W        W21634  14.434   6.525  13.492 -0.2530 -0.0168  0.0603
17335W        W21635   9.437   4.295   6.889 -0.1017 -0.3394 -0.0964
17336W        W21636  17.192   3.191   4.113  0.0830 -0.2582  0.0304
17337W        W21637  17.200   1.154   1.586  0.0103  0.1876  0.1771
17338W        W21638  11.858   0.597   9.220 -0.3988  0.0132  0.0208
17339W        W21639  15.753   5.778  34.016  0.0989  0.2639  0.0012
17340W        W21640   9.556   5.377  34.510 -0.0821 -0.1897 -0.1215
17341W        W21641  19.576   5.896  23.926  0.0094 -0.1927  0.2614
17342W        W21642  11.651   6.487   0.577  0.1514  0.0543  0.1383
17343W        W21643   7.683   4.827   3.501 -0.1742 -0.2423  0.2562
17344W        W21644   2.586   2.117  28.471  0.2434 -0.0322  0.2332
17345W        W21645   7.516   3.563   8.192 -0.0244 -0.0240  0.4451
17346W        W21646  26.366   4.664  28.495 -0.1179 -0.0030 -0.1394
17347W        W21647  25.020   2.427  20.368 -0.0360  0.0292 -0.1648
17348W        W21648   8.733   1.592  33.248 -0.0382 -0.4036 -0.0995
17349W        W21649  15.577   4.274  31.014  0.1531 -0.0836  0.0524
17350W        W21650   4.697   1.805  20.772  0.0838  0.1326  0.0041
17351W        W21651  25.869   6.347  31.254 -0.3403 -0.3064  0.2743
17352W        W21652  13.516   0.920   3.428 -0.1501 -0.2086  0.0487
17353W        W21653  10.314   3.013  33.613  0.0239 -0.0104  0.0037
17354W        W21654  15.742   5.619   7.553  0.1928 -0.1627 -0.0624
17355W        W21655  14.610   3.449  33.891 -0.4736  0.0135  0.2074
17356W        W21656  13.582   0.393   3.177 -0.1039  0.1648 -0.1224
17357W        W21657   6.392   3.489  14.480 -0.1531  0.4655 -0.1280
17358W        W21658   6.151   3.003  31.160 -0.1395 -0.1844  0.2521
17359W        W21659   0.377   1.923  34.390 -0.0188  0.0114 -0.0780
17360W        W21660   3.358   4.495  30.788  0.0787 -0.1346  0.0008
17361W        W21661  24.302   1.394   1.447 -0.1640 -0.0300 -0.2046
17362W        W21662  24.031   2.205  34.912  0.1736  0.3209 -0.0547
17363W        W21663   4.538   1.250   8.493 -0.1212  0.1521 -0.2173
17364W        W21664   9.102   2.142  32.828  0.1325 -0.0587 -0.1545
17365W        W21665  20.118   3.416  32.074  0.0186  0.2644 -0.3313
17366W        W21666  14.419   3.832  32.294 -0.4183  0.1218  0.1028
17367W        W21667   9.929   1.031  25.748 -0.1229  0.1131 -0.0582
17368W        W21668   4.188   2.623  33.998 -0.0443 -0.2383  0.0123
17369W        W21669  10.771   5.233  10.172  0.1170  0.1196 -0.0478
17370W        W21670  21.206   6.518  21.921  0.0763  0.0422 -0.4966
17371W        W21671  14.480   4.890  10.780  0.0980 -0.0802 -0.0512
17372W        W21672  21.956   6.554   1.876 -0.0607  0.0878 -0.1469
17373W        W21673  14.658   2.345   0.228  0.0894  0.0622  0.1280
17374W        W21674  20.761   6.363  32.023  0.2082 -0.2690  0.0235
17375W        W21675   1.540   3.313  27.787 -0.0597 -0.5837  0.1698
17376W        W21676  26.127   0.326  25.601  0.0598  0.2914 -0.0578
17377W        W21677  21.031   2.699   8.056 -0.0023 -0.0179  0.3234
17378W        W21678   3.720   1.397  21.623 -0.0126  0.1501  0.1029
17379W        W21679  13.375   3.588  13.370 -0.0569 -0.1481  0.1308
17380W        W21680   2.932   5.309  24.931 -0.1895  0.0286  0.2802
17381W        W21681  20.215   1.200   4.754 -0.1551  0.0481 -0.0668
17382W        W21682  12.365   0.245  35.979 -0.1369  0.2694 -0.1668
17383W        W21683   0.724   2.644  14.359  0.2264 -0.0626 -0.3829
17384W        W21684   0.044   0.961  32.295  0.2020 -0.0917 -0.1023
17385W        W21685   9.162   4.463   4.642  0.2200  0.1441 -0.2143
17386W        W21686  20.928   5.166  33.488 -0.2124  0.0713  0.0653
17387W        W21687   6.887   1.534   6.964  0.0006  0.1999 -0.1711
17388W        W21688   1.005   2.463   7.917 -0.1809  0.1900 -0.0236
17389W        W21689  11.631   5.064   5.839 -0.0872  0.2285 -0.1130
17390W        W21690  24.193   2.865   0.853  0.0018 -0.0871  0.2395
17391W        W21691   7.768   0.805  27.898 -0.0850 -0.0795  0.0822
17392W        W21692  25.987   0.100  24.315  0.1080  0.2332  0.1233
17393W        W21693   0.599   1.408   3.922  0.0102 -0.1102 -0.0762
17394W        W21694   1.417   2.490   6.525 -0.1786  0.0276  0.0478
17395W        W21695   0.164   6.113   5.948  0.1186 -0.3551  0.1154
17396W        W21696   1.989   0.930  26.554  0.1046 -0.0468 -0.1582
17397W        W21697  17.001   3.339  31.398 -0.2227 -0.0134  0.5464
17398W        W21698  19.793   2.237   6.271  0.0671 -0.1023 -0.1959
17399W        W21699  23.438   3.636  21.444  0.0200  0.0302 -0.3711
17400W        W21700   2.293   3.221   1.586  0.2058  0.0160 -0.1482
17401W        W21701  20.258   5.875   9.079 -0.1185  0.0593 -0.0598
17402W        W21702  19.183   6.359   5.820  0.3554 -0.3058  0.4135
17403W        W21703  22.458   1.142   7.231  0.0420 -0.0885 -0.0850
17404W        W21704   0.888   2.345   9.224 -0.1723  0.1547 -0.2483
17405W        W21705  14.080   0.697  31.368 -0.2697 -0.0650  0.0629
17406W        W21706  20.510   0.074  26.183  0.0521 -0.0111 -0.1286
17407W        W21707   0.604   2.601   3.325  0.0613  0.1451 -0.0567
17408W        W21708  12.613   0.503  30.550 -0.0093  0.1561  0.2681
17409W        W21709   0.700   4.673  10.150  0.1613  0.0576  0.0168
17410W        W21710   0.716   4.166   4.090  0.0392 -0.2010  0.0330
17411W        W21711  15.881   0.298   4.105 -0.0283 -0.2031 -0.1645
17412W        W21712  22.176   0.476  25.522  0.0337  0.3348  0.0576
17413W        W21713   4.286   0.348  29.566 -0.0006  0.0309  0.3098
17414W        W21714  18.405   0.228  32.749  0.1612 -0.0503 -0.0134
17415W        W21715   9.224   0.099   6.629  0.0818 -0.0102  0.2731
17416W        W21716  22.093   1.926  24.912  0.1042 -0.0231  0.0130
17417W        W21717  14.968   0.349   0.312 -0.0455 -0.0582 -0.0536
17418W        W21718  18.245   4.791  34.952 -0.1017 -0.2433 -0.0237
17419W        W21719   1.028   2.062   3.677  0.0552 -0.1130 -0.0014
17420W        W21720   0.204   5.110   1.107 -0.2967  0.1716  0.1514
17421W        W21721  18.551   6.509   1.388 -0.1189 -0.0837  0.0577
17422W        W21722  15.714   1.025  28.005  0.0370  0.1697 -0.3508
17423W        W21723  13.941   1.863  23.432  0.1071  0.1088  0.3357
17424W        W21724   6.577   2.757  21.847 -0.0032 -0.3055  0.0052
17425W        W21725  23.454   5.783  31.414 -0.2993  0.3603 -0.1583
17426W        W21726   3.061   3.087   5.569 -0.0143  0.0111  0.1989
17427W        W21727  11.084   5.320  31.970 -0.1500 -0.1151 -0.1452
17428W        W21728  22.522   6.316  33.208 -0.1128  0.0212  0.0834
17429W        W21729  24.457   2.426  22.129 -0.0733 -0.2497  0.0834
17430W        W21730   7.884   4.494  29.825  0.0440 -0.0043 -0.3759
17431W        W21731   0.306   3.915  31.678 -0.0611 -0.0534 -0.1818
17432W        W21732   5.225   6.322   2.266 -0.0606  0.2776  0.2511
17433W        W21733  13.695   5.001   2.803 -0.1423  0.0981  0.0382
17434W        W21734   4.843   3.829  34.516 -0.2068 -0.0773  0.2340
17435W        W21735   9.729   0.746   1.246 -0.2287 -0.2220 -0.1543
17436W        W21736   7.248   0.011  26.838  0.0142  0.0495  0.0915
17437W        W21737  25.090   1.316  26.189 -0.0103 -0.1075  0.1874
17438W        W21738  19.444   3.173  31.441  0.0661  0.1316 -0.0206
17439W        W21739  12.548   2.678  32.852 -0.2086  0.0509 -0.0277
17440W        W21740  22.840   5.404  11.984  0.2324 -0.1788  0.1802
17441W        W21741  19.874   0.210  14.838  0.1377  0.0376  0.0700
17442W        W21742  14.420   4.087  22.824 -0.3440 -0.0235  0.0111
17443W        W21743  20.657   4.085  29.482  0.0195 -0.1762 -0.0084
17444W        W21744  16.838   0.454  21.870  0.3854 -0.0097 -0.0152
17445W        W21745  12.920   2.972  13.953  0.1227 -0.0131 -0.1595
17446W        W21746  24.149   3.745  29.662  0.1600 -0.0208  0.1643
17447W        W21747   9.878   1.876  30.200  0.0279 -0.0011 -0.2169
17448W        W21748   0.922   0.630  29.877 -0.0322  0.2017  0.0052
17449W        W21749  18.189   6.580   1.803 -0.1688 -0.0756  0.1712
17450W        W21750   2.994   0.351  20.831  0.0576 -0.1175 -0.1145
17451W        W21751  19.783   2.668   9.019 -0.1345  0.2550  0.1853
17452W        W21752   0.044   0.074  35.433  0.1155  0.2009 -0.0800
17453W        W21753   8.785   5.411   3.872 -0.0741 -0.0391 -0.1508
17454W        W21754   0.254   1.290  10.989 -0.1043  0.1359  0.1550
17455W        W21755  24.580   2.075  27.400 -0.1454  0.1949 -0.0950
17456W        W21756   6.622   4.118  10.384 -0.1101 -0.2531 -0.0868
17457W        W21757   4.943   2.408  23.417 -0.3329 -0.3068  0.1978
17458W        W21758  13.237   1.739   3.373 -0.0659 -0.0958 -0.1944
17459W        W21759   9.026   3.898  29.049 -0.0137 -0.0578 -0.2952
17460W        W21760  21.346   6.318  34.113  0.0927  0.0786 -0.0736
17461W        W21761  14.677   3.535   9.704  0.0800  0.2525 -0.1274
17462W        W21762  13.557   5.709   4.236 -0.1284  0.1228  0.1504
17463W        W21763  25.314   4.005  13.431 -0.0775  0.1510 -0.3836
17464W        W21764   3.750   1.184  29.662 -0.0928  0.1787  0.1714
17465W        W21765  14.872   4.709  14.147 -0.0696  0.0867  0.2599
17466W        W21766  25.263   4.987  32.300  0.3349  0.3463  0.0896
17467W        W21767  22.409   5.771  27.296  0.0451 -0.2892 -0.0188
17468W        W21768  14.208   0.765  21.210  0.3189 -0.1492 -0.2334
17469W        W21769  15.828   0.024   1.614 -0.0825 -0.1461 -0.0694
17470W        W21770   9.081   5.655  21.682  0.2400  0.0258  0.1604
17471W        W21771   3.737   5.735  10.699 -0.2704  0.1263  0.0339
17472W        W21772   9.554   6.395  24.047  0.1026  0.0535  0.0599
17473W        W21773  20.739   3.583  21.744  0.0124  0.1736  0.1766
17474W        W21774  15.832   5.991  21.763  0.1318  0.1797 -0.0785
17475W        W21775  12.301   1.675  34.936 -0.1255 -0.1995 -0.1818
17476W        W21776  13.213   1.199   8.792 -0.2301  0.3491 -0.0426
17477W        W21777  24.645   4.155  29.074 -0.0060 -0.1805  0.2575
17478W        W21778  25.625   4.309  10.285 -0.0585  0.2041 -0.0248
17479W        W21779  22.920   5.532   6.584 -0.0717 -0.1574 -0.2317
17480W        W21780   3.442   4.056  26.986 -0.0095  0.2557 -0.0522
17481W        W21781  12.193   3.787  15.104 -0.0346 -0.0200  0.1593
17482W        W21782   1.612   0.269  29.318  0.1093 -0.1540  0.1249
17483W        W21783  26.388   0.153   9.670 -0.0658 -0.3312  0.1301
17484W        W21784  15.147   3.203  22.768 -0.1390  0.1131 -0.2009
17485W        W21785   5.737   2.782  10.944 -0.2865 -0.2954 -0.0023
17486W        W21786  25.693   0.837  35.878  0.3935  0.2113  0.1106
17487W        W21787  20.499   1.740  30.833 -0.0131 -0.2417  0.0031
17488W        W21788  18.578   3.880  21.412  0.0314 -0.1090  0.3199
17489W        W21789  25.759   6.394  29.038  0.0279 -0.1219  0.0923
17490W        W21790  21.115   0.328  25.518  0.0691 -0.0424  0.3057
17491W        W21791   7.226   6.228   5.908  0.1575  0.1714 -0.1232
17492W        W21792   3.715   5.564   6.182 -0.1065  0.1017  0.1836
17493W        W21793   5.579   6.379  10.139 -0.3479 -0.0908  0.3304
17494W        W21794  23.086   4.403   6.339  0.1695  0.0302 -0.1208
17495W        W21795  21.979   0.319  22.086  0.1603  0.0404 -0.0518
17496W        W21796  25.311   0.764  15.462  0.1767  0.4644  0.1779
17497W        W21797  20.793   2.428  14.383  0.0277 -0.0580 -0.0964
17498W        W21798  25.442   3.692  33.598 -0.2449  0.1142  0.0396
17499W        W21799   4.438   1.712  12.140  0.0061  0.2602 -0.3669
17500W        W21800  24.198   4.425  31.998  0.0546  0.0750 -0.5163
17501W        W21801  15.273   0.962  29.072 -0.1147 -0.0830 -0.0731
17502W        W21802   8.952   1.039   7.835  0.0244 -0.0389 -0.1262
17503W        W21803  24.070   0.531   9.149 -0.1154  0.1069  0.2519
17504W        W21804  15.254   0.010   8.074 -0.3158 -0.1347 -0.0495
17505W        W21805   3.509   1.690  23.271  0.0923 -0.0596 -0.0255
17506W        W21806  12.698   5.133  26.217 -0.0513  0.1980  0.2417
17507W        W21807  24.998   6.280  21.316 -0.2732 -0.3566  0.3053
17508W        W21808   6.683   6.498  13.087 -0.1371  0.1639 -0.2881
17509W        W21809  14.172   3.810   4.531 -0.2305  0.2157  0.3186
17510W        W21810  11.665   2.499   2.189  0.2865  0.4970 -0.0354
17511W        W21811   9.016   0.041  15.825 -0.0655 -0.0403  0.0504
17512W        W21812  12.246   2.959  31.081  0.0351  0.0088 -0.3081
17513W        W21813   6.422   3.326  23.257  0.0936  0.3192 -0.0384
17514W        W21814  16.571   4.022  35.272 -0.0062 -0.0644 -0.0099
17515W        W21815  12.436   5.552   2.315 -0.0287 -0.0727  0.0297
17516W        W21816  16.791   4.532  29.390  0.0122 -0.0578  0.3170
17517W        W21817   1.910   6.175   1.309  0.0450 -0.0337  0.1701
17518W        W21818  23.397   3.118   6.803 -0.0728 -0.0997 -0.2610
17519W        W21819   5.859   4.569  15.442  0.3182  0.1616  0.0217
17520W        W21820  22.171   3.861   0.077  0.0854  0.2082  0.3044
17521W        W21821  23.567   2.359   3.655  0.0394  0.0056  0.1886
17522W        W21822  19.745   5.192   3.141 -0.1222 -0.2847 -0.0784
17523W        W21823  18.638   2.284  32.077 -0.3363  0.3327 -0.0617
17524W        W21824   6.233   6.195  29.828  0.0412 -0.0601 -0.0166
17525W        W21825   6.093   1.729  14.092 -0.1109 -0.0087  0.1900
17526W        W21826  25.825   3.449   0.622  0.0723  0.2274  0.1419
17527W        W21827  14.391   2.672  28.465 -0.0777 -0.2132 -0.1686
17528W        W21828  19.540   5.891  35.337 -0.0717 -0.3872 -0.1728
17529W        W21829  13.573   2.903  22.639  0.1549  0.1806  0.0406
17530W        W21830  20.489   4.118  10.606 -0.2000  0.2286 -0.0988
17531W        W21831  23.611   1.485   0.219 -0.0183  0.0017 -0.1678
17532W        W21832  19.511   5.827   7.380 -0.0022 -0.1298  0.2025
17533W        W21833  16.050   1.778   5.670 -0.0828 -0.0984  0.2707
17534W        W21834   0.706   4.611   4.909 -0.0559 -0.1126  0.2156
17535W        W21835  26.294   0.700  27.738 -0.3635 -0.2941  0.0717
17536W        W21836   6.565   3.887   3.412  0.1006 -0.0753  0.1863
17537W        W21837  21.211   6.366  30.957 -0.1684  0.2043  0.2064
17538W        W21838  25.202   6.514   1.693 -0.0277 -0.4604 -0.2260
17539W        W21839   3.416   0.749  29.964 -0.2066 -0.1974  0.1180
17540W        W21840   2.187   1.347  14.802  0.0687 -0.2821  0.1356
17541W        W21841  18.052   2.577   7.177 -0.0040  0.1613  0.4886
17542W        W21842  12.212   5.613  21.999 -0.0041 -0.1415 -0.0439
17543W        W21843  21.539   2.901   3.591 -0.1289 -0.1765 -0.1859
17544W        W21844  13.907   5.102   7.680 -0.2576  0.1701  0.1096
17545W        W21845  21.130   0.376   3.271 -0.0700 -0.0013 -0.0527
17546W        W21846  22.685   0.993  11.013  0.1318 -0.0552  0.0759
17547W        W21847   8.588   4.274  34.622 -0.1337 -0.1320 -0.0659
17548W        W21848  21.458   1.518  28.760 -0.3293  0.1099  0.3856
17549W        W21849   3.957   2.618  13.442 -0.1618  0.1971 -0.0676
17550W        W21850   2.772   6.366  30.379  0.0456  0.2068 -0.1071
17551W        W21851   3.350   2.741  11.119 -0.1592  0.1371 -0.0003
17552W        W21852   3.454   1.719   9.985  0.0236  0.1160 -0.3766
17553W        W21853  16.294   4.942  10.095  0.0627 -0.0642 -0.0365
17554W        W21854   3.791   6.413  28.534  0.0530 -0.1976 -0.0299
17555W        W21855  18.180   0.629  29.502  0.1156  0.0760 -0.1240
17556W        W21856  10.931   4.304  30.455  0.0423  0.3222  0.0637
17557W        W21857   9.775   2.187   7.419 -0.1778 -0.0175  0.0451
17558W        W21858  24.845   4.842   0.255 -0.3522 -0.1535 -0.0277
17559W        W21859  18.694   4.771  14.517  0.0287 -0.0865  0.0479
17560W        W21860  10.969   3.102  32.018 -0.0175  0.3502  0.0502
17561W        W21861   5.466   3.336  30.025 -0.0086  0.1771 -0.0829
17562W        W21862  13.712   1.947  33.319 -0.0421 -0.2840 -0.2664
17563W        W21863  12.366   0.229  14.523 -0.0226 -0.1736  0.0812
17564W        W21864   4.233   1.630  20.689 -0.0408 -0.3158 -0.0651
17565W        W21865  12.801   0.588   8.219 -0.2824 -0.0266 -0.0421
17566W        W21866   0.832   0.979  27.035  0.1036 -0.0966 -0.1041
17567W        W21867  12.105   4.622   5.876 -0.2257 -0.0841  0.1416
17568W        W21868   8.688   6.244   5.478 -0.3063 -0.3773 -0.0121
17569W        W21869  11.842   0.146  21.738 -0.0107 -0.0900  0.0214
17570W        W21870  20.975   3.152   6.850  0.0521 -0.1042 -0.0102
17571W        W21871  24.821   3.245  24.409  0.1029  0.0534  0.0486
17572W        W21872  13.672   6.117  28.583  0.1573 -0.1173  0.1317
17573W        W21873  21.226   4.979  20.409 -0.3920  0.1246  0.2339
17574W        W21874  15.621   0.553   6.379 -0.1023  0.0302 -0.0901
17575W        W21875   0.839   4.296  14.540 -0.0212  0.0611  0.0422
17576W        W21876  18.175   2.979  23.808  0.0448 -0.1446  0.2179
17577W        W21877  12.529   2.369  21.375 -0.2513 -0.1295  0.0190
17578W        W21878  14.482   3.601   9.254 -0.2930  0.1130  0.0503
17579W        W21879  24.993   3.000   5.768 -0.2465  0.0791 -0.1946
17580W        W21880   5.843   3.875  13.771 -0.0755  0.0724 -0.1309
17581W        W21881  22.649   3.440   2.118  0.1116  0.0446  0.0858
17582W        W21882   3.436   4.821   1.351 -0.4383 -0.1315  0.0461
17583W        W21883  12.590   4.871   7.386  0.0794 -0.0084 -0.0873
17584W        W21884  18.876   6.225  26.122  0.0062  0.0122 -0.1466
17585W        W21885  20.965   4.894  25.853  0.1513 -0.1746 -0.0430
17586W        W21886  17.549   4.398  27.104  0.0837 -0.1228 -0.0677
17587W        W21887  24.646   6.529  24.184 -0.0116 -0.1301  0.0798
17588W        W21888   9.427   6.424  33.217  0.0130 -0.2294 -0.0170
17589W        W21889   6.796   1.848   0.590 -0.0688  0.1415 -0.0588
17590W        W21890  17.977   6.251  33.838 -0.1090 -0.1628 -0.0886
17591W        W21891  20.280   1.282  11.246 -0.0004 -0.2521 -0.3579
17592W        W21892  10.223   5.698  10.845 -0.0749  0.1194  0.0779
17593W        W21893  12.265   2.906  12.767 -0.1073 -0.1827 -0.0006
17594W        W21894   5.886   5.086   9.819  0.3924 -0.0417  0.0536
17595W        W21895   6.366   4.771   8.933  0.0120  0.0553 -0.0300
17596W        W21896  23.721   3.212  24.211  0.0342  0.1436  0.1362
17597W        W21897  24.882   6.481  25.286  0.2084 -0.1229  0.0370
17598W        W21898  25.774   0.497  31.780 -0.0618  0.1137  0.2276
17599W        W21899  11.124   6.408  22.179 -0.2352 -0.3361  0.0221
17600W        W21900   8.125   2.365   2.251 -0.0648 -0.0349  0.0340
17601W        W21901  23.294   6.260   6.975  0.1407 -0.0259 -0.0765
17602W        W21902  11.082   5.160  31.339  0.0186 -0.1081  0.4682
17603W        W21903   6.695   6.362  23.644 -0.0006 -0.2312 -0.1623
17604W        W21904  25.136   3.808   4.605  0.1233  0.0748 -0.1084
17605W        W21905   2.297   6.487   2.419  0.0759  0.2536 -0.1838
17606W        W21906   0.155   4.105  23.008  0.1950  0.3852  0.0468
17607W        W21907  10.126   2.111  33.322  0.0960 -0.0943  0.0323
17608W        W21908   4.767   4.770   6.534 -0.0572  0.0940 -0.0896
17609W        W21909  21.788   0.168  23.628 -0.0805  0.2199 -0.4145
17610W        W21910  17.152   5.954   1.595  0.2339  0.0848 -0.2632
17611W        W21911  11.912   5.450   6.326  0.1509 -0.0550  0.0098
17612W        W21912  15.059   6.594  22.731 -0.3902 -0.2998  0.1009
17613W        W21913  13.817   2.184  31.778 -0.0500  0.1141  0.1607
17614W        W21914   7.908   6.135   8.256 -0.2264  0.1019  0.2136
17615W        W21915  18.407   5.420   7.666 -0.1185  0.1389 -0.0718
17616W        W21916  15.062   0.935  16.212  0.1368  0.0374  0.0091
17617W        W21917  21.389   6.009  31.507  0.0622  0.0634  0.0702
17618W        W21918  22.310   3.671   8.753  0.0225  0.0718  0.0507
17619W        W21919  14.023   3.853  11.713  0.1813  0.1233 -0.0998
17620W        W21920   6.755   5.538   1.581 -0.3087  0.2511 -0.1398
17621W        W21921  16.176   4.353  26.172 -0.1980  0.1896  0.0158
17622W        W21922   4.227   5.886   3.270 -0.1633 -0.0483  0.0561
17623W        W21923   8.121   4.948  13.126  0.0071 -0.1090 -0.1763
17624W        W21924   0.073   6.433   0.062  0.1246  0.2771 -0.3477
17625W        W21925  12.360   3.604  13.623 -0.0562 -0.0958 -0.3486
17626W        W21926  16.762   1.952  31.805  0.0081 -0.0380 -0.1794
17627W        W21927  17.592   4.854  30.541 -0.1245 -0.2011 -0.2452
17628W        W21928  19.091   6.289  22.694 -0.0742  0.2321 -0.0249
17629W        W21929   5.525   0.101  34.507 -0.3192  0.1535  0.1665
17630W        W21930  14.684   2.572   6.534  0.0225  0.1005 -0.2165
17631W        W21931   9.325   5.846  24.538  0.2583 -0.1111 -0.0255
17632W        W21932   4.974   6.147   3.654 -0.0871 -0.0091  0.0372
17633W        W21933  16.830   0.213  25.946 -0.0581  0.1175  0.2292
17634W        W21934  15.603   2.592  12.156  0.0526  0.1829  0.1400
17635W        W21935   7.026   5.821  34.648 -0.2668  0.0355 -0.1039
17636W        W21936  14.813   6.247  13.735  0.0545 -0.2072  0.1241
17637W        W21937  23.120   4.237  26.644  0.2920 -0.0080 -0.0522
17638W        W21938  14.470   4.034   2.667  0.0728  0.0589  0.3238
17639W        W21939  18.471   3.946  25.836 -0.1431  0.0219  0.1640
17640W        W21940  16.482   1.481  25.489  0.0471  0.3110 -0.1812
17641W        W21941  19.490   2.606  32.156 -0.1942  0.0653 -0.1413
17642W        W21942  10.764   3.988  11.231  0.3298  0.1289 -0.1413
17643W        W21943  26.009   0.816   9.390  0.2291  0.0743 -0.0760
17644W        W21944   8.971   2.206   7.080  0.2801 -0.1227  0.0973
17645W        W21945  10.260   5.038  30.871 -0.2558  0.0337  0.0953
17646W        W21946  11.066   2.309   3.312  0.2505  0.1129 -0.1595
17647W        W21947   7.565   1.017  23.323  0.0805 -0.0381 -0.2374
17648W        W21948   4.483   4.340  25.062 -0.1019  0.3612 -0.2317
17649W        W21949  13.012   4.005  23.824  0.0208 -0.2908 -0.0119
17650W        W21950   4.728   2.846  33.312 -0.1256 -0.0697  0.0188
17651W        W21951  12.060   1.051   6.120 -0.3588 -0.1026 -0.1872
17652W        W21952   7.370   3.656  14.971  0.0375  0.3761  0.2256
17653W        W21953  22.495   3.908   0.658  0.2407  0.0970 -0.0054
17654W        W21954  23.483   4.531   4.509  0.2513  0.3109  0.0190
17655W        W21955   8.413   2.036  10.696 -0.1069  0.2187 -0.0383
17656W        W21956  21.175   1.070  12.923  0.0743 -0.1674 -0.0243
17657W        W21957  18.506   3.896  10.058  0.1011 -0.0479 -0.0691
17658W        W21958   7.468   0.452  30.055 -0.0388 -0.1253 -0.0887
17659W        W21959  13.391   6.500  13.694 -0.0795  0.0229  0.1517
17660W        W21960   5.224   4.825   7.749 -0.0759  0.0414 -0.0226
17661W        W21961  19.197   6.381  27.006  0.0933 -0.2074 -0.1099
17662W        W21962  16.159   1.148  12.156  0.1231 -0.0936 -0.0923
17663W        W21963  24.628   1.972  11.643  0.2297  0.2365 -0.0530
17664W        W21964   8.206   2.930  11.602  0.0978  0.0241  0.0666
17665W        W21965  26.409   5.544  25.365 -0.2073 -0.0760  0.2107
17666W        W21966   4.031   1.471  30.638 -0.0802 -0.0217 -0.1338
17667W        W21967  25.317   2.164   2.989 -0.0353  0.1696 -0.2793
17668W        W21968  17.763   3.218  23.954  0.1574 -0.0387 -0.1227
17669W        W21969   5.321   0.899  34.540 -0.0728 -0.1289 -0.1341
17670W        W21970  20.811   3.818  30.638  0.3795 -0.1462 -0.3213
17671W        W21971  23.475   6.507  33.393 -0.0931  0.0727  0.1309
17672W        W21972  14.494   3.248   3.604  0.0931  0.3172  0.3172
17673W        W21973  24.983   3.036  34.557  0.0060 -0.1354  0.0683
17674W        W21974   8.834   6.390   8.138 -0.1200 -0.1395 -0.0173
17675W        W21975  20.390   1.955  35.203 -0.0200  0.3217  0.1467
17676W        W21976   1.147   3.261  23.234 -0.1738 -0.0157  0.1480
17677W        W21977  23.467   5.807  10.649 -0.0091  0.0012 -0.2481
17678W        W21978  18.589   0.983  29.831  0.1474 -0.2926 -0.0267
17679W        W21979  12.015   1.427  35.204  0.0231 -0.2486 -0.1754
17680W        W21980   2.225   2.453  28.797 -0.0799  0.2537  0.2400
17681W        W21981   0.526   3.039  22.287 -0.2023 -0.2205  0.3025
17682W        W21982  23.487   4.953  24.679  0.2736  0.0169 -0.0736
17683W        W21983   7.618   3.852  19.936  0.0339 -0.1608 -0.2138
17684W        W21984  10.066   5.055   4.047  0.0727 -0.1952  0.1304
17685W        W21985  16.514   2.732  12.017  0.2219 -0.0572  0.2060
17686W        W21986  22.317   4.971   0.892 -0.2324 -0.1824 -0.1387
17687W        W21987  18.097   0.631   5.104 -0.1651 -0.2099 -0.0493
17688W        W21988  16.598   0.161  34.686 -0.1004  0.0210  0.0166
17689W        W21989  14.534   2.964   2.482  0.0773 -0.2124 -0.0745
17690W        W21990  22.827   4.688  11.647 -0.0518  0.0836  0.0799
17691W        W21991  12.621   5.523   4.628 -0.0802 -0.2162  0.0472
17692W        W21992  14.601   4.694   8.445  0.3268 -0.0954  0.2368
17693W        W21993  23.237   3.689  20.517 -0.3429  0.2872 -0.0889
17694W        W21994   1.656   2.415  29.005  0.0587  0.0610  0.0434
17695W        W21995   6.842   5.951  12.585  0.2994  0.1619  0.2911
17696W        W21996   4.024   0.352  14.234  0.1092  0.1046 -0.1770
17697W        W21997  24.012   5.811  13.264 -0.1924  0.1963 -0.2306
17698W        W21998  14.797   4.715  30.545 -0.1694  0.0459 -0.1514
17699W        W21999   9.027   0.606  28.292  0.0908  0.2873  0.1545
17700W        W22000   3.814   1.696  10.343  0.3446 -0.0350 -0.4687
17701W        W22001  21.971   0.430   0.887 -0.2194 -0.0053 -0.1167
17702W        W22002   2.755   5.890   4.949 -0.0307  0.0607 -0.1825
17703W        W22003   4.573   1.382   9.776 -0.2408  0.1045  0.1943
17704W        W22004  12.567   3.036  11.714  0.0203 -0.0946  0.3609
17705W        W22005   3.644   6.203  22.026  0.1368 -0.0631  0.0416
17706W        W22006   2.507   3.823  27.920  0.1054  0.2444  0.0068
17707W        W22007   0.136   4.606  28.017  0.1978  0.2339  0.0475
17708W        W22008  22.654   6.102   8.664 -0.0791  0.1538 -0.1627
17709W        W22009  23.084   0.095  35.053  0.2502  0.0572  0.2016
17710W        W22010   0.628   0.718  30.669  0.1207  0.1762  0.2559
17711W        W22011   4.685   2.686  24.815 -0.0142 -0.0452 -0.1625
17712W        W22012   7.188   1.098  22.743 -0.0788 -0.1416  0.0689
17713W        W22013  11.904   3.470  29.500  0.0416  0.4268 -0.3408
17714W        W22014  23.630   4.365  27.312  0.1464 -0.1225  0.0129
17715W        W22015   1.022   0.590  25.189  0.1875 -0.0145 -0.0768
17716W        W22016  26.427   2.129  35.670 -0.4036 -0.0112  0.2196
17717W        W22017  15.810   5.562  23.892 -0.4055 -0.1308 -0.0753
17718W        W22018   3.612   2.000  31.591 -0.0564 -0.1995  0.1258
17719W        W22019  20.162   5.206  21.282  0.2426  0.1385 -0.0656
17720W        W22020  21.561   1.185  30.181 -0.3243  0.0114  0.2231
17721W        W22021  19.127   5.611  34.272 -0.0162 -0.3239  0.1136
17722W        W22022   7.382   1.999  28.727 -0.0767 -0.0364 -0.2363
17723W        W22023   7.518   4.449   8.529 -0.2893  0.1024 -0.0551
17724W        W22024  24.313   5.890   0.654  0.0878  0.0409 -0.3070
17725W        W22025  22.406   4.254   9.843 -0.0410  0.3397  0.2815
17726W        W22026  22.227   0.221  29.938 -0.1356 -0.1458 -0.0445
17727W        W22027   5.123   0.437   9.719  0.0104 -0.2261  0.3828
17728W        W22028   8.099   5.802  35.818 -0.0752 -0.1825 -0.1592
17729W        W22029  13.541   5.570  11.456 -0.1712  0.0358  0.0865
17730W        W22030   5.259   3.121   3.101  0.4394 -0.0182 -0.0706
17731W        W22031  20.930   2.990  36.067 -0.1978  0.1921 -0.1532
17732W        W22032  18.022   2.323   0.956  0.0221  0.1825  0.1727
17733W        W22033  22.194   3.107   2.924  0.1352  0.1138 -0.0473
17734W        W22034  19.981   1.040  21.207  0.2816  0.1484 -0.4998
17735W        W22035  11.195   5.590   7.391  0.1864 -0.1182 -0.1461
17736W        W22036  18.364   0.393  33.411  0.0311 -0.1428  0.0122
17737W        W22037  22.266   4.328  15.398 -0.0798 -0.1261 -0.2191
17738W        W22038  22.306   3.404  13.959 -0.3611  0.1134 -0.1631
17739W        W22039  19.797   0.607  10.815  0.0654 -0.0404  0.0838
17740W        W22040  26.228   3.207   0.771 -0.0836 -0.1684 -0.1191
17741W        W22041  11.131   4.351  11.295 -0.2345  0.0912 -0.0248
17742W        W22042  22.271   5.472  29.671  0.0336 -0.1599 -0.2161
17743W        W22043   3.076   0.688   4.034  0.0337 -0.1205 -0.0649
17744W        W22044  10.535   2.471   7.951 -0.3803 -0.3383 -0.2401
17745W        W22045  12.790   5.535  23.994 -0.0157  0.0540 -0.0032
17746W        W22046   4.024   3.203  30.699 -0.0739  0.1536 -0.0186
17747W        W22047   1.009   2.060  23.846 -0.0009 -0.0066  0.4841
17748W        W22048   4.562   4.795  10.517 -0.0152 -0.2224 -0.4321
17749W        W22049   6.313   6.032   7.945 -0.1938 -0.0902 -0.0245
17750W        W22050  20.994   0.971  15.479  0.1183  0.0881 -0.0250
17751W        W22051   6.473   1.519  27.212 -0.2097  0.1000  0.1687
17752W        W22052  13.711   0.861  32.616 -0.2407 -0.0792 -0.1512
17753W        W22053  20.618   4.323   6.468  0.2311  0.1447  0.2073
17754W        W22054  10.225   0.634  25.610 -0.0026 -0.0611 -0.2065
17755W        W22055  12.385   3.111  35.817 -0.0248 -0.0052 -0.2555
17756W        W22056  14.774   4.548  11.964  0.0041 -0.1009 -0.1772
17757W        W22057  22.725   1.962  20.628 -0.1290 -0.1800 -0.0867
17758W        W22058  18.472   3.926  24.253 -0.1321 -0.0665 -0.0206
17759W        W22059  24.529   1.913  13.593 -0.0207 -0.2855  0.2727
17760W        W22060  17.696   1.511  30.518  0.1314  0.2480 -0.3874
17761W        W22061   4.700   2.320   0.830 -0.0308  0.1708  0.1789
17762W        W22062   6.730   3.640   6.127  0.1762 -0.3552  0.1286
17763W        W22063  19.105   1.163   9.363  0.3444  0.2484 -0.2506
17764W        W22064  23.493   5.468  11.717 -0.0889  0.1321 -0.0450
17765W        W22065  18.746   2.812  31.876  0.2226 -0.0649 -0.0152
17766W        W22066  21.492   5.552  32.849  0.1434  0.1598  0.0465
17767W        W22067   1.579   6.305   9.899  0.0666 -0.0858  0.2465
17768W        W22068   4.384   2.733  12.762  0.0117 -0.2479  0.0241
17769W        W22069   3.086   6.243  13.041  0.0571 -0.0203 -0.1667
17770W        W22070  18.342   2.696   3.219 -0.0884 -0.1249 -0.0252
17771W        W22071  19.320   0.279   1.163  0.0773  0.0962 -0.0384
17772W        W22072   3.028   5.197  35.194 -0.2450 -0.0812  0.0038
17773W        W22073   8.482   4.616  30.469  0.1274  0.1673 -0.1810
17774W        W22074   3.629   2.724  22.285 -0.0336  0.2203 -0.1301
17775W        W22075  22.144   0.544  33.311  0.2438  0.3437 -0.2422
17776W        W22076   5.900   2.068  29.777 -0.1429 -0.1344  0.2337
17777W        W22077  24.351   4.017  25.894  0.2411  0.0549  0.2046
17778W        W22078  18.443   0.398  13.284 -0.0089  0.0049 -0.0488
17779W        W22079  18.274   3.070  12.704 -0.0839  0.0129 -0.2309
17780W        W22080  17.897   3.027  29.030 -0.1408  0.0177  0.1102
17781W        W22081   3.570   0.726   3.291 -0.0998  0.0773  0.1466
17782W        W22082  15.766   2.847  14.943 -0.1394  0.1828  0.0023
17783W        W22083   1.688   3.407  11.098  0.1309  0.1308 -0.1641
17784W        W22084  10.723   4.016  34.853  0.1580  0.1216 -0.2227
17785W        W22085   8.657   3.609   7.444 -0.0890 -0.1410  0.1639
17786W        W22086  21.910   2.500   9.894 -0.0024  0.0110 -0.0232
17787W        W22087  15.216   2.653  15.777 -0.1580  0.0004 -0.0115
17788W        W22088   0.439   1.104  30.478  0.3213 -0.1392  0.0063
17789W        W22089  11.751   4.550   0.326  0.4435  0.1315 -0.2233
17790W        W22090   2.966   1.792   5.731 -0.1073  0.1376  0.0288
17791W        W22091  19.999   1.074  33.372  0.1383  0.0358  0.1181
17792W        W22092  11.013   2.549  28.870 -0.3300  0.2375  0.0987
17793W        W22093  23.513   6.334   3.159 -0.0524 -0.0019 -0.0073
17794W        W22094  21.882   3.069  26.915  0.2246 -0.2888 -0.3700
17795W        W22095  11.494   5.676  33.738 -0.1528  0.0965 -0.2116
17796W        W22096  23.735   5.407  10.887  0.1543  0.1991  0.1292
17797W        W22097  18.763   5.876   0.272  0.1808 -0.0562  0.3303
17798W        W22098   2.114   0.468  35.737 -0.0145  0.0962 -0.1967
17799W        W22099  16.458   1.119  25.911 -0.0434  0.3671 -0.2215
17800W        W22100  18.819   5.883  14.776 -0.0327 -0.0961  0.2712
17801W        W22101  13.050   1.450   0.251  0.2009 -0.0973 -0.1221
17802W        W22102  24.656   1.498  27.606  0.1304  0.2941  0.0221
17803W        W22103  24.547   3.096  10.100  0.0050 -0.0768 -0.2487
17804W        W22104  17.980   3.054   5.378 -0.1016 -0.2857 -0.1886
17805W        W22105   4.257   1.729  10.636  0.2382  0.0795  0.1912
17806W        W22106  16.728   0.751  26.166  0.1028  0.2470  0.1754
17807W        W22107  13.184   3.744   4.543 -0.2186  0.0625  0.1410
17808W        W22108   1.052   6.027  26.363  0.0855 -0.2025 -0.2057
17809W        W22109  10.420   2.697  30.958  0.0975  0.1505  0.0517
17810W        W22110  24.139   4.169   2.428  0.0238  0.1815  0.2932
17811W        W22111  10.718   0.555   9.121  0.0231  0.0133  0.1994
17812W        W22112   2.489   0.727  35.504 -0.0600 -0.0652  0.0406
17813W        W22113  19.039   5.483  10.022  0.0928  0.1686  0.1869
17814W        W22114   3.819   0.030  30.065 -0.1978  0.0392  0.0011
17815W        W22115  14.357   0.707   1.811 -0.0082  0.2118 -0.0175
17816W        W22116  21.154   2.439  22.328  0.0335 -0.0395 -0.1055
17817W        W22117  12.095   3.290  20.209  0.0237 -0.2249  0.1107
17818W        W22118  22.145   4.952  35.395  0.2651 -0.0170  0.0446
17819W        W22119   2.286   6.262  24.278 -0.1689 -0.1457  0.0333
17820W        W22120  22.276   3.801   6.397 -0.3169 -0.0594  0.0793
17821W        W22121   6.539   1.077   2.656 -0.1344 -0.1205  0.3376
17822W        W22122   0.710   1.880  32.282 -0.1352  0.0215  0.0799
17823W        W22123  22.798   5.184  24.637  0.1253  0.1706  0.0614
17824W        W22124  16.813   5.471   9.647  0.0096 -0.1007 -0.3471
17825W        W22125   0.030   1.569  11.760  0.0854 -0.1958 -0.0825
17826W        W22126   6.772   4.722  13.335  0.3305  0.0055  0.6072
17827W        W22127   4.233   0.365  27.589 -0.1369 -0.0297 -0.0034
17828W        W22128  25.341   4.558   7.707  0.1210  0.0830  0.1179
17829W        W22129   3.244   0.604  13.223 -0.1225 -0.0566 -0.0411
17830W        W22130   1.480   6.514  29.682 -0.0814  0.2461  0.0462
17831W        W22131  19.493   1.203  33.809 -0.1830  0.0591  0.2296
17832W        W22132  10.609   2.700  12.525  0.0195 -0.1315  0.1124
17833W        W22133  10.980   6.531  28.201 -0.3673 -0.0833 -0.0842
17834W        W22134  10.901   0.609   9.574  0.2782  0.0957 -0.0230
17835W        W22135  11.943   0.320  10.236 -0.1191 -0.0787  0.0071
17836W        W22136   3.770   6.440  14.581 -0.0229 -0.0475  0.0926
17837W        W22137  20.200   6.095  28.469 -0.2999  0.1195 -0.1669
17838W        W22138   9.172   3.444  31.576  0.1094  0.1573 -0.1202
17839W        W22139   0.252   0.163  31.575  0.2436  0.1654  0.1077
17840W        W22140  14.402   3.391  30.215 -0.2480  0.0264 -0.1319
17841W        W22141   0.743   0.420   6.843  0.0198  0.1238  0.2105
17842W        W22142  15.512   2.061  33.850 -0.0565 -0.0219 -0.1219
17843W        W22143   0.269   3.489   8.883  0.0591  0.0921 -0.0933
17844W        W22144  17.222   2.694  29.105 -0.2444  0.3968  0.0574
17845W        W22145  16.287   3.157  10.928 -0.0324 -0.3389  0.0171
17846W        W22146  25.782   5.238   8.383  0.0001  0.0418 -0.2582
17847W        W22147  25.506   0.325  13.133  0.0122  0.1020  0.0027
17848W        W22148   0.203   3.023   9.064  0.2534 -0.0418  0.0776
17849W        W22149  12.102   2.429  32.168  0.2157  0.0743  0.5566
17850W        W22150   5.741   1.726   3.427 -0.1079 -0.2350 -0.0508
17851W        W22151   9.196   4.280  20.899  0.2129  0.0237  0.0563
17852W        W22152   0.821   2.812  33.148  0.0591  0.0213 -0.3648
17853W        W22153  17.105   0.629  32.187 -0.4997 -0.2245  0.1905
17854W        W22154  23.578   4.301  30.326 -0.2482 -0.2148  0.0730
17855W        W22155  21.744   0.311   4.570 -0.2880 -0.0641 -0.1220
17856W        W22156   8.450   4.770  27.769 -0.0644 -0.1894  0.1127
17857W        W22157   9.847   4.617   1.411 -0.0772 -0.0900 -0.0817
17858W        W22158   8.115   3.460  24.308  0.1327  0.2081  0.0658
17859W        W22159  11.181   5.417  35.824  0.2114 -0.2167 -0.1060
17860W        W22160   3.575   5.910  33.099  0.1282  0.1642 -0.0445
17861W        W22161  13.839   0.835  11.524  0.0853 -0.2622  0.0267
17862W        W22162   5.921   3.522  30.340 -0.1204  0.1790  0.0560
17863W        W22163   4.601   2.750  23.453  0.0815  0.0923 -0.0972
17864W        W22164   2.028   4.904   2.499  0.1426  0.2337  0.0323
17865W        W22165  14.285   4.714  11.224  0.0490 -0.1135  0.2270
17866W        W22166  22.056   5.179  28.711 -0.2268  0.2867 -0.0221
17867W        W22167   7.418   2.237  13.119  0.0341  0.2371 -0.0317
17868W        W22168   0.667   0.885   7.889  0.0712  0.1344 -0.1042
17869W        W22169  16.902   4.805  13.293 -0.1605  0.3665  0.2161
17870W        W22170   4.091   5.796  29.226  0.1384  0.1516  0.0454
17871W        W22171   4.971   3.894  11.349  0.2021  0.1250  0.0772
17872W        W22172   6.695   4.742  29.796 -0.2155  0.0690 -0.0634
17873W        W22173  10.921   4.155  29.473  0.0250 -0.3766  0.2812
17874W        W22174   7.634   4.241   7.639  0.1712 -0.1493  0.1045
17875W        W22175   6.948   2.438  11.727 -0.1111 -0.0858 -0.1766
17876W        W22176  21.015   0.756  11.534  0.0146  0.1136  0.1176
17877W        W22177  18.217   4.631  13.085 -0.0142 -0.3856 -0.2325
17878W        W22178  12.698   2.646  12.484 -0.0130 -0.2173 -0.0899
17879W        W22179  23.097   4.314   3.501  0.2178 -0.0212  0.2189
17880W        W22180   4.742   5.897  13.410 -0.0135 -0.2725 -0.0212
17881W        W22181  14.925   3.981  13.618 -0.0413  0.3828 -0.0252
17882W        W22182   3.132   3.388   6.341  0.0534 -0.1271  0.3178
17883W        W22183  22.173   5.256  13.221  0.0192  0.1787 -0.0020
17884W        W22184  23.754   1.588  29.850  0.1316  0.0230  0.1019
17885W        W22185  15.831   3.040   6.041 -0.0661  0.0351  0.0125
17886W        W22186  21.441   5.077   0.668  0.1117  0.2402 -0.2429
17887W        W22187   6.477   1.488   4.728  0.1517  0.1303  0.1379
17888W        W22188   1.662   1.360  26.719  0.0991 -0.0614  0.1080
17889W        W22189   9.700   2.222  27.562 -0.2011  0.1063 -0.1015
17890W        W22190  16.378   0.639  15.559 -0.0128 -0.0579 -0.1952
17891W        W22191  18.515   4.693  13.550 -0.3669 -0.4158 -0.0587
17892W        W22192  18.252   0.740   4.094 -0.0133 -0.2488  0.0848
17893W        W22193  15.693   1.795   7.663  0.0026  0.2298  0.1603
17894W        W22194  12.670   3.543  31.812  0.3423 -0.5170  0.0821
17895W        W22195   0.253   3.540  26.583 -0.0041  0.0607 -0.2921
17896W        W22196  17.517   5.742  32.637  0.1228 -0.3275 -0.4125
17897W        W22197  11.512   6.306   8.656  0.3159 -0.4208  0.1925
17898W        W22198   7.442   5.289  21.932  0.1732 -0.1223  0.4863
17899W        W22199  20.105   5.429  26.889 -0.5176 -0.1026 -0.0900
17900W        W22200  10.451   4.971  12.092 -0.1220  0.1624 -0.0649
17901W        W22201   7.574   0.843  21.746 -0.0666  0.0723  0.1301
17902W        W22202  14.349   4.880  30.327 -0.1076 -0.2061 -0.0721
17903W        W22203   0.860   2.152  30.467  0.1136 -0.1035  0.0191
17904W        W22204   5.437   4.397   7.859 -0.2323 -0.2275  0.0631
17905W        W22205  11.805   5.301   1.084 -0.2588 -0.0205  0.2260
17906W        W22206  23.313   0.410  28.375  0.1778  0.0131 -0.0840
17907W        W22207   6.001   6.405  33.774  0.0160 -0.2269 -0.1386
17908W        W22208   1.573   3.327  29.220  0.0328  0.2661 -0.0019
17909W        W22209   8.302   3.993   8.638 -0.0992 -0.1934 -0.1107
17910W        W22210   2.193   2.637   7.584 -0.0247  0.0344 -0.2188
17911W        W22211   6.535   5.869  23.649  0.1179  0.1400  0.0560
17912W        W22212  14.347   5.678  31.342 -0.2914  0.1919 -0.1698
17913W        W22213   3.751   5.434  28.235 -0.2866 -0.1212 -0.1046
17914W        W22214   8.233   3.046   2.388  0.2294  0.2067 -0.0736
17915W        W22215  22.580   2.226   0.315 -0.1694  0.1285 -0.1352
17916W        W22216  26.296   2.757  27.074 -0.0100  0.1363 -0.3169
17917W        W22217  18.337   3.478  32.270 -0.0774 -0.0530 -0.1445
17918W        W22218  10.035   4.389  26.240  0.1830  0.0792 -0.1712
17919W        W22219   4.515   6.232  31.476 -0.3471 -0.1204  0.0863
17920W        W22220  17.769   3.767   6.890 -0.2959  0.2910  0.4424
17921W        W22221  24.835   1.220  32.166 -0.3493  0.2992 -0.1153
17922W        W22222  21.524   3.879  13.655 -0.1039 -0.2914  0.2156
17923W        W22223  20.558   6.550  31.522  0.2445  0.0303  0.0372
17924W        W22224  13.915   4.083  31.236 -0.1731 -0.3265  0.2762
17925W        W22225   7.604   5.894  34.589  0.2134 -0.1856 -0.0631
17926W        W22226   4.106   4.984  29.953  0.2727 -0.0941  0.0479
17927W        W22227  25.435   0.298  20.733 -0.0170  0.1768 -0.0733
17928W        W22228  13.794   6.067  21.574  0.0969 -0.1889 -0.0437
17929W        W22229   9.691   4.185  23.780  0.0707  0.2673  0.1475
17930W        W22230  17.588   4.177  25.901  0.0165 -0.3417  0.0634
17931W        W22231  18.320   5.820  27.768  0.0205 -0.2157 -0.1066
17932W        W22232  25.126   2.120   5.577 -0.0965 -0.1544 -0.3094
17933W        W22233  25.853   3.818   2.840  0.1937  0.0154  0.1882
17934W        W22234  23.204   4.848  30.469  0.0798  0.0335 -0.1217
17935W        W22235  11.810   6.231   9.311  0.3027  0.1329  0.1173
17936W        W22236  23.050   1.701  32.425 -0.2503 -0.2176  0.2200
17937W        W22237  20.263   5.265  13.129  0.0865  0.0202  0.3171
17938W        W22238   6.278   4.361   5.663  0.2847 -0.0752 -0.2350
17939W        W22239   7.039   3.280  11.308  0.1371 -0.1165 -0.0298
17940W        W22240  23.990   1.396   9.598 -0.1241  0.0765  0.0751
17941W        W22241   5.675   2.989  11.482 -0.0464  0.1898 -0.4455
17942W        W22242   0.055   0.824   4.350  0.0827 -0.2331 -0.1610
17943W        W22243  18.795   2.143  34.292  0.1198  0.1024 -0.0035
17944W        W22244  24.092   5.435  23.255 -0.2235  0.1460  0.0188
17945W        W22245  15.470   0.199   6.895  0.0973  0.1301  0.1903
17946W        W22246  11.015   4.626  15.300 -0.1857 -0.2710  0.2027
17947W        W22247   3.671   0.781  12.568 -0.1402  0.2497  0.1922
17948W        W22248  11.742   1.791  34.327 -0.1637  0.1573  0.0999
17949W        W22249   5.211   0.098   1.945 -0.1226 -0.1302  0.2507
17950W        W22250  26.329   4.488   4.326  0.0804 -0.3671  0.2149
17951W        W22251   2.632   6.125   3.310  0.1022  0.0777 -0.2443
17952W        W22252  23.094   2.452  23.057 -0.1909 -0.2155  0.0895
17953W        W22253  12.536   5.308   9.082  0.0383  0.0196  0.0085
17954W        W22254   6.471   4.056  25.920  0.2297 -0.3966  0.3518
17955W        W22255   5.709   4.258   4.450  0.0972 -0.2396  0.2598
17956W        W22256   0.415   6.339  28.842 -0.1767  0.2100 -0.0582
17957W        W22257  15.528   4.673  33.039 -0.3156 -0.1140  0.0431
17958W        W22258  23.846   5.595  27.303  0.1454 -0.0119  0.0273
17959W        W22259  10.479   4.200  22.762 -0.2393  0.0232 -0.1440
17960W        W22260  13.315   2.259  12.839  0.2030  0.2886  0.1522
17961W        W22261   8.006   6.409  32.360 -0.0307 -0.0579 -0.1966
17962W        W22262   3.561   0.404  32.945 -0.1576 -0.1310 -0.0334
17963W        W22263  11.517   5.128  26.429  0.2521  0.1237 -0.2202
17964W        W22264  21.085   1.902   7.436  0.3863  0.0274 -0.3595
17965W        W22265  23.496   3.037  29.360 -0.0168  0.3223  0.1973
17966W        W22266   1.332   2.505  34.884  0.3786 -0.0212 -0.0306
17967W        W22267   2.359   5.466   7.570  0.0897 -0.1746  0.0489
17968W        W22268   7.138   3.345  35.408 -0.1439  0.2809 -0.0543
17969W        W22269   1.080   4.158  31.631 -0.1134 -0.1121 -0.1919
17970W        W22270   3.095   5.210  25.457 -0.3597  0.0296  0.0306
17971W        W22271  23.331   0.646  26.323  0.0073  0.0367 -0.0591
17972W        W22272   1.815   2.548  12.379  0.0101  0.2289  0.1245
17973W        W22273   4.877   2.730  28.021 -0.0627 -0.0916  0.0526
17974W        W22274  17.998   6.285   0.865  0.2659 -0.1020 -0.0616
17975W        W22275   2.938   3.341   4.868  0.3169  0.1347  0.0291
17976W        W22276  16.134   2.911  23.716 -0.0548  0.2238  0.0674
17977W        W22277   5.414   4.838   9.557  0.1897 -0.3904  0.2194
17978W        W22278   4.717   4.366  10.562 -0.1474  0.2222  0.3782
17979W        W22279   7.904   6.050  26.052  0.2261  0.1499  0.0715
17980W        W22280  25.017   6.355  30.011  0.1511 -0.0954  0.2532
17981W        W22281  23.264   0.557  14.203  0.1512  0.0444 -0.0552
17982W        W22282  11.648   1.173  25.825 -0.2108  0.0298  0.0163
17983W        W22283   0.465   0.106  11.974 -0.3262 -0.1306 -0.0474
17984W        W22284  15.257   4.808   9.767  0.0507 -0.1174 -0.0343
17985W        W22285   5.405   5.829  21.344 -0.0897  0.0055 -0.0179
17986W        W22286  21.866   3.288  35.389 -0.0850  0.0157 -0.1537
17987W        W22287  23.446   6.157  28.941  0.1413  0.0416  0.1083
17988W        W22288  14.252   3.741   5.589  0.2598  0.2310 -0.0064
17989W        W22289  24.123   3.633  28.293 -0.0619  0.0290 -0.0296
17990W        W22290  25.153   0.557  29.538  0.1759  0.4005 -0.0545
17991W        W22291  24.090   2.115  31.864 -0.3069 -0.0191 -0.0431
17992W        W22292   8.309   2.261   5.501  0.3797 -0.0971 -0.2490
17993W        W22293   0.003   5.947  10.392  0.0661 -0.0254  0.1710
17994W        W22294  19.203   5.931  10.146 -0.1060  0.1901  0.0703
17995W        W22295  25.665   0.957  23.357 -0.0555  0.0892 -0.1549
17996W        W22296  21.896   4.658  28.014  0.2683  0.1658 -0.0176
17997W        W22297  16.622   2.481  21.330 -0.2315 -0.1639  0.0652
17998W        W22298  21.240   4.106  14.460  0.2558  0.0796  0.0673
17999W        W22299   0.076   1.946  13.488  0.0268  0.1960 -0.3523
18000W        W22300  11.314   4.081  10.421  0.0830  0.1576  0.1040
18001W        W22301   0.561   0.700  20.618  0.0160  0.1365  0.2503
18002W        W22302   8.311   4.663  33.582 -0.3910 -0.1150  0.1487
18003W        W22303  11.124   5.710   3.823 -0.0195  0.0156 -0.2013
18004W        W22304   8.255   3.476  26.653  0.3031  0.1059 -0.1792
18005W        W22305  24.757   0.948   8.086 -0.0977 -0.1083 -0.0742
18006W        W22306  26.204   3.313   8.949 -0.1379 -0.2611 -0.2366
18007W        W22307  26.015   1.748  13.582 -0.1569 -0.0474  0.0546
18008W        W22308   2.498   2.904  27.609  0.0449 -0.1038 -0.1465
18009W        W22309  17.860   2.713   1.866  0.0832 -0.0141  0.1525
18010W        W22310   7.532   3.853  21.557 -0.0628  0.0358 -0.0718
18011W        W22311  22.069   1.391   4.482  0.0007 -0.0474 -0.1682
18012W        W22312   4.475   2.295  30.939  0.2005  0.1622 -0.2506
18013W        W22313  13.028   1.681  24.478 -0.1131  0.0139  0.3501
18014W        W22314  21.346   3.475  25.695 -0.0469 -0.2420 -0.0411
18015W        W22315   6.833   0.046  30.560 -0.2251  0.0685 -0.1284
18016W        W22316  10.605   6.574  13.775 -0.0611  0.2187 -0.0093
18017W        W22317  19.802   1.949  25.289 -0.0958 -0.1612 -0.1489
18018W        W22318  21.560   2.378  22.610  0.2875 -0.0602 -0.0217
18019W        W22319  24.944   5.460  29.835  0.0606  0.0178 -0.1196
18020W        W22320   6.466   3.035   7.725  0.2617 -0.2590 -0.0487
18021W        W22321  22.698   2.126   8.761 -0.1739  0.1009 -0.3061
18022W        W22322   8.984   3.934  12.051  0.0679  0.0619 -0.1127
18023W        W22323  24.577   4.715  24.260  0.0663 -0.0157 -0.1779
18024W        W22324   9.159   1.020  23.585 -0.0533  0.0000  0.0518
18025W        W22325  20.550   3.694  26.699  0.2308  0.1040  0.0683
18026W        W22326  17.135   5.014   6.527 -0.0930 -0.2418 -0.2490
18027W        W22327   4.913   3.746   0.082 -0.0936  0.1102  0.1805
18028W        W22328  20.936   3.345  31.881 -0.2244  0.0762  0.3375
18029W        W22329  19.890   2.318   2.962  0.1430  0.1651 -0.1411
18030W        W22330   4.383   0.170   9.434  0.0183 -0.0107 -0.0675
18031W        W22331  21.000   1.192  26.038 -0.0820  0.0581  0.3511
18032W        W22332  26.295   0.740  11.634  0.3072 -0.0293 -0.3171
18033W        W22333  16.770   4.445  35.921 -0.2677  0.4221  0.1859
18034W        W22334  26.402   2.709  20.644 -0.2165  0.1944  0.2047
18035W        W22335   3.414   4.631   3.247 -0.0379  0.0691 -0.1529
18036W        W22336  24.266   0.022   0.364  0.0278  0.3048 -0.1333
18037W        W22337   9.200   3.513   8.588 -0.0702  0.0519 -0.1458
18038W        W22338  20.296   4.510   0.253 -0.3215 -0.0500  0.0373
18039W        W22339  16.608   5.142   0.358  0.1233 -0.0223 -0.3603
18040W        W22340   8.273   4.345  35.669 -0.0658  0.0676  0.1132
18041W        W22341  21.431   6.109   5.218  0.3805 -0.2198  0.0801
18042W        W22342  11.194   6.452  32.995 -0.2997 -0.1562 -0.3810
18043W        W22343   3.500   1.906  10.871  0.0689  0.4951  0.0745
18044W        W22344  19.321   0.113  14.559  0.1358  0.2525  0.0862
18045W        W22345  12.289   0.959  24.824  0.0646 -0.0145  0.0122
18046W        W22346   3.038   0.588  34.560 -0.0933  0.3433  0.0049
18047W        W22347   0.374   5.367  26.334 -0.0772 -0.1147  0.2022
18048W        W22348  17.669   5.357   1.046  0.0239  0.0272 -0.0682
18049W        W22349   2.888   5.615  20.558  0.1364 -0.0631 -0.0304
18050W        W22350  22.581   6.582  12.213 -0.2655 -0.2293 -0.0695
18051W        W22351  21.696   0.635  29.196 -0.0417  0.0716  0.0060
18052W        W22352   1.052   5.139  13.419 -0.1048 -0.4094  0.0683
18053W        W22353  14.982   1.797   5.414 -0.0813 -0.0476 -0.0074
18054W        W22354  23.193   0.907   9.354  0.0882  0.1027 -0.3714
18055W        W22355   4.957   0.882   1.945  0.0243  0.0484  0.0776
18056W        W22356   9.480   1.341   2.947 -0.1315  0.0785  0.0878
18057W        W22357   4.570   4.166  26.074 -0.0972 -0.0183  0.0768
18058W        W22358  23.889   1.406   5.601 -0.0084  0.0466 -0.3391
18059W        W22359   4.288   1.828   4.491  0.1137 -0.1199 -0.1264
18060W        W22360  24.775   4.507  20.775  0.2124 -0.1577 -0.2456
18061W        W22361   0.658   5.316  26.858 -0.3360  0.2861 -0.0036
18062W        W22362   6.335   3.987   7.633  0.4694  0.1623  0.0985
18063W        W22363   1.033   4.934  15.004 -0.1840  0.1097  0.0750
18064W        W22364  13.810   0.589  33.354 -0.1248 -0.0410  0.0836
18065W        W22365   4.654   5.546  26.377  0.2055 -0.1771  0.4256
18066W        W22366   8.710   6.548   1.570  0.0844 -0.6169 -0.0440
18067W        W22367   6.049   1.328   2.735  0.0881  0.1386 -0.1175
18068W        W22368  24.103   1.560  23.847  0.1665  0.3932 -0.1554
18069W        W22369  17.328   4.728  11.973 -0.2472 -0.0558  0.1173
18070W        W22370  22.568   5.881  33.656  0.2064 -0.0533  0.0451
18071W        W22371   7.038   6.166  32.573 -0.0792  0.0961 -0.1487
18072W        W22372  10.592   0.324  15.210 -0.0970  0.0347  0.0976
18073W        W22373  17.370   5.466  27.876  0.1666  0.0811 -0.0166
18074W        W22374   2.009   3.088   9.261  0.1489  0.2449  0.2556
18075W        W22375   2.064   4.166  12.204 -0.2263  0.0233 -0.0449
18076W        W22376  12.886   4.776  30.091 -0.0545 -0.0486  0.1085
18077W        W22377   4.768   3.433   2.113 -0.2688 -0.1415 -0.1737
18078W        W22378  23.685   3.763  13.684 -0.0427 -0.2852  0.1844
18079W        W22379   9.641   4.459  24.284  0.0073 -0.2056 -0.2609
18080W        W22380  15.662   0.224  25.444 -0.0964  0.0628 -0.2354
18081W        W22381   8.539   0.422  22.128 -0.1303 -0.0903 -0.0060
18082W        W22382  17.053   3.320  26.220  0.1035  0.1776  0.0572
18083W        W22383  12.152   2.919   5.608  0.2168 -0.0911  0.0542
18084W        W22384   5.651   3.593   4.497 -0.0386  0.2224 -0.1936
18085W        W22385  19.636   0.181  32.523 -0.2954  0.0293 -0.1979
18086W        W22386   4.966   5.364  11.281  0.3106  0.0366 -0.0954
18087W        W22387  14.132   5.912  34.133 -0.1032 -0.0573  0.0009
18088W        W22388   1.201   2.298  32.775  0.0230 -0.3147  0.2905
18089W        W22389   0.709   1.789  29.626 -0.3073  0.2436 -0.0728
18090W        W22390   8.896   2.989  31.688 -0.2972  0.0981  0.1225
18091W        W22391  13.246   3.657   5.886 -0.1329 -0.1405  0.0579
18092W        W22392   4.264   1.089  25.511 -0.0191  0.3746 -0.2348
18093W        W22393   0.849   6.424  20.752 -0.1135  0.0007  0.0218
18094W        W22394  19.760   1.316  33.051  0.1697 -0.0999 -0.0066
18095W        W22395  17.571   0.348  28.779 -0.3273  0.2049 -0.0268
18096W        W22396  23.351   2.442  36.053 -0.0889  0.4611 -0.2070
18097W        W22397  18.811   4.623  29.775  0.0555 -0.2397  0.3699
18098W        W22398  23.162   5.596  14.607 -0.0292  0.2770  0.0172
18099W        W22399  23.857   6.387  27.033 -0.0401  0.1019  0.0233
18100W        W22400  18.788   2.276   6.241 -0.0802  0.2336 -0.2713
18101W        W22401  12.458   4.453  34.291 -0.2267 -0.2628 -0.2513
18102W        W22402   3.856   1.524  10.858  0.0431 -0.0573 -0.0646
18103W        W22403   2.258   3.090  24.912 -0.1681 -0.1828  0.0904
18104W        W22404  15.983   4.494   3.273 -0.0288 -0.1272 -0.0382
18105W        W22405  23.282   3.329  31.648 -0.3689 -0.0095 -0.2365
18106W        W22406   4.075   5.140  29.196  0.2502 -0.0960  0.0123
18107W        W22407   3.943   1.849  21.690  0.0130 -0.3615  0.1317
18108W        W22408   9.936   4.757  25.162  0.2905 -0.3531 -0.3014
18109W        W22409  17.740   5.728   3.448  0.0138 -0.2651 -0.2274
18110W        W22410   5.617   1.801  34.259  0.0305  0.1397  0.2374
18111W        W22411  18.379   5.843   7.931 -0.2255  0.0682  0.0171
18112W        W22412  14.657   6.538  15.669  0.1220 -0.0237 -0.2099
18113W        W22413  16.704   1.309  30.322 -0.0201  0.3335 -0.1516
18114W        W22414  22.670   2.066   3.891 -0.0483 -0.1829 -0.0241
18115W        W22415  18.313   2.850  30.371 -0.0434 -0.2836  0.0693
18116W        W22416  23.277   5.730  25.893  0.2323 -0.0643 -0.2882
18117W        W22417   8.411   4.512  11.640 -0.0741 -0.1017  0.2188
18118W        W22418  12.749   2.488   0.014  0.0078 -0.0329  0.2699
18119W        W22419   4.223   4.363  14.686  0.0328 -0.1333  0.0104
18120W        W22420   5.156   0.979   9.238  0.2494 -0.1121  0.1865
18121W        W22421   6.112   2.763  31.643 -0.0693  0.2964  0.0442
18122W        W22422  21.127   1.805  24.645  0.1733 -0.0350 -0.3770
18123W        W22423  19.475   5.632  23.308  0.5859 -0.0489  0.3006
18124W        W22424  10.997   4.194  15.102 -0.2859 -0.1769  0.1061
18125W        W22425   4.795   2.036   7.969  0.0335  0.0993 -0.4029
18126W        W22426   3.019   2.479  10.451  0.0664  0.0403  0.0810
18127W        W22427   9.310   2.341  23.365 -0.1047  0.0483  0.0013
18128W        W22428  12.189   1.892  30.980 -0.1713 -0.0850 -0.0252
18129W        W22429  14.155   5.313  20.584 -0.1782  0.0487 -0.1439
18130W        W22430   3.033   2.434  23.959 -0.1378 -0.2356  0.4080
18131W        W22431  13.253   1.300  35.023  0.2597  0.0445 -0.1615
18132W        W22432  17.994   5.408  11.545  0.0533 -0.2304 -0.0228
18133W        W22433  22.210   6.215  12.502  0.0593  0.2161  0.1089
18134W        W22434  17.442   4.074   8.463 -0.1096  0.0675  0.0555
18135W        W22435   8.804   4.163  20.490 -0.2164 -0.1214 -0.1560
18136W        W22436  11.386   3.466  32.173 -0.2085  0.1213 -0.2001
18137W        W22437  10.343   6.118  24.357  0.0526  0.1210  0.2132
18138W        W22438   9.615   2.056  22.037  0.1823 -0.0637  0.1748
18139W        W22439   3.801   0.666   2.771 -0.0277  0.1629 -0.0040
18140W        W22440  13.823   4.441   2.059 -0.4380  0.4011 -0.1874
18141W        W22441  25.522   2.413  29.395  0.1965  0.2479 -0.1559
18142W        W22442  10.628   3.394  30.766  0.0509  0.0326  0.0056
18143W        W22443  18.043   1.101   5.476 -0.0180  0.2410 -0.0212
18144W        W22444  22.214   6.471   6.126 -0.0184 -0.2644  0.4332
18145W        W22445   6.411   6.415   4.398  0.1292  0.3182  0.1683
18146W        W22446   8.391   6.080  31.490 -0.1642 -0.1432  0.0352
18147W        W22447   6.862   5.062   5.448 -0.1445  0.0850 -0.1836
18148W        W22448   7.685   0.561   2.140 -0.0268 -0.0800  0.1092
18149W        W22449  23.020   4.666  20.854 -0.0386  0.2282  0.1747
18150W        W22450   9.016   2.615  11.803 -0.3078  0.4587  0.1788
18151W        W22451  15.345   0.904  35.654 -0.1328  0.4063 -0.2530
18152W        W22452  16.303   2.880  11.527  0.0321 -0.1923 -0.0672
18153W        W22453  25.947   1.518  26.229  0.0193 -0.0443 -0.0282
18154W        W22454  13.066   6.230  26.743  0.0827  0.0145 -0.2343
18155W        W22455   2.771   2.756  31.089  0.0335 -0.0251  0.1309
18156W        W22456  21.437   0.217  13.878 -0.2467  0.2729  0.0172
18157W        W22457   9.019   3.896  34.628 -0.0048 -0.2010  0.1603
18158W        W22458   1.177   5.394  32.281 -0.0397  0.2100  0.2008
18159W        W22459  17.440   4.309  30.427 -0.1047  0.0195 -0.0846
18160W        W22460  23.833   6.604   5.220  0.3193  0.2952 -0.0896
18161W        W22461  17.874   0.376  21.709 -0.1637 -0.0276 -0.0276
18162W        W22462  10.799   0.284  14.591  0.1408 -0.0002 -0.1765
18163W        W22463   4.899   5.084  22.821 -0.1858 -0.0638 -0.0079
18164W        W22464   6.029   1.885  26.301  0.1633 -0.0200 -0.2868
18165W        W22465  19.056   1.153  34.006  0.1302  0.1321  0.1869
18166W        W22466  17.503   4.496  21.495  0.0160 -0.0029  0.3724
18167W        W22467  21.271   0.536  33.712  0.4268 -0.0724  0.0882
18168W        W22468   5.581   3.183   9.895 -0.2243  0.0215  0.3944
18169W        W22469  21.149   2.283  20.816 -0.0196 -0.0470  0.0822
18170W        W22470  24.962   4.013  14.995 -0.0495  0.1115  0.0764
18171W        W22471   7.904   0.053  33.052 -0.0725 -0.0819 -0.1979
18172W        W22472  14.578   5.429   4.566  0.1957 -0.1598  0.2765
18173W        W22473  23.297   5.540   9.888 -0.3273 -0.0284 -0.0633
18174W        W22474   7.793   3.049  21.874  0.1072 -0.3914  0.0592
18175W        W22475  12.024   0.322  21.294 -0.1701 -0.0825 -0.1560
18176W        W22476  22.026   3.188  34.878 -0.3800 -0.2162  0.0592
18177W        W22477  10.994   1.285  21.199  0.1325 -0.0035  0.0217
18178W        W22478  24.926   3.390   4.761  0.3008 -0.3670  0.0639
18179W        W22479  23.413   2.497  27.371  0.2173 -0.2563  0.0581
18180W        W22480  12.137   2.397  14.989 -0.1950  0.1255 -0.2681
18181W        W22481   5.663   0.675   9.884 -0.1520 -0.1387 -0.0412
18182W        W22482  12.548   3.108  13.662  0.1219 -0.0248 -0.2049
18183W        W22483   1.737   5.699   1.179  0.0175 -0.1657 -0.1971
18184W        W22484  17.100   1.250   6.646  0.0403 -0.0784  0.3331
18185W        W22485   6.490   0.703   5.204 -0.1833  0.4913  0.1968
18186W        W22486   8.417   6.283   6.005  0.3992  0.0661  0.0197
18187W        W22487   0.768   1.022  12.826  0.0541  0.2412  0.1462
18188W        W22488   9.170   2.219   6.133  0.0648  0.1599 -0.1609
18189W        W22489  15.623   1.775  10.507  0.1371  0.0894  0.0554
18190W        W22490  19.648   3.643  26.962 -0.1224 -0.2882 -0.3280
18191W        W22491  19.924   0.095  15.344  0.1025  0.1368  0.3257
18192W        W22492   0.713   0.382  25.543 -0.0677  0.0000  0.0324
18193W        W22493  15.118   3.887  29.615 -0.0438 -0.0491 -0.2879
18194W        W22494  19.145   1.066  24.003  0.1096 -0.1922 -0.3037
18195W        W22495  21.646   1.772   9.714 -0.1294 -0.0792  0.0767
18196W        W22496   1.944   5.934  15.467  0.0585  0.4120 -0.3282
18197W        W22497  25.890   5.625  25.514  0.3275  0.0481  0.0847
18198W        W22498  10.224   2.372   8.365  0.0975 -0.0195  0.1982
18199W        W22499   2.138   6.101  31.876  0.2489  0.2275 -0.4814
18200W        W22500  25.221   2.733  36.106 -0.1657 -0.3388  0.0218
18201W        W22501  17.280   3.826  31.503  0.0070 -0.0158 -0.1773
18202W        W22502  25.695   5.529   9.325  0.3479  0.1665  0.2156
18203W        W22503   6.051   2.829   0.633 -0.0703 -0.0711 -0.0356
18204W        W22504  24.081   3.262  12.552  0.0274  0.2848 -0.2216
18205W        W22505   5.306   6.560   9.760  0.0143  0.2452 -0.2201
18206W        W22506  24.785   3.825  15.417  0.0837  0.1098 -0.3048
18207W        W22507  15.446   2.458   8.374 -0.1101  0.1095  0.2403
18208W        W22508  23.115   4.962  33.850  0.3752  0.0472  0.2016
18209W        W22509   1.863   3.999   0.605  0.1414 -0.0005 -0.2724
18210W        W22510  20.110   4.941  34.401 -0.1489  0.0124  0.1747
18211W        W22511  20.970   0.455  15.672 -0.0722 -0.2819  0.0231
18212W        W22512  24.820   3.466   1.702 -0.1272 -0.0253 -0.1667
18213W        W22513   7.829   1.045   9.178  0.0784 -0.1392  0.2242
18214W        W22514   6.344   3.534  28.472 -0.1481 -0.0605  0.1665
18215W        W22515  21.679   5.880   6.672 -0.1729  0.1203 -0.0121
18216W        W22516  17.951   3.086  33.036 -0.2340 -0.2702  0.0987
18217W        W22517   7.104   0.017   2.671 -0.0614  0.2983 -0.0675
18218W        W22518  12.953   6.597  32.546 -0.0597 -0.0652 -0.1284
18219W        W22519   7.181   4.188   8.135  0.1564 -0.0806  0.1245
18220W        W22520   7.002   2.118   6.297 -0.1430 -0.3717 -0.1125
18221W        W22521  22.669   3.606  11.381  0.2312  0.1820 -0.0491
18222W        W22522  17.381   4.207  28.047 -0.1758  0.0957 -0.3114
18223W        W22523  18.300   3.081  21.272  0.0067  0.1257 -0.0699
18224W        W22524  15.606   5.237  14.762  0.1839 -0.2568 -0.1350
18225W        W22525  21.624   1.273  32.075  0.2669 -0.1852  0.1558
18226W        W22526  17.598   4.131   2.878  0.1057 -0.1046  0.1647
18227W        W22527  20.021   4.380  20.970  0.0652  0.1542  0.0232
18228W        W22528  15.664   6.163   2.989  0.1206  0.1342 -0.0299
18229W        W22529   7.461   2.418   6.379 -0.2345  0.0072  0.0186
18230W        W22530  14.993   2.527  36.028 -0.0169 -0.2302 -0.1653
18231W        W22531  24.303   4.133  10.709 -0.0447  0.3462 -0.0415
18232W        W22532   1.462   1.755   5.330 -0.2259  0.1502 -0.1575
18233W        W22533   0.286   2.402   7.091  0.4358  0.0601 -0.1520
18234W        W22534  13.685   4.162  27.797  0.1168  0.1505 -0.2016
18235W        W22535  14.660   1.089  21.938  0.2217 -0.1155  0.4256
18236W        W22536   9.393   2.983   5.018 -0.2761  0.1005  0.1068
18237W        W22537   7.248   5.490  24.952  0.0703 -0.2627  0.1539
18238W        W22538  19.018   6.018   6.177 -0.0831  0.2295  0.1244
18239W        W22539  17.412   6.552   2.912  0.1149  0.1528 -0.0425
18240W        W22540  10.692   1.477  13.055 -0.2003 -0.1097 -0.1558
18241W        W22541  24.603   3.793  14.707  0.1202  0.1061 -0.2924
18242W        W22542  20.199   3.383  13.769  0.2233  0.0534 -0.0477
18243W        W22543  11.682   1.317  32.634 -0.0137 -0.0293  0.1284
18244W        W22544  24.820   0.211  10.206  0.0570 -0.2003  0.1169
18245W        W22545  17.533   5.849  23.621  0.2623 -0.1413 -0.1245
18246W        W22546  10.327   4.353   6.355  0.0784  0.1666 -0.0165
18247W        W22547  19.644   2.640   7.074 -0.1822 -0.4884  0.2511
18248W        W22548  25.188   3.515  10.107  0.0468 -0.1323 -0.1654
18249W        W22549   3.338   3.088  35.731 -0.0407 -0.1329 -0.1113
18250W        W22550  11.091   2.589   2.511 -0.2449 -0.2109 -0.1356
18251W        W22551   8.174   0.314  25.876  0.0046  0.2432  0.0853
18252W        W22552  17.660   2.691   5.534 -0.0209 -0.0570 -0.0377
18253W        W22553  24.577   3.362  11.108  0.2486  0.2854  0.1618
18254W        W22554   2.660   2.677  14.503 -0.0643  0.2464 -0.1576
18255W        W22555  13.290   1.413   2.215  0.4670 -0.0277 -0.2125
18256W        W22556   2.196   3.242  34.195  0.2961  0.2982 -0.1008
18257W        W22557  18.756   5.472  12.304 -0.2493 -0.1731 -0.2503
18258W        W22558   4.939   2.693  10.358  0.0983 -0.0383  0.1251
18259W        W22559  24.943   4.480  22.895  0.3449  0.2509  0.0660
18260W        W22560  12.659   5.749   0.489 -0.2361 -0.0819  0.0565
18261W        W22561  24.561   0.334  15.295  0.0225  0.2744 -0.0702
18262W        W22562  12.352   1.328  22.354  0.1075  0.0735  0.1273
18263W        W22563   5.036   5.782  10.892  0.0083  0.0759 -0.0888
18264W        W22564  18.854   6.521  28.708 -0.2635 -0.1786  0.0742
18265W        W22565  10.047   0.313   7.605  0.2579  0.2191 -0.1007
18266W        W22566  20.849   1.906  34.985  0.1800 -0.0323  0.0475
18267W        W22567  25.342   4.585  11.321 -0.0599  0.0750  0.3289
18268W        W22568   0.907   1.170   4.767 -0.3368 -0.0263  0.0182
18269W        W22569  22.573   3.503  12.321  0.0310  0.0695  0.0119
18270W        W22570  18.289   1.287  28.581 -0.0758 -0.0575 -0.2108
18271W        W22571   6.118   4.400  28.079 -0.0751 -0.0920 -0.0462
18272W        W22572  22.739   5.361  23.265 -0.0315  0.0118  0.2146
18273W        W22573   1.237   5.563  23.728 -0.1390  0.0872  0.1548
18274W        W22574  12.274   6.436  21.803 -0.0993 -0.1357 -0.0436
18275W        W22575  22.587   5.422  21.141 -0.0045 -0.1514  0.0973
18276W        W22576  12.103   1.565  31.907  0.3031 -0.2008 -0.0089
18277W        W22577  24.390   0.213   3.933 -0.2945 -0.2727  0.0719
18278W        W22578   3.280   3.703  23.847 -0.1742 -0.0632 -0.2440
18279W        W22579   3.188   6.419   7.761 -0.0129 -0.2537 -0.2370
18280W        W22580   6.564   0.864   2.180  0.1216 -0.2008  0.1368
18281W        W22581  26.349   1.377   8.371  0.3118 -0.1059 -0.0583
18282W        W22582  21.307   5.570  29.024  0.2048  0.1479  0.0250
18283W        W22583  15.701   2.030  13.192 -0.2500 -0.2940  0.1480
18284W        W22584  22.385   1.417   3.099  0.0150  0.0818 -0.0190
18285W        W22585  11.634   2.866  27.460 -0.2922 -0.1129  0.0125
18286W        W22586  20.980   5.648  33.530 -0.0538 -0.0354 -0.3964
18287W        W22587  22.987   2.779  27.486  0.3139 -0.1748 -0.2239
18288W        W22588   1.045   4.471  30.627 -0.0304 -0.1589 -0.3112
18289W        W22589  15.795   5.883  31.897 -0.1529  0.1533  0.1776
18290W        W22590  18.027   3.593   2.249 -0.2419  0.0443 -0.1791
18291W        W22591   2.866   6.589  21.563 -0.0602  0.2513  0.2216
18292W        W22592  11.174   0.773   2.799 -0.2030 -0.0007 -0.0638
18293W        W22593   2.629   0.073  23.721  0.2502 -0.1593  0.0726
18294W        W22594   3.214   3.493   6.973 -0.0665 -0.0721 -0.3690
18295W        W22595  24.760   4.463   3.036 -0.1201  0.1158 -0.0196
18296W        W22596   8.126   6.073   1.362 -0.0380  0.0215 -0.0723
18297W        W22597  15.139   5.284  25.514 -0.0531 -0.0835  0.1730
18298W        W22598  19.156   4.079  14.699 -0.1874 -0.0494 -0.0770
18299W        W22599  23.159   5.486   3.349  0.1136  0.2519  0.1941
18300W        W22600   9.048   1.499   2.652  0.1997 -0.1618  0.0459
18301W        W22601   1.428   5.769   9.138  0.1935 -0.1373 -0.2722
18302W        W22602   8.166   4.638  14.935 -0.0735  0.3339  0.0199
18303W        W22603  24.174   6.442  28.115  0.0685 -0.0424 -0.1434
18304W        W22604   3.543   6.575   2.901 -0.1130 -0.3957 -0.0746
18305W        W22605  25.896   2.675  34.940 -0.1466 -0.1100  0.2949
18306W        W22606   9.083   2.064  15.398  0.2110 -0.0228 -0.2057
18307W        W22607   7.422   4.299  21.169  0.3486 -0.1899 -0.0234
18308W        W22608  19.869   1.034  15.319  0.1744  0.1507 -0.0860
18309W        W22609   5.144   4.417  13.861  0.0360 -0.0113  0.1048
18310W        W22610  22.756   3.065   7.550 -0.0623 -0.0661  0.2007
18311W        W22611  18.483   2.406  22.370  0.0055 -0.0260  0.2518
18312W        W22612   1.776   2.215   5.727  0.1996  0.2939  0.0330
18313W        W22613  20.500   1.645   6.247 -0.0840 -0.0162  0.2512
18314W        W22614  18.195   4.401  11.351  0.0610  0.2404  0.2295
18315W        W22615   0.127   5.432  34.851 -0.0455  0.0250  0.1314
18316W        W22616   2.069   2.674  32.615  0.1509 -0.1517 -0.1680
18317W        W22617  18.529   5.410   1.207 -0.0456 -0.2747  0.0218
18318W        W22618  19.699   3.936   7.724 -0.2805 -0.1603  0.0315
18319W        W22619   9.632   0.144  13.359  0.1676  0.0499  0.0973
18320W        W22620  21.652   4.524  30.487 -0.0154 -0.0468  0.0200
18321W        W22621  12.883   6.130  11.764 -0.0127  0.0868 -0.1443
18322W        W22622   7.002   1.850  14.135  0.0311 -0.0865  0.1703
18323W        W22623  16.929   0.753   3.572  0.1431 -0.2913 -0.0474
18324W        W22624   7.147   2.294  33.970  0.0500  0.1077  0.0213
18325W        W22625  18.935   4.825  25.753  0.2562 -0.2817  0.4064
18326W        W22626  22.114   3.024   4.797 -0.2160 -0.5274  0.0136
18327W        W22627  18.543   3.520  35.310 -0.0238 -0.0317  0.0876
18328W        W22628   7.117   0.771  20.520 -0.0482  0.4291 -0.1455
18329W        W22629  20.332   3.284  27.523 -0.0063  0.0864 -0.1529
18330W        W22630  21.353   6.572   8.344  0.2710 -0.2263 -0.0316
18331W        W22631  26.085   2.115  21.055  0.2872  0.3136  0.1304
18332W        W22632  21.239   2.460  21.718  0.0108  0.0990  0.1962
18333W        W22633   3.210   5.701  26.218  0.2036  0.1220 -0.1758
18334W        W22634   6.041   0.198  34.098 -0.0056  0.0222 -0.0684
18335W        W22635   1.066   1.697  13.216 -0.2305 -0.0424 -0.1618
18336W        W22636   8.493   2.845   3.241  0.2741  0.0053  0.1484
18337W        W22637  14.350   4.891  34.151 -0.2130 -0.1411 -0.4079
18338W        W22638   1.090   6.003  10.192  0.2099 -0.2364  0.2638
18339W        W22639   5.639   4.920  28.714 -0.2127 -0.1923 -0.0764
18340W        W22640  10.731   5.603   2.961 -0.4233 -0.0547  0.0928
18341W        W22641  16.669   1.705  23.575 -0.0738 -0.0399  0.1641
18342W        W22642  18.014   6.498  33.416 -0.0228  0.0893  0.0653
18343W        W22643  24.070   4.207  31.017 -0.0531 -0.0330 -0.2307
18344W        W22644  26.260   6.273  13.512 -0.0111 -0.1534 -0.0571
18345W        W22645  25.928   5.173  24.689  0.0175 -0.4232 -0.3275
18346W        W22646  12.731   0.524  28.277  0.3315  0.1760  0.1300
18347W        W22647   5.433   1.932  35.234 -0.1491  0.0994 -0.0594
18348W        W22648   1.141   6.038  11.168 -0.3006 -0.0526 -0.2406
18349W        W22649   5.947   3.246  35.593 -0.3338  0.0910  0.1584
18350W        W22650   2.735   5.880  29.527  0.1207 -0.0018  0.2071
18351W        W22651  13.550   3.954  10.374 -0.0196 -0.1522 -0.2363
18352W        W22652   3.235   3.641  27.405  0.3042  0.2247  0.0424
18353W        W22653  22.313   0.907  25.769  0.0336 -0.1356  0.1912
18354W        W22654  26.351   2.712  31.521 -0.2104 -0.2300  0.2421
18355W        W22655  14.003   5.687  33.707  0.1611 -0.2130  0.1314
18356W        W22656   6.274   5.572  21.882 -0.0675  0.0279 -0.0402
18357W        W22657  14.831   4.297   2.971 -0.1321 -0.2892 -0.2336
18358W        W22658   7.153   5.529  10.568 -0.3581 -0.0785 -0.2827
18359W        W22659   9.840   2.169  14.475  0.0762 -0.1374 -0.3198
18360W        W22660  12.457   1.503   0.689 -0.1439  0.2028 -0.2332
18361W        W22661  18.238   6.558  13.569 -0.1978 -0.0199 -0.2021
18362W        W22662  20.825   4.722  20.618  0.4812 -0.1788  0.0639
18363W        W22663   4.365   2.609   0.523  0.2482  0.0518  0.4176
18364W        W22664  14.492   5.614  13.444  0.1790  0.1733  0.1462
18365W        W22665  19.542   0.574  34.684  0.2371 -0.1218 -0.1767
18366W        W22666  15.118   2.595  28.211  0.1718  0.0063 -0.3769
18367W        W22667  13.237   4.787  32.103  0.0405 -0.2521  0.1752
18368W        W22668   4.386   0.744  35.679  0.3145  0.0408  0.0258
18369W        W22669   7.558   6.559   4.156  0.0924 -0.1329 -0.1191
18370W        W22670  16.841   1.216   4.803  0.1487  0.0674  0.2821
18371W        W22671  20.230   4.010  12.796 -0.0696  0.2105  0.2085
18372W        W22672   1.873   4.807   7.326  0.1760  0.1525  0.0669
18373W        W22673  21.032   4.459  13.287  0.0098  0.2182 -0.0976
18374W        W22674  17.844   2.576  32.925 -0.1535 -0.0124  0.1061
18375W        W22675  14.521   0.550   5.045 -0.1092  0.2067  0.2383
18376W        W22676  19.706   2.183  26.926  0.0533 -0.1241  0.1091
18377W        W22677  17.750   4.572   4.159 -0.1284  0.3519  0.0312
18378W        W22678   7.893   2.357   7.922 -0.2821  0.0947 -0.0470
18379W        W22679  13.063   5.322  30.957 -0.0871  0.0264 -0.0302
18380W        W22680   8.139   1.954  14.685  0.1733 -0.1270  0.0946
18381W        W22681  17.480   4.254  29.730 -0.3123 -0.0354  0.1197
18382W        W22682   2.901   1.064  35.668  0.2483  0.0761  0.0561
18383W        W22683  19.638   5.590  10.743  0.1489 -0.0320 -0.0447
18384W        W22684  11.566   4.989   4.063  0.1783 -0.0794  0.0664
18385W        W22685  20.142   0.624  35.692  0.0074 -0.1939 -0.3147
18386W        W22686  18.966   4.460   6.971 -0.1485  0.0085 -0.1503
18387W        W22687  23.918   4.051   1.756  0.0506 -0.2755  0.0332
18388W        W22688  21.015   5.188  27.678 -0.2060 -0.0477 -0.1719
18389W        W22689  21.049   2.742   3.328  0.2969 -0.0048  0.2018
18390W        W22690  17.049   0.520  24.967  0.0195  0.0629 -0.1748
18391W        W22691   0.022   0.714  14.927  0.2641 -0.1225 -0.1750
18392W        W22692  19.253   4.842   9.074 -0.0443  0.0721  0.4509
18393W        W22693  11.460   2.451  29.193 -0.1125 -0.0543  0.2774
18394W        W22694   2.086   3.094  24.112  0.1359  0.1561 -0.0553
18395W        W22695   4.142   5.847   1.786 -0.0949  0.0397 -0.4656
18396W        W22696   2.972   1.178   5.490  0.1150 -0.0847 -0.0906
18397W        W22697   6.927   5.101  10.468  0.1564 -0.2787 -0.3608
18398W        W22698  24.389   0.429  14.833 -0.0790  0.0232  0.0036
18399W        W22699   7.970   4.643   3.988  0.0635 -0.2183 -0.3231
18400W        W22700   7.407   3.584   2.228  0.0695 -0.3689 -0.0016
18401W        W22701  11.900   5.112  20.991  0.1355  0.2257  0.0598
18402W        W22702   4.861   3.668  28.504 -0.0183  0.1133  0.1809
18403W        W22703   1.598   6.122  30.662 -0.2979  0.3268  0.0327
18404W        W22704  12.073   0.512  22.585 -0.0679 -0.0775 -0.1245
18405W        W22705   3.362   0.994  21.627 -0.2081  0.2306 -0.0557
18406W        W22706   3.028   3.223  11.149 -0.0209  0.0985 -0.0345
18407W        W22707  24.631   4.223   7.286  0.2729  0.1441  0.0672
18408W        W22708   1.215   0.315   3.334  0.1241 -0.0875 -0.4461
18409W        W22709   1.195   3.493  22.106 -0.3739 -0.0752 -0.0508
18410W        W22710  22.305   1.487  29.353 -0.2808  0.0970 -0.0633
18411W        W22711  20.117   1.265   7.055  0.2045  0.3476  0.1205
18412W        W22712  13.166   5.247   6.701 -0.1630  0.0721 -0.1182
18413W        W22713  16.698   3.825  27.540 -0.3357  0.3493  0.1327
18414W        W22714   9.901   3.775  35.988 -0.0162 -0.0842 -0.0551
18415W        W22715  20.719   1.536  28.640  0.0227  0.1641 -0.2244
18416W        W22716  24.465   5.015   8.253  0.1309  0.0021 -0.1886
18417W        W22717   8.371   1.394  30.729  0.2172 -0.2644  0.1409
18418W        W22718  25.217   5.682  29.505 -0.1245 -0.3025 -0.0964
18419W        W22719   9.492   1.779  32.624  0.1749 -0.5319 -0.1559
18420W        W22720   8.104   3.217   5.160 -0.3448  0.0373 -0.1629
18421W        W22721  25.510   5.158  14.433  0.1501  0.0619  0.2892
18422W        W22722  20.806   4.328   1.069  0.0759  0.1874 -0.0767
18423W        W22723  23.318   4.607  10.711  0.2976 -0.1523 -0.0844
18424W        W22724  22.103   3.656  27.891  0.1457  0.0224 -0.0320
18425W        W22725   7.422   3.417  28.827  0.2425  0.3836  0.1154
18426W        W22726  23.253   4.705  34.432  0.0336 -0.4011 -0.0464
18427W        W22727  23.924   2.514   4.271  0.1131 -0.0414 -0.0158
18428W        W22728  22.472   2.165   1.054  0.1454 -0.1267  0.1681
18429W        W22729  21.546   1.622  20.838 -0.0496 -0.1155  0.3168
18430W        W22730  10.510   5.057  21.014  0.0628  0.2171  0.0934
18431W        W22731   7.832   1.553  34.155  0.0041 -0.0687  0.0179
18432W        W22732  12.339   2.215  22.412 -0.1194  0.0237  0.2576
18433W        W22733  13.416   1.521   8.008 -0.0643 -0.2363 -0.0639
18434W        W22734   5.241   3.109   7.838 -0.1595 -0.1754 -0.0148
18435W        W22735   4.979   6.503   8.341 -0.1999 -0.2847 -0.2365
18436W        W22736   6.378   5.188   9.673 -0.1163 -0.1859  0.1094
18437W        W22737   7.762   3.273  23.569  0.0585 -0.2253 -0.6613
18438W        W22738   3.595   5.805  12.455  0.1324 -0.0293  0.0586
18439W        W22739  16.653   0.779  29.585  0.2071 -0.1094 -0.0862
18440W        W22740   5.423   1.878   7.601  0.3959 -0.0582  0.2014
18441W        W22741   4.563   1.424  10.977  0.0377  0.3289 -0.0062
18442W        W22742  23.637   6.138   9.222 -0.0530 -0.1137  0.0734
18443W        W22743  23.342   5.722  12.151 -0.0269 -0.0411 -0.3413
18444W        W22744  20.589   4.915   5.071 -0.3259  0.0952 -0.0162
18445W        W22745  10.456   6.067   0.793  0.0054 -0.1532  0.1577
18446W        W22746  11.717   4.290  10.698  0.0402  0.0162 -0.0537
18447W        W22747  13.258   0.238  32.163 -0.1288  0.0148  0.0760
18448W        W22748  21.478   5.887  26.896 -0.2189  0.4713  0.0115
18449W        W22749  18.943   1.641   9.329 -0.0715 -0.1298 -0.0473
18450W        W22750   2.736   2.374  32.002  0.1587  0.2524  0.1768
18451W        W22751  25.476   1.277   9.061 -0.0642 -0.0154 -0.3129
18452W        W22752  11.794   0.224  34.764 -0.1657  0.0942  0.2329
18453W        W22753  19.301   5.950   8.228  0.2397 -0.0847  0.1541
18454W        W22754  15.410   4.718  27.462 -0.1007 -0.2418  0.1259
18455W        W22755   5.714   5.987  30.695  0.0757  0.1572 -0.0371
18456W        W22756   4.334   3.154  33.585 -0.1763 -0.0089 -0.1011
18457W        W22757  13.254   3.846  22.802 -0.0652 -0.0267 -0.2565
18458W        W22758   9.730   6.260  13.438 -0.0322  0.3155  0.0446
18459W        W22759  11.728   3.837   0.956  0.2141  0.2773 -0.0610
18460W        W22760   1.438   1.880  10.424 -0.1739 -0.1649  0.0383
18461W        W22761   7.593   3.226  14.951 -0.0287 -0.0831  0.0004
18462W        W22762   8.097   3.478  14.493  0.0321  0.2418 -0.1535
18463W        W22763  15.684   6.039  14.548 -0.0163 -0.0430 -0.1243
18464W        W22764  17.006   3.259  15.680  0.3458 -0.2001  0.1238
18465W        W22765   1.056   0.832   6.688 -0.0717  0.2466  0.2026
18466W        W22766  24.470   3.863  26.982 -0.1951 -0.0531 -0.0246
18467W        W22767  22.337   2.154   4.900  0.3868 -0.0469  0.2681
18468W        W22768   6.303   1.051   4.880  0.2241  0.3732  0.0524
18469W        W22769   1.880   3.965  24.652  0.1573 -0.2227  0.1982
18470W        W22770  16.952   3.544  11.398  0.1380  0.2557  0.1251
18471W        W22771  10.618   1.077   3.609  0.0198 -0.4139  0.0063
18472W        W22772  16.213   3.471  10.506 -0.2001 -0.1005  0.0782
18473W        W22773  11.433   0.018   4.149 -0.2413  0.3577  0.0902
18474W        W22774  15.958   6.528  29.885  0.1793  0.1360 -0.1259
18475W        W22775  23.772   5.963  26.359  0.2241  0.2224 -0.4605
18476W        W22776   6.979   1.662   3.890  0.1572 -0.0727  0.2011
18477W        W22777  25.191   5.854  29.978  0.0524  0.0426  0.0995
18478W        W22778  13.966   2.844   1.389  0.1232  0.2542 -0.0391
18479W        W22779   7.916   5.978  29.041 -0.3264  0.5389 -0.1184
18480W        W22780   8.681   5.833   6.648  0.0237  0.4065  0.0710
18481W        W22781   6.538   1.362  11.557 -0.2431 -0.2816 -0.1480
18482W        W22782   8.511   5.020   3.715 -0.1591 -0.1361 -0.0793
18483W        W22783  25.007   0.101  30.386  0.2267  0.0682 -0.0411
18484W        W22784  24.517   0.609   9.396  0.2606  0.3933 -0.0785
18485W        W22785  18.971   3.116   1.356  0.1922 -0.2083 -0.1331
18486W        W22786   2.322   5.114  13.870  0.0301  0.1121  0.0293
18487W        W22787  10.054   0.166  29.709  0.0178 -0.1657  0.2868
18488W        W22788   7.755   0.029  31.464  0.0946 -0.0415  0.0257
18489W        W22789  24.016   3.503  14.908  0.2913  0.0312 -0.0732
18490W        W22790   7.083   3.129  26.053  0.2611 -0.1222 -0.1495
18491W        W22791   7.743   3.059  29.032 -0.1423 -0.1751 -0.3642
18492W        W22792   1.398   3.044  22.633 -0.0157 -0.0046 -0.0713
18493W        W22793  20.495   4.946  24.236  0.2582  0.0703  0.1405
18494W        W22794   9.936   3.930  30.627 -0.0940 -0.1390  0.0691
18495W        W22795  10.862   3.459   6.904  0.0358  0.2250 -0.1340
18496W        W22796  19.624   2.833   4.850  0.3634  0.1307 -0.2500
18497W        W22797   2.702   2.299   0.890 -0.0419 -0.1640 -0.1123
18498W        W22798   2.545   0.351   8.237 -0.1352  0.3430 -0.0628
18499W        W22799  24.325   4.619  31.064 -0.1958  0.1033 -0.0436
18500W        W22800   5.936   4.771  30.475  0.3570 -0.0762  0.2516
18501W        W22801  11.603   1.690   4.406 -0.1592 -0.0313 -0.2019
18502W        W22802  10.966   4.628   4.538  0.0564  0.2583 -0.0537
18503W        W22803  25.368   4.467  34.205 -0.1362  0.2394 -0.2700
18504W        W22804  21.043   1.716  32.917 -0.3257 -0.1264 -0.1666
18505W        W22805  19.933   6.212  27.841  0.0164  0.1086  0.2790
18506W        W22806  20.760   0.829  28.512  0.2248 -0.1070 -0.1693
18507W        W22807   6.899   1.702  26.442  0.1386 -0.1504 -0.0682
18508W        W22808  26.230   3.043  28.341 -0.2220 -0.0639  0.0109
18509W        W22809  21.261   6.278  28.331  0.2406  0.1071 -0.0924
18510W        W22810   9.369   5.099   3.279 -0.0916 -0.0447 -0.0474
18511W        W22811  19.251   5.769  27.652 -0.1768  0.2962 -0.1219
18512W        W22812  25.223   1.553  27.514  0.2531 -0.1006 -0.0401
18513W        W22813   8.141   5.144  25.771  0.0474  0.3013 -0.0069
18514W        W22814   7.948   6.140  24.867 -0.4310  0.2140 -0.3210
18515W        W22815  16.395   0.049   0.470  0.1793  0.3134  0.0256
18516W        W22816   6.330   4.176  33.201  0.2013 -0.0397  0.2635
18517W        W22817   1.581   0.898  27.612 -0.0812 -0.2158  0.0655
18518W        W22818  22.032   1.510  22.043 -0.0841 -0.0288  0.3762
18519W        W22819  20.361   4.040   5.428  0.0100 -0.0056 -0.1712
18520W        W22820   7.419   4.770  27.433 -0.2409 -0.0398 -0.4348
18521W        W22821  11.918   5.902  26.700  0.0064  0.0922 -0.0680
18522W        W22822   8.231   0.788   7.863 -0.2624 -0.0732 -0.0252
18523W        W22823  22.436   1.076  20.751  0.0579 -0.0917  0.1607
18524W        W22824   6.521   5.290   7.679  0.0365  0.0877 -0.2802
18525W        W22825   1.167   2.941  13.062  0.2788  0.2470  0.0794
18526W        W22826  26.264   4.159  32.339  0.0028  0.0474  0.0764
18527W        W22827   7.994   4.142   5.936  0.0206 -0.1184 -0.1716
18528W        W22828   8.128   0.471  12.497 -0.1099  0.2724 -0.0740
18529W        W22829  21.759   6.127  20.544 -0.1257  0.1831 -0.1282
18530W        W22830   9.439   4.987  11.843  0.0126  0.1014 -0.0682
18531W        W22831  19.445   6.314  31.314  0.0095  0.1395  0.0114
18532W        W22832   3.919   2.303  23.481 -0.4053 -0.2328 -0.3048
18533W        W22833   6.613   4.414  22.616  0.0855 -0.0265 -0.1498
18534W        W22834  16.686   6.442  24.183 -0.0047 -0.1842  0.1085
18535W        W22835   4.236   3.915  27.321  0.0990  0.1875  0.3405
18536W        W22836   1.700   1.460  14.874  0.2206  0.0071 -0.1223
18537W        W22837   0.935   4.788  12.706  0.1777  0.0935 -0.0370
18538W        W22838  11.295   5.287  33.940  0.0882 -0.0696 -0.1126
18539W        W22839   6.079   3.494  21.362 -0.0516  0.2461 -0.0492
18540W        W22840   0.101   4.846   7.400  0.4057 -0.0098  0.0491
18541W        W22841  24.415   5.964  28.131 -0.2942  0.0714  0.2534
18542W        W22842  23.107   1.091   7.937  0.0938  0.3291  0.0312
18543W        W22843  13.751   1.094  24.061  0.0227 -0.1432 -0.2684
18544W        W22844  21.055   2.685  25.159  0.0098 -0.0299 -0.2166
18545W        W22845  19.813   6.167   4.985  0.0570 -0.0645 -0.2743
18546W        W22846  14.194   3.595  21.759 -0.2517  0.0872 -0.0412
18547W        W22847  13.154   3.048   9.324  0.2380  0.0747 -0.3929
18548W        W22848   0.161   1.520   0.382  0.1006 -0.0622 -0.1916
18549W        W22849  12.601   3.838  15.444  0.0300  0.0713 -0.0625
18550W        W22850  23.332   3.860   7.647 -0.1907  0.1443 -0.1276
18551W        W22851  22.818   5.841  33.069 -0.0960  0.1520 -0.1340
18552W        W22852  11.729   0.832  31.544 -0.1921  0.0103 -0.4589
18553W        W22853  19.055   5.975  35.160 -0.2719 -0.2686  0.1216
18554W        W22854  13.033   1.432  13.124  0.1373 -0.1627 -0.2022
18555W        W22855   1.128   4.347   6.006  0.3485  0.0020 -0.2909
18556W        W22856   1.327   4.804   9.567  0.0363  0.0052  0.1141
18557W        W22857  13.649   4.137  24.940 -0.2947  0.1753  0.1026
18558W        W22858   7.296   4.470  24.929  0.2545 -0.2462 -0.0665
18559W        W22859   7.298   5.512   2.868  0.0484  0.2992  0.4271
18560W        W22860   7.422   1.786   9.142  0.1661 -0.3717  0.2320
18561W        W22861  11.994   5.756  13.570  0.0634 -0.0306  0.2107
18562W        W22862   3.675   6.124  14.146  0.1348  0.1844  0.0137
18563W        W22863  19.704   0.468  21.007 -0.1210  0.0388  0.2582
18564W        W22864  15.368   5.471  20.750  0.0011 -0.0989 -0.1925
18565W        W22865  17.077   0.037  32.248 -0.1981  0.1476  0.3930
18566W        W22866  15.167   2.842  29.726 -0.0159 -0.3217 -0.0430
18567W        W22867  18.839   3.324  13.843 -0.0610 -0.3324  0.1454
18568W        W22868   4.469   5.668  34.920  0.3537 -0.4471 -0.1007
18569W        W22869   8.695   2.587  11.382  0.2412  0.0787 -0.1106
18570W        W22870  25.879   2.853  11.094 -0.0142 -0.0615 -0.1236
18571W        W22871   2.449   4.791  35.617  0.0510  0.2297 -0.0550
18572W        W22872  20.635   3.964  22.536 -0.0213  0.0717 -0.0225
18573W        W22873  17.847   5.040  30.887  0.1722 -0.1389  0.0640
18574W        W22874  23.119   3.774  35.323  0.1200  0.0388  0.0914
18575W        W22875  21.599   5.123  11.736 -0.1747  0.2942 -0.0226
18576W        W22876   8.543   2.018  34.661  0.0394 -0.0394 -0.2085
18577W        W22877  14.544   2.316  23.027 -0.3302 -0.1943  0.4381
18578W        W22878  26.382   5.190  14.890 -0.0542  0.0909  0.0635
18579W        W22879   8.148   4.632   2.989 -0.2786  0.1358 -0.0821
18580W        W22880   1.697   0.029   8.443  0.0014  0.0719 -0.1006
18581W        W22881  22.497   4.589  32.402  0.1397 -0.0165 -0.0321
18582W        W22882  22.449   1.342   3.591 -0.1182 -0.1466 -0.0028
18583W        W22883  24.115   5.376   5.937  0.2048  0.1535 -0.2417
18584W        W22884  23.396   1.061   0.029  0.0148  0.0917 -0.2130
18585W        W22885  15.166   3.875   3.563  0.1961 -0.1962  0.2205
18586W        W22886   6.110   5.447  32.300  0.0670 -0.0147 -0.2638
18587W        W22887  22.200   0.267  32.765  0.3884  0.1004 -0.0046
18588W        W22888  15.097   5.408  21.502 -0.0501  0.0910  0.2536
18589W        W22889   9.421   2.849  33.182  0.1030  0.0489 -0.0472
18590W        W22890  24.295   4.590  25.173 -0.4696 -0.0520  0.1453
18591W        W22891   0.076   0.014  13.756  0.1601 -0.0508 -0.0323
18592W        W22892  11.370   5.377   1.540 -0.0115  0.1972 -0.0362
18593W        W22893  12.214   5.131   7.617  0.1758  0.0310  0.1999
18594W        W22894   9.066   4.751  10.694 -0.2555  0.2110 -0.1729
18595W        W22895   6.387   0.259   8.120 -0.2031  0.0133 -0.4582
18596W        W22896  18.462   3.565  28.396 -0.0391 -0.0483  0.2285
18597W        W22897  18.428   5.419  15.391 -0.1401 -0.1812 -0.0582
18598W        W22898  26.172   0.984  35.963 -0.0450 -0.1061  0.1895
18599W        W22899   5.616   4.499   6.755  0.0625 -0.1186  0.0770
18600W        W22900  17.707   1.023  26.591  0.0835 -0.0163  0.3038
18601W        W22901  20.748   1.305  13.709 -0.0962  0.1822  0.2805
18602W        W22902   9.931   2.936   0.395 -0.1169 -0.2017  0.2066
18603W        W22903  16.731   4.648  12.865  0.0724 -0.0881  0.1704
18604W        W22904   1.569   0.958  24.255  0.0522 -0.0210  0.1951
18605W        W22905  23.306   0.821  15.373 -0.0873 -0.2315 -0.2602
18606W        W22906  10.484   5.819  13.118  0.0030  0.2369  0.0623
18607W        W22907  15.651   0.014  35.609 -0.0122 -0.0701 -0.1168
18608W        W22908   1.620   5.363  27.268 -0.1926 -0.3674 -0.3330
18609W        W22909   5.073   2.557  24.504  0.2468  0.0432 -0.3063
18610W        W22910  23.842   2.479  10.320 -0.1579  0.0262  0.1239
18611W        W22911   8.727   5.018  22.943 -0.0935 -0.3351 -0.2184
18612W        W22912   2.681   5.654  28.402  0.1031 -0.1315 -0.2135
18613W        W22913  16.886   5.642  27.877  0.0644 -0.1006 -0.0229
18614W        W22914  24.306   5.797  29.000 -0.0734 -0.0732  0.0770
18615W        W22915  16.901   4.282  26.170  0.1385  0.2301 -0.1264
18616W        W22916  13.853   1.060   1.163  0.0124 -0.1302  0.0178
18617W        W22917   6.005   2.807   7.908 -0.0418 -0.2848  0.4891
18618W        W22918  21.574   0.240   5.573 -0.0022  0.2769 -0.0115
18619W        W22919  17.324   2.481  30.852 -0.1660 -0.0095 -0.1242
18620W        W22920  22.453   2.305  23.334 -0.0142 -0.0723  0.0418
18621W        W22921  16.618   5.576   4.404 -0.3897  0.2241  0.1441
18622W        W22922   1.202   5.324  35.357 -0.1782  0.1009 -0.3369
18623W        W22923   2.305   3.122  31.409 -0.1889  0.0345 -0.0481
18624W        W22924   6.299   4.306  11.763 -0.0434  0.0194 -0.0858
18625W        W22925  15.655   5.631  33.089  0.0732 -0.0858 -0.1085
18626W        W22926  22.944   5.854  30.861 -0.4007 -0.0007  0.0767
18627W        W22927  11.806   4.420   2.121  0.0582 -0.0037 -0.4691
18628W        W22928  21.085   3.599  14.572  0.1459  0.1736  0.0313
18629W        W22929   8.312   0.323  31.496 -0.2120  0.0554 -0.0131
18630W        W22930  22.820   1.455  27.020  0.1188 -0.0378 -0.0568
18631W        W22931  25.553   5.076  21.200  0.1712  0.0489  0.0688
18632W        W22932   5.981   6.096   9.993 -0.1704 -0.0497  0.3779
18633W        W22933  12.834   3.575   7.520 -0.1102  0.1238  0.2547
18634W        W22934   3.908   1.087  33.392 -0.1057 -0.0917 -0.0650
18635W        W22935   7.167   4.031   7.629 -0.0580 -0.3269  0.0336
18636W        W22936   9.371   5.890   0.683  0.2294  0.1316  0.3814
18637W        W22937  15.541   1.743  21.593  0.1058 -0.1023 -0.0724
18638W        W22938  14.838   6.390  35.141 -0.0364  0.0374 -0.0690
18639W        W22939   4.439   5.869   7.275  0.2423  0.0043  0.2267
18640W        W22940   3.068   6.198  29.014  0.0477  0.1213  0.1138
18641W        W22941  20.844   1.338  21.027 -0.0321 -0.0555  0.1504
18642W        W22942  21.702   6.327   7.114  0.0074  0.3401  0.1418
18643W        W22943  22.426   2.460  27.363 -0.3513 -0.2925 -0.0942
18644W        W22944   3.847   6.269   2.253 -0.0923  0.1362 -0.3311
18645W        W22945  24.923   2.512   5.805 -0.1168  0.1220 -0.1414
18646W        W22946   9.098   5.501  24.285 -0.0543  0.0137  0.1284
18647W        W22947  13.635   4.350  24.429  0.0591 -0.0248 -0.1171
18648W        W22948   9.384   2.141  27.073 -0.0752 -0.0680 -0.0425
18649W        W22949   4.906   1.603   8.423  0.0031 -0.1032 -0.0099
18650W        W22950  25.985   6.493  21.299  0.0883 -0.0680 -0.1943
18651W        W22951  16.463   3.592  26.746 -0.0919 -0.0718  0.0610
18652W        W22952  14.747   3.215   7.950  0.0322  0.1615 -0.1298
18653W        W22953  14.476   4.410  23.767  0.0852 -0.2909 -0.1490
18654W        W22954  15.268   3.050   3.227  0.4260 -0.0775  0.0142
18655W        W22955  21.875   2.938  31.918 -0.2526  0.2279  0.1461
18656W        W22956   5.051   0.123  13.698 -0.1853  0.0683  0.3271
18657W        W22957  26.406   6.376  23.097 -0.5557 -0.0334  0.1835
18658W        W22958  13.333   5.417   5.747  0.1356  0.1954  0.1636
18659W        W22959   6.853   2.348  13.107  0.0713  0.1009 -0.1810
18660W        W22960   9.355   4.636  27.451  0.0749 -0.2695 -0.0495
18661W        W22961  11.621   0.626  32.558 -0.0608 -0.1206  0.2068
18662W        W22962  11.156   6.226  34.470 -0.1112 -0.0310 -0.0390
18663W        W22963  20.475   3.975  12.015 -0.1906  0.0110 -0.1796
18664W        W22964   3.142   2.388  24.423  0.1738 -0.0964 -0.3447
18665W        W22965   9.841   0.519  22.604 -0.1366 -0.0526  0.0479
18666W        W22966  18.828   5.329   0.198  0.0594  0.2108 -0.1290
18667W        W22967   4.037   6.214  10.725 -0.1511  0.0682  0.3897
18668W        W22968   6.021   1.331  13.833  0.1935  0.3141 -0.0033
18669W        W22969  11.052   6.313  21.695 -0.1043 -0.2742  0.0408
18670W        W22970  20.326   2.390   7.187 -0.1337 -0.0617 -0.2218
18671W        W22971  25.172   4.890  31.078  0.1777  0.0366  0.0706
18672W        W22972  23.675   1.456   4.745  0.0258  0.2093  0.0304
18673W        W22973  16.042   6.314   0.752  0.0535  0.2223  0.1259
18674W        W22974  10.389   5.018  28.359 -0.2300 -0.0093 -0.0059
18675W        W22975  26.066   2.967  11.988  0.1980  0.4039 -0.0002
18676W        W22976   7.466   2.130  27.546  0.2335  0.3002 -0.1140
18677W        W22977   7.829   1.744  28.858 -0.0693 -0.0545 -0.0815
18678W        W22978  25.566   5.007  30.707  0.0064 -0.1755 -0.2876
18679W        W22979   3.963   1.807  35.727  0.1692 -0.5311 -0.0170
18680W        W22980  22.436   1.155   2.123  0.1823  0.1768  0.1070
18681W        W22981   3.130   0.874  26.671 -0.0977  0.1663  0.0209
18682W        W22982  13.143   1.693  21.235  0.0945  0.1158  0.0001
18683W        W22983  16.609   3.178   1.912 -0.3785  0.1034  0.0504
18684W        W22984   0.168   4.727  14.927 -0.0692  0.1173  0.0778
18685W        W22985  10.100   1.229  14.044  0.1647 -0.1777  0.0550
18686W        W22986   3.263   2.866  24.531 -0.0034 -0.0380 -0.1532
18687W        W22987   9.791   2.039   1.474 -0.2134  0.0410  0.4421
18688W        W22988  11.470   2.344  32.532  0.3167 -0.3948 -0.3653
18689W        W22989   5.479   4.348  15.133 -0.3080 -0.1239 -0.0901
18690W        W22990  20.223   0.677  30.770 -0.1411  0.1793  0.0814
18691W        W22991   9.983   5.940   7.413 -0.2460 -0.0483 -0.0525
18692W        W22992   9.815   5.270   4.691 -0.2553 -0.1606 -0.0713
18693W        W22993   7.796   1.924   3.039  0.2200 -0.1331  0.0079
18694W        W22994   1.680   4.280   6.794 -0.3774  0.2355  0.1157
18695W        W22995   3.457   1.009  13.012  0.1755  0.5598  0.0418
18696W        W22996  12.261   0.331  13.463  0.0480  0.2614 -0.1455
18697W        W22997  24.547   1.342  30.383  0.2494  0.0807  0.1243
18698W        W22998   7.067   6.451   4.920  0.1565 -0.1185 -0.1578
18699W        W22999   6.137   2.299  20.965  0.0948  0.0429 -0.1034
18700W        W23000   5.556   3.032   2.059  0.1000 -0.1836 -0.1194
18701W        W23001  24.169   0.792  14.590 -0.3858 -0.2397 -0.3125
18702W        W23002  16.389   5.469   2.885 -0.1510  0.0076  0.3704
18703W        W23003   1.447   3.024  22.126 -0.1008 -0.1684 -0.4300
18704W        W23004  11.936   2.447  23.192  0.0164 -0.1583 -0.4219
18705W        W23005   2.472   4.628  11.672  0.0340 -0.2433 -0.0570
18706W        W23006   5.736   4.962  24.038 -0.5908  0.2540 -0.0655
18707W        W23007  15.036   1.359  34.271 -0.2178  0.2174 -0.0924
18708W        W23008  23.238   4.524   9.721  0.0663 -0.1876 -0.1491
18709W        W23009   5.725   3.383  11.067 -0.3902  0.2001  0.1154
18710W        W23010  20.146   3.153   6.495 -0.1700 -0.0290 -0.1356
18711W        W23011  13.991   1.344  27.601 -0.1368 -0.3968 -0.0131
18712W        W23012  18.557   4.643  21.157 -0.2286  0.0633  0.0721
18713W        W23013   3.306   2.953  25.346 -0.1224 -0.4059  0.1264
18714W        W23014  24.280   2.537   9.415  0.1160  0.1160  0.3271
18715W        W23015   0.924   0.388  35.189  0.3475 -0.0037 -0.2400
18716W        W23016  20.247   0.770   7.056  0.1287  0.0041 -0.0320
18717W        W23017  11.390   1.301  13.958  0.4785  0.2354  0.0619
18718W        W23018  16.545   4.014  34.263  0.0522 -0.1535 -0.1464
18719W        W23019  13.494   6.414  23.493  0.1151 -0.4011  0.0664
18720W        W23020  16.321   1.909  34.072 -0.0780  0.0347  0.0997
18721W        W23021  23.224   4.174  13.125  0.1005  0.0409  0.0199
18722W        W23022  21.323   5.186  24.478  0.0357  0.0415 -0.3931
18723W        W23023  22.534   5.967  28.784  0.2024  0.1014  0.3190
18724W        W23024   9.744   1.910  31.892 -0.4873  0.3801 -0.2125
18725W        W23025  18.051   2.544   1.443 -0.2881  0.0721 -0.0765
18726W        W23026  14.380   3.306   3.111 -0.1328 -0.1663 -0.0988
18727W        W23027  14.600   4.217  25.461 -0.2437  0.2497 -0.4346
18728W        W23028  18.775   0.041  14.614 -0.0712  0.3594  0.3006
18729W        W23029  20.930   3.488   0.208  0.0485 -0.0791  0.0302
18730W        W23030   9.177   2.579  35.128  0.0116  0.3284  0.1261
18731W        W23031   0.052   5.780  28.837  0.0127  0.2693 -0.1598
18732W        W23032  15.816   4.275   5.379 -0.0810  0.1703  0.2462
18733W        W23033   3.929   2.144  10.542 -0.1334 -0.0399  0.1476
18734W        W23034  19.892   3.907  14.441  0.0590  0.1715 -0.0634
18735W        W23035  24.168   1.200  13.244 -0.2477 -0.1190  0.1268
18736W        W23036  20.910   1.962   2.808 -0.1180  0.0332 -0.0531
18737W        W23037   8.160   5.391   6.958  0.1141  0.0729  0.1553
18738W        W23038  15.477   2.253  22.926  0.1072 -0.1104 -0.2031
18739W        W23039  19.791   3.740   6.239 -0.2532  0.1102  0.1562
18740W        W23040  25.567   0.511  29.814 -0.1346 -0.0585 -0.4614
18741W        W23041  19.192   2.695  26.322  0.2018  0.2384  0.0112
18742W        W23042  18.941   2.446   5.531 -0.1410 -0.1862  0.2993
18743W        W23043  22.567   5.613  25.521  0.2245 -0.0481 -0.0147
18744W        W23044   4.640   6.028  24.695 -0.1170 -0.0171  0.0101
18745W        W23045  19.674   5.321  12.555  0.2884  0.0311 -0.0211
18746W        W23046  21.986   3.951  32.132  0.2531  0.0197 -0.0879
18747W        W23047  16.933   0.858  30.375 -0.0786  0.3275 -0.2785
18748W        W23048   4.487   1.375   3.727 -0.0136  0.0201 -0.0039
18749W        W23049   5.871   0.010  24.166  0.1801 -0.0607  0.0882
18750W        W23050   6.746   2.393   9.812  0.1276  0.2625 -0.3194
18751W        W23051  12.759   2.249  28.721 -0.1380 -0.0444  0.1260
18752W        W23052  20.529   3.510  14.202  0.1143 -0.0074  0.0873
18753W        W23053  19.335   5.938  14.774  0.2367 -0.0977 -0.0239
18754W        W23054   2.414   3.748  13.586  0.1158  0.0813 -0.2465
18755W        W23055   7.443   0.991   0.039  0.3705 -0.2264  0.0636
18756W        W23056   5.963   4.130  27.348  0.2377  0.0030 -0.1060
18757W        W23057   5.257   5.416  22.243 -0.0076  0.1648 -0.2776
18758W        W23058  19.350   2.946  21.541  0.0324 -0.0775  0.2637
18759W        W23059  11.417   2.579  26.747  0.0843  0.1327  0.3775
18760W        W23060   4.470   3.702  14.894  0.0715 -0.1350 -0.1998
18761W        W23061   2.568   5.229  25.249  0.1331 -0.3391 -0.0119
18762W        W23062  25.090   3.191  32.056  0.0412 -0.2142 -0.1807
18763W        W23063   9.243   0.530   7.745  0.0124 -0.3502 -0.0456
18764W        W23064   6.942   0.244  25.082  0.2918 -0.0485 -0.2245
18765W        W23065  22.502   0.189  33.178 -0.1589 -0.2429 -0.0707
18766W        W23066   2.530   3.618   7.909 -0.0907 -0.0592 -0.0360
18767W        W23067   7.655   0.419  24.730  0.0489  0.0700  0.0767
18768W        W23068  26.092   1.941  24.478  0.0039  0.0034 -0.0934
18769W        W23069   6.073   3.686  26.118  0.1749 -0.1451 -0.1070
18770W        W23070  17.097   4.600   5.748 -0.1779 -0.0459 -0.0254
18771W        W23071  23.926   1.643  10.090  0.0975 -0.0395 -0.1597
18772W        W23072   2.944   2.913  30.048  0.1453  0.3946 -0.1276
18773W        W23073   5.439   0.525  24.978  0.3074  0.2547  0.0864
18774W        W23074  15.851   1.351  12.980 -0.2293 -0.1874  0.3173
18775W        W23075  15.333   4.265   8.397 -0.0877 -0.1830  0.3390
18776W        W23076  12.524   0.524  33.323  0.0020  0.1032  0.1237
18777W        W23077   8.972   5.013  28.435  0.0420 -0.0795  0.2293
18778W        W23078   2.600   3.869   4.045  0.0328 -0.0253  0.1002
18779W        W23079   1.963   2.328  14.596 -0.0092  0.0277  0.0799
18780W        W23080  17.799   1.003  34.519  0.3126 -0.1039  0.1667
18781W        W23081  24.470   4.098  13.342  0.0618  0.1856 -0.1812
18782W        W23082  21.476   5.816  35.955  0.0866  0.1629 -0.1790
18783W        W23083   2.858   3.781   3.668 -0.1338 -0.0258 -0.0257
18784W        W23084  15.624   5.131  25.447  0.0283  0.1195 -0.2472
18785W        W23085   6.170   4.205  26.303  0.0323  0.3378  0.2523
18786W        W23086  25.748   5.067  32.420 -0.1234  0.0681  0.0778
18787W        W23087  24.744   4.455  23.408  0.1678  0.1952 -0.2021
18788W        W23088  22.052   1.619  27.897  0.0371  0.0824  0.2844
18789W        W23089  13.912   2.701  34.249 -0.0257  0.2354 -0.0641
18790W        W23090  13.558   1.503  23.416  0.0952  0.4142  0.3130
18791W        W23091  25.159   2.937  35.059 -0.1943 -0.1312  0.1142
18792W        W23092  22.918   2.654   4.201  0.0106 -0.0913 -0.1165
18793W        W23093  22.564   2.288  29.197  0.0591  0.1019 -0.0310
18794W        W23094   2.378   2.311   1.827  0.2416  0.0366  0.1576
18795W        W23095  19.460   2.758  34.707  0.1191 -0.0326  0.2652
18796W        W23096   1.159   0.008  31.140  0.0248 -0.0202  0.1811
18797W        W23097  10.289   2.970  27.575  0.3643 -0.0090 -0.1366
18798W        W23098   4.927   6.049  31.724  0.0246  0.1138  0.0235
18799W        W23099  13.554   4.587  15.285  0.0424 -0.0068 -0.0025
18800W        W23100   8.960   0.870  21.109  0.1831 -0.2522 -0.0121
18801W        W23101  12.766   5.860  10.921 -0.1705 -0.3514 -0.3484
18802W        W23102   0.209   3.710  15.074 -0.0578  0.0263  0.1118
18803W        W23103  24.121   5.580   0.310  0.2687 -0.0894  0.2539
18804W        W23104  10.563   3.350  21.356  0.1917 -0.0017  0.0106
18805W        W23105  11.622   5.914  12.213 -0.0383  0.0597 -0.3034
18806W        W23106  21.915   3.160   7.272  0.0807 -0.1164 -0.0140
18807W        W23107  13.867   2.846  35.794  0.0018  0.0783 -0.1349
18808W        W23108   7.078   4.868  28.077  0.0605  0.2929  0.0827
18809W        W23109   7.187   5.703  12.889 -0.1269 -0.1874 -0.1305
18810W        W23110   4.513   4.102  10.217 -0.0314  0.0816  0.0779
18811W        W23111  18.603   2.158  35.607 -0.0550 -0.1352 -0.1006
18812W        W23112   7.005   1.456  27.931 -0.1272  0.2308  0.1205
18813W        W23113  25.614   0.874  26.614  0.0362 -0.1604  0.0570
18814W        W23114  11.253   2.613  30.333 -0.1945 -0.0198  0.1306
18815W        W23115   8.851   6.270  27.132 -0.0906  0.0474 -0.0400
18816W        W23116  21.626   2.335  30.722 -0.0635  0.1084 -0.1638
18817W        W23117  11.377   0.720  33.700 -0.2665 -0.0488 -0.4244
18818W        W23118  10.988   1.967   5.049  0.1164 -0.2244  0.1559
18819W        W23119  10.412   4.001  27.383 -0.1454 -0.0766  0.1355
18820W        W23120  22.163   5.906  22.355 -0.0447  0.0183 -0.1345
18821W        W23121   0.671   3.618  26.246  0.2164 -0.1597  0.0587
18822W        W23122  12.413   6.247   2.996 -0.0220 -0.0329  0.1903
18823W        W23123  13.965   3.408   6.989 -0.1731 -0.0506 -0.1015
18824W        W23124   8.594   1.861  23.174 -0.0400  0.1279 -0.1092
18825W        W23125  15.546   5.185  10.551  0.0432 -0.0232 -0.0050
18826W        W23126  10.983   0.905  29.949  0.0515  0.0036 -0.2461
18827W        W23127  19.945   4.267   8.588  0.0476  0.2945 -0.1591
18828W        W23128   0.436   6.455  25.022 -0.0068  0.0455 -0.0255
18829W        W23129  16.439   4.967   9.579  0.0365  0.2178  0.1142
18830W        W23130   2.529   3.937  11.347  0.2262  0.3088 -0.0346
18831W        W23131   3.790   1.953   8.308 -0.1186  0.0765  0.0094
18832W        W23132   4.728   3.957  20.749  0.2888  0.4509  0.1043
18833W        W23133   6.305   1.472  12.605 -0.0324 -0.0895 -0.0039
18834W        W23134  20.768   4.917   6.375 -0.0782 -0.2578 -0.1471
18835W        W23135  12.921   6.580  12.024 -0.2065  0.1140 -0.5563
18836W        W23136  21.790   3.450  11.300 -0.1002  0.2531  0.1136
18837W        W23137  13.517   2.637  29.080 -0.1134  0.1615  0.0486
18838W        W23138  10.465   5.744  22.769 -0.1286 -0.0564  0.0403
18839W        W23139  19.215   2.323  23.841  0.3299  0.1285 -0.0879
18840W        W23140  14.190   1.738   7.993 -0.1382 -0.0453 -0.1368
18841W        W23141   2.375   0.880  15.049  0.0500  0.2025  0.0306
18842W        W23142  12.475   2.449   4.261 -0.2636 -0.3414 -0.0389
18843W        W23143  16.058   3.581  11.031  0.0921  0.2026 -0.0126
18844W        W23144  15.879   0.979   6.169  0.0804 -0.0082 -0.1182
18845W        W23145  22.887   1.972   0.803  0.0902  0.0992 -0.0116
18846W        W23146   3.516   3.777   6.582 -0.1081 -0.0602  0.3333
18847W        W23147  12.583   3.218   7.238 -0.0705  0.0321  0.0900
18848W        W23148  18.705   3.808  12.358 -0.2455 -0.2602 -0.0126
18849W        W23149  13.401   0.474  31.113 -0.0673  0.1298 -0.0628
18850W        W23150  22.423   1.119  35.745  0.0071 -0.1088 -0.2194
18851W        W23151   3.988   0.788   7.714  0.1717  0.1762  0.0893
18852W        W23152  13.411   1.014  14.403  0.0425 -0.2258  0.1118
18853W        W23153   1.666   2.539  31.748  0.4635 -0.3914 -0.2144
18854W        W23154   5.350   2.648   2.307  0.1431 -0.1997  0.0079
18855W        W23155   5.151   2.185  14.827 -0.4149  0.2976 -0.1248
18856W        W23156   0.348   3.051  34.280  0.1581  0.1228 -0.4637
18857W        W23157  12.941   0.427  23.618  0.2031  0.0529 -0.1403
18858W        W23158  19.466   2.423  28.025  0.0156  0.2175 -0.1453
18859W        W23159  16.880   4.844  25.625  0.1233 -0.0276  0.1088
18860W        W23160  15.582   3.838  35.209 -0.2438 -0.0591  0.2240
18861W        W23161   2.093   4.741  23.009 -0.1743  0.2988 -0.2447
18862W        W23162  10.805   5.687  15.863  0.1688  0.0553  0.0108
18863W        W23163   7.571   1.854  10.492 -0.1363  0.1434  0.0723
18864W        W23164   5.241   3.928  13.704  0.4344 -0.1995 -0.0316
18865W        W23165   5.682   0.682   7.074 -0.2417  0.0942 -0.6871
18866W        W23166   1.139   3.256  13.611  0.0709 -0.3123  0.0731
18867W        W23167  15.905   1.676   7.159 -0.3162  0.1456  0.1251
18868W        W23168  13.689   0.348  24.593 -0.0020 -0.3193 -0.2974
18869W        W23169  21.922   1.140  27.973  0.1061  0.0629 -0.1207
18870W        W23170   3.194   1.661   6.242  0.3388 -0.0880  0.0839
18871W        W23171   3.084   2.725  13.818  0.0158 -0.3465 -0.2168
18872W        W23172  24.640   4.029   7.925 -0.1444  0.1628 -0.1652
18873W        W23173  10.827   2.933  21.620 -0.1467 -0.2165  0.0477
18874W        W23174  25.155   4.537  25.037 -0.0676  0.0275 -0.2227
18875W        W23175   8.532   4.328  32.273  0.0578  0.1398  0.0624
18876W        W23176   4.617   0.934  11.137 -0.1450 -0.2129  0.0642
18877W        W23177   2.140   2.462  29.296  0.0797 -0.4644 -0.1689
18878W        W23178   3.769   1.096   2.470 -0.1414 -0.1367  0.3541
18879W        W23179   0.583   2.799   4.373 -0.2029 -0.1431  0.1351
18880W        W23180   7.153   2.088  32.393  0.2162 -0.0988  0.0582
18881W        W23181  12.793   2.202  28.147  0.1609 -0.0278 -0.0411
18882W        W23182   1.007   0.138   7.266 -0.2993  0.1466 -0.0349
18883W        W23183   3.915   0.143  11.564 -0.2390  0.1639 -0.2098
18884W        W23184   3.679   5.669  22.325  0.0240 -0.1441  0.5255
18885W        W23185   4.874   2.114  13.301 -0.0952 -0.1547  0.0084
18886W        W23186  16.981   0.003   6.614 -0.0131 -0.1896  0.2094
18887W        W23187  24.688   4.931  13.374  0.0622 -0.1731  0.0793
18888W        W23188   9.138   2.345   0.371 -0.1776  0.1459 -0.2859
18889W        W23189   7.453   3.045   3.944 -0.0443  0.0573 -0.4729
18890W        W23190  23.667   2.840   3.376  0.4397  0.1145  0.2327
18891W        W23191   0.556   3.527  22.317 -0.1467  0.0945  0.1316
18892W        W23192   5.774   4.295  32.528  0.0668 -0.1088 -0.1948
18893W        W23193   0.806   1.274  11.894 -0.0778 -0.1927  0.1608
18894W        W23194  14.188   6.372   1.805 -0.0158 -0.4093 -0.1821
18895W        W23195   0.727   4.398  27.105  0.0221 -0.0232 -0.1657
18896W        W23196  20.475   5.706  28.342  0.2416  0.1128  0.0197
18897W        W23197  23.291   3.830  34.334  0.0391  0.0312  0.0262
18898W        W23198  14.286   4.436  33.120  0.0491 -0.4469 -0.1170
18899W        W23199   4.132   4.604  23.690  0.0335  0.2450  0.2144
18900W        W23200  22.854   2.817  35.248 -0.3266  0.3786 -0.4120
18901W        W23201  16.041   5.931  29.034 -0.0886 -0.0810 -0.0380
18902W        W23202  23.343   1.096   4.532  0.1794  0.0549  0.0973
18903W        W23203  22.910   4.415  29.526  0.3310 -0.1113  0.0139
18904W        W23204   1.036   3.440  13.116  0.1989 -0.2007  0.1462
18905W        W23205   4.381   0.335   1.073 -0.0140 -0.1561 -0.0872
18906W        W23206  20.628   2.033   1.755  0.2347 -0.0111 -0.0124
18907W        W23207   4.042   0.257   6.939  0.2098  0.2213  0.1020
18908W        W23208  24.429   3.586  15.168 -0.0706  0.3140  0.1771
18909W        W23209   7.874   2.253   1.038 -0.3405 -0.1103  0.0650
18910W        W23210  11.966   3.505   0.488  0.0545  0.0873  0.0923
18911W        W23211  19.646   5.879   0.393  0.1404 -0.0278 -0.1944
18912W        W23212  17.117   5.123   2.861 -0.4235  0.0854 -0.1263
18913W        W23213  14.377   4.362  23.238  0.3856  0.0641 -0.1306
18914W        W23214  10.467   1.103   2.241 -0.1219 -0.0371  0.0014
18915W        W23215  23.873   1.095  23.607 -0.1215  0.1875 -0.2508
18916W        W23216  15.996   1.833  27.284 -0.3349 -0.1735  0.1854
18917W        W23217   5.924   2.742   4.598 -0.2646 -0.0802 -0.0954
18918W        W23218  16.325   0.971  26.922  0.0802 -0.1385  0.1015
18919W        W23219  15.089   0.537   6.803  0.0228 -0.0359 -0.1895
18920W        W23220  22.272   2.265  20.610  0.1380  0.0076  0.2474
18921W        W23221   1.285   0.799  33.648 -0.0948 -0.1008 -0.2735
18922W        W23222  16.955   3.767  34.336 -0.2222  0.0199 -0.0256
18923W        W23223   6.395   0.456  29.092  0.1846 -0.1446  0.0707
18924W        W23224  25.162   4.572  10.330  0.3054  0.0759 -0.1149
18925W        W23225   8.252   5.340  22.771  0.5359  0.2046  0.0711
18926W        W23226  18.968   0.419  31.059 -0.0069 -0.1456  0.0755
18927W        W23227  13.227   0.489   3.614  0.1657  0.0012  0.0934
18928W        W23228  11.144   5.478  20.854 -0.0133  0.0570 -0.0486
18929W        W23229   8.311   2.881  32.214 -0.1184  0.1899 -0.0537
18930W        W23230  22.626   3.203   5.024  0.2646  0.0970 -0.0072
18931W        W23231   1.580   6.392  13.285  0.1059  0.0466 -0.2362
18932W        W23232  12.615   3.990  30.015 -0.1450 -0.0868  0.0175
18933W        W23233  17.264   1.889  11.430 -0.0122  0.2573  0.1261
18934W        W23234  20.500   5.988  11.185 -0.2209  0.1885 -0.1437
18935W        W23235  13.808   2.063  33.843  0.2395 -0.1456 -0.2425
18936W        W23236  22.727   3.828  26.789 -0.0860  0.1309 -0.2571
18937W        W23237  25.272   0.372  28.374  0.2581  0.1976 -0.1170
18938W        W23238  16.561   5.183  22.947 -0.1630  0.3823 -0.0641
18939W        W23239  24.630   5.591  29.379 -0.0600  0.3063  0.1102
18940W        W23240   1.284   1.300  24.816 -0.2048 -0.3013 -0.0233
18941W        W23241  16.626   6.319  24.704  0.1572 -0.0376  0.2009
18942W        W23242   8.759   0.270   7.816 -0.1014  0.0699 -0.0928
18943W        W23243   4.141   5.219   9.023  0.3168  0.1038 -0.0996
18944W        W23244   1.888   6.157   0.051  0.2991 -0.0534  0.1923
18945W        W23245  24.416   6.204  34.014 -0.0107  0.3141  0.3390
18946W        W23246  22.106   1.869   9.478  0.0950 -0.0924 -0.0726
18947W        W23247   9.139   6.336  20.822 -0.1006  0.0890  0.2392
18948W        W23248  16.165   0.428   7.597  0.1492 -0.3491 -0.1215
18949W        W23249   7.181   3.818  14.425 -0.1336 -0.1150 -0.0510
18950W        W23250   3.866   1.034  35.360 -0.3512  0.2114  0.3413
18951W        W23251   7.906   1.147  24.658 -0.2109  0.0797 -0.2645
18952W        W23252  25.512   5.472   6.241 -0.0381  0.1629 -0.1956
18953W        W23253  11.955   6.071   2.873  0.0391 -0.0468  0.0382
18954W        W23254   9.027   5.638  12.240  0.1412  0.0632  0.1382
18955W        W23255   7.617   3.067   0.616  0.1732  0.3721 -0.3225
18956W        W23256   4.753   1.268  30.050 -0.1116  0.3369  0.0032
18957W        W23257  17.529   4.874  26.906  0.0429  0.1348  0.0143
18958W        W23258  10.018   2.562  35.589  0.3438  0.1188  0.0121
18959W        W23259  22.648   3.107  21.260 -0.2320  0.2944  0.0135
18960W        W23260  16.266   0.601  28.769  0.0641  0.0938 -0.1958
18961W        W23261  17.941   4.877   8.069  0.2764  0.0160  0.4708
18962W        W23262   4.065   6.528  20.760  0.0173 -0.0093  0.0055
18963W        W23263  18.933   4.811  11.658 -0.0083  0.1055  0.0745
18964W        W23264  18.557   0.356  35.856 -0.1257  0.0069  0.1840
18965W        W23265  23.198   2.301   5.024 -0.2572  0.1022  0.1408
18966W        W23266  23.795   6.502   2.723  0.1773 -0.2427  0.0940
18967W        W23267   3.700   5.289  12.530 -0.2679  0.0883  0.2244
18968W        W23268  10.636   0.306  31.625  0.2478  0.1929  0.5137
18969W        W23269   0.560   4.068  29.128 -0.0252  0.1291  0.2059
18970W        W23270   8.338   5.175  21.357  0.0615 -0.0415  0.0648
18971W        W23271  20.014   1.577  24.064 -0.2903  0.2816 -0.0374
18972W        W23272   6.079   1.377   0.740 -0.2120  0.2652 -0.3458
18973W        W23273   2.654   6.360  15.328 -0.1048  0.0037 -0.2566
18974W        W23274  16.185   5.677  27.321  0.0133 -0.0965  0.2232
18975W        W23275   9.204   3.844  33.352 -0.3093  0.0872 -0.0050
18976W        W23276   2.243   6.375  11.664  0.1208 -0.0050  0.0012
18977W        W23277  20.212   2.429  11.450 -0.0070 -0.0864  0.1453
18978W        W23278   8.946   1.555   4.321  0.2076 -0.1528  0.3357
18979W        W23279   3.951   5.915   4.669 -0.2375 -0.0841 -0.2920
18980W        W23280   2.688   6.222  32.517  0.1714 -0.1101  0.1904
18981W        W23281  10.633   1.124  15.209  0.1294 -0.0387 -0.0401
18982W        W23282  17.168   4.105  31.136  0.2998 -0.2849  0.0255
18983W        W23283  13.046   2.335  14.183 -0.1351  0.0804 -0.0843
18984W        W23284   4.689   1.502  13.770 -0.1206 -0.0087 -0.2365
18985W        W23285   6.413   1.501  36.020  0.2429  0.1704  0.1880
18986W        W23286  17.297   4.128   0.939 -0.1104  0.2064 -0.1280
18987W        W23287  19.669   5.575  30.600  0.1450  0.1725 -0.2166
18988W        W23288   9.768   5.853  10.940  0.0292 -0.2297 -0.1537
18989W        W23289  25.546   3.201  26.103 -0.2204  0.0155  0.2031
18990W        W23290  13.367   5.391   5.022 -0.0037 -0.1493 -0.0172
18991W        W23291  26.141   1.365  12.755  0.3212 -0.0017 -0.3889
18992W        W23292  12.299   0.082  25.544  0.0184 -0.1703  0.1649
18993W        W23293  18.991   3.885  21.853  0.0831  0.1137  0.0743
18994W        W23294   1.343   3.744  26.790  0.1848 -0.0731 -0.3634
18995W        W23295  21.080   4.144  11.482 -0.1763  0.3208 -0.2842
18996W        W23296  20.503   5.304  15.374 -0.2585 -0.1121  0.1650
18997W        W23297  19.133   2.984   4.711  0.2332 -0.2228 -0.0922
18998W        W23298   0.279   0.302   0.911 -0.2556  0.1275 -0.2434
18999W        W23299  25.394   6.317   4.268  0.1923  0.0075 -0.3455
19000W        W23300   1.986   3.681  28.460  0.1718  0.1382  0.1180
19001W        W23301  16.088   4.218   1.173  0.1347 -0.0643  0.0752
19002W        W23302  12.811   1.017   0.110  0.1615 -0.1363  0.2648
19003W        W23303   8.293   3.569  10.928  0.0250  0.2539  0.0752
19004W        W23304  15.175   2.241   5.033 -0.0687 -0.2464  0.3982
19005W        W23305  13.243   5.492  21.678  0.0699 -0.3475 -0.0314
19006W        W23306  23.354   2.072  27.992  0.1767  0.0792 -0.1651
19007W        W23307  21.963   5.040  36.153 -0.4765 -0.3316  0.3968
19008W        W23308   8.979   4.210  34.229 -0.1011  0.1194  0.0435
19009W        W23309  21.728   0.506  28.287 -0.1439 -0.1891 -0.2586
19010W        W23310  24.717   5.012   1.657 -0.2974 -0.1053  0.0632
19011W        W23311   3.783   3.664   7.880  0.0841  0.0784  0.1080
19012W        W23312  18.077   6.585  31.383  0.0281 -0.0164 -0.0421
19013W        W23313  15.352   3.786  31.716  0.0988 -0.0330 -0.1494
19014W        W23314  23.399   1.810   1.626  0.2257  0.0761 -0.0047
19015W        W23315  12.825   6.266  21.284 -0.0424 -0.0096 -0.0476
19016W        W23316   7.446   4.789  13.684  0.0998 -0.5124  0.0363
19017W        W23317  21.053   6.377   1.354  0.0932 -0.1530 -0.2666
19018W        W23318   6.741   1.999  32.986  0.0325  0.4068  0.2745
19019W        W23319  18.865   2.795   9.560 -0.0396  0.2749  0.5208
19020W        W23320  16.263   0.819   5.269 -0.1048  0.1376  0.0768
19021W        W23321   8.454   6.270   6.565 -0.1231 -0.0802  0.0079
19022W        W23322  19.673   5.534  27.128 -0.0018 -0.1890 -0.1127
19023W        W23323  12.301   5.538  26.477 -0.2657 -0.2293 -0.0160
19024W        W23324   2.227   5.522  25.519  0.1821 -0.0143  0.0671
19025W        W23325   7.757   4.681  21.062 -0.1426  0.0332 -0.0010
19026W        W23326   4.361   1.050  29.724  0.0450 -0.3935  0.1633
19027W        W23327  20.719   5.286  24.540 -0.1971  0.0802 -0.0007
19028W        W23328   6.514   0.394  32.908  0.0434  0.0666 -0.0030
19029W        W23329   2.066   0.415   8.297 -0.0771 -0.0778 -0.0276
19030W        W23330  17.128   6.290  12.459  0.1825 -0.2730  0.0830
19031W        W23331  22.757   3.037  36.073  0.1901  0.0380 -0.0057
19032W        W23332   2.308   3.163  32.415 -0.2719 -0.1675  0.0019
19033W        W23333   4.935   0.514  11.422 -0.0132  0.0904  0.1432
19034W        W23334  24.360   3.317   6.136  0.1828  0.0698  0.0054
19035W        W23335  25.772   3.400   9.886 -0.0251  0.2046 -0.3715
19036W        W23336  22.664   3.210  25.055  0.3782  0.0323  0.0653
19037W        W23337   1.289   4.840   8.140  0.2435  0.4921  0.1236
19038W        W23338  19.473   1.703   9.221  0.0015  0.0153 -0.0754
19039W        W23339  14.352   6.532  33.595 -0.0620  0.0477 -0.1151
19040W        W23340  20.412   4.264  33.266 -0.0823  0.2197  0.3277
19041W        W23341  15.238   1.308  21.542  0.1129  0.0882 -0.3548
19042W        W23342   3.817   5.409   0.209 -0.3002 -0.3793 -0.0270
19043W        W23343  22.254   2.891   6.239  0.1282 -0.1284 -0.4009
19044W        W23344  18.460   5.808  29.373 -0.2581  0.0335  0.3126
19045W        W23345  25.608   2.770  21.765 -0.0242 -0.2680  0.2181
19046W        W23346   6.426   3.989  33.777 -0.2301  0.0037 -0.2394
19047W        W23347   7.673   4.054   0.870 -0.2196 -0.2955 -0.1661
19048W        W23348  11.221   2.463   0.654 -0.3276 -0.1612 -0.1499
19049W        W23349   5.503   2.264   4.022 -0.0642  0.1830 -0.0886
19050W        W23350  16.258   0.543  28.241  0.3029  0.0066  0.0654
19051W        W23351   2.849   3.524  32.359  0.1349 -0.0238  0.1229
19052W        W23352   2.257   3.688   5.899 -0.1772 -0.1025  0.1847
19053W        W23353   7.344   4.631  11.112 -0.1218 -0.1259 -0.1695
19054W        W23354   3.596   1.199  34.417  0.1552 -0.3607  0.0692
19055W        W23355  20.252   4.010   3.362  0.0951 -0.0001 -0.1164
19056W        W23356  24.459   4.488  14.157 -0.3560 -0.0548 -0.0799
19057W        W23357  17.830   5.126   9.542  0.1087  0.1628  0.1436
19058W        W23358  21.233   3.200   3.234 -0.1339 -0.1572 -0.1978
19059W        W23359   5.907   5.016  11.991  0.1504 -0.4087 -0.2018
19060W        W23360  13.734   2.707  23.419  0.3235 -0.0252 -0.0913
19061W        W23361   3.764   1.783   4.487  0.1044  0.2809 -0.3654
19062W        W23362   2.462   0.635   9.259 -0.2990  0.2988  0.0357
19063W        W23363  18.067   4.965  13.436  0.0533  0.1682 -0.1347
19064W        W23364  20.762   0.053  10.891  0.0391  0.0683 -0.2486
19065W        W23365  13.063   3.777  29.813 -0.0405  0.0073 -0.1673
19066W        W23366   3.846   0.054   5.655 -0.1918  0.0572  0.0321
19067W        W23367  13.924   3.924  32.443 -0.2847 -0.3287 -0.2442
19068W        W23368   1.039   2.003  30.880 -0.4097 -0.3111 -0.0691
19069W        W23369   8.607   1.374  24.159 -0.1627  0.0091 -0.2304
19070W        W23370   8.237   4.362  28.038  0.1781  0.0517  0.1940
19071W        W23371  16.423   0.273  22.270  0.1725 -0.1126  0.2568
19072W        W23372  17.909   2.051  25.957 -0.1817  0.0893 -0.0121
19073W        W23373  11.866   1.931  10.549  0.1510  0.2302  0.2798
19074W        W23374   0.963   1.904   9.972  0.0708 -0.0723  0.0389
19075W        W23375  22.364   1.557  31.102 -0.3019 -0.1485 -0.0044
19076W        W23376   6.464   0.315   3.602  0.0823  0.1293  0.1662
19077W        W23377   5.080   2.206  11.093  0.0521  0.0427 -0.2161
19078W        W23378   4.824   4.088   9.800 -0.0060 -0.0081  0.1561
19079W        W23379  16.644   1.902  22.411 -0.3197 -0.0140  0.1209
19080W        W23380   9.182   3.273  35.186 -0.0917 -0.0371 -0.0892
19081W        W23381   6.139   1.134  28.488 -0.0385 -0.1272 -0.0615
19082W        W23382   3.376   6.389   6.930  0.1071 -0.1540  0.1715
19083W        W23383  21.339   3.632   0.545  0.1580 -0.2026 -0.1377
19084W        W23384   8.693   6.597  11.255 -0.2142  0.4451 -0.1079
19085W        W23385  21.368   1.461  25.898 -0.1527 -0.1291 -0.2130
19086W        W23386   5.044   4.665   6.127  0.2626 -0.0683 -0.0777
19087W        W23387  22.998   2.338  33.843  0.3376  0.2188 -0.1637
19088W        W23388  16.778   6.337   0.070 -0.0177 -0.1353  0.0903
19089W        W23389   1.056   5.496   5.794  0.0076  0.1210  0.0650
19090W        W23390  13.918   1.874   1.431 -0.0621  0.1496 -0.2441
19091W        W23391   9.736   4.430  23.130 -0.1182  0.0171  0.1420
19092W        W23392  19.072   0.908   8.898  0.0431 -0.0483 -0.1073
19093W        W23393  16.828   0.808   1.549  0.0213 -0.1736  0.0464
19094W        W23394   8.508   1.709   7.459  0.1012  0.0619 -0.1710
19095W        W23395  23.523   3.281   3.275  0.2131 -0.1371 -0.1569
19096W        W23396   8.533   0.018   3.822 -0.0297  0.1825  0.0331
19097W        W23397   2.112   5.440  32.665 -0.0829  0.1403 -0.1437
19098W        W23398  23.165   3.910   2.187  0.0759 -0.0474 -0.0801
19099W        W23399  16.923   5.741   4.028 -0.2486  0.0375 -0.1057
19100W        W23400   9.402   0.810   3.845 -0.0088  0.0121  0.2181
19101W        W23401  20.417   3.751  15.298 -0.1559 -0.2718  0.2452
19102W        W23402   1.307   5.427   7.417 -0.1418  0.0799  0.0304
19103W        W23403   5.545   2.539   1.870  0.1509  0.4858 -0.1624
19104W        W23404   3.902   5.544  15.378 -0.0111  0.1033 -0.2023
19105W        W23405  19.578   0.824  29.505  0.2867  0.0775  0.0014
19106W        W23406  10.325   6.560  32.588 -0.1027  0.2495  0.1636
19107W        W23407  20.709   3.022  24.795  0.1603  0.0153  0.1629
19108W        W23408  23.064   5.671  33.500 -0.0700 -0.1139 -0.0106
19109W        W23409  25.056   2.535  34.669 -0.2182  0.0229  0.1606
19110W        W23410   5.216   0.977  30.179  0.0048 -0.0536  0.0774
19111W        W23411  21.096   3.240  33.643  0.2113 -0.0819 -0.1937
19112W        W23412  14.066   1.777  24.917  0.0499  0.1222 -0.1720
19113W        W23413  13.673   1.312  25.519  0.1242  0.2478  0.2421
19114W        W23414  21.813   3.849  23.058 -0.0482 -0.2150  0.0303
19115W        W23415  17.623   5.687  35.496 -0.0446  0.3765  0.2235
19116W        W23416   7.331   0.915  14.445  0.2649  0.0216  0.5099
19117W        W23417  24.125   1.164  21.102  0.0855 -0.0791 -0.1286
19118W        W23418  14.653   5.517  15.122  0.1577 -0.0671 -0.0829
19119W        W23419  10.601   2.531   7.350  0.3553 -0.1199  0.2701
19120W        W23420  20.299   5.068  31.916  0.0862 -0.2241 -0.0599
19121W        W23421   3.625   2.212  13.662 -0.3547 -0.0165 -0.0125
19122W        W23422  10.984   5.039   8.780  0.2228 -0.0906 -0.1248
19123W        W23423   3.131   2.689  35.408 -0.1511 -0.1312 -0.0613
19124W        W23424  24.463   4.631  31.573 -0.0986 -0.0477 -0.2661
19125W        W23425  11.584   2.113  25.158 -0.1145 -0.0685 -0.1032
19126W        W23426  20.044   0.013  31.466  0.0229  0.0584 -0.1168
19127W        W23427  25.789   4.795  33.009 -0.4019 -0.0006  0.1196
19128W        W23428   7.286   5.903   5.093 -0.0085 -0.1856  0.2734
19129W        W23429  19.806   1.625  24.542 -0.2337 -0.1249  0.0807
19130W        W23430  11.682   1.998   2.696  0.1694 -0.0848  0.1315
19131W        W23431   2.053   5.984  21.399 -0.3051  0.0706 -0.2652
19132W        W23432  25.810   3.613   7.856  0.0520  0.0215  0.0169
19133W        W23433  16.821   3.707   4.771  0.1450  0.0841 -0.1670
19134W        W23434   2.379   6.128  14.128 -0.0455  0.2188  0.0490
19135W        W23435  26.299   3.841   7.394 -0.3248  0.1400  0.3875
19136W        W23436  16.440   6.174   8.188  0.0877 -0.0240 -0.1195
19137W        W23437  18.704   5.682   0.748  0.0733  0.2819  0.2733
19138W        W23438  19.503   3.981   1.272 -0.0756 -0.0732  0.0972
19139W        W23439  17.454   0.378   9.486 -0.1973 -0.0563  0.2820
19140W        W23440   3.242   0.448  21.664  0.0639 -0.1555 -0.2333
19141W        W23441  22.266   1.275   8.777  0.3624  0.0132 -0.1050
19142W        W23442   0.776   3.619   9.015 -0.0344 -0.3530  0.3486
19143W        W23443  26.236   6.198  34.790  0.4289 -0.1172 -0.3298
19144W        W23444  21.468   3.375  14.015  0.0372 -0.1854  0.0299
19145W        W23445   8.521   5.244  12.164 -0.1428  0.0122 -0.0539
19146W        W23446   1.740   4.509  33.483 -0.1470 -0.1682 -0.1860
19147W        W23447   3.375   0.422  10.441  0.0801 -0.0741 -0.1072
19148W        W23448  21.258   5.856  30.216  0.1099 -0.1486  0.0930
19149W        W23449  23.506   2.437   9.308 -0.5684 -0.1096  0.1576
19150W        W23450  10.229   2.183   3.970  0.1837 -0.0775 -0.1174
19151W        W23451   3.453   2.035  35.639 -0.1784 -0.0978  0.0107
19152W        W23452  20.893   4.391   7.075 -0.0789 -0.0830 -0.0957
19153W        W23453  16.530   2.880  13.738  0.3514 -0.1785 -0.0536
19154W        W23454  21.488   4.353  35.994 -0.0794  0.0133  0.0092
19155W        W23455  20.289   6.415  21.615 -0.3019 -0.3434  0.0781
19156W        W23456   0.673   4.611   7.367 -0.1977 -0.0370 -0.0450
19157W        W23457  19.071   5.020   9.774 -0.0468 -0.0101 -0.0031
19158W        W23458   8.177   1.055  30.359 -0.2522 -0.3909 -0.3231
19159W        W23459  11.443   4.707   6.158  0.0864  0.0325 -0.1788
19160W        W23460  14.471   0.103  12.239 -0.0144  0.0140  0.2412
19161W        W23461   4.990   2.892   5.896  0.1061  0.1239  0.0278
19162W        W23462  20.112   4.832  13.284  0.1542  0.1247 -0.0614
19163W        W23463   0.684   4.131  11.487 -0.0028  0.1099 -0.0176
19164W        W23464  16.884   0.839  31.207  0.2200  0.1555 -0.1413
19165W        W23465   9.243   4.435  23.395 -0.0556 -0.2898 -0.0592
19166W        W23466  18.198   5.472  30.730 -0.1584  0.0258 -0.0740
19167W        W23467  14.463   6.026   6.581  0.0205 -0.0747 -0.1524
19168W        W23468  22.662   4.163   6.322  0.4621 -0.1318  0.1072
19169W        W23469  21.756   2.483  28.583 -0.0629  0.0176  0.1340
19170W        W23470  24.521   1.355   5.672  0.2835  0.0595  0.2949
19171W        W23471  23.396   4.615  11.328  0.3212 -0.0742  0.1339
19172W        W23472  22.409   1.569  29.891 -0.0015 -0.0984  0.2042
19173W        W23473  19.182   5.586  26.433  0.0519  0.1465  0.0667
19174W        W23474   3.829   4.592  29.922  0.0653  0.4479 -0.0672
19175W        W23475  15.831   3.913  21.813 -0.0660 -0.1240  0.1374
19176W        W23476   7.357   1.167  33.238 -0.3147 -0.2460  0.1045
19177W        W23477  14.057   1.330  21.298  0.1042 -0.2113 -0.1855
19178W        W23478   4.104   0.169  14.708 -0.0939  0.0014 -0.0359
19179W        W23479  18.408   1.140  35.828 -0.2127  0.0826 -0.5056
19180W        W23480   3.681   6.033  20.707 -0.0173  0.0289 -0.3386
19181W        W23481   8.033   3.837  31.257 -0.1498 -0.1925 -0.1001
19182W        W23482   5.274   1.367  24.430  0.1971 -0.1333 -0.0677
19183W        W23483  23.935   3.912  27.915 -0.0696  0.0580  0.3674
19184W        W23484  20.162   3.590  31.473 -0.3863 -0.0630  0.0051
19185W        W23485  17.770   2.451  12.621  0.3258 -0.3932  0.2028
19186W        W23486  15.182   1.648  23.951 -0.0584 -0.0151 -0.3425
19187W        W23487   4.053   0.173   4.135 -0.2980 -0.1623  0.1370
19188W        W23488   3.819   3.628  12.722  0.1154 -0.3411 -0.2961
19189W        W23489  11.154   1.333  30.289 -0.0063 -0.0123 -0.0425
19190W        W23490  21.773   3.449  30.340 -0.0224  0.0242 -0.1249
19191W        W23491  25.283   0.400  34.785  0.3315  0.2134 -0.0928
19192W        W23492   2.435   4.479  26.146 -0.0054  0.2721 -0.0415
19193W        W23493  17.131   2.462  21.232  0.1627 -0.0416 -0.1443
19194W        W23494  22.777   5.231  22.787 -0.2314  0.1217  0.2168
19195W        W23495  13.878   0.288  29.615  0.1545  0.0375  0.1970
19196W        W23496  16.887   1.746  27.355 -0.0519 -0.0899 -0.2704
19197W        W23497  14.228   4.589  11.989  0.0167 -0.1164 -0.2348
19198W        W23498   0.210   1.120  25.579 -0.0964 -0.1674  0.2692
19199W        W23499  16.839   3.102  13.395  0.0865 -0.0397  0.2450
19200W        W23500  16.847   2.858  33.494 -0.1906 -0.0269  0.2206
19201W        W23501  11.806   2.187  31.310 -0.1141 -0.1545 -0.2471
19202W        W23502  22.296   0.403  26.546  0.0118 -0.1305 -0.0268
19203W        W23503   9.319   5.173   3.790  0.4049  0.0441  0.2194
19204W        W23504  25.123   5.018   4.054 -0.1476 -0.2948  0.2008
19205W        W23505   7.534   1.824  12.723  0.1460  0.2857  0.0617
19206W        W23506   2.332   5.167   9.378 -0.0143 -0.0696  0.0726
19207W        W23507   1.447   2.289   8.030 -0.0498  0.0717  0.1837
19208W        W23508  14.052   5.382  33.304  0.1608 -0.1647 -0.1061
19209W        W23509   1.677   2.462  14.063 -0.1506  0.2974 -0.1006
19210W        W23510   5.012   0.241   6.747 -0.1410  0.0368  0.0054
19211W        W23511  19.310   6.240   5.224  0.2015 -0.2077 -0.1388
19212W        W23512  16.041   1.787  35.255 -0.1477  0.0067 -0.6281
19213W        W23513  11.072   1.788  35.144  0.1295  0.1344 -0.1378
19214W        W23514   8.338   0.215   5.991  0.0434  0.0115 -0.1526
19215W        W23515  19.510   6.315   7.711  0.0605  0.1520  0.2472
19216W        W23516  21.652   2.275  26.311  0.1648 -0.1892  0.2095
19217W        W23517   4.498   5.409  13.365 -0.3014  0.1060  0.1300
19218W        W23518  22.475   3.254  30.149  0.2658 -0.0807  0.0495
19219W        W23519  19.604   1.061  20.330  0.2072 -0.1782 -0.0025
19220W        W23520  24.943   1.040   3.553 -0.0183 -0.0876  0.3104
19221W        W23521  14.580   3.661   2.305 -0.1555  0.1948  0.0148
19222W        W23522  17.207   0.225  22.103 -0.0905  0.0901 -0.1773
19223W        W23523  17.354   3.844   4.399  0.0742  0.2339  0.3049
19224W        W23524  22.911   0.730  12.354 -0.2189  0.3596  0.2117
19225W        W23525  25.029   4.268  32.787  0.1136  0.1161 -0.0168
19226W        W23526  16.576   5.667  23.577  0.0548 -0.0106 -0.0741
19227W        W23527  22.689   2.785  32.203 -0.1840 -0.1891 -0.2389
19228W        W23528  11.676   0.970  36.025  0.2098 -0.0842 -0.0165
19229W        W23529  24.095   5.632  11.330 -0.0187  0.1032  0.0899
19230W        W23530   7.963   1.521  22.901  0.1293 -0.0387 -0.3102
19231W        W23531  10.857   3.737  20.609 -0.1065 -0.0172 -0.1375
19232W        W23532  10.725   5.266  21.673  0.0022  0.0176 -0.1222
19233W        W23533  25.771   3.976  10.752  0.2216 -0.2875 -0.1745
19234W        W23534   6.235   3.516   4.597  0.2650 -0.1693 -0.3547
19235W        W23535  13.549   4.825  21.138 -0.0291  0.0214  0.1064
19236W        W23536  20.499   0.394   4.972 -0.1154  0.1457  0.2000
19237W        W23537  10.295   6.181  20.802  0.1415 -0.0932 -0.2021
19238W        W23538  11.755   0.329   3.894 -0.1298  0.1825  0.0645
19239W        W23539  15.528   5.969  34.414  0.3712 -0.2206  0.3289
19240W        W23540   5.935   3.478  20.458  0.1455  0.0367  0.0860
19241W        W23541  10.881   0.732  24.189  0.0624  0.0780 -0.0007
19242W        W23542  13.085   1.661  22.758  0.2617  0.2390  0.0058
19243W        W23543   5.782   4.235   3.102  0.0307 -0.0170 -0.0585
19244W        W23544  16.786   6.018   3.505 -0.3604  0.2344 -0.0531
19245W        W23545  10.913   4.725  30.004  0.2463  0.0596  0.0157
19246W        W23546  21.845   5.826  30.821 -0.0587 -0.2474 -0.2047
19247W        W23547  16.575   4.172  24.242  0.1319 -0.1507 -0.0264
19248W        W23548  20.528   2.907  23.973  0.0042  0.2409  0.0479
19249W        W23549   8.256   1.741  33.366 -0.2127  0.2825 -0.1911
19250W        W23550  19.392   6.236  33.911  0.0998  0.0541 -0.0456
19251W        W23551  20.384   2.796   5.570 -0.2323  0.1246 -0.1220
19252W        W23552  13.309   3.612   1.237 -0.0211 -0.0239  0.0211
19253W        W23553  11.229   1.653  11.980  0.0872  0.2440 -0.0075
19254W        W23554   2.199   1.897   5.828 -0.0930  0.1369 -0.0053
19255W        W23555  17.794   1.354  12.166 -0.3064  0.3641 -0.0094
19256W        W23556  22.873   1.194  24.027  0.1803 -0.0645  0.0588
19257W        W23557   3.582   1.325  30.556 -0.2486  0.0066  0.0808
19258W        W23558   7.303   6.540  30.892  0.0818  0.1286  0.0580
19259W        W23559  22.380   5.780   5.516  0.0088 -0.0164 -0.1507
19260W        W23560  16.152   5.131  29.333 -0.3736 -0.2901  0.1440
19261W        W23561  22.893   2.489   1.195 -0.0430 -0.0118 -0.0486
19262W        W23562  10.667   0.208   4.145  0.2260 -0.0585  0.1837
19263W        W23563   0.776   0.315  10.758 -0.0493  0.3672 -0.2287
19264W        W23564   2.094   1.974  35.420  0.1038  0.2319 -0.4928
19265W        W23565   2.570   4.703  33.956 -0.1939  0.4915 -0.1627
19266W        W23566   0.561   0.636   4.423  0.0729 -0.1275 -0.0795
19267W        W23567  18.719   4.769  16.130  0.1364 -0.0350  0.1689
19268W        W23568  17.895   4.219  29.402 -0.1828  0.2403  0.4149
19269W        W23569   3.855   0.057  15.115 -0.2658 -0.1176 -0.0622
19270W        W23570  20.711   0.029  21.989  0.3621  0.0235 -0.3230
19271W        W23571  12.906   3.064  11.126  0.2466  0.0025  0.2296
19272W        W23572   2.499   4.956   5.434 -0.0349 -0.1461 -0.1955
19273W        W23573   0.208   1.904  21.946  0.0647  0.1327 -0.0592
19274W        W23574  10.017   3.298   6.188 -0.1657 -0.0155  0.5382
19275W        W23575  26.374   3.237   6.068  0.1015 -0.0709  0.0347
19276W        W23576  12.466   5.364   8.587  0.1023  0.0289 -0.0301
19277W        W23577   2.717   4.401  24.631  0.0110 -0.2460  0.0657
19278W        W23578  23.528   5.025   2.656 -0.0927  0.1589 -0.0948
19279W        W23579   7.152   6.390  27.670 -0.0608 -0.1631  0.1450
19280W        W23580   0.005   5.928  33.493  0.0209 -0.1671  0.2203
19281W        W23581  16.903   1.861   0.420  0.0084  0.0230 -0.1551
19282W        W23582  23.580   5.671  25.047 -0.1662  0.2841 -0.1311
19283W        W23583  18.453   0.118  11.896  0.0893  0.2883 -0.0011
19284W        W23584   4.238   6.571   1.438  0.2502 -0.0995 -0.0644
19285W        W23585   7.008   2.376   0.822 -0.0346  0.1289  0.0002
19286W        W23586  21.585   3.563  22.697  0.0216  0.1452 -0.1386
19287W        W23587   4.585   5.409  20.872 -0.1634 -0.2244  0.2555
19288W        W23588   2.251   5.249  25.968  0.1198 -0.0232  0.1411
19289W        W23589  17.339   2.760  34.357  0.3536 -0.2833  0.1446
19290W        W23590  22.124   3.662  11.565 -0.2665 -0.1372 -0.0703
19291W        W23591  20.313   5.818  26.580 -0.1405  0.0558 -0.0057
19292W        W23592   3.826   3.401   9.639  0.3360 -0.0544 -0.1351
19293W        W23593  16.640   4.774  26.315  0.3072 -0.0551  0.0603
19294W        W23594  19.116   0.154  15.498 -0.1953 -0.0703 -0.0500
19295W        W23595   7.747   3.093  34.109 -0.0049  0.2710  0.0177
19296W        W23596  16.717   2.204  12.731  0.4855  0.0045  0.0029
19297W        W23597  20.105   6.584  23.617  0.1057  0.2151 -0.0273
19298W        W23598  25.619   5.298  21.664  0.0611 -0.4048 -0.1447
19299W        W23599   6.107   3.011  11.172 -0.1985 -0.3069  0.3688
19300W        W23600  15.282   1.779   4.948  0.1265 -0.1581 -0.1033
19301W        W23601  17.438   6.477  11.981  0.0780  0.1834 -0.0394
19302W        W23602  16.573   1.141   7.463  0.1159 -0.2686 -0.3821
19303W        W23603   9.790   1.075  10.089 -0.1462  0.1450  0.2849
19304W        W23604  19.387   5.868   5.868  0.3303 -0.0461  0.1754
19305W        W23605  13.447   2.685   3.374 -0.2308  0.1549 -0.0296
19306W        W23606  16.234   5.478  13.176 -0.1200  0.0315 -0.3641
19307W        W23607   8.788   0.885  23.953 -0.0993 -0.0098  0.0311
19308W        W23608  22.513   1.635   0.907 -0.0023 -0.1602 -0.1354
19309W        W23609  23.873   0.590  32.289 -0.0061 -0.1402 -0.0681
19310W        W23610  22.875   4.280   9.555  0.3317 -0.0357 -0.3078
19311W        W23611  18.836   2.973   6.948  0.1242  0.1320 -0.1288
19312W        W23612  24.593   4.092  12.339 -0.0423 -0.1595  0.0753
19313W        W23613  25.956   0.451  34.788  0.1774  0.3009  0.0133
19314W        W23614  23.469   6.169  24.698 -0.0124 -0.2390  0.0875
19315W        W23615   6.931   2.893   8.785  0.2030  0.1048 -0.2025
19316W        W23616  19.027   4.960  26.795 -0.2728 -0.1844  0.2786
19317W        W23617   3.223   3.947  35.090 -0.1064 -0.0824 -0.0302
19318W        W23618   8.051   1.601   3.915  0.0016  0.1773  0.2651
19319W        W23619  24.585   2.621  10.210  0.0923  0.1513 -0.1490
19320W        W23620   8.501   1.192  30.025  0.0285 -0.2973  0.1029
19321W        W23621  26.378   4.169   5.646  0.1486 -0.1331 -0.0097
19322W        W23622   3.839   2.437  11.085 -0.3237 -0.0005  0.3186
19323W        W23623   3.595   5.028  35.971 -0.2789  0.1699 -0.0210
19324W        W23624  12.807   2.724   3.220  0.0393  0.3690  0.2329
19325W        W23625   2.336   3.262  26.389  0.1549  0.0223 -0.0283
19326W        W23626  13.010   3.820  33.957  0.2459  0.1691  0.1830
19327W        W23627  18.525   1.599  27.253  0.3543 -0.1020  0.1492
19328W        W23628   8.879   5.433  30.405  0.3777  0.2759  0.3125
19329W        W23629  23.019   0.446  29.363  0.1929  0.1916  0.4069
19330W        W23630   7.441   3.499  12.655  0.0421 -0.0993 -0.3001
19331W        W23631   3.959   5.256  30.354  0.0045  0.2807  0.3323
19332W        W23632   5.395   1.224   0.990  0.1947 -0.2826  0.1035
19333W        W23633  14.592   5.067   2.510 -0.3084  0.2317 -0.2557
19334W        W23634   3.335   3.788  12.895  0.1301  0.1510  0.1293
19335W        W23635   8.277   2.768  21.094  0.1757 -0.0129  0.1058
19336W        W23636  14.952   2.171  14.473 -0.0628  0.1521  0.0136
19337W        W23637   5.734   3.075  25.555 -0.2165 -0.0292 -0.0938
19338W        W23638   2.951   0.804  35.076 -0.0204 -0.4353 -0.0334
19339W        W23639  17.221   1.179  13.487 -0.0226 -0.1484  0.3367
19340W        W23640   0.468   4.832   7.746 -0.1704  0.0151 -0.5472
19341W        W23641  25.751   4.287  32.133  0.2645  0.2728 -0.0227
19342W        W23642  25.447   2.753  20.439 -0.3097 -0.0669 -0.0902
19343W        W23643  20.763   0.448  11.870  0.0380 -0.3220 -0.0542
19344W        W23644  13.620   1.944  31.272 -0.1025  0.0693 -0.1811
19345W        W23645   9.570   6.368  34.551 -0.0613  0.0903  0.0450
19346W        W23646  19.717   0.857  31.399 -0.0458  0.0761 -0.1127
19347W        W23647   3.801   1.005  23.726  0.0755 -0.1582 -0.0446
19348W        W23648   3.649   4.279  33.867 -0.2403 -0.1076  0.0898
19349W        W23649  21.984   1.400  22.625  0.0069 -0.2580  0.5369
19350W        W23650  10.334   3.885  31.439  0.1776 -0.2757 -0.1641
19351W        W23651  18.394   5.717  25.889 -0.3023 -0.0712  0.0438
19352W        W23652   2.931   4.029   5.826  0.0628  0.1362 -0.0527
19353W        W23653   0.757   3.943  11.919 -0.0126 -0.0692 -0.2491
19354W        W23654  20.694   3.132   3.544 -0.2430  0.0389 -0.2355
19355W        W23655   5.019   0.881  11.772 -0.1498  0.2141  0.0105
19356W        W23656   6.661   3.247  28.167 -0.0173  0.0692 -0.2158
19357W        W23657  15.581   1.728   5.682  0.3761  0.1491 -0.1820
19358W        W23658   5.734   5.950  34.349 -0.1608  0.1842  0.1203
19359W        W23659  17.798   5.953  13.668 -0.1922  0.0201  0.2298
19360W        W23660  18.270   2.374  35.916 -0.1473 -0.0274  0.1092
19361W        W23661   9.598   4.020  27.043 -0.1770  0.2711  0.1607
19362W        W23662  25.905   3.855  21.937 -0.1806 -0.0699  0.2425
19363W        W23663   4.527   3.158  21.247  0.1656  0.1989 -0.1489
19364W        W23664  18.867   2.968   0.018 -0.2429  0.1272  0.0396
19365W        W23665   7.194   0.408   8.800 -0.1429 -0.1959  0.3081
19366W        W23666  16.584   0.950  32.023 -0.1056  0.0148  0.0269
19367W        W23667  20.863   2.857  33.434 -0.0729 -0.0997 -0.0363
19368W        W23668  19.941   3.230   8.171  0.2276 -0.1550  0.1868
19369W        W23669  12.837   6.195  13.548 -0.0619 -0.1113 -0.1236
19370W        W23670  16.653   1.136  12.233  0.2600  0.2285  0.2009
19371W        W23671  17.453   2.875  33.004  0.0776  0.0104 -0.0877
19372W        W23672  15.955   3.172  11.308 -0.2658  0.2054  0.0332
19373W        W23673  16.490   5.337  27.948 -0.3530  0.0812  0.0645
19374W        W23674   9.100   4.764  33.137 -0.1212  0.1866 -0.0234
19375W        W23675  25.817   3.790  20.904  0.1723 -0.0464  0.2302
19376W        W23676   0.818   0.685  33.389  0.0934  0.2319 -0.0439
19377W        W23677  20.680   2.776  31.662  0.0285 -0.2488  0.0565
19378W        W23678   7.629   3.610  11.324 -0.0058  0.2235 -0.2156
19379W        W23679  14.714   4.489  10.652 -0.1360  0.0447 -0.2128
19380W        W23680   6.363   4.692  31.765 -0.2228  0.0085  0.0896
19381W        W23681  18.161   5.588   9.375  0.0938  0.0269  0.0379
19382W        W23682   0.751   1.616  34.652  0.2269  0.4484 -0.0719
19383W        W23683   4.470   1.583  35.598 -0.2118 -0.2089  0.4350
19384W        W23684   3.164   3.501  33.723  0.2127 -0.1042 -0.0458
19385W        W23685   7.983   3.896  11.204 -0.0860 -0.2285  0.2672
19386W        W23686  23.012   0.069  12.516  0.0874  0.0435  0.0606
19387W        W23687  15.547   5.610  14.230  0.0214  0.1427 -0.3549
19388W        W23688  25.055   2.945   9.462 -0.0851 -0.0778 -0.2713
19389W        W23689  22.437   0.123   2.032 -0.0297 -0.1603 -0.0224
19390W        W23690  16.082   3.100  13.243  0.0776  0.1305 -0.0979
19391W        W23691  13.634   0.421   8.803  0.0591 -0.0125  0.1017
19392W        W23692   2.195   4.018  31.839 -0.0834 -0.0057 -0.1190
19393W        W23693   2.313   1.485  11.700  0.0431 -0.1022 -0.0609
19394W        W23694   3.950   0.808  26.464 -0.0712 -0.3742  0.4389
19395W        W23695   7.540   2.379   5.240 -0.2137 -0.2677  0.0927
19396W        W23696  13.688   5.053  26.725 -0.0296  0.0640  0.1331
19397W        W23697  22.847   2.031   3.269  0.1433  0.0372  0.1659
19398W        W23698  18.805   0.014  27.256 -0.2091  0.0191  0.2802
19399W        W23699  12.490   1.869  31.981 -0.4177  0.0724 -0.0526
19400W        W23700  10.242   1.970  21.443  0.0158 -0.2106  0.0931
19401W        W23701  21.757   2.896   5.472 -0.2544 -0.1375 -0.0436
19402W        W23702  22.018   2.679  30.684 -0.0495  0.0561 -0.2613
19403W        W23703  20.432   2.223  30.308  0.1035  0.1508 -0.1667
19404W        W23704   5.688   2.072  28.260  0.1891  0.0037  0.2100
19405W        W23705  18.358   2.879  27.783 -0.0452 -0.3071  0.0624
19406W        W23706  16.805   3.126  11.636 -0.0323 -0.0817  0.0893
19407W        W23707  26.258   4.037  13.346 -0.2015  0.1424  0.2517
19408W        W23708  10.610   3.730  32.980 -0.0693 -0.3071  0.1744
19409W        W23709  18.118   4.184   9.629  0.0354 -0.0283  0.3058
19410W        W23710   1.802   5.712  26.815  0.0185 -0.0781  0.1741
19411W        W23711   6.788   0.740  25.006  0.2049  0.2786  0.2681
19412W        W23712   4.068   1.337  34.488  0.0546 -0.1009 -0.0479
19413W        W23713   1.166   6.592  30.550 -0.0188 -0.1670  0.0199
19414W        W23714  24.622   5.514  30.633 -0.0291 -0.1191  0.4194
19415W        W23715  19.700   6.297  25.091  0.1161  0.1411 -0.0296
19416W        W23716  14.230   1.107  12.515 -0.2190 -0.1302  0.1109
19417W        W23717  18.391   5.049   9.542  0.0820 -0.0636 -0.1868
19418W        W23718   4.274   5.359  11.846 -0.2101  0.0505  0.0716
19419W        W23719  26.402   1.394  35.670 -0.0819  0.2179  0.1118
19420W        W23720   0.274   4.314  10.273 -0.1269  0.0177  0.0609
19421W        W23721  10.967   0.426  11.815  0.2229  0.1547 -0.2056
19422W        W23722  17.010   2.304  22.157 -0.1788  0.1191 -0.0736
19423W        W23723  18.055   1.859  24.646  0.1218  0.0657  0.0833
19424W        W23724   1.408   5.176   4.586  0.2960  0.1504 -0.0515
19425W        W23725  18.174   2.205   2.618  0.0761 -0.0980  0.0442
19426W        W23726  15.368   3.048  14.551  0.0896  0.2534  0.0365
19427W        W23727  21.141   4.631  31.153 -0.1690 -0.0487  0.0719
19428W        W23728   1.600   2.177  30.813 -0.1499  0.1067  0.0540
19429W        W23729   6.260   5.743  22.428  0.1127 -0.0547 -0.3738
19430W        W23730  17.012   3.211  34.455  0.2118 -0.1186  0.0487
19431W        W23731   8.289   0.888   2.727 -0.1818  0.1980 -0.1388
19432W        W23732  18.715   4.269  14.419 -0.0225 -0.0092 -0.0498
19433W        W23733  12.134   6.278  11.343 -0.0766 -0.2576  0.1531
19434W        W23734  18.516   2.183   4.715  0.0619  0.0322 -0.2985
19435W        W23735  13.996   1.634  31.101  0.2267  0.3276  0.0826
19436W        W23736  16.788   3.055   0.291 -0.5065  0.2111 -0.2444
19437W        W23737  13.858   4.154  15.510 -0.1432 -0.0044 -0.0293
19438W        W23738  13.339   2.986  35.680  0.1735  0.0040 -0.0990
19439W        W23739  19.972   0.564   6.670 -0.0645  0.2305 -0.0895
19440W        W23740   2.589   2.219  23.142 -0.1376 -0.1730 -0.1035
19441W        W23741  23.577   1.940  21.846 -0.0558  0.1495  0.0321
19442W        W23742  18.710   6.560   3.812  0.0618 -0.0029  0.2139
19443W        W23743   2.815   3.282   3.443 -0.0480 -0.1066  0.1148
19444W        W23744   6.968   5.513   7.440  0.1440 -0.0965  0.3320
19445W        W23745  24.474   4.095  15.071  0.0833  0.1986 -0.2377
19446W        W23746   3.098   3.266  32.871 -0.3496 -0.2799  0.0770
19447W        W23747   4.157   4.192  21.195 -0.2780  0.0110  0.1778
19448W        W23748  12.379   1.491  29.742 -0.1918  0.3036 -0.1307
19449W        W23749  11.137   5.048  22.619 -0.1212 -0.2342  0.1043
19450W        W23750   5.020   4.645  11.437  0.0209  0.3029 -0.3758
19451W        W23751  21.681   1.937  14.289  0.2502  0.2879 -0.0281
19452W        W23752   2.634   0.001  24.194 -0.0485  0.0707  0.2181
19453W        W23753   4.572   2.890  20.141 -0.2669  0.0903  0.1556
19454W        W23754   6.878   3.174  23.416  0.0818 -0.0330  0.0104
19455W        W23755  17.212   1.931  25.510  0.0863 -0.0631 -0.1364
19456W        W23756  24.409   5.961  30.533 -0.2433 -0.0321  0.0748
19457W        W23757   3.459   4.653  10.212  0.1360 -0.2594 -0.0622
19458W        W23758  17.703   1.544  15.326 -0.2047 -0.1655  0.1509
19459W        W23759  11.779   0.473   8.312 -0.2568  0.3567  0.1170
19460W        W23760  22.179   1.873  29.066 -0.1389  0.0772 -0.2875
19461W        W23761  18.880   4.148  32.526 -0.1124 -0.1108 -0.0235
19462W        W23762  12.476   2.333  27.663 -0.4310 -0.0158  0.0681
19463W        W23763  20.062   2.484   2.446 -0.1656 -0.2950  0.2997
19464W        W23764  24.857   3.117   8.678  0.0693 -0.0151  0.2533
19465W        W23765   8.058   4.216  32.326  0.0088 -0.0763  0.0133
19466W        W23766  10.811   0.404  35.077 -0.1766  0.0000 -0.3043
19467W        W23767  19.830   1.245  23.592 -0.1744 -0.1436 -0.1738
19468W        W23768   3.162   6.456   9.795 -0.0309  0.0998  0.3557
19469W        W23769  21.389   3.678   9.757 -0.0637  0.2904  0.2117
19470W        W23770  26.201   3.429  28.692 -0.2331 -0.1536 -0.1452
19471W        W23771  21.898   6.073  12.138  0.0117 -0.0139  0.2153
19472W        W23772  12.691   0.099  16.160 -0.0943 -0.1103  0.1000
19473W        W23773  10.858   4.509  10.396 -0.0176  0.0632 -0.2083
19474W        W23774  14.847   1.386   3.094 -0.0215 -0.2366  0.1023
19475W        W23775   4.936   5.912  21.493  0.7736 -0.0347 -0.0888
19476W        W23776  19.048   1.657   4.545  0.1001  0.1452  0.0183
19477W        W23777   0.249   5.394   4.808 -0.0131  0.1083  0.0632
19478W        W23778  26.101   5.666   9.715 -0.2601  0.0144  0.1633
19479W        W23779  23.244   3.438  26.902  0.2048  0.1394 -0.1008
19480W        W23780  11.574   1.015  32.223 -0.0994 -0.0350 -0.1170
19481W        W23781   6.463   2.881   3.868 -0.2381  0.0554  0.0115
19482W        W23782  20.547   3.263  33.875 -0.2384 -0.0085 -0.1629
19483W        W23783  25.643   1.047   4.288  0.1335  0.2320 -0.2718
19484W        W23784   2.769   5.065  35.873 -0.2534 -0.3849 -0.0659
19485W        W23785   7.096   1.329  29.407  0.0214 -0.1558  0.1564
19486W        W23786  19.550   4.964  29.406 -0.0859 -0.1141  0.1247
19487W        W23787   7.142   5.541   4.745 -0.0316 -0.0309  0.2851
19488W        W23788  20.626   0.935  29.842 -0.1663  0.2280 -0.1028
19489W        W23789   5.857   3.459  23.032  0.1860 -0.1970 -0.2180
19490W        W23790  13.496   1.451  33.295 -0.1312  0.0613  0.0022
19491W        W23791   0.549   6.031   3.590  0.1015 -0.3154  0.2839
19492W        W23792   6.439   6.393  26.349 -0.1038 -0.0006  0.1089
19493W        W23793   3.918   5.618  12.157  0.4992 -0.1683  0.2894
19494W        W23794  15.362   0.828  31.893 -0.2391 -0.0411  0.2949
19495W        W23795   3.452   0.340   2.624  0.0521  0.1281  0.0581
19496W        W23796  12.352   2.397  28.434 -0.0324 -0.2064  0.1483
19497W        W23797  20.077   5.577   3.441  0.1091 -0.0131  0.0572
19498W        W23798  17.201   4.708  30.309 -0.3114 -0.1688 -0.0918
19499W        W23799   5.487   4.446  25.663 -0.3645  0.2079 -0.2175
19500W        W23800   1.523   5.930  26.436 -0.2578  0.2307  0.2103
19501W        W23801   8.419   5.233   7.957  0.0221 -0.0636  0.1532
19502W        W23802  22.398   0.831  27.444 -0.1808 -0.0193  0.0001
19503W        W23803  13.716   6.099   9.058  0.1440 -0.1174  0.1915
19504W        W23804  14.829   0.670  28.345  0.0379  0.2857  0.0403
19505W        W23805  11.425   1.378   2.107  0.1205  0.1967  0.1240
19506W        W23806  21.987   5.271  13.782  0.2479  0.1267 -0.1180
19507W        W23807  12.274   2.103  28.832 -0.1032  0.4971 -0.0544
19508W        W23808  23.774   5.443  13.070 -0.0846 -0.3884  0.2081
19509W        W23809  11.076   4.622   5.759 -0.1539  0.1973  0.0882
19510W        W23810   4.630   5.334   9.882  0.1995  0.3377 -0.0668
19511W        W23811  16.437   4.721   1.084 -0.2369  0.2233 -0.1457
19512W        W23812   1.497   2.611  32.373 -0.1654  0.0825 -0.1563
19513W        W23813  10.163   2.005   9.552 -0.1336  0.1039 -0.1250
19514W        W23814  19.944   1.978  11.625  0.1601 -0.0266 -0.0731
19515W        W23815   5.503   2.451  33.470 -0.1573 -0.0719  0.2047
19516W        W23816  14.682   2.525   2.597  0.2909  0.3155 -0.0340
19517W        W23817  14.446   0.273  31.004  0.0230 -0.1397  0.2660
19518W        W23818  11.037   5.908  24.800 -0.0277  0.2907 -0.0596
19519W        W23819  25.562   2.560   3.002 -0.0408 -0.2933 -0.0479
19520W        W23820   5.109   1.570  35.202 -0.1348  0.1653 -0.0326
19521W        W23821  20.788   2.425   4.059  0.0171  0.1692  0.1538
19522W        W23822  16.446   0.271  32.450  0.0957  0.0350 -0.2528
19523W        W23823  12.694   1.001   1.033  0.4150  0.2399 -0.1143
19524W        W23824   7.307   1.416  25.797  0.1832 -0.1365  0.0681
19525W        W23825   6.163   5.564   5.026 -0.1915  0.2217 -0.0989
19526W        W23826   2.938   4.397  20.455 -0.1586  0.1853 -0.1428
19527W        W23827  11.475   6.275  11.827 -0.0545  0.0667 -0.0177
19528W        W23828   2.898   1.691  14.350 -0.0894  0.0946 -0.1930
19529W        W23829   5.329   0.914   3.328 -0.1285  0.0340  0.1632
19530W        W23830  11.133   1.966  22.981  0.1293 -0.1238  0.0303
19531W        W23831  22.288   0.265  11.553 -0.2091  0.1763  0.2826
19532W        W23832  14.320   4.889  14.248  0.1277  0.3458  0.0375
19533W        W23833   9.534   1.832   0.242  0.3310  0.1393  0.0193
19534W        W23834   5.340   1.600  25.490  0.2362  0.0331  0.2558
19535W        W23835   6.940   1.467   1.491  0.0424  0.0857 -0.0244
19536W        W23836  16.762   1.648   8.525 -0.2447 -0.0593  0.2697
19537W        W23837   0.987   2.182  14.696 -0.0946  0.1736 -0.0152
19538W        W23838  15.935   2.119   2.096 -0.0407 -0.1052  0.1889
19539W        W23839  11.878   0.938  22.504  0.1538 -0.0802 -0.0630
19540W        W23840  12.566   1.572   4.722  0.0895 -0.1216 -0.0808
19541W        W23841   8.753   2.545  25.983 -0.0003 -0.0341  0.0964
19542W        W23842  23.871   6.011  28.811 -0.4339 -0.1424  0.1749
19543W        W23843  19.576   4.850   4.777 -0.0983 -0.2110  0.2094
19544W        W23844   9.112   6.146  25.837 -0.2122 -0.1823 -0.3203
19545W        W23845  13.413   0.230  30.113 -0.4221  0.1295 -0.0850
19546W        W23846   7.385   1.811  26.722 -0.0265 -0.0084  0.0917
19547W        W23847   9.424   2.474  11.575  0.1728  0.2237  0.4026
19548W        W23848   5.344   3.748  23.032  0.0296  0.1909  0.2898
19549W        W23849   7.360   4.278   1.278 -0.1496  0.1056  0.0542
19550W        W23850   5.200   2.666   7.257  0.1910  0.1323 -0.0190
19551W        W23851   4.775   2.404  35.892  0.0154  0.0982 -0.0962
19552W        W23852   7.165   5.149   0.331  0.0207 -0.2699  0.2399
19553W        W23853   4.695   6.218  34.725  0.2911 -0.0324 -0.1518
19554W        W23854  19.671   0.679  33.926  0.0290 -0.2773 -0.0502
19555W        W23855  22.253   4.870   7.740  0.3566  0.0831  0.2246
19556W        W23856  13.663   4.354  13.635  0.0175 -0.1377 -0.1847
19557W        W23857  16.531   5.565  26.962 -0.1492  0.0743  0.0879
19558W        W23858   3.048   3.802  27.960 -0.1128 -0.0347  0.4118
19559W        W23859   2.754   4.727  10.160 -0.0196 -0.0080  0.3493
19560W        W23860   2.440   0.773  22.571 -0.0259  0.3115  0.0295
19561W        W23861  22.948   6.087  35.778  0.0982 -0.1096  0.1615
19562W        W23862   0.590   5.576  21.704  0.0794 -0.2048 -0.0373
19563W        W23863   3.400   5.622  11.027 -0.0597  0.1310  0.2529
19564W        W23864   5.231   0.929  33.989 -0.1148 -0.2202  0.1586
19565W        W23865   5.810   5.770  25.023  0.3060  0.1236  0.0689
19566W        W23866  20.757   3.773  28.660  0.1844  0.1774  0.2784
19567W        W23867   6.110   5.980   2.922  0.0175  0.2406  0.1649
19568W        W23868  15.894   5.787  13.070  0.0632  0.1949  0.1402
19569W        W23869  10.306   5.343  31.936  0.1067  0.1586  0.0896
19570W        W23870  14.722   0.502  27.465  0.0679  0.0397 -0.3255
19571W        W23871  24.986   3.159  29.128 -0.3105  0.1002  0.0551
19572W        W23872   7.808   1.770  24.178 -0.2654  0.2604  0.2236
19573W        W23873  22.028   5.114   6.774  0.0968  0.0458 -0.0576
19574W        W23874  15.609   5.063   0.223 -0.2151  0.0543  0.1380
19575W        W23875   5.514   0.909  10.861  0.0539 -0.1114  0.0684
19576W        W23876  11.953   6.258  27.582  0.1315  0.0579  0.2612
19577W        W23877  16.314   0.280  34.276 -0.2724  0.1020 -0.0967
19578W        W23878  17.600   6.312  15.229 -0.3728  0.1565  0.1367
19579W        W23879   8.894   1.497  22.368  0.3079  0.1887 -0.0505
19580W        W23880  10.433   2.038  32.764  0.0058  0.0794  0.3130
19581W        W23881   7.254   1.097  31.472  0.0476 -0.4321  0.2333
19582W        W23882  11.032   4.927  25.636  0.1101  0.3012 -0.2463
19583W        W23883   4.756   3.096   6.324 -0.2779 -0.0491  0.1120
19584W        W23884   6.463   6.331   4.999 -0.2532 -0.1214  0.0615
19585W        W23885  13.685   2.681  27.806 -0.2116 -0.1273  0.1261
19586W        W23886  18.597   6.118  11.547  0.1900 -0.1805  0.0219
19587W        W23887  18.538   4.851  26.198 -0.2198 -0.0069  0.3389
19588W        W23888   9.218   1.375   6.623 -0.0449 -0.0083  0.0836
19589W        W23889   3.683   2.881  12.019 -0.0426  0.4407  0.0200
19590W        W23890  21.630   4.356  34.476 -0.0053  0.0183 -0.0291
19591W        W23891   7.382   1.526   1.119 -0.1133 -0.0829  0.0778
19592W        W23892  18.047   6.221  24.677 -0.0603 -0.1648 -0.1240
19593W        W23893  14.476   2.961  26.753 -0.1619 -0.1697  0.1540
19594W        W23894  18.551   3.375  33.531 -0.2955 -0.0821 -0.0716
19595W        W23895  23.149   5.198  22.290 -0.1178 -0.1018 -0.1618
19596W        W23896   4.220   3.874  15.278 -0.1537 -0.2235  0.1240
19597W        W23897  20.340   4.105  25.568  0.0306 -0.0342 -0.0063
19598W        W23898  23.918   3.453   0.851 -0.1091  0.0583 -0.1006
19599W        W23899   5.031   5.342  20.714 -0.1020  0.0396 -0.0665
19600W        W23900  15.736   0.509   0.914  0.2340  0.2614 -0.0089
19601W        W23901   3.159   0.100  33.312  0.0190 -0.3146  0.2447
19602W        W23902  10.396   5.151  31.411  0.2333 -0.1086  0.2864
19603W        W23903   8.030   5.616  28.001 -0.2434  0.1588  0.2632
19604W        W23904  26.128   6.384   0.775 -0.1388 -0.1168 -0.2503
19605W        W23905  20.055   3.536  33.968 -0.1744  0.1984  0.1758
19606W        W23906  10.104   3.227  10.760 -0.1977 -0.2087 -0.0399
19607W        W23907  25.925   1.025  26.944 -0.2872  0.0184 -0.0709
19608W        W23908  26.144   5.346  31.187 -0.1262 -0.2098  0.1826
19609W        W23909  15.411   6.434  30.544  0.0145  0.1901 -0.0435
19610W        W23910  14.393   1.353  27.319 -0.2438 -0.3002  0.3325
19611W        W23911  16.064   1.515  15.749  0.1487  0.2230 -0.2211
19612W        W23912  15.049   0.872  34.308 -0.1303 -0.0033 -0.3398
19613W        W23913   0.852   4.149  12.390  0.1125 -0.0261 -0.0514
19614W        W23914  25.222   0.875  28.590 -0.2313  0.0668 -0.0204
19615W        W23915  11.203   0.310   0.962  0.2067 -0.1093 -0.0623
19616W        W23916  19.351   5.978  25.117  0.1182 -0.2128  0.1459
19617W        W23917  25.473   0.175  11.001 -0.1759  0.0043  0.0347
19618W        W23918   3.551   4.247   9.779  0.0182  0.1250  0.1056
19619W        W23919  21.021   6.198   8.508  0.0038  0.0760 -0.0589
19620W        W23920  11.146   6.249  25.642  0.1488  0.3681 -0.0505
19621W        W23921   8.502   0.821  11.501  0.3741  0.0224  0.1291
19622W        W23922   7.944   4.673  11.710 -0.0672  0.1798 -0.0766
19623W        W23923   7.334   2.541  35.127 -0.0235 -0.0285  0.2669
19624W        W23924   4.295   0.715  14.606  0.2990  0.2544 -0.3362
19625W        W23925  15.874   1.389  15.292 -0.0609 -0.1607 -0.2788
19626W        W23926  24.571   6.284   0.534 -0.3391  0.1948  0.2884
19627W        W23927  26.322   0.448  30.893  0.0428  0.0518 -0.4007
19628W        W23928   8.059   3.592  27.524  0.0333 -0.2978  0.1146
19629W        W23929   6.190   2.764  12.467 -0.1658 -0.0035  0.2174
19630W        W23930   8.961   0.332   3.845  0.2183  0.1915  0.1977
19631W        W23931  22.015   3.086   8.651 -0.1583  0.1067  0.3151
19632W        W23932   3.337   2.151  21.088 -0.1113  0.0254  0.1027
19633W        W23933  12.815   1.855   5.566 -0.2604 -0.1523  0.0268
19634W        W23934  12.903   3.860  14.476  0.1708 -0.2197  0.2099
19635W        W23935  23.510   0.443  31.343  0.4630  0.1063 -0.3418
19636W        W23936   5.454   3.646  34.816 -0.1730  0.1514  0.1711
19637W        W23937  23.293   1.343  29.583 -0.3201  0.0502 -0.0419
19638W        W23938  23.818   2.380  24.739  0.0572 -0.4008 -0.0093
19639W        W23939   7.997   3.751  32.324 -0.3163  0.1714  0.1991
19640W        W23940  22.873   3.737   2.672 -0.1014 -0.0266  0.1501
19641W        W23941  13.842   4.065  14.519  0.1177  0.2398  0.0072
19642W        W23942  12.014   0.413  12.979 -0.0991 -0.0741  0.1594
19643W        W23943   4.105   4.471  12.343 -0.1877 -0.1725  0.0997
19644W        W23944  13.564   4.768  10.069 -0.2828  0.0698 -0.0775
19645W        W23945  24.983   0.198  32.663  0.1741 -0.0020  0.2088
19646W        W23946  10.913   2.479   0.272  0.2385 -0.1670  0.2972
19647W        W23947  12.425   5.732  26.931  0.2976  0.0419 -0.0311
19648W        W23948   7.241   1.397  12.211  0.2774 -0.0356  0.3202
19649W        W23949  25.338   4.492   5.069 -0.1837 -0.1099 -0.2902
19650W        W23950   0.063   4.775  22.436  0.1167 -0.0182  0.0557
19651W        W23951  21.025   3.418  28.050 -0.1568  0.0560  0.0088
19652W        W23952   5.767   2.139   2.956 -0.1703 -0.1398 -0.1885
19653W        W23953  25.473   3.824  27.465 -0.1212 -0.3771  0.1044
19654W        W23954  22.299   0.911   4.451 -0.1150  0.0684  0.1553
19655W        W23955   3.406   0.865  32.974  0.0959  0.1848 -0.1462
19656W        W23956   2.025   0.100  22.153  0.0935 -0.2327 -0.1960
19657W        W23957  25.599   2.658  26.081  0.0375  0.3401 -0.0751
19658W        W23958  11.723   0.392  33.607  0.3458  0.1573 -0.0856
19659W        W23959  11.513   5.547  27.940 -0.2181 -0.1664 -0.0430
19660W        W23960  11.809   5.719  32.666  0.3271  0.0009 -0.0387
19661W        W23961   3.225   0.039   8.431 -0.1349  0.1549  0.1759
19662W        W23962  13.864   5.218  21.286 -0.0551 -0.1584  0.0592
19663W        W23963   2.508   4.182  11.835 -0.1800  0.0128  0.5548
19664W        W23964   0.353   4.895  29.275  0.3415 -0.4342 -0.0551
19665W        W23965   4.423   2.623   3.052 -0.2116 -0.4172  0.1745
19666W        W23966  20.840   2.026  25.459  0.3096 -0.0978 -0.2003
19667W        W23967   4.506   6.472  20.440 -0.0266 -0.2372 -0.1796
19668W        W23968  14.625   1.035  26.910 -0.1774  0.2562  0.0428
19669W        W23969  26.383   3.283  29.335  0.0402  0.2526 -0.2015
19670W        W23970   4.972   1.551   3.697 -0.0100  0.0056 -0.0506
19671W        W23971  26.220   3.350  26.460  0.1526 -0.0853  0.2761
19672W        W23972  19.074   2.127   4.675 -0.2475 -0.0109  0.0532
19673W        W23973   5.315   3.365  34.462  0.0988  0.2321  0.2677
19674W        W23974  11.412   3.271  20.986  0.2025  0.0808  0.0076
19675W        W23975   6.069   6.219  30.379  0.2575 -0.1041 -0.0542
19676W        W23976  26.418   1.702  24.844  0.2146  0.2508 -0.0760
19677W        W23977   6.748   4.488  24.923 -0.5642  0.1847 -0.0486
19678W        W23978  20.371   4.258  20.626 -0.0185  0.2300  0.0360
19679W        W23979  14.981   2.632  33.468 -0.0071 -0.0240  0.0516
19680W        W23980  18.758   1.124  33.041 -0.0231  0.0264 -0.0270
19681W        W23981  20.406   6.509  28.842  0.2405 -0.0205  0.0396
19682W        W23982  22.839   2.927   6.065 -0.1622 -0.1306  0.1931
19683W        W23983   9.768   2.255  23.209  0.1185  0.1387 -0.0853
19684W        W23984  11.877   5.693  31.240  0.2470 -0.4527  0.0630
19685W        W23985  13.458   1.135  34.581  0.0196  0.1698  0.1195
19686W        W23986  24.843   3.524  34.593  0.0008  0.0683  0.0191
19687W        W23987   7.645   6.261  13.444  0.0004 -0.3064 -0.1862
19688W        W23988  13.923   0.137   4.268 -0.2413  0.2113  0.2226
19689W        W23989  21.200   4.125  34.736 -0.0710 -0.1246  0.0238
19690W        W23990  19.354   6.182   8.701  0.0238  0.3065 -0.0131
19691W        W23991  13.131   6.591  23.806  0.1512 -0.1538 -0.2647
19692W        W23992  20.260   4.685  28.765 -0.1938  0.1289 -0.0795
19693W        W23993   8.676   3.280  26.843  0.2250  0.1552 -0.1660
19694W        W23994  19.535   4.530  20.860 -0.0107  0.1139 -0.1807
19695W        W23995  14.720   2.029  31.368  0.2347  0.0802 -0.1149
19696W        W23996   9.923   6.495  24.690 -0.5590 -0.1246 -0.2375
19697W        W23997  21.099   0.542  27.292  0.0471 -0.2336 -0.0624
19698W        W23998  17.088   1.471  27.953  0.2385  0.0486 -0.1282
19699W        W23999   8.350   2.604  29.002  0.0352  0.0074  0.0014
19700W        W24000  16.740   3.802  32.337 -0.1193  0.0113  0.3099
19701W        W24001  23.166   4.087  21.332  0.0326 -0.0841  0.3210
19702W        W24002  13.799   5.584  34.522  0.1854 -0.0627 -0.2857
19703W        W24003  26.070   5.265  15.317  0.0624 -0.0216  0.0032
19704W        W24004  20.901   2.300   0.522 -0.2652 -0.0405  0.3610
19705W        W24005  18.686   2.839   1.626 -0.2394 -0.0453 -0.3799
19706W        W24006  12.682   2.886  15.486  0.1094  0.1995  0.1652
19707W        W24007  24.390   4.137   1.984  0.0566 -0.0731  0.0142
19708W        W24008   0.574   5.573  14.322  0.0966 -0.0856 -0.0662
19709W        W24009  11.879   3.483  11.758  0.2746  0.3071  0.0423
19710W        W24010  20.635   3.410  32.274 -0.0387 -0.0393 -0.1571
19711W        W24011  18.091   0.309  23.915 -0.0562 -0.0508 -0.3001
19712W        W24012   3.785   3.335   2.251 -0.0375 -0.0929 -0.3285
19713W        W24013   0.567   2.011  35.474 -0.0011  0.2158 -0.2883
19714W        W24014  12.391   2.753   2.828  0.2329  0.0501  0.0618
19715W        W24015   0.568   4.194  34.895 -0.0050 -0.1673 -0.0222
19716W        W24016   2.840   1.636   8.123 -0.0059 -0.0740  0.0498
19717W        W24017  20.199   2.735   6.829  0.1655 -0.1200 -0.1579
19718W        W24018  24.718   4.034   1.650 -0.1634  0.4575 -0.1401
19719W        W24019   6.816   2.171  22.885 -0.2617  0.1954  0.0534
19720W        W24020   8.362   1.087  23.800 -0.2834  0.0209 -0.2305
19721W        W24021  24.880   3.357  23.314 -0.3178 -0.4054 -0.0125
19722W        W24022   5.061   6.129   5.764  0.4055 -0.0867 -0.1551
19723W        W24023   9.475   4.485   6.018  0.1664  0.0515  0.2032
19724W        W24024  11.053   3.006   1.022  0.2525  0.1854 -0.2065
19725W        W24025  20.397   3.429  35.638  0.1109 -0.0944 -0.0105
19726W        W24026   6.583   3.359  31.243  0.0325  0.0220 -0.0924
19727W        W24027  13.332   4.970  11.075 -0.1068  0.0300  0.1214
19728W        W24028   2.187   3.964  32.824  0.1015  0.0450 -0.1786
19729W        W24029   7.579   1.307   9.944 -0.2685 -0.1295  0.2343
19730W        W24030   7.019   0.604  32.923 -0.2534 -0.0368  0.3672
19731W        W24031  13.070   2.019  31.176  0.0378 -0.2610  0.2260
19732W        W24032  14.951   1.997   0.004 -0.0793 -0.0193  0.2723
19733W        W24033  23.713   3.724  28.949 -0.0370 -0.2005  0.3086
19734W        W24034  22.725   4.548  13.314  0.0279 -0.3636  0.0778
19735W        W24035   2.424   1.588   7.615 -0.0784 -0.3084  0.1450
19736W        W24036  13.669   6.390  15.248  0.2224  0.1015 -0.0965
19737W        W24037  24.706   6.598  14.958  0.0549  0.1525  0.0153
19738W        W24038  13.633   1.347  31.533 -0.2140  0.0460  0.2218
19739W        W24039  24.213   4.355  29.988  0.0283  0.1665 -0.0732
19740W        W24040  10.161   4.988  23.221  0.1003  0.0022  0.0757
19741W        W24041  24.228   0.693  13.294 -0.1306 -0.0388 -0.2277
19742W        W24042   4.989   0.028  11.127 -0.4293 -0.1561 -0.1697
19743W        W24043  23.886   5.759  31.946  0.2262 -0.0897 -0.0376
19744W        W24044   7.954   1.398  23.424  0.1055 -0.1925  0.0989
19745W        W24045   0.520   0.580  30.174 -0.1582 -0.1562 -0.0515
19746W        W24046  12.713   6.015  33.297 -0.2744 -0.0268  0.0107
19747W        W24047  25.536   6.576  34.936 -0.1465  0.2549 -0.1773
19748W        W24048  20.236   4.612   8.979 -0.3232 -0.1046  0.1683
19749W        W24049   0.086   1.587   3.319 -0.1819 -0.3831 -0.0128
19750W        W24050   7.446   5.998   0.118 -0.1620 -0.0801 -0.1611
19751W        W24051  22.396   0.415   7.566  0.0404 -0.0373  0.2234
19752W        W24052  10.513   6.285  28.987  0.2925  0.0405  0.1523
19753W        W24053   9.913   6.542  20.819 -0.1341 -0.0181  0.0458
19754W        W24054   0.326   3.057  28.393 -0.0397  0.0537  0.0526
19755W        W24055  14.000   4.776   0.252 -0.1174  0.0777 -0.1061
19756W        W24056  23.921   1.019  33.084 -0.3893 -0.0498 -0.1904
19757W        W24057  21.691   5.109  23.612 -0.1045  0.1326 -0.2198
19758W        W24058  12.558   1.476  24.518 -0.3276  0.0898  0.1179
19759W        W24059  22.643   5.183   7.616  0.0526  0.2260  0.1689
19760W        W24060   0.649   3.405  25.814 -0.0278 -0.0704  0.0620
19761W        W24061  22.965   5.093  26.387  0.0589 -0.0654  0.2488
19762W        W24062   6.514   0.553  25.345  0.1787 -0.4559 -0.1165
19763W        W24063   7.507   1.716  20.357  0.2850 -0.2349  0.0062
19764W        W24064  21.232   1.119  22.451 -0.0322 -0.0979  0.0180
19765W        W24065   0.842   5.850  23.929 -0.1872  0.1133  0.0887
19766W        W24066   3.843   2.765   1.827  0.0816 -0.2894  0.0138
19767W        W24067  14.774   5.404  25.184 -0.0109  0.0012 -0.0029
19768W        W24068  25.441   3.711   0.699  0.0185  0.2869  0.1918
19769W        W24069  11.388   5.939  22.703 -0.0268  0.0453 -0.0142
19770W        W24070  22.464   3.149  13.510  0.0369  0.1647  0.2072
19771W        W24071  19.610   5.104  25.181  0.0082  0.1198  0.0862
19772W        W24072  11.409   5.954   5.662  0.0228  0.3535  0.1886
19773W        W24073  17.279   1.767   0.776 -0.2905 -0.0485 -0.3428
19774W        W24074   1.857   1.865   1.606 -0.0646  0.0370 -0.1025
19775W        W24075  18.092   2.440  13.532  0.0413 -0.2491  0.3801
19776W        W24076  13.787   6.556   6.608  0.0054 -0.1265 -0.0916
19777W        W24077   2.479   6.023   4.073  0.2871 -0.1484 -0.1058
19778W        W24078  15.649   1.738  21.092 -0.1865 -0.0075  0.2093
19779W        W24079  10.341   4.909  27.437  0.1947  0.0225  0.2010
19780W        W24080  15.540   3.620  31.187 -0.1666 -0.1141 -0.0311
19781W        W24081  19.469   0.836  28.965 -0.0977 -0.3594 -0.1608
19782W        W24082  22.108   5.966  14.032  0.0019 -0.0142 -0.2518
19783W        W24083   7.290   5.422  14.737  0.0910  0.1914 -0.1003
19784W        W24084  19.654   5.475  13.889 -0.0330 -0.0031  0.0705
19785W        W24085  10.401   0.881  12.517 -0.1562  0.1271  0.0332
19786W        W24086  14.805   6.185  25.143  0.2343 -0.0897 -0.1531
19787W        W24087  19.594   1.088  23.223 -0.0194  0.0375 -0.0488
19788W        W24088   2.772   2.719  22.321  0.0011  0.1416  0.0178
19789W        W24089  20.147   1.715  12.825  0.1052  0.3405  0.4138
19790W        W24090  18.707   6.032  35.486  0.1241 -0.1487 -0.2323
19791W        W24091  11.576   4.176   7.069 -0.1105  0.2515  0.2665
19792W        W24092   5.593   1.193  10.010  0.1774 -0.1592 -0.3666
19793W        W24093  10.467   4.662  21.365  0.1979 -0.2574  0.3219
19794W        W24094   2.608   1.143  10.094 -0.0651  0.0043 -0.0086
19795W        W24095   2.710   4.447  30.770  0.1535  0.3296 -0.0898
19796W        W24096  16.357   3.095  12.413  0.0908 -0.3107  0.0406
19797W        W24097  25.743   2.142  13.793 -0.2491 -0.2277  0.2549
19798W        W24098   3.258   0.551  11.915  0.1283 -0.1561 -0.0500
19799W        W24099  20.626   1.023  10.436 -0.0279  0.3601 -0.2429
19800W        W24100  25.444   2.069  28.885 -0.2030 -0.0307 -0.0266
19801W        W24101   5.079   0.667   4.767 -0.0333  0.1105  0.2591
19802W        W24102  14.686   1.309  33.713 -0.5287 -0.5238 -0.0526
19803W        W24103   6.515   4.565  21.673  0.3398  0.1203  0.0878
19804W        W24104  16.638   1.159  24.352 -0.2794  0.0204  0.0072
19805W        W24105  11.952   0.747   6.522 -0.0925 -0.4796 -0.1318
19806W        W24106   1.860   5.170  36.047 -0.0667  0.1791  0.1724
19807W        W24107   8.429   0.532  26.639  0.0131 -0.0943  0.1017
19808W        W24108  11.339   0.322  35.017  0.0549 -0.2871 -0.0157
19809W        W24109  20.746   1.577  22.219 -0.3911  0.0320  0.2847
19810W        W24110   3.836   1.972  35.197  0.1007  0.2752  0.1544
19811W        W24111  11.000   3.715  14.859  0.0104  0.1783 -0.1333
19812W        W24112  19.523   6.577   4.868  0.1774 -0.1155 -0.1767
19813W        W24113   1.219   1.709  29.444  0.2174  0.0496  0.2601
19814W        W24114   4.674   3.889  22.922  0.3440  0.1420 -0.0677
19815W        W24115  22.047   4.101  33.140  0.0137  0.1239 -0.0940
19816W        W24116  12.615   0.753  33.748 -0.0144 -0.2357 -0.1430
19817W        W24117  21.923   3.873  10.391  0.2890  0.2277  0.2614
19818W        W24118   2.941   0.709  14.290 -0.2291  0.1109 -0.0727
19819W        W24119   1.377   1.745  34.186 -0.0922 -0.0652 -0.3649
19820W        W24120   7.647   5.727   0.523  0.0601  0.1213 -0.1376
19821W        W24121   7.642   6.153   8.689 -0.1179 -0.0753  0.1935
19822W        W24122  20.709   0.017  15.721  0.1692 -0.2576  0.1443
19823W        W24123   2.158   0.681   6.564 -0.1555  0.0350 -0.1462
19824W        W24124   4.903   3.310   4.021 -0.2465 -0.1462 -0.0151
19825W        W24125   9.720   2.604   7.203  0.0347 -0.0920  0.0509
19826W        W24126   0.884   4.731  25.949  0.0117 -0.3413 -0.2474
19827W        W24127   5.811   1.023  34.815  0.0515  0.3856  0.3173
19828W        W24128   3.404   3.462  13.284  0.3749 -0.0767  0.0894
19829W        W24129  20.351   3.178  10.156 -0.0266  0.1390 -0.4903
19830W        W24130  23.325   1.136  23.646  0.2464 -0.0786  0.0877
19831W        W24131  23.563   1.259   9.291  0.2400 -0.0125  0.0874
19832W        W24132   4.389   1.227   1.104 -0.0400 -0.2316  0.0591
19833W        W24133   3.155   2.429  29.642 -0.1189 -0.0185 -0.2019
19834W        W24134  24.144   5.126   4.454 -0.1624  0.4319  0.3245
19835W        W24135  21.956   5.807  26.869  0.2152  0.0081 -0.0727
19836W        W24136   3.673   0.435  25.625 -0.0676 -0.1998 -0.0598
19837W        W24137  16.156   3.608  28.139 -0.1272  0.3274  0.1986
19838W        W24138  23.514   3.440  20.792  0.1014  0.1049 -0.2873
19839W        W24139  11.934   6.076  35.629  0.2258  0.1537 -0.0026
19840W        W24140   2.604   4.096  12.334  0.0597  0.0090 -0.1923
19841W        W24141   9.183   6.197  11.012  0.1370  0.1384 -0.1070
19842W        W24142   1.661   4.788   3.214  0.2568 -0.0155 -0.0274
19843W        W24143   5.334   2.824  29.603 -0.1046 -0.0295  0.0045
19844W        W24144  22.127   6.502   3.879  0.1717  0.1302  0.0904
19845W        W24145   5.329   6.130  11.093  0.0583 -0.0754 -0.2629
19846W        W24146  22.901   5.546   5.767  0.1816  0.1994  0.0474
19847W        W24147  25.952   2.121  28.706 -0.0126  0.1239  0.1458
19848W        W24148  18.798   0.623  23.328  0.2456 -0.0906  0.0269
19849W        W24149   9.725   4.709  12.990  0.0232  0.0727 -0.0125
19850W        W24150  18.788   3.463  24.634  0.4764  0.0179 -0.0949
19851W        W24151   5.337   2.961  19.433 -0.2617  0.1822  0.0343
19852W        W24152  14.301   6.043  30.580  0.1050 -0.0773  0.0670
19853W        W24153   0.103   6.553   6.977  0.1182  0.2538 -0.0953
19854W        W24154   2.328   5.374  26.547  0.0510  0.0490  0.3481
19855W        W24155  19.777   2.134  22.623  0.1070  0.0369 -0.1639
19856W        W24156  10.044   0.078  12.197 -0.4032 -0.1596 -0.1768
19857W        W24157   2.599   2.703   2.505  0.1876 -0.1266 -0.2967
19858W        W24158  23.694   2.670  24.295  0.0953  0.0008  0.1382
19859W        W24159  23.495   6.157  12.157  0.2600 -0.0043  0.2532
19860W        W24160   8.675   2.659   0.462 -0.1134  0.1612 -0.0646
19861W        W24161   6.732   3.574  29.166  0.0655 -0.0500 -0.0057
19862W        W24162  24.174   5.065   2.791  0.1618  0.1843  0.1210
19863W        W24163   8.080   5.703  34.761  0.0547  0.1531 -0.1483
19864W        W24164   3.130   3.013  22.202 -0.1335  0.0228 -0.2168
19865W        W24165   6.111   4.108  22.932  0.0365  0.2131  0.0845
19866W        W24166  11.714   1.975   2.135  0.1706  0.0547  0.0098
19867W        W24167   8.100   4.979  28.090 -0.2032  0.0703  0.3167
19868W        W24168  14.736   4.218  33.392 -0.0481  0.2826 -0.2118
19869W        W24169  16.498   6.435  26.970 -0.0541  0.1447  0.0262
19870W        W24170  17.410   0.954  33.836 -0.3415 -0.0865 -0.1118
19871W        W24171  21.894   1.012  14.220 -0.0838 -0.1288  0.3185
19872W        W24172  15.238   4.536  35.735  0.2531 -0.0872 -0.1960
19873W        W24173  10.261   3.292  16.177 -0.1335  0.0129  0.0714
19874W        W24174  10.193   3.917  24.706 -0.0794 -0.3218 -0.1962
19875W        W24175  13.869   4.689  30.240 -0.1323 -0.2521  0.0052
19876W        W24176  14.600   0.592  29.248 -0.2189 -0.0088 -0.0479
19877W        W24177  17.538   0.087   2.457 -0.3000 -0.1057  0.0971
19878W        W24178   4.837   6.169  24.230  0.0815 -0.0531 -0.2124
19879W        W24179  21.188   0.838  23.972 -0.0029 -0.0743  0.2161
19880W        W24180   8.548   4.832   7.677  0.0089  0.3149 -0.1852
19881W        W24181  16.070   4.764  22.408  0.2319 -0.0746 -0.0748
19882W        W24182  13.401   6.006  26.081 -0.1058  0.1312 -0.2473
19883W        W24183  22.849   3.021  29.860  0.2079 -0.0746  0.1787
19884W        W24184   3.730   0.388  27.713 -0.3286 -0.1789 -0.2306
19885W        W24185  21.297   5.552   9.163 -0.0860  0.0531  0.1503
19886W        W24186   3.079   6.147  33.346 -0.0181 -0.2647  0.4070
19887W        W24187  14.497   3.418  23.520  0.0467 -0.1800 -0.1070
19888W        W24188  20.306   6.117   7.777 -0.0020 -0.1441 -0.1539
19889W        W24189  23.841   4.896   5.136  0.1810 -0.0587  0.4367
19890W        W24190  17.302   0.121  28.041 -0.1807 -0.0068  0.0443
19891W        W24191  12.826   1.563  12.698  0.0004 -0.1883  0.4780
19892W        W24192  25.237   3.152  35.828 -0.1307  0.3103  0.1153
19893W        W24193  10.635   0.844  26.023  0.2307 -0.0240 -0.1356
19894W        W24194   4.199   6.056  22.147 -0.0632  0.0210  0.0480
19895W        W24195  19.457   3.206  12.504 -0.0407 -0.0573 -0.2689
19896W        W24196  11.255   2.663   3.015  0.1447 -0.1644 -0.1314
19897W        W24197  19.620   6.316   0.116  0.0967  0.1923  0.1958
19898W        W24198  13.198   1.829  23.245  0.0660 -0.2899  0.0851
19899W        W24199   2.278   3.255  33.462 -0.1966  0.0882  0.1040
19900W        W24200  13.287   3.193   9.806  0.1569  0.0724  0.0516
19901W        W24201  10.511   3.356  30.290 -0.0694  0.0709 -0.1711
19902W        W24202   5.817   3.087  22.143  0.0930  0.1673 -0.3450
19903W        W24203  21.536   4.536  14.197  0.2342  0.1942  0.2578
19904W        W24204  14.833   2.574  31.347  0.0657 -0.1503  0.2582
19905W        W24205  16.539   5.621  10.755  0.3157 -0.1449 -0.1625
19906W        W24206  24.839   1.946  32.335  0.1732  0.0916  0.1348
19907W        W24207   9.565   3.336  11.609 -0.1463  0.3778 -0.0217
19908W        W24208  12.876   4.091  15.122 -0.1257  0.1813  0.2133
19909W        W24209   6.451   0.594  34.525  0.2781  0.0051  0.0332
19910W        W24210  19.646   0.188   2.840  0.0058 -0.0003 -0.0028
19911W        W24211   6.308   1.155   9.403 -0.1114 -0.3072  0.4530
19912W        W24212  13.058   1.679  23.766 -0.3512  0.1538 -0.2745
19913W        W24213  21.108   4.678  35.522 -0.2380 -0.2091 -0.0328
19914W        W24214   0.042   2.824  26.333 -0.1987 -0.3135 -0.1170
19915W        W24215  19.810   2.767   6.453 -0.0541 -0.0784 -0.0259
19916W        W24216   8.385   0.014  12.280  0.1543 -0.1743  0.1915
19917W        W24217  24.986   5.238   0.039 -0.1768  0.2434  0.2715
19918W        W24218   3.007   0.883  33.790 -0.0961 -0.1600 -0.3541
19919W        W24219   9.768   4.875  27.248 -0.4805 -0.3565  0.4830
19920W        W24220  22.149   4.245  23.556  0.0910 -0.0773 -0.3523
19921W        W24221  20.781   3.948  34.937 -0.1419  0.0878  0.0797
19922W        W24222  12.431   2.798  29.750 -0.2293 -0.1661  0.0079
19923W        W24223  22.028   1.054  24.374  0.0089  0.2575 -0.0765
19924W        W24224  22.322   0.876   0.145  0.1726 -0.0096  0.3380
19925W        W24225   0.749   0.157  26.561  0.4805  0.3625 -0.0143
19926W        W24226  15.351   2.878  24.707 -0.2240  0.2409  0.0660
19927W        W24227   2.713   5.252  33.384 -0.0287 -0.0499  0.1605
19928W        W24228  23.868   3.416  22.538  0.0859 -0.3363 -0.0898
19929W        W24229  15.990   4.833  25.097 -0.3017  0.0539  0.0419
19930W        W24230  18.409   4.118   8.266 -0.1635 -0.2255 -0.0026
19931W        W24231   2.767   1.092  28.714 -0.3427 -0.0400  0.0128
19932W        W24232   4.999   5.154   6.806  0.2800 -0.0451 -0.1029
19933W        W24233   4.211   6.368   5.879 -0.2745  0.0911 -0.0661
19934W        W24234   9.202   0.483  29.748  0.1226 -0.1511 -0.1788
19935W        W24235   3.113   6.552   0.207 -0.2053 -0.3028 -0.0944
19936W        W24236  13.501   2.396   8.448  0.0191 -0.0943  0.0529
19937W        W24237  22.280   5.658  20.849  0.1277  0.0561  0.0843
19938W        W24238  19.590   1.496  35.726 -0.0189 -0.0977 -0.0734
19939W        W24239   3.512   6.112   3.872 -0.2231  0.0315 -0.1455
19940W        W24240   5.484   5.093  12.735 -0.1781  0.0671 -0.0317
19941W        W24241  11.352   2.666   8.127 -0.1797 -0.1230 -0.0641
19942W        W24242   2.545   4.566  23.172 -0.1394 -0.0726  0.2145
19943W        W24243  18.118   5.650  23.072  0.0610 -0.1596 -0.1796
19944W        W24244   7.806   0.141  20.414 -0.0710 -0.1584  0.2522
19945W        W24245   0.922   4.454  35.215 -0.1529  0.2777  0.0200
19946W        W24246  21.550   1.643  11.358  0.4009  0.2321 -0.2824
19947W        W24247  13.117   4.480  24.190 -0.3730  0.1646 -0.0744
19948W        W24248  25.698   6.524  12.175  0.3055  0.1973 -0.0909
19949W        W24249  23.621   2.741   8.219  0.0755  0.0228  0.1705
19950W        W24250  21.004   0.715  22.144  0.1942 -0.3629  0.0069
19951W        W24251   0.073   1.066  24.160 -0.0490  0.1607  0.1717
19952W        W24252  10.100   5.115  28.881  0.3257 -0.1269 -0.0519
19953W        W24253  14.901   2.567  15.415 -0.3095 -0.1377 -0.0055
19954W        W24254   0.474   4.817  32.330 -0.1392 -0.0054  0.0996
19955W        W24255   0.060   2.079   6.470 -0.0488  0.3718 -0.0790
19956W        W24256  13.405   2.911   7.498  0.3090 -0.2535  0.1513
19957W        W24257   4.705   3.408  23.965 -0.2941 -0.1272 -0.2364
19958W        W24258   2.544   4.934  26.357  0.2810 -0.2590  0.0762
19959W        W24259  22.527   3.573   2.999 -0.0140  0.0537  0.1728
19960W        W24260   4.978   4.912  26.511  0.0427  0.0019 -0.1633
19961W        W24261  19.287   2.786  33.381  0.0235 -0.2888  0.1486
19962W        W24262  12.392   3.324  13.110  0.2907  0.0229 -0.2752
19963W        W24263  23.531   4.370   6.069  0.1659  0.0637 -0.1054
19964W        W24264   9.555   1.019  21.863  0.1743 -0.3991  0.4727
19965W        W24265  20.784   1.829   9.162  0.0385  0.1414  0.0831
19966W        W24266   5.216   0.217  21.423 -0.3672 -0.1128 -0.0495
19967W        W24267  17.999   4.946  28.414  0.0788 -0.4018  0.0935
19968W        W24268   5.930   5.024  32.226 -0.2320 -0.0271 -0.0055
19969W        W24269  22.790   0.063  11.711 -0.0895  0.3059  0.0910
19970W        W24270   4.291   0.972  33.072 -0.3135 -0.2317  0.0472
19971W        W24271   2.211   1.606   3.534  0.2819 -0.0084  0.1850
19972W        W24272  15.564   4.063   2.541 -0.1306  0.0652  0.1621
19973W        W24273  20.771   0.830  21.128  0.0049  0.2378  0.3525
19974W        W24274  23.749   4.429  23.675  0.0002 -0.1588  0.2317
19975W        W24275   3.470   2.642   7.642  0.1935 -0.2966  0.0679
19976W        W24276  19.210   1.727   7.191  0.1472 -0.1215  0.0630
19977W        W24277  20.954   3.794  15.351  0.0913 -0.1666  0.0935
19978W        W24278  24.937   2.261  15.000 -0.0134 -0.0535 -0.1864
19979W        W24279  16.240   1.706  23.183 -0.3317  0.0750  0.2913
19980W        W24280  19.142   4.089   6.655 -0.0523  0.0937 -0.1872
19981W        W24281  25.459   5.509  32.346  0.1286  0.1652 -0.0207
19982W        W24282  23.928   2.051  33.876  0.0751  0.1443 -0.1148
19983W        W24283  22.048   3.264  29.971  0.2094 -0.0174  0.1919
19984W        W24284  17.668   3.050   9.745 -0.3087 -0.2945  0.0561
19985W        W24285  25.822   4.260   9.864 -0.0025  0.0226  0.0033
19986W        W24286   4.876   4.755   3.845  0.0553  0.1778  0.1638
19987W        W24287   3.445   6.118   2.875  0.1246  0.0113 -0.1702
19988W        W24288  18.039   4.540  30.794  0.0837  0.4438  0.0633
19989W        W24289   0.959   1.586   1.496 -0.0126 -0.0039 -0.1045
19990W        W24290  22.012   3.595  20.304  0.0121 -0.1417 -0.0976
19991W        W24291  18.680   2.747  28.138  0.0643 -0.3274 -0.1513
19992W        W24292   2.679   5.761  27.608 -0.0389 -0.1054 -0.1874
19993W        W24293  21.718   1.393   4.851  0.0900  0.3554 -0.1244
19994W        W24294  13.009   1.385  32.516  0.0661 -0.0315 -0.1937
19995W        W24295  15.978   3.629  28.671 -0.0473  0.2343  0.1813
19996W        W24296  19.442   6.238   6.250  0.1135 -0.1301  0.1039
19997W        W24297  23.052   2.631  21.208 -0.0223  0.1355 -0.1438
19998W        W24298  22.674   5.459   8.753 -0.2041 -0.2637  0.0393
19999W        W24299  10.198   2.562   5.231 -0.2495  0.0158  0.0298
20000W        W24300  23.306   2.961  24.461  0.1953  0.1673 -0.2292
20001W        W24301  13.729   1.711  14.583  0.0291 -0.0130  0.3013
20002W        W24302   1.914   3.313  23.494 -0.2491  0.0638 -0.0462
20003W        W24303  16.624   5.367  32.696 -0.0288  0.0290 -0.2934
20004W        W24304  10.017   2.086  31.511 -0.0237  0.0104 -0.0998
20005W        W24305  19.605   2.449  31.014 -0.1471 -0.0252 -0.0757
20006W        W24306  14.337   2.113   8.279 -0.0322  0.4391 -0.1398
20007W        W24307   8.155   2.477   0.681  0.1898 -0.1340 -0.0746
20008W        W24308   3.245   5.964   5.178 -0.1113 -0.0501 -0.1570
20009W        W24309   1.772   3.398   1.795 -0.1004  0.0910  0.4244
20010W        W24310   9.289   0.383  29.165 -0.2596  0.0413  0.0883
20011W        W24311  15.882   4.875  21.821 -0.0842  0.0174 -0.0752
20012W        W24312  20.075   4.818  23.793 -0.0948  0.1938 -0.0107
20013W        W24313  15.390   2.393  34.215 -0.1487 -0.0092 -0.0509
20014W        W24314  19.280   6.527  34.979 -0.2681  0.0225  0.1755
20015W        W24315  13.028   4.435   8.089 -0.0765  0.0140 -0.2114
20016W        W24316   7.492   2.273   7.609 -0.0887 -0.0421 -0.0670
20017W        W24317  10.902   5.414  24.759  0.3014  0.0069 -0.0266
20018W        W24318  23.666   3.261  31.381  0.0104  0.1356  0.0067
20019W        W24319  18.393   3.250  30.076  0.1132  0.3050  0.1227
20020W        W24320  23.962   0.201  25.168 -0.4305 -0.0002  0.1089
20021W        W24321   5.721   5.043  33.079  0.2199  0.1380  0.1417
20022W        W24322  15.438   0.090   2.861 -0.0391  0.3553 -0.0176
20023W        W24323  12.146   5.569   3.694 -0.0345 -0.0365  0.1250
20024W        W24324   0.380   4.159  20.587  0.0503 -0.0064 -0.0272
20025W        W24325  25.820   4.872  12.603 -0.1354  0.0989  0.1394
20026W        W24326   7.947   2.215  29.609  0.0409  0.0602  0.1634
20027W        W24327   6.147   3.918  10.215 -0.2925  0.1529  0.0359
20028W        W24328  21.923   3.421  15.508  0.2591  0.0198 -0.1363
20029W        W24329   8.683   4.204   9.895 -0.0383 -0.2418 -0.0858
20030W        W24330  15.786   1.292   2.806 -0.0876 -0.0337 -0.0945
20031W        W24331  18.240   3.371  13.850  0.3308 -0.0042 -0.2336
20032W        W24332  23.358   1.757  22.277  0.0145 -0.2165 -0.0282
20033W        W24333  17.826   2.025  21.297 -0.1244 -0.1205 -0.2649
20034W        W24334  26.082   5.961   4.382 -0.3792 -0.0239  0.1047
20035W        W24335  24.466   0.167  23.009 -0.3119 -0.0736 -0.0628
20036W        W24336   7.498   5.059   2.550  0.1715  0.3976 -0.0902
20037W        W24337   2.929   3.627  23.029  0.2508  0.0200 -0.0533
20038W        W24338   6.425   3.258   8.983 -0.1422  0.2116 -0.2436
20039W        W24339  12.948   5.274   3.667 -0.0380 -0.4291 -0.0991
20040W        W24340  21.921   1.508  24.518 -0.3808 -0.3577  0.0613
20041W        W24341   6.309   5.802   0.889 -0.0708 -0.1388 -0.1153
20042W        W24342  17.526   4.057  13.108 -0.2081 -0.1620  0.2325
20043W        W24343  25.025   6.356  24.418 -0.1255 -0.0788 -0.2408
20044W        W24344   7.739   3.609  25.983  0.0194 -0.0996 -0.2450
20045W        W24345   6.468   4.530   5.197  0.1110  0.0695  0.0539
20046W        W24346  10.266   1.959  12.591  0.1316  0.1619  0.1313
20047W        W24347   8.327   5.851   0.639 -0.1960  0.0135 -0.2481
20048W        W24348  10.992   1.819  30.209  0.1985  0.2393 -0.0621
20049W        W24349   8.410   1.808  32.185  0.1953 -0.1745  0.1462
20050W        W24350   5.164   0.029  11.886  0.0080  0.1555  0.0705
20051W        W24351   5.482   1.193  27.319 -0.1642 -0.1301 -0.2441
20052W        W24352   6.531   2.766   1.769 -0.1813  0.1134 -0.0525
20053W        W24353  23.548   3.679  14.960  0.1046 -0.1508  0.3190
20054W        W24354   0.932   4.947  34.653 -0.1333  0.2322 -0.5087
20055W        W24355  20.254   3.571   5.265  0.2633  0.0336  0.2136
20056W        W24356   3.586   1.474   8.349 -0.2218  0.1039 -0.1344
20057W        W24357  16.002   5.424   8.792 -0.0821  0.2692  0.2098
20058W        W24358  23.261   4.024  22.563  0.1585 -0.0580  0.0149
20059W        W24359  13.667   3.428   8.628  0.0801 -0.0046  0.1618
20060W        W24360  20.614   4.622  10.940 -0.5288  0.1073  0.2485
20061W        W24361  16.905   3.968   1.570 -0.0286 -0.0850 -0.0902
20062W        W24362   0.902   3.558  32.474 -0.3551 -0.0139 -0.0026
20063W        W24363   4.524   6.242  10.392 -0.2304  0.0169  0.1014
20064W        W24364  14.366   4.892   1.365  0.1697  0.0233 -0.0758
20065W        W24365   5.205   6.225  13.428 -0.1365  0.0403  0.0889
20066W        W24366  24.824   4.168  29.901  0.0482  0.1055 -0.1903
20067W        W24367  24.532   4.997   7.767  0.0258  0.0421  0.0952
20068W        W24368   1.672   1.135  36.113  0.2326  0.1958  0.0857
20069W        W24369  22.793   5.423   0.640 -0.0764  0.0248  0.0904
20070W        W24370  13.205   0.920  32.594  0.1169  0.0673 -0.0362
20071W        W24371  16.575   5.305  36.062  0.0532  0.3339  0.0347
20072W        W24372  17.172   2.733  11.907  0.0228  0.0565  0.1184
20073W        W24373  24.724   2.004   7.621  0.3193 -0.2281 -0.1168
20074W        W24374  20.614   5.083  36.040 -0.0865  0.0632  0.1364
20075W        W24375   3.180   5.567  31.400  0.3720 -0.2287 -0.2339
20076W        W24376  22.297   5.335  35.921 -0.1106  0.0720 -0.0975
20077W        W24377  22.221   5.069  10.023  0.1482  0.0744  0.2725
20078W        W24378  16.883   4.507  35.367 -0.1338 -0.4011 -0.3965
20079W        W24379  14.248   1.629  35.640  0.0150 -0.2157  0.0423
20080W        W24380  23.396   2.041  12.657 -0.0868  0.0049  0.0706
20081W        W24381  11.929   4.004  29.544  0.2978 -0.2177  0.1673
20082W        W24382   6.977   1.521  28.898 -0.1608 -0.2113 -0.2003
20083W        W24383   8.803   2.022   1.435 -0.2951 -0.2847 -0.5237
20084W        W24384  13.677   4.034  33.379  0.1195 -0.2110  0.1493
20085W        W24385  13.027   0.962  30.530  0.0471  0.1144 -0.0181
20086W        W24386   8.269   2.421  12.379 -0.0602  0.1501 -0.0346
20087W        W24387   6.653   0.763  12.787  0.3814 -0.1094  0.1017
20088W        W24388  12.623   5.669  21.230 -0.1676  0.1347  0.3242
20089W        W24389  16.453   3.938  35.872  0.1412 -0.0401  0.2522
20090W        W24390  23.998   2.251  21.935  0.0186 -0.0240  0.0273
20091W        W24391  23.942   4.450   2.051 -0.1596 -0.1789  0.2613
20092W        W24392   3.360   2.410   3.456 -0.1848  0.1242 -0.0593
20093W        W24393   3.859   4.848   8.227 -0.0667 -0.2351 -0.1149
20094W        W24394  23.795   0.282  28.440 -0.0175  0.0710  0.1792
20095W        W24395   7.160   5.619  14.004  0.2645  0.1001 -0.2704
20096W        W24396   1.001   3.359  35.798  0.0657 -0.2916 -0.2601
20097W        W24397  21.572   0.127  31.112 -0.4620  0.3150  0.1231
20098W        W24398  12.348   0.307   2.243  0.1157 -0.2146  0.0061
20099W        W24399  12.448   4.610   2.413 -0.1304  0.0849 -0.0711
20100W        W24400   6.829   5.001  31.057 -0.1460  0.2149 -0.2595
20101W        W24401   3.197   5.224  23.537  0.0393 -0.0246  0.0176
20102W        W24402   6.060   3.710  32.933  0.1312 -0.2537 -0.5065
20103W        W24403  24.532   3.313  21.194  0.3643 -0.0146 -0.0154
20104W        W24404  13.533   1.734   6.732 -0.1130 -0.1258 -0.1094
20105W        W24405  24.570   2.707   1.937  0.2839  0.0385 -0.1465
20106W        W24406   2.076   0.714   3.467  0.0132 -0.1356  0.1763
20107W        W24407   7.789   1.824  35.236 -0.2245 -0.2944 -0.2963
20108W        W24408  12.338   0.462   5.773  0.0461 -0.1356 -0.0880
20109W        W24409   1.454   2.275  14.500 -0.0044  0.1114 -0.1003
20110W        W24410   8.861   3.463   1.460 -0.1769  0.1170  0.2557
20111W        W24411   1.824   4.248  29.882  0.2063  0.0475  0.2133
20112W        W24412  24.309   3.920   8.329 -0.0168  0.0449 -0.3232
20113W        W24413  20.188   5.985  28.944 -0.0058  0.0744 -0.3529
20114W        W24414  14.533   2.287   2.140  0.3126 -0.1258 -0.3508
20115W        W24415   9.124   1.818   5.779  0.1369 -0.0735 -0.0981
20116W        W24416  16.623   0.481  30.318  0.2814  0.1838 -0.0860
20117W        W24417   7.903   3.646   8.626 -0.3031 -0.0075 -0.0797
20118W        W24418  21.377   2.879  28.808  0.3087  0.2113  0.2641
20119W        W24419  15.155   2.496  32.385 -0.1282  0.1382 -0.1740
20120W        W24420  22.385   3.829  21.885  0.2132 -0.0343 -0.0089
20121W        W24421  21.690   2.641  12.782  0.0730  0.0766  0.5205
20122W        W24422  15.166   6.248   8.506  0.1599  0.1152  0.0610
20123W        W24423   5.225   5.521  29.468 -0.1962  0.2015  0.1187
20124W        W24424   9.065   1.399   8.639 -0.1052  0.0048  0.0505
20125W        W24425   8.241   2.862   4.788 -0.1296  0.0271 -0.2215
20126W        W24426  11.290   0.744  21.831  0.1596 -0.0142 -0.2621
20127W        W24427   6.701   0.601  22.620  0.2747  0.0171 -0.2072
20128W        W24428  15.659   4.275  21.545 -0.1218 -0.2042 -0.4722
20129W        W24429  16.345   0.740  13.007  0.0526  0.2604  0.1834
20130W        W24430  13.804   0.900  27.693 -0.0150  0.0087  0.0443
20131W        W24431   6.134   0.967   1.127 -0.1584  0.1788 -0.1584
20132W        W24432  12.477   2.404  24.925  0.0833  0.0093 -0.2357
20133W        W24433  21.681   6.204  31.162  0.0157 -0.1846  0.1991
20134W        W24434   3.681   2.435  24.236 -0.1138 -0.0115 -0.1778
20135W        W24435  11.977   5.612  12.473  0.3239  0.0465 -0.2363
20136W        W24436  16.639   2.608   1.020  0.2746 -0.0899 -0.0508
20137W        W24437  22.274   4.785   5.818 -0.1166 -0.2576  0.2835
20138W        W24438  12.625   4.009  11.586  0.6320  0.0209 -0.1124
20139W        W24439   3.302   4.918  22.664  0.2029 -0.1640 -0.1226
20140W        W24440  23.552   0.509   0.925 -0.0490  0.2941  0.0652
20141W        W24441   6.754   2.879  10.588 -0.1272 -0.1269  0.2239
20142W        W24442  14.858   5.473   9.155 -0.0771  0.0907  0.2030
20143W        W24443   7.853   6.237  11.655  0.0067  0.1376 -0.2205
20144W        W24444   7.406   5.821  26.286 -0.1975 -0.0737  0.1702
20145W        W24445   1.536   0.578   2.646  0.5399  0.2478  0.2466
20146W        W24446   0.042   3.204  14.989 -0.2795 -0.0824  0.2289
20147W        W24447  21.357   3.175  34.112 -0.3581 -0.0280 -0.0106
20148W        W24448   1.322   4.913  13.028 -0.0691 -0.3481 -0.0048
20149W        W24449   2.879   2.364  21.175  0.1071 -0.1809 -0.2359
20150W        W24450   4.959   4.789  34.413  0.4550  0.0658 -0.0689
20151W        W24451  13.172   4.503  28.570  0.0902 -0.0218  0.2226
20152W        W24452   7.798   4.944   6.219 -0.0117 -0.0722 -0.0101
20153W        W24453  24.040   3.690  22.141  0.0044 -0.0076  0.0186
20154W        W24454   7.215   0.878   6.708 -0.1204 -0.0696 -0.0141
20155W        W24455  18.038   2.559  11.337 -0.0596  0.0432  0.0656
20156W        W24456  17.020   1.151   1.131 -0.0392  0.2230 -0.0314
20157W        W24457  21.610   3.723   4.013 -0.1081 -0.0191 -0.1075
20158W        W24458   2.498   3.020  25.390  0.2546 -0.1129  0.1560
20159W        W24459  20.727   2.378  22.706 -0.0712 -0.3842  0.0501
20160W        W24460  18.729   6.568   0.421 -0.0264  0.0148  0.1840
20161W        W24461   7.995   5.946   9.205  0.0519 -0.0697  0.2240
20162W        W24462   0.593   0.174  28.653  0.1223 -0.5808 -0.2627
20163W        W24463  17.221   0.687  35.801  0.0100 -0.2823 -0.0313
20164W        W24464  13.976   2.099  14.760 -0.3311  0.1737 -0.2652
20165W        W24465   4.038   1.811  32.361 -0.0314 -0.3662  0.1555
20166W        W24466  12.475   6.473   6.497 -0.1791 -0.0617 -0.1584
20167W        W24467  19.976   3.160  35.316  0.0691 -0.0425 -0.1298
20168W        W24468  26.001   6.262  10.412  0.1699  0.3911  0.0496
20169W        W24469  10.794   0.241   5.111 -0.0556 -0.1668  0.4438
20170W        W24470   7.339   4.088   9.775 -0.2320 -0.1774 -0.2401
20171W        W24471   7.793   3.505  27.137 -0.0059 -0.0542 -0.0947
20172W        W24472  22.989   4.532   4.889  0.0450  0.2144 -0.1307
20173W        W24473  10.987   4.964  35.779  0.0676  0.1656  0.2743
20174W        W24474   5.184   5.137  28.714  0.2113 -0.0571 -0.1573
20175W        W24475  20.706   3.319  33.387  0.2993  0.0284  0.0227
20176W        W24476  16.183   5.211   5.276 -0.0213 -0.1072 -0.0145
20177W        W24477   0.860   3.273   0.274  0.0145 -0.0594  0.1938
20178W        W24478   6.791   5.518  13.716  0.2734  0.0578  0.0458
20179W        W24479  22.439   4.540   0.651  0.1241 -0.3440 -0.2428
20180W        W24480   5.568   5.904  11.477  0.1853  0.2856 -0.0698
20181W        W24481   6.061   1.565   3.841 -0.2759  0.0921 -0.0522
20182W        W24482   0.275   1.233  22.535  0.3013 -0.0295  0.1526
20183W        W24483   7.677   0.964  30.013  0.0748  0.0926 -0.3277
20184W        W24484   9.035   1.969  21.062 -0.2598  0.0245  0.1996
20185W        W24485  12.765   0.786  22.963 -0.0531  0.0467  0.1033
20186W        W24486  15.686   2.423  28.883  0.1181  0.0573  0.2928
20187W        W24487  23.595   2.990   4.908  0.3048  0.3800  0.1180
20188W        W24488  17.924   3.147  30.199  0.0543 -0.2150  0.1660
20189W        W24489  15.072   5.879  10.993  0.0930  0.0047 -0.0732
20190W        W24490  19.200   1.133  35.824 -0.0014  0.2105  0.0894
20191W        W24491  19.700   3.615  15.757  0.1211 -0.0169 -0.0182
20192W        W24492  10.134   4.482   2.452 -0.0057  0.1212  0.0050
20193W        W24493  17.145   3.669  33.026 -0.0715  0.0348 -0.0847
20194W        W24494  18.406   0.420   0.457 -0.3984 -0.2990 -0.1304
20195W        W24495  18.547   5.158  35.168  0.2546 -0.0445  0.2037
20196W        W24496   5.150   0.043  36.052 -0.4189 -0.0090 -0.2042
20197W        W24497  25.406   0.873  34.050  0.1152 -0.0092  0.0701
20198W        W24498   0.449   4.766   9.685  0.1077  0.3784 -0.1153
20199W        W24499   8.021   2.087  14.193  0.1032 -0.0387 -0.1329
20200W        W24500  26.325   5.746  31.956  0.1615  0.0897 -0.4219
20201W        W24501   2.957   4.662  10.924 -0.0452  0.0959  0.1310
20202W        W24502  22.731   2.914   1.413  0.0530  0.2479  0.2499
20203W        W24503  13.641   0.960  26.524  0.2219 -0.0032  0.3610
20204W        W24504  21.290   2.956  26.356  0.2631  0.0520 -0.4127
20205W        W24505  22.717   2.325   8.288  0.0366  0.0939 -0.3412
20206W        W24506   6.109   6.091  13.717 -0.0964 -0.0395  0.0475
20207W        W24507   8.761   3.432  33.491 -0.3268  0.0073  0.0913
20208W        W24508  13.508   0.698  24.301  0.1227  0.1762  0.3220
20209W        W24509  10.588   5.668  36.100  0.1906  0.0278 -0.0376
20210W        W24510  18.664   3.247   8.754 -0.0133 -0.0761  0.0848
20211W        W24511  20.083   6.007  24.298 -0.0416 -0.1133  0.1211
20212W        W24512   4.330   1.636  36.053  0.1204  0.0444 -0.2010
20213W        W24513  16.064   6.586  35.861 -0.0991 -0.1033  0.4129
20214W        W24514  21.316   0.127   3.780 -0.1816  0.0239 -0.1132
20215W        W24515  23.563   3.059   1.997  0.2557  0.0546 -0.0007
20216W        W24516  23.777   6.290  22.368  0.0457  0.0082 -0.2627
20217W        W24517   9.774   6.039  24.427  0.0995 -0.0234  0.2618
20218W        W24518   4.453   5.339   4.354 -0.0490 -0.0242  0.0011
20219W        W24519  18.392   4.018   5.113  0.5125  0.2409 -0.1609
20220W        W24520  14.649   5.141  12.034 -0.0393  0.0678 -0.0392
20221W        W24521  22.899   4.711  14.485 -0.2542 -0.1195  0.1201
20222W        W24522   7.963   5.425   4.797  0.0107 -0.2796 -0.0846
20223W        W24523  13.512   1.323  27.386  0.0162 -0.0763 -0.0301
20224W        W24524   5.844   4.354  26.769  0.1601 -0.2028 -0.2554
20225W        W24525   4.104   5.023   4.244  0.1702 -0.0713 -0.0659
20226W        W24526  14.836   0.713  15.381  0.3186 -0.0701  0.3015
20227W        W24527  19.726   6.394  26.557 -0.1150  0.2178  0.3766
20228W        W24528  26.227   1.919  25.309 -0.1445 -0.1220  0.0258
20229W        W24529  21.455   3.335   7.390  0.2308 -0.2203 -0.3158
20230W        W24530  23.286   5.790  21.636 -0.0851  0.0962 -0.0701
20231W        W24531  12.820   3.592  30.215 -0.1329 -0.1293 -0.2122
20232W        W24532   3.023   4.419  32.139  0.3995  0.0612 -0.0778
20233W        W24533   9.602   5.071   9.146  0.1283  0.0611 -0.0528
20234W        W24534  18.362   0.604   9.973  0.1864  0.2498  0.1324
20235W        W24535  14.837   5.689  30.488 -0.0852 -0.3863  0.0085
20236W        W24536   6.794   6.285  14.421  0.1710  0.3116 -0.1866
20237W        W24537   8.802   3.158  34.001  0.2287 -0.1921  0.0150
20238W        W24538  24.301   3.091  13.853  0.4255  0.1729 -0.2120
20239W        W24539  10.875   5.594  22.552  0.0160 -0.2676  0.1035
20240W        W24540  22.535   5.013   8.490  0.0123 -0.0571  0.0623
20241W        W24541   2.909   5.455  11.259 -0.1390  0.1143 -0.2633
20242W        W24542  14.778   4.265  34.046 -0.2451 -0.3578 -0.2980
20243W        W24543   8.819   3.955  28.515 -0.1686  0.0051  0.0160
20244W        W24544  23.731   6.595  31.828  0.0778  0.0671  0.0891
20245W        W24545  19.825   3.331   3.029 -0.0979  0.1788  0.1880
20246W        W24546  25.665   2.478  11.440  0.0025  0.1709 -0.3034
20247W        W24547  20.157   5.407  25.938  0.0814 -0.0736 -0.0759
20248W        W24548   8.321   3.696  23.272  0.1261 -0.2997 -0.1402
20249W        W24549   5.146   2.816   0.476 -0.1098 -0.1919 -0.0838
20250W        W24550   0.630   5.844   8.010  0.0404 -0.0574 -0.0725
20251W        W24551  18.261   4.273  13.601  0.0112 -0.0747  0.0774
20252W        W24552  14.617   3.612  22.839  0.2468  0.1946  0.1703
20253W        W24553  11.395   6.352  15.045 -0.2058  0.3425  0.3387
20254W        W24554   9.424   4.124   5.481  0.1621  0.2931 -0.0976
20255W        W24555  11.489   6.268   2.829  0.2868 -0.3314  0.0337
20256W        W24556  15.653   0.252  13.807  0.0283 -0.1111 -0.2891
20257W        W24557  26.104   0.559   6.534 -0.2031 -0.4210  0.1141
20258W        W24558   7.584   1.923  31.807 -0.0554  0.0537 -0.0044
20259W        W24559  20.185   3.233  23.686 -0.0698 -0.1456 -0.2340
20260W        W24560  16.815   2.750  34.329 -0.1172  0.1286  0.0973
20261W        W24561  21.122   5.662   2.386 -0.0148 -0.0784 -0.0224
20262W        W24562  11.297   4.884   6.901 -0.0893 -0.0886 -0.0619
20263W        W24563   0.780   5.149  32.074  0.0870  0.1132  0.1641
20264W        W24564   5.014   2.367  14.176 -0.2095 -0.0905  0.2321
20265W        W24565  25.607   3.472  30.022  0.0471  0.2176  0.1641
20266W        W24566  25.184   0.293   5.223 -0.1949 -0.0419 -0.2360
20267W        W24567  16.579   3.996   2.744  0.1757 -0.1555 -0.2580
20268W        W24568  14.703   5.936  29.544 -0.2052 -0.0948  0.0870
20269W        W24569  20.943   6.531   4.459  0.0738 -0.4393 -0.3041
20270W        W24570   3.845   2.131  25.078 -0.0790 -0.0121  0.0029
20271W        W24571   1.667   0.346  11.325 -0.0196  0.0299  0.1067
20272W        W24572   6.459   0.338  14.049 -0.1080 -0.0051 -0.0634
20273W        W24573   0.198   4.244   9.417 -0.1062  0.1092 -0.2042
20274W        W24574  25.706   3.476   1.218 -0.2331  0.2027 -0.0016
20275W        W24575   0.536   4.830  20.892  0.2179 -0.0752 -0.0132
20276W        W24576   3.114   0.132  35.839  0.1090  0.0692 -0.0136
20277W        W24577   5.287   0.354   7.787 -0.0285  0.0414 -0.1579
20278W        W24578  18.908   2.143  24.386  0.0107 -0.0400  0.0682
20279W        W24579  10.175   4.042  35.669  0.4059  0.1300 -0.0990
20280W        W24580  25.965   2.801  24.769  0.0291  0.2199  0.2348
20281W        W24581  15.574   3.567  22.061 -0.1095  0.1672 -0.1050
20282W        W24582   1.602   3.272   8.102  0.0544  0.0461  0.0147
20283W        W24583   0.510   6.167   5.217 -0.4619 -0.1869 -0.1773
20284W        W24584  18.205   1.812  23.150 -0.2096  0.0650  0.1371
20285W        W24585   6.731   3.964  22.786 -0.4549  0.0201  0.2543
20286W        W24586  12.773   2.215  15.375  0.0065 -0.0348 -0.3724
20287W        W24587  11.860   5.106  27.181 -0.2622  0.1304  0.0424
20288W        W24588  21.864   3.484   8.944 -0.2200  0.0504  0.0886
20289W        W24589  20.871   6.401  25.752  0.1368 -0.1118 -0.0045
20290W        W24590   0.168   0.507  13.694  0.2129  0.1913  0.1191
20291W        W24591   2.602   0.665  31.565  0.1870 -0.1113 -0.1973
20292W        W24592  13.136   1.926  15.555 -0.0747 -0.1015 -0.2336
20293W        W24593  15.043   1.073  15.762  0.1579  0.1194  0.0366
20294W        W24594  11.748   1.617   6.702  0.0182 -0.0992  0.3586
20295W        W24595  25.767   0.432  23.111  0.0806 -0.0440  0.2492
20296W        W24596  10.649   0.697   7.709 -0.1480  0.2268  0.1731
20297W        W24597  19.473   3.329  15.073 -0.0469 -0.1297 -0.0479
20298W        W24598  23.690   3.994   0.850  0.0532  0.0950 -0.2012
20299W        W24599  13.422   6.237  31.840  0.1219  0.0442  0.1376
20300W        W24600   0.692   6.218  11.973  0.0183 -0.1026 -0.0226
20301W        W24601  18.563   2.474  33.808  0.0758 -0.3731  0.1684
20302W        W24602  21.675   1.234   0.588  0.2185 -0.0896  0.1864
20303W        W24603  13.063   5.827  24.839  0.0715  0.3244 -0.0147
20304W        W24604  14.505   0.015  10.885  0.0594 -0.0616 -0.0601
20305W        W24605  17.171   5.129   5.736  0.3116 -0.1696 -0.1529
20306W        W24606  17.863   0.183  13.289  0.1530  0.0004  0.0858
20307W        W24607  23.974   3.371  12.043 -0.1574  0.4808 -0.0217
20308W        W24608  18.797   4.784  34.720  0.1316 -0.0087  0.1859
20309W        W24609  12.419   4.880  34.682 -0.0429  0.0961  0.1724
20310W        W24610  12.574   4.238  13.758  0.0620  0.0636  0.0776
20311W        W24611  21.588   4.799   0.206 -0.0836 -0.0178  0.1261
20312W        W24612  23.725   6.120  31.043 -0.0784  0.1442 -0.2483
20313W        W24613   4.659   1.819  22.173  0.0159 -0.1525  0.0606
20314W        W24614  23.499   3.500  11.138 -0.0772  0.0154 -0.0112
20315W        W24615  25.962   4.475  12.431  0.1660 -0.1239  0.0948
20316W        W24616  17.256   0.096  11.439 -0.4293 -0.1788  0.2541
20317W        W24617  16.521   5.228   1.126 -0.0287 -0.1782  0.1433
20318W        W24618   7.528   3.972  11.821  0.0162  0.0566  0.2790
20319W        W24619  11.778   4.038   4.926  0.0321 -0.4027 -0.3400
20320W        W24620  20.999   3.895   1.583  0.0189 -0.1372 -0.0392
20321W        W24621   8.385   4.301  14.380  0.0672 -0.2859  0.1910
20322W        W24622  14.215   1.437  33.983  0.2031  0.2723  0.1224
20323W        W24623   5.609   4.520  27.231 -0.1073 -0.0086  0.0395
20324W        W24624  13.253   0.595  28.034 -0.3095  0.1611  0.1726
20325W        W24625   0.012   5.417  10.272 -0.0168  0.0916 -0.1146
20326W        W24626  26.128   3.413  10.269  0.1684  0.0025  0.2000
20327W        W24627  10.632   5.434  10.620 -0.1658  0.0771  0.2227
20328W        W24628  20.631   6.029  24.238 -0.1855 -0.1695 -0.0047
20329W        W24629  19.517   2.319   4.489  0.0364  0.0734  0.1153
20330W        W24630   4.419   1.457  23.390 -0.0809 -0.3064 -0.1108
20331W        W24631   4.027   0.367   0.691 -0.0351  0.2843 -0.1678
20332W        W24632   6.764   5.397  25.044 -0.1372 -0.1075  0.0269
20333W        W24633  23.102   2.747  32.981 -0.1837 -0.1001 -0.1160
20334W        W24634   0.086   4.555   2.911  0.0989  0.1172 -0.1121
20335W        W24635  17.340   2.229  14.347  0.1104 -0.0240  0.0695
20336W        W24636  16.937   0.551  33.329 -0.2046  0.3795 -0.3142
20337W        W24637  19.310   5.461  22.493 -0.1398  0.0680  0.1011
20338W        W24638   9.794   5.661  10.034 -0.2768  0.3237 -0.0395
20339W        W24639  22.940   5.626   5.252  0.1189 -0.0525  0.0712
20340W        W24640   2.488   0.008  25.161  0.2649  0.1285 -0.1103
20341W        W24641   7.523   1.320  26.326  0.0376  0.0965  0.0725
20342W        W24642  21.276   4.433  25.986  0.1242  0.0742 -0.2020
20343W        W24643   4.337   1.089  31.489 -0.1774  0.0623  0.0425
20344W        W24644   0.267   0.320  12.428  0.1500  0.0054  0.2737
20345W        W24645   4.671   0.909  31.780 -0.0574 -0.2104  0.0782
20346W        W24646  14.381   3.281  22.150 -0.4332  0.1466 -0.0383
20347W        W24647  25.379   5.242  29.763 -0.0677  0.0290 -0.0970
20348W        W24648  14.297   1.105   6.381 -0.2420  0.2190 -0.3009
20349W        W24649  17.167   0.984   0.294  0.1767 -0.0632 -0.0472
20350W        W24650   4.318   4.932  14.168  0.2176 -0.1479  0.0494
20351W        W24651   0.851   5.262  20.938  0.0860  0.1629 -0.0820
20352W        W24652   0.030   1.263   6.053  0.0141  0.1717 -0.2238
20353W        W24653  15.925   5.645  14.637 -0.0818  0.0156 -0.1073
20354W        W24654   6.077   0.570  20.540  0.1313 -0.1310 -0.1639
20355W        W24655   3.674   3.851   7.068  0.0381 -0.1662  0.3889
20356W        W24656  25.063   2.217  31.926 -0.1839  0.1602 -0.1037
20357W        W24657   0.885   6.460  34.989  0.0247 -0.0054 -0.4445
20358W        W24658  14.262   0.744  27.584 -0.1308 -0.1209 -0.0814
20359W        W24659  16.468   2.793   2.158 -0.2135 -0.0184  0.1182
20360W        W24660  18.068   3.234  23.038  0.3390 -0.0681 -0.2145
20361W        W24661  16.756   2.603  14.189  0.1053  0.1407  0.2630
20362W        W24662  12.715   1.277   3.904 -0.0337 -0.0566 -0.0215
20363W        W24663  21.939   3.185   1.651 -0.3522  0.1261  0.2085
20364W        W24664   0.746   5.279  22.558 -0.3858  0.1712 -0.0531
20365W        W24665  19.552   6.189  25.538  0.1987  0.1835  0.2904
20366W        W24666   7.343   2.759   5.582 -0.2452  0.2115 -0.1698
20367W        W24667   2.962   4.526  27.356  0.0152 -0.0050  0.1469
20368W        W24668  21.387   4.468   7.238  0.0104  0.1957 -0.2819
20369W        W24669   3.457   0.328  13.661  0.0076 -0.1657 -0.0737
20370W        W24670  13.042   1.503   4.233 -0.0094 -0.1461 -0.0629
20371W        W24671  16.171   3.711  27.682  0.1639  0.0428  0.0774
20372W        W24672  15.150   5.755  35.730 -0.0256 -0.0695  0.1138
20373W        W24673   5.669   4.046  24.644  0.1391 -0.0721  0.0535
20374W        W24674  16.137   2.006   9.719 -0.0323 -0.3305  0.1084
20375W        W24675  18.725   5.904   9.929 -0.3019  0.3532 -0.2382
20376W        W24676  16.993   4.729   7.771  0.1021  0.1302  0.1309
20377W        W24677  20.892   2.650  23.116  0.2466  0.0610 -0.3710
20378W        W24678   8.193   4.578   9.887 -0.2119  0.1424 -0.1714
20379W        W24679   4.316   6.418  32.514 -0.2010  0.0470 -0.0304
20380W        W24680  22.543   2.196  31.839  0.0203  0.1077 -0.0719
20381W        W24681   6.909   1.952  21.383  0.1282  0.1781 -0.1197
20382W        W24682   7.347   5.231  33.209  0.0793 -0.4120 -0.0024
20383W        W24683   5.719   0.776   8.480 -0.1146  0.1755  0.0309
20384W        W24684  10.946   0.747  33.283  0.1725 -0.3028  0.0110
20385W        W24685  21.754   1.128   0.050  0.3125  0.2588  0.3931
20386W        W24686   1.143   1.182  23.926  0.4602  0.0680 -0.4181
20387W        W24687   9.882   4.985  12.620  0.0679  0.1752 -0.0107
20388W        W24688   8.001   0.193  10.543 -0.0946  0.0287  0.4055
20389W        W24689  11.183   5.771   0.052  0.0363 -0.0649  0.0569
20390W        W24690  23.713   6.101  22.898  0.0243  0.1732  0.1118
20391W        W24691  21.325   5.324   9.667  0.0444 -0.1253 -0.0357
20392W        W24692  20.037   5.475  14.336 -0.1116 -0.0679 -0.1146
20393W        W24693  15.339   2.171   4.521 -0.0744  0.1169  0.0387
20394W        W24694  21.174   3.558  21.515 -0.1873 -0.0281  0.0971
20395W        W24695  19.726   4.084   1.838  0.0626 -0.1380  0.3391
20396W        W24696   4.521   3.105   1.238 -0.0504 -0.0560 -0.2029
20397W        W24697  14.674   6.245   7.831 -0.1459 -0.1465 -0.0322
20398W        W24698   7.931   1.764  29.354  0.2230 -0.1327  0.2930
20399W        W24699  24.104   6.500   5.645  0.3127  0.0253  0.1423
20400W        W24700  16.682   1.490  35.279  0.2257  0.0328  0.0098
20401W        W24701  16.863   2.277  27.658  0.0562  0.2306  0.1507
20402W        W24702  22.345   4.010  23.157  0.0704  0.0899 -0.0394
20403W        W24703  16.265   0.223   9.245 -0.0919  0.1522  0.0315
20404W        W24704  12.021   4.054   0.619 -0.1444 -0.0866 -0.2229
20405W        W24705   2.789   3.793  25.696  0.4029 -0.3531  0.1245
20406W        W24706   7.779   0.722  25.144  0.1610  0.1712 -0.0169
20407W        W24707   6.599   1.205  23.344  0.2137 -0.0296  0.2757
20408W        W24708  21.255   3.227  22.575  0.2496  0.3227  0.2159
20409W        W24709  20.822   5.803  26.706  0.1959 -0.0286  0.1380
20410W        W24710  21.369   6.305  22.368 -0.0152  0.0352 -0.0053
20411W        W24711  14.014   5.922   1.634  0.0961 -0.0608  0.1923
20412W        W24712   9.569   4.434  27.849 -0.2176 -0.3777 -0.0908
20413W        W24713  15.008   2.355   7.606 -0.1998  0.0415  0.3941
20414W        W24714  25.588   5.913  20.830 -0.1029  0.3856  0.0855
20415W        W24715   4.797   3.872  10.706  0.1508  0.0114  0.2715
20416W        W24716  20.567   0.595  31.699 -0.2870  0.2050 -0.1538
20417W        W24717  15.786   3.729   2.889 -0.0258  0.0540  0.1652
20418W        W24718   5.146   6.265  11.556  0.1411 -0.2805 -0.2024
20419W        W24719   4.687   0.330  28.830  0.3956 -0.0040 -0.1015
20420W        W24720   7.971   0.441  21.077  0.1926 -0.0093  0.2998
20421W        W24721  26.063   4.707  28.872  0.0399 -0.1608  0.1454
20422W        W24722   5.868   1.185  25.623 -0.0569 -0.0475 -0.0568
20423W        W24723  12.901   1.979  35.744  0.1834  0.0580  0.0139
20424W        W24724  24.555   5.702   3.299 -0.1215  0.0151 -0.1440
20425W        W24725  15.957   5.297  22.274  0.3269  0.0411 -0.1070
20426W        W24726  13.154   6.445   7.689 -0.0734  0.2814 -0.1460
20427W        W24727   4.243   2.038  22.181 -0.3478  0.1053 -0.0731
20428W        W24728  25.491   3.344  23.500 -0.2964 -0.3153  0.0255
20429W        W24729   2.981   1.872  36.061 -0.0247  0.2877 -0.5442
20430W        W24730  13.747   3.871  13.571  0.1133  0.0888  0.0492
20431W        W24731  23.642   1.312  15.340  0.1847  0.0626  0.4215
20432W        W24732  24.915   5.819  35.953  0.0555  0.1468 -0.3942
20433W        W24733   4.696   2.780  33.864  0.1161 -0.4022  0.0886
20434W        W24734   0.196   5.820  34.500  0.1299  0.2233  0.1605
20435W        W24735  25.332   6.182  25.073 -0.0824 -0.0563  0.2776
20436W        W24736  15.155   0.325  15.151 -0.1402  0.0500  0.0112
20437W        W24737   5.557   5.919   1.826 -0.2173 -0.0613 -0.1234
20438W        W24738   6.689   1.663   3.070 -0.3821  0.2340 -0.1160
20439W        W24739  11.622   1.243  31.757  0.3922 -0.2007  0.1367
20440W        W24740   0.493   2.921  31.034  0.0015 -0.2419  0.0307
20441W        W24741  12.684   0.506  10.359 -0.3422 -0.0137 -0.0322
20442W        W24742   0.577   4.424  11.983  0.3176 -0.2217  0.2520
20443W        W24743  18.844   4.622  35.855  0.3213 -0.1292 -0.2289
20444W        W24744   5.959   5.286  13.694 -0.0133 -0.0329  0.1105
20445W        W24745  23.674   0.684  36.109  0.0634 -0.2092  0.1360
20446W        W24746  23.513   6.533  33.908  0.1003  0.0030  0.0311
20447W        W24747   1.965   0.813  11.412 -0.0797 -0.2294  0.2587
20448W        W24748  17.468   2.796  21.224 -0.3270  0.1073  0.0482
20449W        W24749  10.035   4.711  21.085  0.0162 -0.0766  0.2110
20450W        W24750   6.599   4.507  26.315  0.1894  0.0835 -0.1541
20451W        W24751   3.176   6.198  24.635 -0.3467  0.0263 -0.0690
20452W        W24752  22.772   5.614  20.710 -0.2079 -0.0078 -0.0426
20453W        W24753  14.980   1.681   4.556  0.0050  0.1297 -0.1495
20454W        W24754  15.259   3.876  24.675  0.0858 -0.4665  0.1671
20455W        W24755   8.177   4.519  10.755  0.0027  0.1987 -0.2012
20456W        W24756  14.780   1.007   7.612  0.0530  0.0505  0.1550
20457W        W24757  18.757   5.477  23.855 -0.0742 -0.0337  0.1467
20458W        W24758  14.156   3.657   5.048 -0.0494 -0.1340 -0.1405
20459W        W24759  25.826   0.942  27.871  0.2652  0.2526  0.1795
20460W        W24760   6.610   6.110  12.201 -0.2280  0.0820  0.1688
20461W        W24761  23.903   3.529   7.635  0.1349  0.3451 -0.1158
20462W        W24762   1.804   1.255   3.618 -0.1923 -0.2491  0.0974
20463W        W24763   9.428   4.464  29.152 -0.0485  0.0120 -0.0535
20464W        W24764   0.783   1.938  28.145  0.1826  0.0335  0.0843
20465W        W24765   6.300   0.286   5.507  0.1241 -0.0636  0.0189
20466W        W24766  18.462   4.726  33.239  0.0725 -0.2848 -0.2557
20467W        W24767   4.262   3.238   2.123  0.1565 -0.3082 -0.1078
20468W        W24768  17.122   6.031   3.015  0.2565  0.0032  0.0975
20469W        W24769   2.386   3.181  23.617  0.0476 -0.1140  0.1481
20470W        W24770  10.243   0.159   3.825 -0.3300 -0.3438  0.0200
20471W        W24771   4.474   5.915   7.831  0.1465  0.1247 -0.5404
20472W        W24772  12.682   0.174   1.871 -0.0054 -0.1832 -0.1802
20473W        W24773  21.365   4.908  26.830  0.2125 -0.0048  0.0940
20474W        W24774   9.328   5.094  26.262  0.0187 -0.0287  0.2814
20475W        W24775   2.229   3.834  29.847 -0.0719 -0.2083  0.0563
20476W        W24776   3.483   4.265   7.156  0.2459 -0.0125  0.0405
20477W        W24777   4.967   1.666  32.053  0.4453  0.2277 -0.3532
20478W        W24778   8.615   3.836  33.247 -0.0659  0.0247 -0.0220
20479W        W24779   1.008   4.184  26.774 -0.0908 -0.0065 -0.0353
20480W        W24780   2.159   0.223  28.300 -0.1173  0.1993 -0.2246
20481W        W24781  25.340   6.126   8.693  0.1659 -0.0698  0.1258
20482W        W24782  24.161   5.639  12.527 -0.0799  0.1379 -0.1838
20483W        W24783   6.164   2.887  23.932  0.0682 -0.1248  0.3260
20484W        W24784   1.490   2.100  21.782 -0.1373  0.1979 -0.3309
20485W        W24785   7.980   2.287   8.961 -0.0334  0.0134 -0.2641
20486W        W24786   5.509   6.430  33.511  0.1247  0.3031 -0.0904
20487W        W24787  18.928   3.243   8.221  0.1676 -0.1202  0.0128
20488W        W24788  21.858   6.474  22.397 -0.3106 -0.3234  0.3135
20489W        W24789  12.431   0.403  32.286  0.0442  0.2315  0.3620
20490W        W24790  25.834   3.771  34.557  0.0851 -0.0290 -0.0129
20491W        W24791  10.999   2.311   7.993 -0.0988  0.0351 -0.1026
20492W        W24792   7.855   4.718  26.576  0.1506  0.1165 -0.3487
20493W        W24793  17.556   1.162   6.406  0.1480 -0.1329 -0.1877
20494W        W24794   2.314   0.767   5.182  0.1957  0.0326 -0.0189
20495W        W24795  13.268   5.415  28.911  0.0280  0.0420  0.1773
20496W        W24796  17.319   5.887  33.188 -0.0715  0.2750  0.0474
20497W        W24797  20.290   3.682  28.458  0.1569 -0.0858  0.1677
20498W        W24798   1.109   5.957  24.971 -0.3409  0.0804 -0.0180
20499W        W24799  22.480   5.917   9.690  0.2600  0.0399 -0.0061
20500W        W24800   0.759   1.660  31.730  0.2300  0.0675 -0.0614
20501W        W24801  22.922   2.567   0.056  0.2403 -0.0575 -0.2149
20502W        W24802   4.972   4.594   9.560  0.0300 -0.3008  0.1744
20503W        W24803  16.139   0.553   1.286  0.0717 -0.1383 -0.0944
20504W        W24804   8.608   4.762  34.872 -0.1963  0.1472  0.2377
20505W        W24805  23.944   4.840  24.338 -0.0396  0.1300 -0.0337
20506W        W24806   1.211   2.297  10.202 -0.2405  0.0472 -0.0144
20507W        W24807  16.102   0.823  11.774  0.1572 -0.1678 -0.1180
20508W        W24808  12.176   3.839  30.761  0.0274 -0.4096 -0.1910
20509W        W24809   8.167   3.058  32.924 -0.0216  0.2332  0.2609
20510W        W24810  18.035   3.264  27.002 -0.0047  0.0270 -0.0404
20511W        W24811  19.171   2.228  25.964 -0.3382  0.3317 -0.1827
20512W        W24812   5.418   3.971   4.764 -0.1265 -0.1904  0.0291
20513W        W24813   3.488   0.121  23.425  0.3649  0.4180  0.0018
20514W        W24814  26.196   1.384  35.162 -0.0791 -0.0574 -0.3095
20515W        W24815   7.095   2.060  25.170  0.0164  0.1797 -0.1016
20516W        W24816  23.828   2.495  11.207  0.0360  0.2314  0.1622
20517W        W24817   7.098   3.376  32.635 -0.1052 -0.0135 -0.3046
20518W        W24818   8.201   0.165   8.604 -0.2612 -0.3282 -0.1127
20519W        W24819  15.716   4.039   8.174 -0.0075 -0.1834 -0.3248
20520W        W24820  20.547   2.879  27.260  0.0740 -0.1180 -0.2828
20521W        W24821   3.825   5.367   5.095 -0.2891  0.1402  0.0521
20522W        W24822   2.108   2.930  26.797  0.1215 -0.1628 -0.3757
20523W        W24823  24.157   5.816   6.161  0.1213  0.2185  0.0905
20524W        W24824   9.454   2.673  29.701  0.3039 -0.0066 -0.0676
20525W        W24825  24.419   4.218  29.518 -0.3901  0.1328 -0.3472
20526W        W24826   4.891   4.173   2.923 -0.1293 -0.0383  0.1821
20527W        W24827   9.048   0.807  12.766 -0.2505  0.3572 -0.4188
20528W        W24828  15.267   2.063   6.528 -0.3331  0.1428 -0.3194
20529W        W24829   1.179   1.570   1.958  0.2457  0.0138  0.0735
20530W        W24830  15.796   4.560  27.221  0.0693 -0.0797 -0.0662
20531W        W24831  22.669   0.503   0.351 -0.0159 -0.2347 -0.2966
20532W        W24832   8.780   4.842   1.804  0.1403  0.1653  0.0531
20533W        W24833   5.835   0.732  23.017  0.1481  0.2537 -0.0753
20534W        W24834  22.814   5.382   8.199  0.1277  0.0468  0.0357
20535W        W24835  17.077   3.359   8.384  0.0538  0.2455  0.2169
20536W        W24836  22.934   5.348  28.699  0.1537 -0.0267 -0.2112
20537W        W24837  17.665   3.704   1.911 -0.1909 -0.3052 -0.0234
20538W        W24838  18.680   1.128  27.027  0.0332  0.2015 -0.1602
20539W        W24839  26.427   3.440  32.816  0.1343 -0.0300 -0.2146
20540W        W24840   5.108   1.007  13.840  0.3479 -0.0973  0.0926
20541W        W24841  10.099   3.605  35.303  0.3063  0.1353  0.0002
20542W        W24842  24.040   6.076  21.466  0.0477  0.1657  0.0058
20543W        W24843  11.948   2.328  15.918  0.2714  0.3751  0.0539
20544W        W24844   4.773   5.249   2.916  0.2045  0.0742 -0.2412
20545W        W24845  11.903   5.936  21.688  0.0574  0.0336  0.1623
20546W        W24846   3.993   1.018  13.487  0.2354 -0.2625  0.0222
20547W        W24847   6.300   3.500  13.961 -0.1634  0.2402 -0.0081
20548W        W24848  16.696   1.364  33.466  0.1949  0.3078 -0.1008
20549W        W24849  12.895   5.688  29.075 -0.2719 -0.2811  0.0024
20550W        W24850  19.867   2.688   3.742 -0.3865 -0.1728  0.0549
20551W        W24851  24.525   2.803  34.395  0.1941  0.4543  0.2656
20552W        W24852   3.519   5.858  33.640  0.0679 -0.1157  0.1463
20553W        W24853   7.493   6.222   0.617  0.2421 -0.0592  0.1600
20554W        W24854   7.283   2.130  15.323  0.1463  0.1220  0.0797
20555W        W24855  15.037   2.875  12.355  0.3267  0.2655 -0.2292
20556W        W24856  18.882   3.247   3.814  0.3787 -0.0465 -0.0242
20557W        W24857   3.083   1.517  12.673 -0.0381  0.1968  0.1361
20558W        W24858  12.271   4.393  13.059  0.1913  0.3548 -0.2399
20559W        W24859   6.990   0.193  24.159 -0.2370  0.0872  0.1107
20560W        W24860   9.404   1.458   7.563  0.1417  0.2627 -0.1995
20561W        W24861   4.569   3.648  29.576  0.0150 -0.1626  0.2236
20562W        W24862   2.188   6.400  34.075 -0.1112  0.2343 -0.0755
20563W        W24863  26.078   1.050   1.141 -0.0639 -0.0445  0.0506
20564W        W24864   1.912   3.529  23.938  0.1575  0.1004 -0.4065
20565W        W24865  25.375   6.418  26.378 -0.1756 -0.0168 -0.0181
20566W        W24866  19.537   2.539  25.969 -0.0414 -0.0096  0.0923
20567W        W24867  24.750   4.283  25.145 -0.0010 -0.0179 -0.0974
20568W        W24868   0.274   2.473  28.963  0.2103  0.1562 -0.1039
20569W        W24869  15.807   2.613  21.739 -0.0871  0.1334  0.1936
20570W        W24870  23.053   0.585   2.862 -0.0425  0.1539  0.0559
20571W        W24871   5.521   5.520   4.351 -0.0096 -0.2657 -0.0240
20572W        W24872  24.545   2.001   9.296 -0.2159 -0.1614  0.1233
20573W        W24873   0.613   0.168   6.301  0.2804 -0.0819  0.0632
20574W        W24874  24.674   2.827  26.300 -0.0543  0.0841  0.0532
20575W        W24875  11.603   1.753  30.913  0.0217 -0.2382  0.2968
20576W        W24876  20.269   0.726  25.429 -0.3394  0.0716  0.1772
20577W        W24877   2.148   2.579  11.503 -0.2002  0.1057 -0.1351
20578W        W24878   2.469   5.221   3.931  0.1657 -0.0545  0.2812
20579W        W24879  22.935   4.190  35.558 -0.1848  0.2277 -0.0317
20580W        W24880  19.328   5.961  26.097 -0.1236 -0.2526  0.3227
20581W        W24881   0.685   0.618  23.625 -0.1424  0.0060  0.4228
20582W        W24882   3.548   3.925  21.894 -0.0572  0.1628  0.0603
20583W        W24883  17.735   0.564  31.860 -0.2735  0.1593 -0.1289
20584W        W24884  18.067   4.948  23.535 -0.0504 -0.3247  0.1187
20585W        W24885  12.132   1.243   8.041 -0.4069  0.1130 -0.0245
20586W        W24886  14.430   4.926   6.295 -0.0176  0.1671 -0.0212
20587W        W24887   7.256   5.106   1.730  0.2078  0.3860 -0.1995
20588W        W24888   2.876   0.859  21.515 -0.0769 -0.1811 -0.1243
20589W        W24889   0.436   5.507  33.384  0.0779  0.1291  0.1754
20590W        W24890   2.094   4.606  20.832  0.3203 -0.0111  0.1008
20591W        W24891   7.033   1.855   1.036 -0.0522 -0.0926  0.0347
20592W        W24892   0.669   2.340  30.029 -0.0507  0.0748 -0.1861
20593W        W24893  15.027   5.919  33.494  0.0934  0.0037 -0.0141
20594W        W24894  16.237   5.829  23.917 -0.0434  0.1031 -0.3548
20595W        W24895   1.207   0.919  36.009 -0.1881  0.1836 -0.0171
20596W        W24896   7.160   3.371  29.276 -0.0856 -0.0671  0.1218
20597W        W24897  15.583   1.484  27.337  0.0999  0.0171  0.0933
20598W        W24898  25.247   4.958  11.787  0.0352 -0.1268  0.1400
20599W        W24899   1.892   1.280  31.815  0.0485  0.1072 -0.0911
20600W        W24900   7.968   2.354  22.621  0.0347 -0.1821  0.0246
20601W        W24901   1.767   1.704  11.770  0.0308 -0.0953  0.0423
20602W        W24902  21.603   3.056  25.699  0.0005  0.3312  0.0448
20603W        W24903   0.514   4.514   8.581 -0.0386  0.0548 -0.2534
20604W        W24904   6.721   3.070   8.285 -0.1920  0.3178  0.0435
20605W        W24905  21.964   5.317  32.812 -0.0579 -0.2186  0.1367
20606W        W24906   6.163   5.659  31.389  0.1276  0.2721  0.3246
20607W        W24907  21.356   0.078  32.610 -0.2065  0.3200  0.0547
20608W        W24908   7.119   5.763   8.451  0.2195  0.0083  0.0708
20609W        W24909  18.836   6.286   8.580 -0.0517  0.1810  0.2856
20610W        W24910  21.962   3.162  31.117 -0.0015 -0.1772  0.2483
20611W        W24911   3.022   0.451   8.707  0.2520  0.0268  0.2309
20612W        W24912   6.207   4.941  27.901  0.0881  0.0128 -0.3117
20613W        W24913   8.635   3.105  20.932 -0.0238 -0.1648  0.0571
20614W        W24914  14.252   2.532   0.479  0.1277 -0.2935  0.0569
20615W        W24915   8.269   6.005  23.409  0.1745 -0.1502 -0.0531
20616W        W24916   9.231   0.187  28.466 -0.2194 -0.0588 -0.0863
20617W        W24917   6.250   4.766  20.716 -0.1903 -0.1594 -0.1998
20618W        W24918  15.116   2.308  20.584 -0.0636  0.0765  0.0380
20619W        W24919  16.667   0.652   1.104 -0.2073  0.0732 -0.2626
20620W        W24920  12.904   5.593   1.850 -0.1354  0.0994  0.1544
20621W        W24921   2.413   3.689  29.220  0.0971 -0.0785 -0.0464
20622W        W24922   3.116   4.679   6.431 -0.2594  0.0494 -0.1831
20623W        W24923  25.835   1.202  30.268 -0.0365  0.1100  0.2271
20624W        W24924   0.340   0.999  29.963  0.0203 -0.0429 -0.4524
20625W        W24925  11.060   6.108   7.232  0.1066 -0.0980  0.0724
20626W        W24926   4.958   1.235   8.789 -0.0331 -0.0221 -0.2948
20627W        W24927   4.123   3.977   8.603 -0.2327  0.1862 -0.0426
20628W        W24928  13.023   6.312  13.091 -0.0176  0.0130  0.1428
20629W        W24929  23.694   5.929   1.990 -0.1575 -0.1172 -0.0466
20630W        W24930  19.611   0.145  12.562  0.1242 -0.2645 -0.1092
20631W        W24931   9.147   5.367   8.874 -0.2547 -0.2352 -0.2375
20632W        W24932  21.835   1.465  12.603  0.2257 -0.1202  0.2531
20633W        W24933  15.008   0.252  32.594 -0.0502 -0.1059  0.1676
20634W        W24934   0.855   1.222  15.244 -0.0686  0.0198 -0.0589
20635W        W24935  24.846   4.498  33.948 -0.2328 -0.0013 -0.4296
20636W        W24936   1.229   0.240  15.188  0.1194  0.0943  0.1702
20637W        W24937  12.671   1.237  30.689 -0.1150  0.0234  0.0908
20638W        W24938  15.211   1.397  33.302 -0.1725 -0.0497 -0.0750
20639W        W24939  18.784   2.600   4.677  0.0196  0.0177  0.1809
20640W        W24940  19.199   4.919  27.704  0.0072 -0.0295 -0.0842
20641W        W24941   3.431   1.903  28.583 -0.0821 -0.2435  0.1842
20642W        W24942  15.957   4.567  34.389 -0.2637 -0.0690 -0.1602
20643W        W24943   1.683   6.190   6.344  0.2175  0.1412  0.0944
20644W        W24944   3.821   1.089  34.852  0.1207  0.2346  0.1286
20645W        W24945  14.861   3.653  36.146 -0.1671 -0.0353  0.2378
20646W        W24946  16.207   2.198  25.684 -0.2255 -0.1140 -0.2345
20647W        W24947  17.012   5.521  28.887 -0.0003  0.0140  0.4360
20648W        W24948  13.155   1.958  30.655  0.0538  0.1146  0.3896
20649W        W24949  18.310   3.820   6.963 -0.2993  0.0280 -0.1237
20650W        W24950  12.120   0.536  34.675 -0.0188 -0.1074 -0.1153
20651W        W24951  16.991   1.484  12.054 -0.1188  0.1378  0.3851
20652W        W24952  10.671   5.236  15.640  0.0435  0.3829 -0.1915
20653W        W24953   1.995   5.861  14.431 -0.1060 -0.0135  0.0615
20654W        W24954  11.265   5.445  26.713 -0.4243 -0.3235  0.1672
20655W        W24955   2.931   4.685   1.267  0.1148 -0.0689 -0.2336
20656W        W24956   4.913   6.205   9.971  0.1079 -0.0426 -0.0537
20657W        W24957  23.476   4.780  13.569  0.1877  0.0900  0.0301
20658W        W24958  20.909   6.188  22.164  0.2656  0.3163 -0.1925
20659W        W24959  17.024   1.557   5.196  0.2180  0.0543 -0.1960
20660W        W24960   4.523   3.973  30.646  0.1122  0.0873 -0.1257
20661W        W24961  20.115   6.212   5.383  0.1065 -0.2025 -0.2883
20662W        W24962   4.190   5.672  36.084 -0.0229 -0.0968  0.4330
20663W        W24963  20.693   6.115   4.193 -0.0946  0.1921  0.0782
20664W        W24964  10.823   3.697  27.264 -0.0566 -0.0675 -0.0419
20665W        W24965   8.999   1.748  14.963 -0.1136  0.2452 -0.0971
20666W        W24966   2.713   0.855   6.400 -0.1527 -0.2004 -0.2077
20667W        W24967  21.961   2.699   1.201  0.0918 -0.1866 -0.0420
20668W        W24968   0.666   4.986  28.848  0.1045 -0.1556 -0.0694
20669W        W24969   4.344   6.051  20.245  0.1483  0.2120  0.1428
20670W        W24970  11.266   0.403  29.850  0.0148 -0.0819  0.1552
20671W        W24971   5.467   3.066  21.128 -0.0373 -0.0902 -0.1766
20672W        W24972  25.341   6.295  35.395 -0.1217 -0.1493  0.6144
20673W        W24973  10.478   4.268   8.364 -0.1734  0.3013 -0.0937
20674W        W24974  16.329   0.174  35.473 -0.2223  0.0353  0.3444
20675W        W24975  14.837   2.838  22.217 -0.1357  0.2227  0.2642
20676W        W24976   1.909   3.463  34.574  0.0061 -0.1134 -0.0502
20677W        W24977   4.430   4.691  28.751  0.2620  0.2283 -0.0021
20678W        W24978  25.238   3.410   5.680 -0.1014  0.2861 -0.2457
20679W        W24979  16.380   5.396   8.403 -0.0493 -0.1971 -0.2951
20680W        W24980  13.743   4.452  29.856  0.2151  0.1439 -0.0605
20681W        W24981  23.710   0.966  35.139 -0.2754 -0.1740  0.0655
20682W        W24982  10.545   3.435   2.248  0.1965 -0.0639  0.1045
20683W        W24983   1.683   5.907  35.307 -0.0273  0.1703  0.0938
20684W        W24984   3.599   0.107  36.099  0.0304  0.1801  0.2708
20685W        W24985  11.405   1.578  15.472  0.0694  0.0526  0.1025
20686W        W24986  19.885   6.005  32.897  0.0187  0.1725 -0.0501
20687W        W24987  23.002   3.545   6.723 -0.0491  0.0649  0.0350
20688W        W24988   6.748   0.454   2.522  0.0032  0.2984 -0.1088
20689W        W24989   9.300   2.459  32.366 -0.1127  0.2009 -0.0010
20690W        W24990  18.913   4.124   3.247  0.0464  0.0594 -0.3843
20691W        W24991  15.992   0.327   1.998 -0.0118 -0.1632  0.1629
20692W        W24992   8.988   3.295  25.559  0.0425 -0.1129  0.0343
20693W        W24993   7.556   3.869  32.093 -0.2938 -0.2822  0.1685
20694W        W24994  14.699   6.364  29.892  0.1677  0.0183  0.1105
20695W        W24995  25.309   0.736  11.864 -0.4300 -0.0181 -0.2960
20696W        W24996  14.460   2.452   7.929  0.0455 -0.1250  0.1610
20697W        W24997  10.523   4.467   9.059 -0.3373 -0.4417  0.0611
20698W        W24998  10.226   5.838  30.309  0.0177 -0.1909  0.2812
20699W        W24999   0.242   2.999   9.567 -0.2222 -0.1068  0.0564
20700W        W25000  19.788   4.576  28.454 -0.1241  0.2429  0.2465
20701W        W25001  19.486   4.948   9.525  0.1063  0.1814 -0.3331
20702W        W25002   6.787   5.523   9.429  0.1685 -0.2028 -0.1073
20703W        W25003  21.614   4.392  10.432 -0.0049  0.1573 -0.2614
20704W        W25004  17.354   0.132  23.389  0.0926  0.1398 -0.0907
20705W        W25005   4.463   0.388   8.420  0.0671 -0.1826  0.1035
20706W        W25006   6.039   6.480   3.057 -0.1400  0.1095 -0.0691
20707W        W25007  16.900   0.706  14.853  0.0558 -0.0442 -0.0603
20708W        W25008  14.977   2.227  33.802 -0.0106  0.0062 -0.1867
20709W        W25009  23.328   0.880  10.969  0.0171 -0.1825 -0.0966
20710W        W25010   7.873   5.026  12.196 -0.0911  0.0117 -0.2648
20711W        W25011   2.707   1.784  25.965  0.4081 -0.2412 -0.1186
20712W        W25012   6.998   1.916  13.218 -0.0856  0.0019  0.2406
20713W        W25013   6.713   6.172   5.899 -0.2335 -0.0351 -0.1704
20714W        W25014  13.119   6.238  14.605 -0.0918  0.0928  0.1191
20715W        W25015   5.244   5.976  30.432  0.0722 -0.3220  0.1264
20716W        W25016  22.468   2.607   7.641 -0.0534 -0.1248 -0.4631
20717W        W25017  22.246   1.478   1.790  0.0834  0.0051  0.1906
20718W        W25018  10.542   4.893  30.423  0.1028  0.0195 -0.0950
20719W        W25019  21.537   0.396   1.127  0.1201  0.1121 -0.0953
20720W        W25020  24.840   3.630  30.464 -0.2845 -0.0793 -0.2153
20721W        W25021   8.528   2.308  29.948 -0.1807  0.0440 -0.0382
20722W        W25022   6.920   5.064  26.741 -0.1330  0.0191 -0.2898
20723W        W25023  11.126   4.897   7.870  0.2576  0.2545  0.2296
20724W        W25024   1.097   2.064  35.016  0.1857 -0.2702 -0.0792
20725W        W25025  26.312   5.242  11.927 -0.3994 -0.0849 -0.1690
20726W        W25026  15.728   0.235  30.233 -0.0588 -0.1860  0.0632
20727W        W25027  17.354   0.403  21.630  0.2725 -0.0958  0.0500
20728W        W25028  20.300   0.550  13.075 -0.0580  0.0083 -0.0269
20729W        W25029  22.709   4.540  29.043  0.1835 -0.0970  0.1259
20730W        W25030   6.073   0.625  25.613  0.2323 -0.0483 -0.1648
20731W        W25031   0.519   1.797   9.731  0.0546 -0.2317 -0.0023
20732W        W25032  18.327   0.803  20.841 -0.0306 -0.3397 -0.0460
20733W        W25033  21.611   4.948  22.174 -0.0590 -0.0786 -0.0014
20734W        W25034  19.487   1.007  30.533 -0.4004  0.2864 -0.0158
20735W        W25035  19.765   3.499  12.253  0.0320 -0.2560  0.1012
20736W        W25036  25.877   2.406  10.277 -0.2835 -0.1370  0.2489
20737W        W25037  26.163   6.460   3.010 -0.0425 -0.2179  0.0915
20738W        W25038   2.817   6.459   8.152 -0.0308  0.4428 -0.3858
20739W        W25039  17.134   5.012  29.467  0.2905 -0.2326 -0.1400
20740W        W25040  11.273   5.542  23.445  0.2168 -0.0727  0.3514
20741W        W25041  11.375   2.943  23.236 -0.2695  0.0259  0.1142
20742W        W25042  12.330   4.619   2.922 -0.0390  0.0409  0.1056
20743W        W25043  16.839   2.101   0.927 -0.2347 -0.1794 -0.0516
20744W        W25044  19.033   5.920  33.699  0.1570  0.1751 -0.0635
20745W        W25045   6.087   4.757  21.976  0.1391 -0.3149 -0.0181
20746W        W25046   3.544   4.496  29.434 -0.0245 -0.0250 -0.2178
20747W        W25047   8.339   1.927  29.605 -0.0240  0.0113  0.0377
20748W        W25048   1.822   2.578  34.000  0.0983  0.1168  0.0322
20749W        W25049  17.354   6.422  15.752  0.2294  0.0539  0.2204
20750W        W25050  19.688   3.011  36.096  0.0201  0.2145 -0.1584
20751W        W25051   6.284   1.871   4.352 -0.0229  0.3082  0.0478
20752W        W25052  10.000   3.348  24.887 -0.1681 -0.0201 -0.2072
20753W        W25053  21.171   2.581  35.410 -0.2532  0.0616 -0.1339
20754W        W25054  18.853   6.108   4.416  0.2817 -0.1543 -0.2535
20755W        W25055   4.148   3.291   7.744  0.0799 -0.2359 -0.0528
20756W        W25056  21.269   5.924  11.181  0.0681 -0.1480 -0.0279
20757W        W25057   3.359   1.925   9.163 -0.3447  0.1519  0.0491
20758W        W25058  21.709   0.117  29.248 -0.0223 -0.0334  0.2813
20759W        W25059   4.155   0.080  28.877  0.0616  0.4930  0.2430
20760W        W25060  24.686   5.227  26.859 -0.0794 -0.2187 -0.2145
20761W        W25061  25.866   5.737  12.196 -0.1151 -0.0569 -0.0608
20762W        W25062   6.504   0.317  10.128  0.1085 -0.0960  0.0306
20763W        W25063   1.704   3.707  21.960 -0.0211  0.0352  0.0838
20764W        W25064   8.979   4.367  24.917  0.0320  0.2145  0.2098
20765W        W25065   9.165   6.155   4.388 -0.0730 -0.0329  0.2238
20766W        W25066  26.077   4.439  25.795 -0.1773 -0.1929  0.0512
20767W        W25067  10.297   5.237   4.528  0.0545  0.2212  0.1163
20768W        W25068  14.019   4.715  21.313 -0.4241 -0.0539  0.1611
20769W        W25069   7.535   1.681  28.236 -0.1398  0.1886  0.0539
20770W        W25070  12.861   5.755  27.835 -0.0497  0.1389  0.1677
20771W        W25071  11.584   0.456  33.098  0.1049  0.0688  0.2537
20772W        W25072  21.468   4.235   5.863 -0.2276  0.1685  0.0663
20773W        W25073   6.979   2.793  24.319  0.1048  0.3139 -0.0198
20774W        W25074  19.892   4.589  27.986  0.0271 -0.2081  0.1334
20775W        W25075   1.926   3.228  22.056  0.1638 -0.1112 -0.1753
20776W        W25076  18.463   4.966  10.392 -0.0295 -0.0113 -0.1810
20777W        W25077   5.399   1.649   1.274 -0.1206 -0.0429 -0.0895
20778W        W25078   2.255   0.850  24.953 -0.1651 -0.0660 -0.1252
20779W        W25079  21.467   0.081  21.372  0.0793 -0.0037 -0.2653
20780W        W25080  15.464   3.281   4.124 -0.1241 -0.1764 -0.2350
20781W        W25081  11.376   0.872   8.310 -0.1267  0.0130  0.3103
20782W        W25082  16.309   0.091   1.348 -0.2211  0.0667 -0.4155
20783W        W25083  19.952   1.727   6.946 -0.1215  0.1207  0.0103
20784W        W25084  24.321   1.638  12.434  0.2078  0.1768  0.1347
20785W        W25085  10.317   3.375  33.972  0.0544 -0.0209 -0.0700
20786W        W25086   4.408   5.518  25.517 -0.4520 -0.1362 -0.3619
20787W        W25087   4.680   4.541   0.323 -0.3615  0.3721 -0.0570
20788W        W25088   9.345   0.850  27.985  0.2235  0.4981  0.0646
20789W        W25089  10.735   4.518  24.924  0.0035  0.0542 -0.2511
20790W        W25090   9.874   6.434   3.740  0.0972 -0.0046  0.1633
20791W        W25091   2.626   3.119  26.760  0.2383  0.1702  0.1049
20792W        W25092   1.949   2.112   2.486 -0.1278  0.4371 -0.0589
20793W        W25093  23.508   6.287   1.670 -0.2253  0.2269  0.0996
20794W        W25094  22.772   6.504  35.448 -0.1822  0.1091  0.0858
20795W        W25095  14.229   0.072  23.178  0.2999  0.3082  0.0293
20796W        W25096  15.284   4.062   9.637 -0.4656  0.0973  0.0297
20797W        W25097  15.313   2.377  24.556 -0.1823  0.1288 -0.0275
20798W        W25098  11.500   3.295  13.492  0.1803 -0.2187  0.0617
20799W        W25099  24.676   1.814  34.510 -0.2442  0.0542 -0.2610
20800W        W25100  23.444   0.451  35.066 -0.0559  0.3382 -0.0909
20801W        W25101   9.319   2.101  22.923  0.4221 -0.0532 -0.0619
20802W        W25102  24.750   0.790  36.083 -0.2776 -0.0942  0.1951
20803W        W25103   4.957   2.153  28.028 -0.3349  0.2895 -0.2778
20804W        W25104  10.530   0.628  13.065  0.0828 -0.1775  0.0416
20805W        W25105  25.467   2.939  20.976 -0.3300  0.0707 -0.0176
20806W        W25106   0.363   4.627   4.421 -0.2339  0.1827 -0.0680
20807W        W25107  16.214   6.295  25.071  0.0285  0.1494  0.0430
20808W        W25108  17.113   3.307  27.931  0.0469  0.0474 -0.2929
20809W        W25109  17.233   0.574  15.279 -0.0072  0.0342 -0.0206
20810W        W25110   4.637   6.449   1.116  0.2718 -0.2303 -0.0290
20811W        W25111   4.718   4.192  36.082  0.0908  0.0554  0.3106
20812W        W25112  12.518   6.231  26.948 -0.2185  0.0590 -0.0587
20813W        W25113  21.526   6.288  27.294 -0.1910  0.2480  0.0367
20814W        W25114   0.049   3.755  26.975  0.1763  0.1880 -0.2527
20815W        W25115   2.213   2.121  20.219 -0.0073  0.4378  0.0338
20816W        W25116  21.242   0.604   1.567 -0.1126  0.3733 -0.0821
20817W        W25117   9.417   1.659  25.790  0.2879 -0.0423  0.0685
20818W        W25118   9.712   2.828   5.460  0.0888 -0.1042  0.4535
20819W        W25119   8.969   5.821   8.784  0.1938  0.2007  0.2424
20820W        W25120  20.827   4.081   5.506  0.1277 -0.0194 -0.0978
20821W        W25121  15.394   4.768  10.269  0.2013 -0.0782 -0.1235
20822W        W25122   6.928   6.369   7.332  0.3096  0.0134  0.0002
20823W        W25123  17.686   2.450  13.833 -0.3010  0.1745 -0.1342
20824W        W25124   5.262   2.041  30.339  0.0698 -0.2006 -0.0102
20825W        W25125   6.410   4.449  13.740  0.0800 -0.3810 -0.0132
20826W        W25126   3.083   1.149   1.383 -0.2744  0.2781 -0.1180
20827W        W25127  11.387   6.264  32.539  0.0692 -0.1054  0.0834
20828W        W25128  21.165   0.833   9.472 -0.1903  0.0206  0.1171
20829W        W25129  12.306   5.257  26.904  0.2871  0.0650 -0.0348
20830W        W25130  16.487   6.055  26.406 -0.3402 -0.1823  0.1192
20831W        W25131  10.485   6.161  24.842 -0.0362  0.1751 -0.3293
20832W        W25132  18.533   0.077  26.080  0.1509 -0.1365  0.1520
20833W        W25133   8.601   4.752  21.451 -0.2007  0.0926  0.2483
20834W        W25134  26.239   3.434   4.556  0.1042  0.1453 -0.2199
20835W        W25135   8.841   0.843  26.038 -0.1330  0.0523 -0.1668
20836W        W25136  11.948   4.607  11.659  0.1515 -0.3099  0.0121
20837W        W25137  11.837   3.633  21.015 -0.0229 -0.3829  0.1701
20838W        W25138  20.203   1.212  12.999  0.1695  0.0107  0.2893
20839W        W25139   5.766   0.605  13.376 -0.2466 -0.0572 -0.2943
20840W        W25140  10.249   5.463   3.567 -0.0095 -0.2679  0.1140
20841W        W25141   0.618   2.244  29.449 -0.4754  0.1049 -0.0422
20842W        W25142  23.869   3.868  21.512  0.0739 -0.0458 -0.1812
20843W        W25143  23.888   2.217  14.359  0.0077  0.1281 -0.2129
20844W        W25144  20.803   0.438  14.306 -0.4549  0.0511 -0.1423
20845W        W25145   4.483   4.946  32.822  0.0250 -0.0473 -0.1383
20846W        W25146   6.063   1.036   1.616  0.0621  0.3552 -0.5099
20847W        W25147  16.507   2.134   5.653  0.1041  0.1179  0.1761
20848W        W25148  13.272   0.876   6.654 -0.1017  0.1476 -0.2197
20849W        W25149  10.153   1.906  29.699 -0.2169  0.0026  0.0877
20850W        W25150  24.446   0.079  11.546 -0.0979  0.0097 -0.0767
20851W        W25151   7.476   5.143  25.696  0.0196  0.0670  0.1630
20852W        W25152   2.599   1.878  32.151 -0.0208 -0.0428 -0.0165
20853W        W25153   7.898   4.684  11.139 -0.1722  0.2175  0.3349
20854W        W25154  23.580   5.040  33.623 -0.1314 -0.3268 -0.3048
20855W        W25155  16.533   2.398   4.180  0.1119  0.1080 -0.1038
20856W        W25156  24.128   2.413  11.649 -0.2363 -0.1456  0.1610
20857W        W25157  18.838   3.514  23.352 -0.1047 -0.0636 -0.1035
20858W        W25158  15.522   2.502   4.219 -0.3545 -0.2912 -0.0108
20859W        W25159  11.245   1.017  31.423  0.1748  0.0139  0.2643
20860W        W25160  25.206   2.362  10.570 -0.1269 -0.0412  0.1076
20861W        W25161  20.359   3.518  12.795 -0.0671  0.0369 -0.0796
20862W        W25162   3.491   4.318   5.548  0.0772 -0.1257  0.2651
20863W        W25163  21.537   1.333  34.163 -0.0517 -0.0662 -0.1327
20864W        W25164   3.199   5.626   1.323 -0.0774 -0.1006  0.1061
20865W        W25165   9.875   3.943  31.677 -0.4096  0.0735  0.2316
20866W        W25166  21.209   0.825   8.656 -0.1704  0.1628 -0.0559
20867W        W25167  19.769   0.183   0.372 -0.1279 -0.0459  0.0018
20868W        W25168  18.769   6.442  29.267  0.0782  0.1078 -0.1189
20869W        W25169  11.172   4.925  29.643 -0.1073 -0.1037  0.0717
20870W        W25170   3.321   2.639  33.683  0.1554 -0.5126  0.3009
20871W        W25171  22.987   0.299   5.448 -0.2134  0.0205  0.2572
20872W        W25172  16.324   5.387  11.218 -0.0198 -0.2747  0.2333
20873W        W25173   5.270   5.541  27.187  0.0882 -0.0788  0.0859
20874W        W25174   3.165   4.852   0.447  0.1911  0.1110 -0.0898
20875W        W25175  12.694   5.258  30.102  0.1896  0.0936 -0.0769
20876W        W25176  18.555   0.299  35.374  0.1016  0.2673 -0.0884
20877W        W25177   7.514   5.675  14.390  0.2149 -0.0610 -0.0483
20878W        W25178   4.272   5.178  36.060  0.0052 -0.3222  0.4160
20879W        W25179  13.119   0.377  24.155  0.1714  0.1723  0.0710
20880W        W25180   9.146   3.956   0.296  0.4075 -0.0093 -0.2658
20881W        W25181   9.464   3.054  10.859 -0.1303 -0.0057 -0.1594
20882W        W25182   7.508   1.005  22.377 -0.0205 -0.0844  0.1964
20883W        W25183  15.678   2.559  32.332  0.1998  0.0938 -0.1455
20884W        W25184   4.330   2.635  29.913 -0.1485 -0.1960 -0.1657
20885W        W25185   4.515   0.621  28.413  0.1282  0.2298 -0.3335
20886W        W25186  17.968   3.536  32.824 -0.0873 -0.3013 -0.1208
20887W        W25187  11.193   3.053  11.339  0.0091  0.0234  0.2422
20888W        W25188   2.252   5.058  13.211  0.1591  0.0713  0.1713
20889W        W25189  19.379   1.379  24.512 -0.2428  0.1125 -0.0216
20890W        W25190   9.090   5.732   5.103 -0.0779  0.0585 -0.1139
20891W        W25191  14.419   4.183   4.629  0.0926  0.0401  0.1486
20892W        W25192  16.008   0.671   8.017 -0.2091  0.0242  0.0282
20893W        W25193  23.055   4.424   7.139  0.1183  0.0419  0.1432
20894W        W25194   6.242   5.057   4.347 -0.0886 -0.0572 -0.2177
20895W        W25195  22.408   1.789  24.560  0.0395  0.3998  0.1434
20896W        W25196   8.204   0.055  35.721 -0.0404 -0.0215 -0.2108
20897W        W25197  14.064   6.080  33.376 -0.2467  0.2567  0.0165
20898W        W25198  11.773   1.865  35.457 -0.0984  0.2800  0.1959
20899W        W25199   5.572   4.684  35.092 -0.0287 -0.3534 -0.1818
20900W        W25200   3.958   4.265  27.613  0.0894 -0.3230 -0.0354
20901W        W25201   6.117   2.991  15.105  0.0702  0.2139 -0.0052
20902W        W25202   9.073   4.212  26.998 -0.2009 -0.2007 -0.1237
20903W        W25203  15.608   3.584   2.447 -0.3167 -0.1836  0.2252
20904W        W25204  17.158   4.706  15.424 -0.0758 -0.0130 -0.1728
20905W        W25205   8.785   2.085   9.951 -0.1219  0.0490  0.0861
20906W        W25206   4.743   0.775   6.087 -0.2649 -0.0116  0.1135
20907W        W25207  24.794   5.328   7.454  0.0761 -0.0065  0.0878
20908W        W25208  22.543   3.555  21.106  0.0614  0.0302  0.0855
20909W        W25209   7.325   3.503  11.778 -0.0663 -0.2135  0.0941
20910W        W25210   5.705   5.578  26.272 -0.2062  0.2036  0.2451
20911W        W25211  11.543   3.453  22.343  0.3474 -0.0865  0.0225
20912W        W25212  25.334   2.269  26.453  0.0888  0.1365  0.1670
20913W        W25213  11.940   1.263  23.697 -0.2049 -0.1705  0.2023
20914W        W25214  21.446   5.521  34.283  0.1974  0.0509  0.1545
20915W        W25215  10.393   4.580  10.447  0.1600  0.0594  0.0773
20916W        W25216  20.487   5.752  30.964 -0.0735  0.1142 -0.1461
20917W        W25217   5.625   1.384  21.518  0.2148 -0.1395  0.0495
20918W        W25218  19.985   0.877   7.952 -0.0659 -0.2565 -0.0742
20919W        W25219  23.633   5.755  34.132  0.1320 -0.2804 -0.0513
20920W        W25220  12.287   1.916  14.644 -0.4734 -0.0716  0.1807
20921W        W25221  21.919   2.121  24.370 -0.0023 -0.2052 -0.0833
20922W        W25222  14.724   0.445  32.247  0.0393 -0.2696 -0.0604
20923W        W25223  10.822   0.455  12.712 -0.1179  0.1067  0.0443
20924W        W25224  19.406   2.043   0.545 -0.1550  0.3934  0.0045
20925W        W25225  11.540   3.066  21.589  0.0217 -0.0127 -0.0731
20926W        W25226   6.700   2.923  11.617  0.2230  0.0814  0.0834
20927W        W25227   9.291   0.034  29.959 -0.0835 -0.1164  0.1253
20928W        W25228  12.382   4.386  34.801  0.1833 -0.0545 -0.0725
20929W        W25229  19.807   0.788  35.176 -0.0983  0.2671  0.1515
20930W        W25230   4.766   0.278  25.031 -0.3148  0.1093 -0.0519
20931W        W25231  12.519   0.632  13.771  0.1551  0.0530  0.0652
20932W        W25232   7.904   2.759   9.063  0.1993  0.0795  0.1069
20933W        W25233   4.862   1.939   4.606 -0.1051 -0.0848 -0.2216
20934W        W25234  18.354   2.646   1.944  0.0515  0.2183 -0.0874
20935W        W25235  18.549   6.299   2.705 -0.0683 -0.1429  0.1978
20936W        W25236   1.055   3.314   4.587 -0.1195 -0.0907  0.1164
20937W        W25237   6.732   4.431   8.971 -0.1276 -0.0800 -0.2014
20938W        W25238   8.197   3.774  29.275  0.0799  0.2364 -0.0972
20939W        W25239  10.646   2.171  24.742 -0.0661 -0.1554  0.0641
20940W        W25240  16.632   4.634   5.083  0.0434  0.1031  0.1317
20941W        W25241   6.306   2.169  33.291  0.0854 -0.1372 -0.0019
20942W        W25242   3.843   0.614   1.732 -0.0905 -0.0969 -0.0597
20943W        W25243   6.525   4.188  23.183 -0.1328 -0.1232  0.1565
20944W        W25244  23.651   3.630   5.056 -0.2848 -0.1211  0.3619
20945W        W25245   4.108   3.030  10.313  0.1587 -0.0063 -0.1575
20946W        W25246   1.418   3.288   2.162 -0.0543  0.0414 -0.0671
20947W        W25247  12.056   3.183  27.543 -0.1510 -0.1462 -0.3578
20948W        W25248  20.605   5.836   2.205 -0.0068 -0.0638 -0.0011
20949W        W25249  20.933   3.210  25.479 -0.1347  0.0556 -0.0585
20950W        W25250  17.195   2.851  10.163  0.3442 -0.1501  0.0640
20951W        W25251  20.993   4.836  24.570  0.1836  0.0910 -0.3102
20952W        W25252  15.663   4.482   4.357  0.0586 -0.2552  0.0975
20953W        W25253  10.413   6.533   5.032  0.5523  0.1364  0.3660
20954W        W25254   2.415   6.188   7.041  0.0280  0.0202  0.1503
20955W        W25255   6.623   3.066  29.656  0.1176 -0.0247  0.1296
20956W        W25256   1.754   5.194  26.837 -0.0619  0.0358 -0.2551
20957W        W25257   0.301   3.659   4.699  0.4365  0.0680  0.1333
20958W        W25258  19.586   3.294  23.872  0.2543  0.0348 -0.0275
20959W        W25259  14.338   6.390  26.461  0.4014  0.2245  0.2856
20960W        W25260   9.043   2.213  10.503  0.3910  0.0810 -0.0391
20961W        W25261   5.502   4.329  21.433 -0.0880 -0.1646 -0.0379
20962W        W25262   6.952   0.954  22.031  0.0834 -0.0368  0.1538
20963W        W25263  15.639   0.505  10.360 -0.0909  0.0653 -0.1851
20964W        W25264  11.531   6.408  21.869 -0.0718  0.1474  0.1311
20965W        W25265   7.518   0.056  27.461 -0.0418 -0.0373  0.1165
20966W        W25266  10.057   5.268  27.242 -0.3008  0.0148  0.0134
20967W        W25267  14.096   2.815  22.882 -0.1919  0.2193  0.1147
20968W        W25268   4.795   2.276  27.155  0.1223  0.1501  0.0892
20969W        W25269  26.221   6.262  21.662 -0.2420  0.2200 -0.0631
20970W        W25270  16.988   1.090  29.874 -0.1176 -0.0946 -0.1269
20971W        W25271  23.596   6.581  25.548  0.0648 -0.1818  0.2813
20972W        W25272  25.685   4.163   3.974 -0.0767 -0.1785 -0.0331
20973W        W25273   4.873   4.693   2.782  0.1120  0.1483  0.1206
20974W        W25274   5.266   1.425  22.454  0.0149  0.0219  0.0294
20975W        W25275  19.526   0.683  12.520 -0.1924 -0.2849 -0.4609
20976W        W25276  12.466   2.874  25.921 -0.0737  0.0230  0.1075
20977W        W25277   8.729   5.162  32.827 -0.2509 -0.2117  0.0280
20978W        W25278  22.194   2.284   2.464  0.0976 -0.0141  0.0809
20979W        W25279  11.739   2.446  30.287 -0.2292  0.0875 -0.2545
20980W        W25280  16.118   4.308   4.307 -0.1838 -0.1542  0.0366
20981W        W25281  18.919   6.084  21.673  0.2061 -0.2534  0.1495
20982W        W25282   7.291   4.960  13.276  0.1181  0.1257  0.1774
20983W        W25283  19.938   4.007  24.263  0.2393 -0.1278  0.1637
20984W        W25284  24.281   0.970  31.458  0.0718  0.0355  0.0192
20985W        W25285  20.687   3.049  35.633 -0.0449  0.1996  0.1953
20986W        W25286   7.472   1.350   5.764  0.0856 -0.1522  0.2345
20987W        W25287  15.795   6.561   9.328  0.0568 -0.1507 -0.0134
20988W        W25288   5.684   2.863  15.415  0.0618 -0.3247  0.1367
20989W        W25289   6.814   1.344   2.235  0.3109  0.2110 -0.0829
20990W        W25290  24.869   1.734  12.746 -0.1809  0.1570 -0.1077
20991W        W25291  19.502   5.080  13.043 -0.2173 -0.2718 -0.1223
20992W        W25292  14.386   1.170  24.558  0.1488  0.1861 -0.1409
20993W        W25293  17.616   1.629  27.961  0.1381  0.0360  0.0627
20994W        W25294  18.913   1.620  34.310  0.0360  0.1820 -0.1208
20995W        W25295   6.647   4.033  24.268 -0.1015 -0.0773  0.2116
20996W        W25296   5.407   4.791   1.260  0.1197 -0.1622  0.0610
20997W        W25297   9.459   2.849   2.605 -0.2890 -0.0405 -0.3563
20998W        W25298  12.100   4.675   9.681  0.0484  0.3826 -0.0026
20999W        W25299   0.854   0.339  24.678 -0.0456  0.0863 -0.0155
21000W        W25300   9.201   6.585  25.238 -0.0317 -0.0423 -0.0605
21001W        W25301   7.810   6.185  28.169 -0.2457  0.2138 -0.1149
21002W        W25302  17.258   6.273  22.034  0.1843  0.2689 -0.0004
21003W        W25303  23.429   5.174  26.473 -0.2485  0.1370  0.1466
21004W        W25304  19.887   2.296  27.738  0.0563  0.3312 -0.2136
21005W        W25305  11.351   3.142  25.884 -0.0876 -0.1217  0.0548
21006W        W25306  24.079   2.817   8.215  0.0406  0.0858  0.5152
21007W        W25307  18.821   1.738  15.279  0.3658 -0.3618 -0.1565
21008W        W25308  21.230   5.149  29.364 -0.0523  0.0294  0.2054
21009W        W25309   5.464   2.295  31.017 -0.0137 -0.3210  0.0018
21010W        W25310  20.588   3.671   5.688 -0.1256  0.0820  0.2143
21011W        W25311   0.689   4.610   1.681 -0.0686  0.0246 -0.1050
21012W        W25312   7.855   6.179   2.531 -0.3035  0.2899 -0.1186
21013W        W25313  17.534   0.142   8.975  0.2488 -0.1304 -0.1529
21014W        W25314  14.751   6.096  34.666  0.1128 -0.1000  0.2130
21015W        W25315  15.247   0.699   4.901 -0.0635 -0.3127 -0.2238
21016W        W25316  19.284   3.552   1.366 -0.0353  0.5681  0.2061
21017W        W25317   5.748   3.780  25.201  0.1460  0.2258  0.0809
21018W        W25318  24.422   5.975  24.459 -0.0579  0.0415 -0.1867
21019W        W25319   6.266   2.122  13.867  0.2456  0.0020  0.0868
21020W        W25320  15.241   0.773  32.434  0.1377  0.1067  0.1329
21021W        W25321  14.329   1.611   5.052 -0.0986 -0.0172 -0.1439
21022W        W25322  12.178   0.870  14.024 -0.0076  0.1307  0.3052
21023W        W25323   2.461   1.154   3.480 -0.3146  0.2678 -0.2778
21024W        W25324  19.727   1.603  26.053  0.3143 -0.0106  0.2889
21025W        W25325   6.390   2.644  28.047 -0.1751  0.1430 -0.1271
21026W        W25326  16.802   6.435  12.965 -0.1925 -0.0893 -0.0191
21027W        W25327  21.432   2.581   4.469 -0.0247 -0.0250  0.1733
21028W        W25328  13.325   1.779  35.050  0.0691  0.3650 -0.1138
21029W        W25329  19.056   1.666  22.937  0.2181  0.1398  0.2061
21030W        W25330  25.111   0.202  27.985  0.3504  0.0288  0.0503
21031W        W25331  15.550   0.403   7.934 -0.1510  0.1213  0.2173
21032W        W25332  25.213   0.556  26.542 -0.1135 -0.2069  0.1023
21033W        W25333   6.047   0.454   8.701 -0.2518 -0.0262  0.1734
21034W        W25334  23.929   4.084  24.562 -0.1663 -0.0217 -0.0694
21035W        W25335  16.598   4.836  32.196 -0.1079 -0.2424  0.1217
21036W        W25336  25.613   3.865  31.796 -0.1358 -0.0596  0.1044
21037W        W25337   0.203   5.270  12.334 -0.1361  0.0950 -0.1495
21038W        W25338  15.796   6.541  12.123  0.0646 -0.2735  0.3561
21039W        W25339  22.058   0.495   7.149  0.0393  0.0892  0.2254
21040W        W25340   0.396   5.822  13.318 -0.1394  0.1245 -0.0857
21041W        W25341  25.224   0.829   6.905  0.1492  0.0702 -0.0330
21042W        W25342   1.331   4.597  31.764  0.0515  0.0508 -0.0160
21043W        W25343  20.978   2.502  14.955 -0.0543 -0.0212  0.0233
21044W        W25344  16.218   2.752  14.198 -0.2795 -0.1755  0.0880
21045W        W25345  17.014   4.375  24.178  0.2499 -0.1992  0.0156
21046W        W25346   5.480   2.414  11.294  0.1674  0.0403  0.2630
21047W        W25347   9.109   2.858  23.816  0.0506  0.2551 -0.1740
21048W        W25348  23.646   5.552  12.481  0.2925 -0.3177  0.0716
21049W        W25349   6.515   4.483  33.536  0.2000  0.0743  0.1586
21050W        W25350   1.609   3.407  24.337 -0.0905  0.2231 -0.0074
21051W        W25351  23.123   3.860  15.531 -0.2761 -0.1606  0.1508
21052W        W25352  12.206   5.677  25.510 -0.2449  0.1893 -0.2687
21053W        W25353  25.823   1.477   8.554  0.0733 -0.0979 -0.0295
21054W        W25354   7.635   4.234   0.301 -0.2268  0.0041 -0.1575
21055W        W25355  14.732   3.131   9.364 -0.0842  0.1221 -0.3220
21056W        W25356   1.324   6.130  32.877  0.1754 -0.0415 -0.0523
21057W        W25357  25.797   2.678   8.128 -0.0659  0.0021 -0.0409
21058W        W25358   5.818   0.501   2.253 -0.3296 -0.1775  0.1124
21059W        W25359  13.561   0.045  27.380  0.0472  0.0479 -0.4036
21060W        W25360   3.090   4.806  20.706  0.0582  0.0622  0.0859
21061W        W25361   3.764   3.177   3.351 -0.0929  0.0740  0.1146
21062W        W25362  14.256   3.221  24.029 -0.0962 -0.0815 -0.1055
21063W        W25363   4.409   0.791  25.002  0.2176  0.1688  0.0335
21064W        W25364  15.216   1.325   5.279  0.1470  0.1219 -0.1673
21065W        W25365  19.636   1.624  14.608  0.2302 -0.0057  0.0375
21066W        W25366  15.110   5.135  27.418  0.0215 -0.0517  0.1677
21067W        W25367  25.281   3.297   1.462  0.0904  0.0844  0.0831
21068W        W25368  18.723   4.845  27.731 -0.1029  0.1810 -0.1864
21069W        W25369  10.389   5.903  31.223  0.0776  0.0848 -0.1958
21070W        W25370   0.913   1.974  26.518 -0.0912 -0.0527  0.0216
21071W        W25371  19.708   1.115  24.117 -0.3363 -0.1031 -0.1806
21072W        W25372   4.595   5.767  25.136 -0.0822  0.4581  0.1249
21073W        W25373  10.732   2.523   8.546  0.2795 -0.0016 -0.1498
21074W        W25374   2.305   1.195   6.465 -0.0854 -0.2631 -0.3775
21075W        W25375   8.985   2.467  13.410 -0.1047 -0.0837 -0.1889
21076W        W25376  10.153   5.446   0.099 -0.0579  0.0520 -0.0989
21077W        W25377   9.907   1.633   6.292 -0.0194 -0.3879 -0.2606
21078W        W25378   7.852   5.956   7.450  0.2385  0.1463  0.2167
21079W        W25379  19.942   5.097  28.719  0.1114  0.0465 -0.1379
21080W        W25380  10.867   3.585  32.108  0.1681  0.2048 -0.0761
21081W        W25381  21.184   0.787  10.413  0.2554  0.5175 -0.0855
21082W        W25382  15.440   2.707   2.919 -0.2391 -0.0038 -0.0790
21083W        W25383  26.406   5.336  14.423  0.0991 -0.0521  0.3731
21084W        W25384   6.355   1.200  10.299  0.1055  0.3410  0.2202
21085W        W25385  15.199   3.163  30.145 -0.0416  0.1230  0.1918
21086W        W25386  16.673   6.490   1.684 -0.2291  0.0816  0.0768
21087W        W25387   0.831   2.202   7.089 -0.1695 -0.2933  0.1801
21088W        W25388   0.327   5.692   3.889  0.1007  0.1688  0.0611
21089W        W25389   7.447   3.752  31.131 -0.1008 -0.1185 -0.1894
21090W        W25390  21.737   3.922  23.666 -0.0195 -0.1324 -0.2910
21091W        W25391   0.536   3.723   6.779 -0.1406 -0.3183 -0.0553
21092W        W25392  25.787   4.685  11.156 -0.3032 -0.0942 -0.0904
21093W        W25393  10.656   0.673  10.105 -0.1153  0.1683  0.0493
21094W        W25394  13.455   3.069   0.508  0.0388 -0.4966 -0.1594
21095W        W25395  10.632   0.852  30.351  0.0372 -0.1047 -0.4492
21096W        W25396  18.425   2.195  11.274  0.1254  0.0018  0.2633
21097W        W25397  16.058   1.128  25.614 -0.1699 -0.3942  0.2173
21098W        W25398  18.867   2.156  10.371  0.0579  0.2817  0.0427
21099W        W25399   3.565   1.987  28.014  0.0029  0.0414 -0.0864
21100W        W25400   0.145   0.324   8.640  0.0947  0.2542  0.5700
21101W        W25401   2.755   0.841  28.256  0.1229 -0.1646 -0.2311
21102W        W25402  25.661   0.322   6.599 -0.1912 -0.1026  0.1329
21103W        W25403   8.582   1.364   9.837 -0.0630 -0.0322 -0.0478
21104W        W25404   7.223   5.711  12.236 -0.1109  0.0071  0.2321
21105W        W25405   2.921   3.782  22.541 -0.0071 -0.0468  0.0051
21106W        W25406   4.707   5.555   7.567 -0.0338  0.2066 -0.3946
21107W        W25407   2.157   0.209  23.849 -0.1426 -0.0314 -0.1799
21108W        W25408   1.127   6.534  10.019 -0.1240 -0.1113 -0.1364
21109W        W25409  24.127   2.301  14.775 -0.0062  0.0064 -0.2544
21110W        W25410  14.465   0.169   3.117 -0.0484  0.1125  0.0001
21111W        W25411   7.226   0.924   5.726 -0.2193  0.0196 -0.0621
21112W        W25412  11.893   1.748  28.887 -0.1069 -0.1017 -0.0004
21113W        W25413   3.584   0.689   2.125 -0.1283  0.0250 -0.2025
21114W        W25414  23.394   2.787  12.186 -0.0508 -0.3846 -0.2115
21115W        W25415  24.720   4.265   0.883 -0.0750 -0.0757 -0.3753
21116W        W25416  22.846   1.034  27.619 -0.1826 -0.0906 -0.0883
21117W        W25417   4.753   4.497  20.643 -0.2158 -0.0842 -0.0738
21118W        W25418  10.672   5.947  10.952  0.1011 -0.1803 -0.1166
21119W        W25419  22.329   1.527   5.876 -0.0631  0.0796 -0.0336
21120W        W25420  24.512   1.274  12.837 -0.0953  0.0956 -0.3947
21121W        W25421   9.344   4.481  12.688  0.0475 -0.0489 -0.1288
21122W        W25422  12.744   3.708  20.278  0.1032 -0.3512 -0.3569
21123W        W25423  11.750   2.190   9.728 -0.1591 -0.1727  0.1820
21124W        W25424  22.934   0.899  20.878 -0.0321 -0.0243  0.1557
21125W        W25425  22.736   2.536   3.106  0.3188  0.4598 -0.1994
21126W        W25426  18.579   1.135  12.736 -0.2575  0.0507 -0.0589
21127W        W25427  25.217   1.495  14.912 -0.3487  0.0898  0.5671
21128W        W25428   6.390   6.287  12.593 -0.3004 -0.1404  0.3033
21129W        W25429   3.140   4.947  26.450 -0.2850 -0.0772 -0.0204
21130W        W25430  25.658   4.504  11.664 -0.1155 -0.0601 -0.3182
21131W        W25431   4.676   0.804   8.778  0.3742 -0.0801 -0.0522
21132W        W25432  26.015   3.558   4.114 -0.4514  0.0242 -0.0224
21133W        W25433   4.308   5.049   2.708 -0.1964 -0.1800 -0.3115
21134W        W25434  16.198   5.065  25.500  0.1562  0.0947  0.0295
21135W        W25435   4.609   3.717  31.952  0.1823  0.0813  0.0184
21136W        W25436   7.470   5.224  27.997  0.1499 -0.0047 -0.2029
21137W        W25437  24.066   1.413  31.344  0.1593  0.0437  0.1407
21138W        W25438  15.461   4.256  11.622  0.1658 -0.0509  0.0008
21139W        W25439  15.665   3.382  13.270 -0.0134 -0.1456  0.0442
21140W        W25440   9.288   2.193  13.008 -0.1748 -0.0868  0.1490
21141W        W25441   5.490   5.238   7.542  0.0376 -0.2875 -0.2036
21142W        W25442  13.974   0.025  12.144 -0.4091 -0.1848  0.4740
21143W        W25443   9.779   5.462   0.793  0.0179 -0.0866 -0.1174
21144W        W25444   9.550   5.612   2.505 -0.0516 -0.3651  0.1573
21145W        W25445  16.194   1.449  14.818 -0.2212 -0.3342  0.1390
21146W        W25446   3.947   5.938  34.109  0.1382  0.2561 -0.2449
21147W        W25447   7.146   4.554  25.880  0.0915 -0.0575  0.0590
21148W        W25448   7.793   3.549  10.856 -0.1328 -0.2907  0.0015
21149W        W25449  13.474   0.409  26.403  0.0787  0.1148 -0.1948
21150W        W25450  17.539   1.332   5.397  0.1860  0.0330  0.0620
21151W        W25451   7.627   5.520   0.072 -0.1190  0.1128 -0.1494
21152W        W25452  24.331   2.975   0.028 -0.0111 -0.1023 -0.1220
21153W        W25453  17.984   6.514  21.511  0.2297  0.2382  0.0062
21154W        W25454  22.974   1.511  11.677  0.1306  0.1531  0.1625
21155W        W25455   9.497   5.677   6.610  0.2063  0.0879 -0.1774
21156W        W25456  10.714   3.466  10.328  0.2190  0.0192 -0.1282
21157W        W25457   8.484   1.508  12.930 -0.2455 -0.3004  0.0675
21158W        W25458  21.016   1.584   5.477 -0.2599  0.1331  0.0160
21159W        W25459  13.389   6.548  14.232  0.4735 -0.1576 -0.3194
21160W        W25460  13.857   0.508   7.385 -0.0017 -0.2557 -0.0509
21161W        W25461  10.509   4.240  26.283  0.0781  0.1735  0.0262
21162W        W25462  17.424   3.587  24.398 -0.2887  0.0653 -0.1192
21163W        W25463  18.842   2.907  11.663 -0.3022 -0.3715  0.0265
21164W        W25464   3.744   1.056  24.544  0.3531  0.2361  0.2144
21165W        W25465  23.154   2.850  34.043 -0.0162  0.3326 -0.2765
21166W        W25466   7.919   3.183   0.233 -0.1398 -0.2565  0.1500
21167W        W25467  13.952   3.501  24.346 -0.1606 -0.1030  0.1138
21168W        W25468  17.923   5.430  32.462 -0.2327 -0.0615 -0.1192
21169W        W25469  15.254   3.828  12.459 -0.0783  0.1119 -0.2220
21170W        W25470   9.593   5.021  34.858 -0.1621  0.4429  0.2617
21171W        W25471  13.822   6.109  13.661 -0.1337  0.1207  0.0200
21172W        W25472   7.608   4.721  23.500  0.0662 -0.0505 -0.1172
21173W        W25473   5.546   1.697   2.972  0.0292 -0.0667 -0.1007
21174W        W25474  16.055   5.441  34.568 -0.0843  0.1129 -0.1307
21175W        W25475  11.092   0.049  32.550  0.2420 -0.0299  0.0960
21176W        W25476  20.397   6.442   0.166 -0.3150 -0.2511 -0.2098
21177W        W25477   5.539   3.125  14.043 -0.2444 -0.1813 -0.2022
21178W        W25478  19.007   2.104  35.277  0.2004  0.0516 -0.0392
21179W        W25479   5.047   3.700  14.663 -0.1216 -0.0280 -0.1587
21180W        W25480   6.155   4.193   1.211 -0.0121 -0.0924  0.0723
21181W        W25481  24.580   6.354   5.524  0.2104 -0.1332 -0.2274
21182W        W25482   9.396   4.328  35.092  0.0039 -0.0062  0.2502
21183W        W25483  21.330   0.432   2.027 -0.1288  0.0690  0.2092
21184W        W25484  17.089   3.808   2.879  0.3897 -0.0316 -0.2556
21185W        W25485  17.647   1.605  31.108 -0.1943  0.1435  0.1320
21186W        W25486  23.972   6.550  21.582  0.0009  0.1377  0.0789
21187W        W25487   6.108   6.258  22.495  0.0698  0.2498  0.0253
21188W        W25488   2.320   0.816   9.678  0.1616  0.1039  0.0984
21189W        W25489   3.830   0.806   6.168 -0.1319 -0.0064  0.1870
21190W        W25490  19.346   2.760  12.796 -0.2391 -0.1867 -0.2721
21191W        W25491  18.606   6.278  22.389  0.0685  0.0772 -0.2112
21192W        W25492  20.709   0.257  32.870  0.1275  0.1305 -0.0342
21193W        W25493  22.247   2.287   7.388 -0.3652 -0.0808  0.1190
21194W        W25494  20.253   5.279  13.934 -0.2305 -0.0910  0.0036
21195W        W25495   6.836   1.091  30.753 -0.0584 -0.2205  0.0111
21196W        W25496  16.472   3.883   5.807  0.0188 -0.0778 -0.1584
21197W        W25497   1.712   0.019   3.352 -0.0521 -0.0111  0.2441
21198W        W25498  10.435   4.602   3.231 -0.2907 -0.2500  0.1004
21199W        W25499  17.853   0.468  24.341 -0.2072  0.1796  0.1923
21200W        W25500   2.386   2.871   0.221  0.1297 -0.2323  0.1499
21201W        W25501   8.321   3.108  19.989  0.2981 -0.0190  0.0964
21202W        W25502   5.268   5.813   0.819 -0.0420  0.0323  0.0717
21203W        W25503  24.564   3.221   3.268 -0.0551 -0.2184  0.1372
21204W        W25504  10.047   0.819  10.851 -0.0847 -0.1283 -0.0895
21205W        W25505  26.336   5.382   3.759 -0.0237 -0.1140  0.1207
21206W        W25506   2.480   1.257  23.568 -0.0755 -0.6020  0.1641
21207W        W25507  10.824   1.598  33.415 -0.2799 -0.1300  0.0109
21208W        W25508   7.938   4.512  14.370  0.2508  0.2042  0.0708
21209W        W25509   9.492   6.034  10.563  0.2928 -0.0339  0.2868
21210W        W25510  14.184   1.392   3.133 -0.0507  0.4149 -0.0828
21211W        W25511   9.123   3.614  31.030  0.0956 -0.0925  0.1455
21212W        W25512  26.132   2.096  23.577 -0.4279 -0.2512  0.0884
21213W        W25513  14.746   3.969   3.314 -0.2291 -0.0101 -0.1652
21214W        W25514  17.547   0.583  25.224 -0.0335 -0.0041  0.1601
21215W        W25515  17.088   0.528   0.574  0.4004 -0.2616  0.1449
21216W        W25516   0.917   0.897  13.711 -0.0111  0.0370 -0.1017
21217W        W25517  14.418   1.965   1.483 -0.1740 -0.1064  0.1567
21218W        W25518  10.810   2.165  23.491 -0.2272 -0.0410 -0.1818
21219W        W25519  21.191   1.779  14.370 -0.0475 -0.1545 -0.1370
21220W        W25520  16.317   3.883  31.770  0.1925  0.2877 -0.2261
21221W        W25521  19.665   2.822  14.299 -0.0599 -0.0197 -0.1301
21222W        W25522  11.407   6.070   4.799 -0.1229  0.1911 -0.0797
21223W        W25523  21.562   0.662  32.941 -0.1924  0.2439  0.4017
21224W        W25524  15.166   0.678  24.186 -0.1278  0.0908  0.1215
21225W        W25525  19.426   5.980  11.992 -0.1252 -0.0080 -0.0882
21226W        W25526   3.633   5.063  33.737  0.1292 -0.0756  0.0677
21227W        W25527  13.269   3.379  16.166 -0.4577  0.2334  0.1419
21228W        W25528   5.242   2.808   0.984  0.1525 -0.1092  0.0751
21229W        W25529  17.615   4.995   3.181  0.1125 -0.1990  0.3209
21230W        W25530   8.755   0.593   1.767  0.2105 -0.1071  0.0785
21231W        W25531  12.837   5.433   1.208 -0.3223 -0.0481 -0.0994
21232W        W25532  16.630   4.237  10.773 -0.0055  0.0697  0.1845
21233W        W25533  24.431   5.504  22.589 -0.2723 -0.0606  0.0244
21234W        W25534   1.957   2.890  13.664 -0.0400 -0.1429 -0.0850
21235W        W25535   7.888   4.196   1.287  0.0400  0.4036 -0.1181
21236W        W25536   4.695   3.131  34.576 -0.3287 -0.0133  0.1501
21237W        W25537   0.636   5.410  30.998 -0.1350  0.2678  0.1621
21238W        W25538  22.254   6.020   2.478 -0.1842 -0.3631 -0.1865
21239W        W25539  23.520   6.568  21.981 -0.0596  0.0119 -0.1528
21240W        W25540  17.794   3.267   8.980  0.1384 -0.0749 -0.0244
21241W        W25541   8.792   3.748   5.924 -0.2055 -0.1226  0.1416
21242W        W25542   5.689   6.174  32.759 -0.2397  0.1093  0.0097
21243W        W25543  25.076   4.846  22.221 -0.0994  0.0092  0.2357
21244W        W25544  13.409   6.597  24.328 -0.0279 -0.1796 -0.0584
21245W        W25545  25.671   6.573   4.819 -0.0503 -0.1864  0.0293
21246W        W25546  14.303   0.491   5.595  0.0105  0.1272 -0.0378
21247W        W25547  19.151   5.221  12.187  0.2139  0.1182 -0.1725
21248W        W25548   3.742   1.486  30.043  0.1402 -0.1841  0.0087
21249W        W25549   5.868   5.239   8.858  0.0277 -0.0089 -0.1403
21250W        W25550   4.638   1.441  30.804  0.2281  0.0352 -0.4264
21251W        W25551   8.255   1.393  28.189 -0.2520  0.0587  0.1048
21252W        W25552  24.748   0.980  31.166  0.0661  0.1009 -0.0585
21253W        W25553  11.618   2.820   5.847 -0.1864 -0.2077 -0.1307
21254W        W25554  24.069   2.467   8.559  0.3939 -0.0214 -0.1557
21255W        W25555   6.179   1.839   8.168 -0.0053 -0.2060  0.3512
21256W        W25556   7.638   6.381  25.253  0.3084 -0.0992  0.1610
21257W        W25557  23.097   0.592  14.748 -0.3371  0.1874 -0.0830
21258W        W25558   9.519   4.666   3.241  0.4103  0.2908  0.1271
21259W        W25559   0.631   0.876  28.844  0.2179 -0.3144  0.5558
21260W        W25560  23.704   5.689  29.205 -0.1197 -0.0455 -0.2189
21261W        W25561  11.185   2.401  34.145 -0.1257  0.2944  0.0367
21262W        W25562  15.996   6.013  22.243  0.1555  0.0024 -0.0785
21263W        W25563   7.380   6.001   4.269  0.0499  0.1427 -0.3919
21264W        W25564  21.120   2.880  21.976 -0.0753  0.2466 -0.0865
21265W        W25565  15.038   3.996   2.581 -0.0246 -0.0633 -0.0109
21266W        W25566   9.948   0.328  32.483 -0.3162 -0.1580  0.0061
21267W        W25567  26.085   3.055  12.643 -0.0432  0.0951  0.1390
21268W        W25568  19.785   2.749   1.595 -0.2843 -0.1067 -0.1831
21269W        W25569   8.123   2.204  31.104 -0.1638 -0.1874  0.0172
21270W        W25570   5.355   1.399  34.375  0.1330 -0.1044  0.1490
21271W        W25571   6.921   0.745  34.721  0.0351  0.2382 -0.0765
21272W        W25572  12.338   1.436   2.749 -0.0728 -0.1565  0.1683
21273W        W25573   8.757   2.078   9.001 -0.3906  0.1724  0.2504
21274W        W25574   7.152   1.160  10.250 -0.0335 -0.0998 -0.0370
21275W        W25575  23.533   0.812  33.334  0.2410 -0.0325 -0.1915
21276W        W25576   3.545   5.810  27.140 -0.0840 -0.3767 -0.3297
21277W        W25577   9.221   2.379  11.099  0.0603 -0.1122 -0.0184
21278W        W25578  22.607   6.136  22.025 -0.0316  0.0545 -0.1460
21279W        W25579   6.902   6.392   6.375  0.1053 -0.1103 -0.1384
21280W        W25580   0.303   0.938  12.984 -0.2171  0.1987  0.1475
21281W        W25581  19.822   2.919  33.398 -0.0601  0.1715 -0.3527
21282W        W25582  12.311   5.901  25.936  0.0555  0.1931  0.1516
21283W        W25583   4.069   0.357  35.939 -0.2312 -0.0519  0.0480
21284W        W25584  17.788   3.670  34.323  0.1599  0.1987  0.0797
21285W        W25585  20.036   4.588  11.607 -0.1657  0.0200 -0.2190
21286W        W25586   9.173   3.488  29.299 -0.5365  0.1792  0.0789
21287W        W25587   7.033   2.990   0.288 -0.1906 -0.0731 -0.2303
21288W        W25588   6.910   1.677  34.589 -0.0752  0.4763 -0.0041
21289W        W25589   9.676   3.397   8.549  0.4353 -0.1159 -0.0927
21290W        W25590   3.961   2.229  30.778  0.0482 -0.2651  0.0666
21291W        W25591   9.898   6.085   1.519  0.0994  0.1046 -0.0083
21292W        W25592  11.098   0.992   7.679  0.1189  0.2741  0.1042
21293W        W25593  17.335   6.523   7.419 -0.0947 -0.1935  0.0491
21294W        W25594  15.574   4.216   3.702  0.1961 -0.1051  0.2842
21295W        W25595  17.728   4.038  24.530 -0.2098 -0.2064  0.2347
21296W        W25596  10.988   0.063  35.868 -0.2296  0.1972 -0.1193
21297W        W25597   0.774   2.422  24.144  0.1573  0.0468 -0.0239
21298W        W25598   0.173   2.209   3.950 -0.1948  0.1604 -0.0681
21299W        W25599  20.757   0.959  11.900  0.3886 -0.2635 -0.1480
21300W        W25600  25.900   0.315   5.127  0.0781  0.1467 -0.3656
21301W        W25601   9.792   5.738  26.294 -0.0699 -0.2418 -0.1933
21302W        W25602  15.683   3.924  32.484  0.2641 -0.0778 -0.1282
21303W        W25603  25.961   1.721   6.867  0.4387  0.0883  0.2648
21304W        W25604  18.199   1.870  12.418 -0.2300  0.0008  0.1264
21305W        W25605  11.226   3.876   2.688 -0.1484 -0.0411  0.1340
21306W        W25606  15.823   3.390  27.448 -0.0322 -0.0408  0.2607
21307W        W25607  16.739   5.153   7.669  0.2122 -0.1217  0.0623
21308W        W25608   0.469   4.576  14.101 -0.2177  0.2167 -0.0761
21309W        W25609  21.814   6.452   0.343  0.2029  0.0726  0.1252
21310W        W25610  23.557   4.606   7.130  0.0502  0.0504  0.1511
21311W        W25611   7.579   1.264  24.236 -0.1430  0.1772 -0.1746
21312W        W25612  15.088   5.600  22.064 -0.1011 -0.0342 -0.2484
21313W        W25613   1.554   1.970   9.961  0.0459 -0.0826 -0.2083
21314W        W25614  14.877   3.802  33.693  0.1702 -0.0182 -0.1315
21315W        W25615  14.215   1.437  30.142 -0.1280  0.0490  0.0209
21316W        W25616  25.021   2.709  28.198 -0.0656  0.1638 -0.1803
21317W        W25617  14.546   6.171  35.516  0.1981 -0.1308 -0.0555
21318W        W25618   6.054   6.606  11.578  0.0644 -0.0286  0.0890
21319W        W25619   7.292   2.005  13.625  0.3130  0.0938  0.2990
21320W        W25620  20.797   1.070   8.529  0.1002  0.2682 -0.2442
21321W        W25621   0.096   2.645   6.528 -0.0163  0.0550  0.0153
21322W        W25622   0.870   5.644  35.490 -0.1083  0.1362 -0.0849
21323W        W25623  11.839   1.079  10.387 -0.0723 -0.0580  0.1557
21324W        W25624  13.746   1.878   3.593 -0.1540 -0.1450 -0.0829
21325W        W25625  15.326   5.293   6.175 -0.2846  0.2928  0.0785
21326W        W25626  25.764   3.003  15.266  0.0790  0.0046 -0.2984
21327W        W25627  24.972   4.703   2.207  0.1758  0.3843  0.1717
21328W        W25628  25.976   2.860   5.811  0.0510  0.0067  0.1162
21329W        W25629  25.812   4.495   7.697 -0.0871  0.1868 -0.2133
21330W        W25630  20.441   0.825  14.156  0.0323 -0.1514  0.0346
21331W        W25631   8.653   2.414  28.607 -0.4211  0.0379 -0.0638
21332W        W25632   3.985   5.434  27.137  0.0282  0.2107  0.1523
21333W        W25633  22.994   1.304   7.468 -0.2017  0.4461 -0.1220
21334W        W25634  23.484   3.200   3.741  0.1449  0.1567  0.1604
21335W        W25635  14.449   3.182  28.263  0.3335 -0.1710  0.3053
21336W        W25636  17.423   1.064   8.864  0.1128  0.0724 -0.0288
21337W        W25637  20.990   4.214   4.623  0.4459 -0.2568 -0.0268
21338W        W25638  16.189   5.013   5.789 -0.2597 -0.0884 -0.2987
21339W        W25639  10.189   6.312  29.599 -0.1082 -0.1672  0.1000
21340W        W25640   5.290   1.472  30.091 -0.2469  0.1175  0.1459
21341W        W25641   8.039   4.531  30.819  0.0724 -0.0826  0.0351
21342W        W25642   1.599   2.551  20.861 -0.0146  0.1381  0.0376
21343W        W25643   5.764   6.155   9.490  0.1189 -0.0275  0.5192
21344W        W25644  16.816   2.185  28.514  0.1635 -0.4108 -0.4078
21345W        W25645  20.719   1.079  31.429  0.1349 -0.0782 -0.1663
21346W        W25646  17.822   6.426  25.877 -0.2343 -0.0604  0.0957
21347W        W25647  25.151   4.916  20.958  0.1555 -0.3323  0.1085
21348W        W25648  20.044   2.059   7.445  0.0908 -0.2409  0.1091
21349W        W25649  10.782   0.301   7.979  0.0855  0.2253 -0.0799
21350W        W25650   8.824   4.103  23.251  0.1034 -0.0127  0.0371
21351W        W25651  22.873   4.756  31.591  0.0215  0.1366 -0.1035
21352W        W25652  19.451   0.521   3.961 -0.1395 -0.1078  0.2356
21353W        W25653  25.164   3.071  11.699 -0.2885  0.0003 -0.0297
21354W        W25654  11.461   0.691  34.640 -0.1855 -0.2337  0.0469
21355W        W25655   0.371   6.280  35.292 -0.2526 -0.1856  0.0230
21356W        W25656   0.285   6.024  10.798  0.0738  0.1100 -0.1523
21357W        W25657   8.557   6.361  28.909  0.0753 -0.1222  0.1987
21358W        W25658   0.507   4.372   3.139 -0.0693 -0.0760  0.1998
21359W        W25659   8.559   4.456  34.036  0.2881 -0.3022  0.1410
21360W        W25660   0.868   6.266  26.792 -0.0835  0.0150 -0.0354
21361W        W25661  10.329   4.571   0.609  0.2565 -0.0527  0.1620
21362W        W25662   7.774   5.070  34.854  0.0750  0.0030 -0.1127
21363W        W25663  17.126   1.378   3.154 -0.2755  0.2104  0.0372
21364W        W25664   3.744   5.660   3.014 -0.2753  0.0153  0.0489
21365W        W25665  25.831   0.722  25.698 -0.0869  0.0803  0.0315
21366W        W25666  12.709   4.260  28.545 -0.0987  0.2137 -0.0437
21367W        W25667  19.495   1.107  14.997  0.0172  0.0142 -0.1029
21368W        W25668   6.249   0.829  31.692 -0.0397 -0.2673 -0.2429
21369W        W25669  20.871   4.560  24.955 -0.1511 -0.0484  0.3158
21370W        W25670  17.267   3.695   0.709  0.1675  0.0847 -0.1077
21371W        W25671  13.016   1.505  32.005  0.0746  0.0413  0.0870
21372W        W25672  19.425   0.964   5.209  0.1587 -0.0739  0.1301
21373W        W25673   1.434   3.182  14.829 -0.0476  0.1484  0.3478
21374W        W25674   6.806   2.205  14.542 -0.2632 -0.1180  0.2494
21375W        W25675   5.081   4.647  25.383 -0.0056  0.0063 -0.0734
21376W        W25676   3.389   1.813  27.385 -0.1687 -0.0362  0.0308
21377W        W25677   8.233   6.050  30.874  0.0436 -0.2283  0.2231
21378W        W25678   7.185   3.839  35.166 -0.2212  0.2302  0.2603
21379W        W25679  24.511   2.988   9.619 -0.2920  0.0749  0.0816
21380W        W25680  23.161   5.233   4.434  0.0373 -0.1826  0.0918
21381W        W25681   3.237   5.763  35.929  0.0555  0.1464  0.3173
21382W        W25682   8.173   2.310  15.223 -0.0886  0.1001 -0.1217
21383W        W25683  15.012   3.423  31.950 -0.1631  0.0126  0.1099
21384W        W25684   9.311   0.694   3.021 -0.2987  0.0633 -0.1214
21385W        W25685  22.249   4.873  11.986 -0.4480 -0.2957 -0.0666
21386W        W25686  12.929   3.436  25.906 -0.0092  0.1006  0.3543
21387W        W25687  13.954   6.280  35.243 -0.2671  0.1074 -0.1187
21388W        W25688  11.250   2.955  23.731 -0.0300 -0.1695  0.2815
21389W        W25689  18.349   5.334   4.340  0.0740 -0.0448 -0.0467
21390W        W25690   4.861   6.171  30.139 -0.1680  0.1188  0.0048
21391W        W25691  10.476   1.608   7.527  0.0914 -0.1410 -0.2952
21392W        W25692  24.697   5.341  14.453  0.1058 -0.3345  0.2885
21393W        W25693   7.463   5.332  11.386 -0.2384 -0.2269 -0.1826
21394W        W25694  21.970   2.035  12.600 -0.2549  0.1080 -0.0983
21395W        W25695  10.389   2.423  12.887  0.0137  0.1457 -0.2657
21396W        W25696  21.117   1.962  25.912 -0.3855  0.0924  0.0150
21397W        W25697  12.422   2.420  21.995  0.2491  0.0013 -0.1277
21398W        W25698  10.286   2.814   3.934 -0.3194  0.2292 -0.1598
21399W        W25699   6.328   5.187  24.952  0.2677  0.0351  0.2501
21400W        W25700  16.943   5.196  26.277  0.1161 -0.1750 -0.1329
21401W        W25701   8.031   5.905   2.098  0.4201 -0.0840  0.1367
21402W        W25702  22.096   4.961  29.767 -0.0581  0.1413 -0.0783
21403W        W25703  20.145   3.862  13.625 -0.2501 -0.0274 -0.3054
21404W        W25704   8.453   5.624   0.008 -0.1202 -0.1574  0.0563
21405W        W25705   7.100   1.485  24.433 -0.1317  0.0095  0.0941
21406W        W25706  13.410   2.248  30.908 -0.1638 -0.1551  0.1076
21407W        W25707  12.228   2.219  33.146 -0.0769 -0.1643  0.1239
21408W        W25708   9.754   4.774   2.686 -0.2883  0.2752 -0.0542
21409W        W25709  21.766   6.245  10.441  0.1390  0.2680  0.0984
21410W        W25710  20.924   2.690  30.574  0.1680 -0.0699  0.0951
21411W        W25711  23.754   1.858   5.670 -0.0230 -0.1765 -0.3198
21412W        W25712  21.519   0.911   1.902 -0.0740  0.0795 -0.1837
21413W        W25713  24.015   2.214  12.944 -0.0068 -0.2312 -0.2952
21414W        W25714   3.433   2.400  12.757 -0.0021 -0.2186  0.0475
21415W        W25715  10.884   2.537   9.727 -0.0306  0.1061  0.0629
21416W        W25716  25.381   3.279  12.781 -0.0616  0.0000  0.0861
21417W        W25717   1.137   2.617   9.616  0.0924 -0.1193 -0.0785
21418W        W25718   9.757   3.721   5.990 -0.0361  0.0851 -0.3237
21419W        W25719   8.365   0.437   4.753 -0.2368  0.1282 -0.0218
21420W        W25720  15.416   4.931  35.952  0.1434  0.0313  0.1003
21421W        W25721  16.673   2.709  36.092  0.0824 -0.2664 -0.2492
21422W        W25722  15.535   4.260  15.569  0.2769  0.4410  0.0813
21423W        W25723  19.785   4.832  29.866 -0.1199  0.0307 -0.0068
21424W        W25724  20.824   1.348  27.862 -0.1689  0.0206 -0.2085
21425W        W25725   4.135   1.835  23.227 -0.2437 -0.3134 -0.1393
21426W        W25726   9.430   6.097  29.393 -0.2020 -0.2801 -0.0841
21427W        W25727  26.317   5.519  30.586  0.3818 -0.1210  0.0518
21428W        W25728  18.053   0.436  33.015 -0.1642 -0.0592 -0.1612
21429W        W25729  14.097   3.098  31.613 -0.2256 -0.1632 -0.5892
21430W        W25730   1.792   6.152  25.534 -0.2618  0.0717 -0.1921
21431W        W25731  12.853   4.068  34.382 -0.2218 -0.1947 -0.1560
21432W        W25732  26.342   2.576  10.121 -0.0186  0.0457 -0.0108
21433W        W25733  24.273   5.301  34.367  0.1856 -0.1440  0.0901
21434W        W25734  21.183   5.750   7.460  0.0919  0.1064 -0.1305
21435W        W25735  21.429   1.988  10.997  0.1131 -0.1107  0.1685
21436W        W25736  22.730   0.584   5.055 -0.1542  0.0115 -0.4700
21437W        W25737   3.920   2.761  27.049 -0.1620 -0.2520 -0.0546
21438W        W25738   1.336   1.669  34.771  0.0933 -0.0101  0.1889
21439W        W25739  20.482   4.347  27.180 -0.6106  0.1233 -0.2132
21440W        W25740   7.914   1.942   4.621  0.2384 -0.2623 -0.1685
21441W        W25741  10.336   4.747  29.951 -0.1548 -0.1573 -0.1419
21442W        W25742   9.552   0.511   6.308  0.0337  0.2843  0.0559
21443W        W25743  19.178   4.569   6.123  0.1144 -0.1396 -0.0802
21444W        W25744   4.220   6.534  28.001 -0.1087  0.2431  0.1954
21445W        W25745  18.773   0.464   6.469  0.0344 -0.0148  0.1250
21446W        W25746  23.585   2.758  35.806 -0.1159  0.0248  0.0447
21447W        W25747  10.796   0.319   2.893  0.1821 -0.2026 -0.1631
21448W        W25748  14.959   2.127  26.988 -0.0663 -0.2755 -0.2690
21449W        W25749  13.529   5.718  24.656  0.1126 -0.0797  0.1417
21450W        W25750  23.801   5.829   4.182 -0.3601 -0.4009  0.1883
21451W        W25751  24.832   5.856  14.879  0.0003 -0.1542  0.0538
21452W        W25752   2.037   0.910  33.728 -0.2581 -0.1773 -0.2510
21453W        W25753  18.900   3.861  28.039  0.3114  0.1644 -0.3256
21454W        W25754   9.021   3.740   5.472 -0.1716 -0.0400 -0.1126
21455W        W25755   2.619   0.045   4.936  0.2990  0.0325 -0.0059
21456W        W25756  14.417   1.568  15.603  0.0087 -0.0754 -0.0467
21457W        W25757   4.533   2.246   5.839  0.2252 -0.3939  0.1271
21458W        W25758   0.571   0.088   8.427 -0.1577  0.0192  0.0029
21459W        W25759   4.904   1.700  34.299  0.1934 -0.0469  0.0615
21460W        W25760  24.274   2.171  31.374 -0.3186  0.2924 -0.1557
21461W        W25761  16.229   3.867  13.412 -0.0385  0.0784  0.0455
21462W        W25762   8.471   5.762   8.819  0.0847 -0.0874  0.0602
21463W        W25763  16.398   1.715   7.206 -0.2297  0.1341  0.0838
21464W        W25764  12.486   5.358  11.643 -0.0069  0.0623  0.2421
21465W        W25765   3.342   4.072  31.851 -0.0331  0.0810 -0.3369
21466W        W25766   2.068   6.387   6.043 -0.3893 -0.0477 -0.2032
21467W        W25767   2.074   4.689  10.838  0.0651  0.1370 -0.1901
21468W        W25768  10.922   0.011  14.965 -0.1457  0.1128 -0.2732
21469W        W25769   8.283   4.088   4.769 -0.0295  0.0119  0.2874
21470W        W25770   4.308   2.213   4.045  0.1731  0.0843  0.0582
21471W        W25771   6.391   0.672   7.745 -0.2873 -0.1141 -0.2255
21472W        W25772  15.410   1.352  30.934  0.2177  0.0213 -0.2141
21473W        W25773   8.674   4.423  26.204  0.0426 -0.1942  0.2662
21474W        W25774   7.806   2.746  29.776 -0.0249 -0.0272  0.1318
21475W        W25775   6.013   5.167  21.717  0.0284  0.0783 -0.0103
21476W        W25776   6.208   0.562  32.116  0.2413  0.2637 -0.0198
21477W        W25777  19.305   1.928  34.504  0.2808 -0.0641 -0.2315
21478W        W25778  24.642   3.499  34.097  0.3496 -0.1129 -0.1188
21479W        W25779  24.209   4.043   5.503 -0.2795  0.0916  0.1325
21480W        W25780  24.870   2.312  33.707 -0.3887 -0.1515 -0.1073
21481W        W25781   6.675   6.036   0.614 -0.2624  0.0918 -0.0157
21482W        W25782   9.069   3.241   3.925 -0.0048 -0.2590 -0.0171
21483W        W25783  20.193   1.990   6.486  0.1790  0.1412  0.0341
21484W        W25784   5.139   2.653  33.145  0.1001  0.2992  0.3474
21485W        W25785   7.972   2.426  24.262 -0.1422 -0.1290  0.0228
21486W        W25786   5.541   1.598  11.459 -0.0950  0.1928  0.2170
21487W        W25787  26.233   4.226   0.590  0.2556 -0.0421 -0.0663
21488W        W25788  20.055   0.915  11.595  0.0806 -0.3723 -0.0061
21489W        W25789   2.288   6.047   5.098  0.2027  0.0735  0.0021
21490W        W25790  16.076   6.465   2.284 -0.1501  0.1528  0.1270
21491W        W25791  13.484   4.686  31.578  0.0655 -0.0909  0.4358
21492W        W25792   0.039   5.826  31.444  0.1277 -0.0973  0.1137
21493W        W25793  18.187   6.581  10.489 -0.0426 -0.5009  0.1412
21494W        W25794   8.372   2.040   3.666 -0.2254  0.0828  0.1713
21495W        W25795  19.002   1.231   1.735 -0.0776 -0.1786  0.2149
21496W        W25796  16.018   5.711  22.939 -0.0572 -0.1428 -0.0015
21497W        W25797  23.934   3.332   4.264  0.0487  0.2379  0.0595
21498W        W25798  15.620   4.678  26.733 -0.0409 -0.1911  0.1549
21499W        W25799  11.333   4.148  23.395  0.3652  0.0670 -0.1762
21500W        W25800  19.371   0.641  24.975 -0.0511 -0.0598  0.2119
21501W        W25801  26.299   1.369  29.112 -0.2847  0.0843 -0.1470
21502W        W25802   9.962   5.898  15.333 -0.0401  0.1059  0.0204
21503W        W25803  19.917   1.382  32.216 -0.2751 -0.2160  0.0321
21504W        W25804  15.040   2.723  32.960  0.0794  0.0168  0.0101
21505W        W25805  23.328   4.424  30.831 -0.0149  0.3447 -0.2640
21506W        W25806   5.225   0.835   8.720  0.0181  0.0530 -0.2361
21507W        W25807  16.532   0.490  13.999  0.1104  0.2539  0.0990
21508W        W25808  13.248   2.011   1.390 -0.3787 -0.1574  0.0024
21509W        W25809  16.703   4.399  11.729  0.1966 -0.1714  0.0923
21510W        W25810  15.050   1.446  12.086 -0.0344 -0.1365 -0.0382
21511W        W25811  10.566   2.975  12.052  0.0540 -0.0783 -0.0620
21512W        W25812  22.452   6.458   7.665  0.0095 -0.0548  0.0207
21513W        W25813   8.173   5.538  25.393 -0.0241  0.1660  0.2208
21514W        W25814  23.244   2.072   3.979 -0.0881  0.0484  0.2459
21515W        W25815   7.277   1.519   0.612 -0.0051  0.1389 -0.0179
21516W        W25816  12.747   1.361  24.025 -0.1657 -0.2783  0.1625
21517W        W25817   5.465   6.130  26.414 -0.1037  0.0462  0.2665
21518W        W25818   0.228   4.544  22.012 -0.1686 -0.2416 -0.0072
21519W        W25819  10.745   2.214  14.452 -0.1835 -0.1264 -0.0274
21520W        W25820  14.851   6.065  22.984  0.1735 -0.1723 -0.1742
21521W        W25821   3.903   6.524  25.357  0.0067 -0.1992  0.1108
21522W        W25822   6.321   0.552  11.784 -0.0228 -0.0509  0.3851
21523W        W25823   4.825   5.126   1.340  0.2901 -0.3081  0.1589
21524W        W25824  23.249   5.980  14.925  0.1886  0.2987 -0.1021
21525W        W25825   1.209   5.847  31.934 -0.0825  0.0680 -0.0771
21526W        W25826   5.245   3.611  14.113  0.1295 -0.1480 -0.0499
21527W        W25827  18.324   6.177   7.215  0.1440  0.1212  0.0637
21528W        W25828   0.832   3.251  27.690 -0.1078  0.0527 -0.0410
21529W        W25829  20.285   2.032  34.567  0.3153 -0.2198  0.2835
21530W        W25830  23.101   1.427  27.463  0.1068  0.2850 -0.0386
21531W        W25831  10.900   4.466  22.533 -0.0805 -0.0892  0.0019
21532W        W25832  12.778   2.585  33.291  0.0569  0.1151  0.1073
21533W        W25833   7.894   2.626  13.895  0.2229 -0.1908  0.1769
21534W        W25834  22.239   3.714  35.726 -0.2621 -0.0893  0.1172
21535W        W25835   6.039   5.297  29.972 -0.2475  0.3551  0.0514
21536W        W25836  16.818   3.342  28.845  0.0151 -0.3027  0.0077
21537W        W25837  17.646   0.092  31.029  0.1148 -0.2645  0.0083
21538W        W25838  11.702   3.328   7.253  0.1733 -0.1611  0.0657
21539W        W25839  12.872   2.588  21.058 -0.3633 -0.1469  0.0806
21540W        W25840   5.478   0.753   0.975 -0.1988  0.1153  0.0595
21541W        W25841   8.450   5.152   0.885  0.2683 -0.2058 -0.3084
21542W        W25842  13.917   4.219  25.741 -0.0101 -0.1537 -0.1373
21543W        W25843   2.508   4.496  14.783  0.0681 -0.0498  0.3521
21544W        W25844  11.569   4.953  30.390  0.0794  0.1214  0.1033
21545W        W25845  22.449   1.601  11.611 -0.1714 -0.2659  0.4033
21546W        W25846  16.858   0.533  34.774 -0.1590  0.0542  0.0107
21547W        W25847  23.557   2.870  31.701 -0.0370 -0.2185  0.2926
21548W        W25848  26.378   0.043  13.126  0.4177  0.1696 -0.1537
21549W        W25849   9.989   0.868   8.765 -0.0181 -0.0846  0.0673
21550W        W25850   8.355   3.144   9.772  0.3312  0.0271 -0.2085
21551W        W25851   3.484   5.608   9.330  0.0143 -0.0582 -0.3152
21552W        W25852   2.466   6.553   1.104 -0.1352 -0.2460 -0.1864
21553W        W25853   3.290   5.779  35.002  0.1849 -0.0526  0.1008
21554W        W25854  23.796   0.900  11.901  0.1456  0.3507  0.0589
21555W        W25855  18.311   4.442   5.384  0.1649  0.0541 -0.0009
21556W        W25856  23.167   4.713  26.591  0.1197  0.2366  0.2271
21557W        W25857  12.578   6.454   9.781 -0.2084 -0.1221  0.0221
21558W        W25858  12.345   1.721  33.975 -0.1382 -0.3443  0.2855
21559W        W25859  19.209   4.364  10.376 -0.2004 -0.3852 -0.0578
21560W        W25860  19.747   3.136  21.808  0.2998 -0.2463 -0.1032
21561W        W25861  24.499   3.892  27.968 -0.2083 -0.0156 -0.3226
21562W        W25862  14.716   1.512  25.515  0.2408  0.2166  0.0835
21563W        W25863   8.208   5.484  26.778 -0.1819  0.2123  0.3029
21564W        W25864   3.030   2.446   2.451 -0.2475  0.2425  0.0400
21565W        W25865  17.167   3.854   7.598  0.1690 -0.1736  0.2185
21566W        W25866  15.914   4.025  12.979 -0.1031 -0.0109  0.0478
21567W        W25867   9.146   3.720   7.643 -0.1059  0.1274  0.3265
21568W        W25868  20.558   1.846  14.048 -0.4778  0.1339 -0.0460
21569W        W25869  25.956   5.867   2.590  0.1102 -0.1881 -0.0736
21570W        W25870  10.235   3.785  29.273  0.0193  0.0185 -0.1879
21571W        W25871  18.653   3.102   6.333 -0.1338 -0.0539  0.1843
21572W        W25872  17.431   1.990   0.296 -0.1150  0.0954  0.0525
21573W        W25873   2.412   3.181   0.555  0.0731  0.1259 -0.3524
21574W        W25874  13.363   2.214  33.008 -0.0461 -0.1792  0.1504
21575W        W25875   2.452   1.515  32.437  0.3227 -0.1468  0.0907
21576W        W25876  16.928   1.132  33.944  0.0201  0.0492  0.2461
21577W        W25877   1.643   2.968  27.377  0.0647 -0.2235 -0.2481
21578W        W25878  16.498   3.891  10.407 -0.1357 -0.1277 -0.0156
21579W        W25879  13.057   2.278  15.007  0.0702 -0.2405 -0.1282
21580W        W25880  24.633   0.821   5.708 -0.0675 -0.0749 -0.0446
21581W        W25881   2.718   6.090  24.931  0.0983 -0.2321 -0.0150
21582W        W25882   3.358   1.753  14.543 -0.0745 -0.2069  0.0235
21583W        W25883  20.786   4.472   3.705 -0.1825  0.0135  0.2336
21584W        W25884   9.797   5.242   8.739 -0.3229  0.1409  0.1137
21585W        W25885   1.610   1.852   2.062  0.4029 -0.0169  0.0578
21586W        W25886   4.404   4.515   6.809  0.0541  0.2381  0.1077
21587W        W25887   7.190   2.569  30.808  0.0344  0.2834  0.0255
21588W        W25888  25.494   5.291  30.326  0.1404  0.0894 -0.1970
21589W        W25889  24.681   6.356   1.983  0.0830 -0.2546  0.1560
21590W        W25890  19.046   1.289   4.108 -0.3091 -0.2094  0.0343
21591W        W25891   9.318   4.236  21.839 -0.0118  0.0109  0.0372
21592W        W25892  17.639   6.315  31.347  0.0225 -0.1007  0.4737
21593W        W25893  15.858   3.857   3.413 -0.1051  0.1975  0.0586
21594W        W25894  23.158   2.800   1.667  0.2505 -0.2240  0.0451
21595W        W25895  16.539   0.193  36.143  0.3790  0.3724  0.0289
21596W        W25896  22.644   4.692   6.165  0.2945 -0.0454 -0.1422
21597W        W25897  24.304   6.385  21.890 -0.0527 -0.0069  0.0898
21598W        W25898   0.764   6.567   3.517  0.2954 -0.0903 -0.2375
21599W        W25899   1.012   4.374  34.708 -0.2539 -0.0804  0.0917
21600W        W25900  22.052   1.736  27.409  0.1400  0.1471  0.1269
21601W        W25901  16.320   5.534  25.749 -0.3588  0.1400  0.1599
21602W        W25902   8.558   3.975  26.328  0.0986 -0.2713 -0.0793
21603W        W25903   0.886   0.044   7.734 -0.2291 -0.1631  0.3203
21604W        W25904   0.966   2.647  30.306  0.0643 -0.0925  0.0756
21605W        W25905  14.745   0.737  10.501  0.1115  0.1285 -0.1700
21606W        W25906  22.279   0.438  28.267  0.0806  0.1153 -0.2921
21607W        W25907  11.286   5.386  28.807  0.1424 -0.0765 -0.2878
21608W        W25908  23.898   1.598   0.616  0.0026  0.1472 -0.1132
21609W        W25909  21.510   0.334  24.487 -0.2492  0.3134  0.1859
21610W        W25910   1.812   5.348  21.294 -0.0320  0.0969  0.0147
21611W        W25911   0.061   6.044  24.953 -0.0470 -0.1012  0.1263
21612W        W25912   5.289   2.742  12.643  0.2910  0.0805 -0.0946
21613W        W25913   2.038   5.458   7.963  0.0598 -0.1826 -0.1401
21614W        W25914  14.995   1.280   7.966  0.1714  0.1689  0.1556
21615W        W25915  24.942   5.118  34.433  0.1954  0.1537  0.2104
21616W        W25916   2.321   3.170  30.485  0.0148  0.0230  0.0634
21617W        W25917   5.364   0.169   8.264  0.2378  0.1236  0.0964
21618W        W25918  11.175   1.349  22.454 -0.1087  0.1642 -0.0998
21619W        W25919   7.363   5.099  12.779 -0.4110 -0.1541  0.1094
21620W        W25920   1.175   1.701   7.979 -0.0675  0.0722 -0.2814
21621W        W25921   3.579   1.524  23.762 -0.1755 -0.0299 -0.0063
21622W        W25922  20.026   5.355  22.944 -0.0793 -0.1682  0.1029
21623W        W25923  23.626   4.435  24.652  0.0053 -0.0656  0.0036
21624W        W25924  16.443   3.416  11.364 -0.0223  0.0305 -0.1864
21625W        W25925  19.901   6.205  15.262 -0.5403 -0.0306 -0.1394
21626W        W25926  21.830   4.774  10.146 -0.0231 -0.0225  0.1346
21627W        W25927  13.785   4.860  11.912  0.0931 -0.1236  0.1575
21628W        W25928  14.078   4.685  34.488  0.1199 -0.3328 -0.0748
21629W        W25929  19.376   3.514  11.070  0.3209  0.2677  0.1679
21630W        W25930  23.839   2.959  21.540 -0.4148 -0.0851  0.3537
21631W        W25931  26.087   2.289  24.857 -0.1791 -0.2623 -0.3134
21632W        W25932  10.387   5.140  26.527 -0.1748 -0.0310  0.0515
21633W        W25933   9.798   1.533   3.269  0.2133  0.4784  0.0031
21634W        W25934   0.337   4.373  28.357  0.0024 -0.2596  0.1246
21635W        W25935   1.248   5.682   2.935 -0.0394 -0.0658 -0.1070
21636W        W25936  22.844   0.079  15.037  0.2984  0.1431  0.0068
21637W        W25937  19.080   5.612  15.103 -0.1914 -0.1211 -0.2156
21638W        W25938  15.329   5.344  23.680  0.0218  0.0324  0.1855
21639W        W25939  13.160   0.859  28.943 -0.0547 -0.1325 -0.2128
21640W        W25940  16.303   2.576   5.380 -0.1280  0.1822 -0.0246
21641W        W25941  19.748   4.702  30.911  0.1839  0.3932  0.0962
21642W        W25942  16.169   4.352  35.031 -0.2530  0.2866 -0.0534
21643W        W25943  13.449   3.864   8.820 -0.0420  0.1561  0.0983
21644W        W25944  15.988   3.402   9.997  0.0153 -0.0771 -0.2024
21645W        W25945  25.861   4.824   8.060  0.2126  0.0584 -0.0269
21646W        W25946   4.569   4.436   8.656 -0.2938 -0.5316  0.1378
21647W        W25947   3.896   4.089  34.234 -0.0814 -0.1951  0.0350
21648W        W25948   3.105   0.458  22.194  0.1065  0.0146 -0.1283
21649W        W25949  19.858   3.091  15.669  0.0049 -0.0867 -0.0758
21650W        W25950  17.823   2.198  30.492  0.1282  0.1039  0.0758
21651W        W25951   5.536   6.167   4.535  0.0557  0.0348  0.0089
21652W        W25952   5.759   2.266  15.491  0.0488 -0.0617 -0.1172
21653W        W25953  10.406   5.343  11.145  0.0919  0.0418  0.1085
21654W        W25954  20.429   1.915   0.126  0.0109  0.1068  0.2443
21655W        W25955  22.719   2.189  24.331  0.1546 -0.0185 -0.2027
21656W        W25956  22.668   1.237  13.016  0.1333 -0.0491  0.0059
21657W        W25957   4.741   3.304  12.028  0.1395  0.0898 -0.1316
21658W        W25958   5.324   3.917   7.712 -0.0198  0.1342 -0.1087
21659W        W25959  12.740   0.893  23.437  0.0951  0.2196  0.0061
21660W        W25960  10.615   3.873   6.606 -0.0347 -0.2416  0.1263
21661W        W25961   1.380   0.917  34.558 -0.1370  0.1990 -0.0719
21662W        W25962   4.415   0.074   4.529  0.3891 -0.0897 -0.2729
21663W        W25963  17.992   3.621  21.035 -0.4003 -0.3255  0.0364
21664W        W25964  12.220   6.495  30.879 -0.1873 -0.3288  0.2773
21665W        W25965  22.016   6.058   5.928 -0.0523 -0.0005 -0.1959
21666W        W25966  21.847   5.589  33.228 -0.0449 -0.1007  0.0964
21667W        W25967  19.361   2.370   8.523  0.1754  0.0957  0.1353
21668W        W25968   2.335   0.471   2.333  0.1525  0.0716  0.3850
21669W        W25969  11.630   2.171   0.193 -0.1462 -0.2174 -0.1910
21670W        W25970   5.657   4.510   6.173 -0.1434  0.2143 -0.0792
21671W        W25971   1.548   3.788   8.016  0.1544  0.0600  0.2556
21672W        W25972   9.862   3.154  33.910  0.1428 -0.0188 -0.0900
21673W        W25973  18.540   0.158  10.067 -0.0346  0.2359 -0.4232
21674W        W25974   5.556   4.614  33.295  0.0563 -0.1329 -0.0975
21675W        W25975   6.818   2.131  13.615  0.0150 -0.3433  0.1734
21676W        W25976   7.504   5.496  34.282  0.0642  0.1895  0.0557
21677W        W25977  13.318   2.518  11.775  0.0252 -0.2653 -0.0671
21678W        W25978   4.964   1.781  24.563  0.0400 -0.4214 -0.2108
21679W        W25979  22.269   3.170  34.146  0.0088  0.1105 -0.1631
21680W        W25980  18.274   5.945   9.757 -0.3150 -0.0806  0.1739
21681W        W25981  10.465   3.858  30.608  0.0547 -0.1834  0.0198
21682W        W25982  20.448   6.193  31.244  0.1052  0.0997 -0.2232
21683W        W25983  21.213   6.093  28.820  0.0728  0.0722  0.3244
21684W        W25984  18.708   4.297  24.787  0.1257 -0.2404  0.1475
21685W        W25985  17.324   1.054   3.523 -0.1761 -0.0505 -0.2507
21686W        W25986  20.974   1.387  25.547  0.0664  0.1024  0.0428
21687W        W25987   5.627   2.210  23.570 -0.1280 -0.2696  0.2353
21688W        W25988   4.629   4.921   6.064  0.1228  0.2783 -0.1928
21689W        W25989   8.516   4.071   3.642  0.0668  0.2240 -0.0618
21690W        W25990   5.513   4.996  27.268 -0.2043 -0.3361 -0.2873
21691W        W25991  17.701   1.187  13.237 -0.4628 -0.2506  0.0551
21692W        W25992  14.682   2.992  23.769 -0.0253  0.0417 -0.0799
21693W        W25993  12.369   6.083   7.925 -0.1320 -0.0022 -0.0180
21694W        W25994  12.431   5.068  28.749 -0.2814  0.1081 -0.1390
21695W        W25995  21.201   3.683  22.948 -0.0215  0.1594  0.0576
21696W        W25996  16.877   4.718  33.216 -0.0987  0.3292 -0.2320
21697W        W25997  13.231   2.969  24.797 -0.1782 -0.0263  0.1088
21698W        W25998  17.383   4.354   4.406  0.0847  0.1463 -0.0059
21699W        W25999  25.333   3.491  33.151  0.0175 -0.0281  0.2519
21700W        W26000  13.297   1.249   3.101  0.2248  0.1890 -0.1539
21701W        W26001  11.211   5.471  13.031 -0.0829  0.1137  0.2295
21702W        W26002   6.272   0.942  24.684  0.2203 -0.0229  0.3431
21703W        W26003  16.041   3.562  22.159  0.2671 -0.3801 -0.2446
21704W        W26004  10.593   0.454  23.176  0.1874  0.2469 -0.0715
21705W        W26005   6.575   2.975  27.224  0.0610  0.0646  0.2718
21706W        W26006  15.896   5.982  36.050  0.0336  0.1394  0.0914
21707W        W26007   7.279   5.054  24.666  0.2847 -0.0655 -0.1462
21708W        W26008  11.760   3.073  22.065  0.0269  0.0388 -0.1292
21709W        W26009  11.455   3.780  33.379 -0.1797 -0.0299 -0.0214
21710W        W26010  26.326   4.609  32.103  0.1845 -0.0533 -0.0828
21711W        W26011   7.342   1.184   5.319 -0.2031 -0.1286 -0.1640
21712W        W26012   3.906   4.523   9.925 -0.0415  0.1474  0.3762
21713W        W26013   4.715   3.389  33.210 -0.0841  0.3870  0.1056
21714W        W26014   9.156   3.068   4.602  0.3878  0.1977 -0.1330
21715W        W26015  10.988   0.953   9.270 -0.1168  0.0493  0.0804
21716W        W26016  23.090   5.732  30.363  0.2169 -0.1762  0.1354
21717W        W26017  14.479   4.425  25.033 -0.0109 -0.0935 -0.1400
21718W        W26018  26.255   2.863   8.068  0.2505 -0.0352  0.2338
21719W        W26019   0.065   1.410  13.134  0.1462 -0.0990  0.1161
21720W        W26020   5.123   5.956  35.501  0.1740 -0.0720  0.0299
21721W        W26021   5.366   4.251  32.989  0.2484 -0.4286  0.0231
21722W        W26022   2.982   2.455  34.843 -0.0939  0.1275  0.1798
21723W        W26023   5.283   4.290   6.416  0.2118  0.1031  0.0273
21724W        W26024  17.795   5.394  23.508 -0.1400 -0.2241  0.2064
21725W        W26025   4.664   0.695  24.477 -0.1657 -0.0821  0.1799
21726W        W26026  20.288   5.812  12.015 -0.0230 -0.1773 -0.0814
21727W        W26027   2.019   1.682  12.651 -0.1706 -0.2236 -0.2695
21728W        W26028   1.996   6.334   5.572  0.1485 -0.2039  0.1867
21729W        W26029  17.831   5.651  34.470 -0.0098 -0.2287 -0.1729
21730W        W26030  11.744   5.075   4.954  0.0534  0.1980  0.0598
21731W        W26031  20.557   2.883   3.958 -0.1103  0.2661  0.0754
21732W        W26032  17.739   1.978   1.243 -0.3557 -0.0465  0.1382
21733W        W26033  17.959   1.583   5.381  0.0811 -0.0245 -0.0739
21734W        W26034   0.279   4.973   3.184  0.2111  0.4483  0.0705
21735W        W26035   6.575   2.697  36.031 -0.1691  0.0809  0.0011
21736W        W26036   1.904   0.611  29.941  0.1419 -0.3525 -0.1152
21737W        W26037   6.858   5.465  28.907 -0.0208 -0.2444  0.0445
21738W        W26038  15.591   4.646  10.774  0.0648  0.1315 -0.3642
21739W        W26039  26.168   3.791   6.887 -0.1286  0.1357  0.1881
21740W        W26040  23.217   6.241  34.846 -0.0552 -0.1563  0.1003
21741W        W26041  23.427   4.823  34.880  0.3385 -0.3155 -0.1114
21742W        W26042  13.509   3.059   4.224 -0.2096  0.2385  0.3599
21743W        W26043  13.192   1.277  23.176 -0.0092 -0.3505 -0.3942
21744W        W26044  12.350   5.621   7.707 -0.1247  0.0014  0.2262
21745W        W26045  13.275   4.201   8.499 -0.1842  0.1942  0.1150
21746W        W26046   8.605   0.372   4.277  0.0209 -0.1443  0.0332
21747W        W26047   0.368   2.556  20.472 -0.1152  0.0592  0.0991
21748W        W26048  26.200   1.921  29.139 -0.1592  0.1889 -0.2643
21749W        W26049   8.928   3.821  21.694  0.1980 -0.1019  0.1977
21750W        W26050  14.098   5.704   0.685 -0.0988  0.1434  0.1556
21751W        W26051  19.817   3.470   7.763 -0.0002  0.0839  0.0597
21752W        W26052  12.942   2.401  34.269 -0.0525  0.0287 -0.1262
21753W        W26053  25.784   3.631  13.914 -0.0129 -0.3279 -0.2956
21754W        W26054  13.953   1.580   6.406  0.0579 -0.2038  0.1324
21755W        W26055  17.472   0.307   0.851 -0.1632 -0.3141  0.0181
21756W        W26056  11.754   0.009   9.880 -0.1198  0.0660  0.2150
21757W        W26057   2.781   1.948   1.327 -0.0688  0.0105  0.3748
21758W        W26058  23.545   6.213  21.602 -0.0824  0.1537  0.2497
21759W        W26059  23.860   4.791  11.269  0.1470  0.1095 -0.3023
21760W        W26060  18.234   2.164   3.407 -0.1551 -0.0643 -0.1092
21761W        W26061   9.965   0.331  29.234 -0.1066 -0.0024  0.0544
21762W        W26062  11.788   1.747   8.316  0.1757 -0.3423 -0.2774
21763W        W26063  24.746   4.258   2.453 -0.1285  0.0916  0.0917
21764W        W26064  18.323   4.887  34.419 -0.0304 -0.0562  0.1403
21765W        W26065   8.031   5.890  28.497 -0.2932  0.1209 -0.1520
21766W        W26066   3.124   2.837  34.357 -0.0144  0.2088  0.1327
21767W        W26067   6.843   4.607   9.692  0.0136 -0.0583  0.2076
21768W        W26068  22.179   6.143   2.999 -0.0771  0.2995  0.1343
21769W        W26069  16.564   0.391  32.931  0.0235  0.0690  0.0266
21770W        W26070   7.248   0.046  14.226 -0.1060  0.1294 -0.0041
21771W        W26071  23.307   4.309  34.702  0.0658  0.1430  0.2930
21772W        W26072  16.285   2.904   4.252  0.1733 -0.1939 -0.1038
21773W        W26073  25.741   1.051  33.493 -0.3611  0.1599  0.1717
21774W        W26074   5.617   5.333  29.813 -0.0102  0.2824  0.1113
21775W        W26075  11.803   6.380   6.203 -0.0196  0.1326  0.0654
21776W        W26076  21.878   2.998  28.671  0.3084 -0.0329 -0.1621
21777W        W26077   6.606   5.023  19.962  0.2398 -0.2341  0.1225
21778W        W26078  25.774   5.488   0.302  0.0914 -0.0096 -0.0557
21779W        W26079  26.212   3.753   0.785  0.1146 -0.0229 -0.2681
21780W        W26080   2.521   5.739   2.984 -0.3039  0.0201 -0.0777
21781W        W26081   9.717   0.836   2.646  0.0789  0.0160  0.0029
21782W        W26082  17.625   6.343  10.258  0.0503  0.0455 -0.0354
21783W        W26083  22.898   2.071  12.731 -0.2859 -0.0444  0.2641
21784W        W26084  19.438   5.173  21.648  0.1059  0.1508  0.0431
21785W        W26085   3.458   5.668  23.703  0.0190 -0.0747 -0.1670
21786W        W26086  12.948   2.925   2.292  0.2374  0.0827 -0.0583
21787W        W26087  12.997   4.362  31.803 -0.0028 -0.0412  0.2053
21788W        W26088  10.164   5.760  25.911  0.0399 -0.0865  0.2093
21789W        W26089  13.051   4.538  26.637  0.0791 -0.0963  0.3754
21790W        W26090   8.945   0.394  23.803 -0.0707 -0.2755 -0.0303
21791W        W26091  23.412   0.545  30.827  0.2369  0.1753  0.4637
21792W        W26092   3.638   1.094  26.777  0.0756  0.1372 -0.3367
21793W        W26093  24.239   1.521  22.357  0.0084  0.2221  0.0305
21794W        W26094  22.604   5.849  13.791  0.2634 -0.1190  0.0108
21795W        W26095  20.731   1.925  14.589 -0.0812  0.1945  0.0724
21796W        W26096  11.339   5.005  11.011 -0.0561 -0.1947 -0.1639
21797W        W26097  14.508   5.688  33.435 -0.0663 -0.3979 -0.0402
21798W        W26098  19.147   4.529  14.535 -0.1960 -0.1614  0.0386
21799W        W26099   9.633   6.217  20.604  0.5888  0.0187  0.0762
21800W        W26100  11.576   1.421  21.889 -0.0373 -0.3268 -0.0909
21801W        W26101  21.006   5.808  29.317 -0.0694 -0.0247 -0.0434
21802W        W26102  21.883   4.737  15.285  0.0079  0.2636  0.2218
21803W        W26103  17.882   6.507  14.365  0.1654  0.3721 -0.2546
21804W        W26104  14.487   0.643   9.698 -0.1310  0.1731  0.1396
21805W        W26105  11.080   1.884   8.381  0.1459  0.0984  0.1469
21806W        W26106  10.903   5.959   4.714 -0.1186  0.0275 -0.1993
21807W        W26107   1.242   0.574  32.044  0.1033 -0.2333 -0.1063
21808W        W26108  21.603   2.397   7.988 -0.0026 -0.3135 -0.1346
21809W        W26109  16.275   2.253  14.411 -0.1991 -0.1538 -0.5441
21810W        W26110  23.404   5.535   2.889  0.3661 -0.0469  0.2482
21811W        W26111   9.766   5.403  23.163 -0.0658 -0.0418 -0.2835
21812W        W26112  10.642   5.061  29.639 -0.1183  0.0256  0.0852
21813W        W26113  23.183   0.156  15.897 -0.1265  0.1782 -0.0435
21814W        W26114   9.236   5.756  28.294  0.1342 -0.1214  0.1987
21815W        W26115  11.193   4.434   6.906  0.0361  0.1761 -0.0098
21816W        W26116  23.451   3.967  26.966  0.2823  0.0875  0.0044
21817W        W26117   9.510   4.709  10.932  0.0594  0.0350  0.1847
21818W        W26118  18.678   4.019  31.142  0.1525 -0.0511  0.0129
21819W        W26119  10.733   4.791  31.263  0.4362 -0.4229  0.0223
21820W        W26120  25.146   0.075  22.523  0.4130 -0.0215  0.2080
21821W        W26121  11.879   5.601  34.942  0.0416  0.0370  0.4524
21822W        W26122   3.276   4.995   4.118 -0.0502 -0.1098 -0.0878
21823W        W26123  22.940   1.904   5.607 -0.0781  0.1510 -0.0338
21824W        W26124  23.401   3.345  28.911 -0.0135 -0.4405 -0.2252
21825W        W26125   1.733   1.263   2.697 -0.0791 -0.3432  0.2251
21826W        W26126   6.944   1.214   2.982  0.1344 -0.1806  0.0307
21827W        W26127  22.285   0.242  27.759  0.0129 -0.0722  0.0006
21828W        W26128   0.129   1.328   8.834  0.1388 -0.0450 -0.2409
21829W        W26129  24.202   1.385   4.751 -0.0246  0.0916 -0.1524
21830W        W26130   7.650   0.087  23.799 -0.0578 -0.0537 -0.2435
21831W        W26131  19.505   4.267  33.225 -0.0974 -0.0081  0.3228
21832W        W26132   1.608   1.857  14.067 -0.0201  0.2378 -0.1207
21833W        W26133   0.646   2.707  21.625 -0.1082 -0.1954  0.1575
21834W        W26134  24.294   2.934  11.959 -0.0415  0.4068 -0.1504
21835W        W26135   9.237   2.195  26.408  0.1176  0.0681 -0.2332
21836W        W26136  21.260   2.005  26.467  0.0958 -0.0998  0.1933
21837W        W26137  19.039   5.103  24.156 -0.1209  0.2455  0.0006
21838W        W26138  10.776   5.470  21.182  0.2154  0.1088  0.1177
21839W        W26139  13.836   3.575  31.730 -0.0146  0.0500 -0.0823
21840W        W26140  12.313   5.185  12.257 -0.0574 -0.4334 -0.0446
21841W        W26141   6.590   1.532  32.799  0.0634 -0.0600  0.2961
21842W        W26142   2.674   5.090  20.356  0.0547  0.2406 -0.4036
21843W        W26143   0.056   4.339  12.404 -0.3014 -0.1310  0.1421
21844W        W26144   9.830   4.947  34.258  0.2763  0.1230  0.0173
21845W        W26145  15.157   4.248  31.248 -0.0082  0.0602  0.1220
21846W        W26146  18.661   1.097  23.155  0.0440  0.0007 -0.1858
21847W        W26147  19.224   1.759   2.649  0.0019  0.0964  0.0309
21848W        W26148   2.077   4.732  33.895 -0.1470 -0.1702 -0.3701
21849W        W26149  21.997   6.542  31.911  0.0635  0.0141 -0.0805
21850W        W26150  13.321   4.581  35.206  0.0119 -0.1991 -0.0171
21851W        W26151   5.305   3.867  24.929 -0.4053  0.0508 -0.0204
21852W        W26152  10.481   0.354   6.386 -0.0799 -0.0986  0.0022
21853W        W26153   4.112   3.586  10.208 -0.0546 -0.1245 -0.0442
21854W        W26154  10.070   3.054  35.428  0.0492  0.0252 -0.1744
21855W        W26155  11.133   3.934  35.964  0.0359  0.0438 -0.0469
21856W        W26156  19.949   5.789  33.470 -0.3854  0.1977  0.0243
21857W        W26157  21.696   4.667  26.159 -0.0630 -0.2801 -0.0546
21858W        W26158  19.842   3.978   7.238  0.2541  0.2233 -0.0271
21859W        W26159  14.092   2.581  26.430 -0.1424 -0.0754  0.1208
21860W        W26160   4.728   0.443  12.342 -0.0993 -0.0823 -0.1251
21861W        W26161   8.009   3.600   4.194 -0.0858  0.4011 -0.0926
21862W        W26162  17.985   2.715  14.958 -0.0942  0.3191  0.4383
21863W        W26163  15.892   1.521  29.626 -0.0630 -0.0943 -0.1076
21864W        W26164   0.949   2.671  31.311 -0.1913  0.1132  0.1802
21865W        W26165  12.968   3.877   1.524 -0.1033 -0.0362  0.1295
21866W        W26166   6.815   6.563   0.701  0.2188  0.2628  0.0017
21867W        W26167  25.564   0.193  13.656  0.2502  0.0154  0.3562
21868W        W26168  19.778   0.023  11.446  0.0578 -0.1712  0.4226
21869W        W26169  26.388   5.339  31.688  0.0625 -0.0150 -0.1151
21870W        W26170  24.340   5.562   2.813 -0.3243  0.1518  0.3173
21871W        W26171   0.891   2.893   7.260  0.0750 -0.1693 -0.2661
21872W        W26172  25.205   4.225  29.124  0.0270 -0.0897  0.3147
21873W        W26173  25.293   5.591   0.194  0.3222  0.0236 -0.1529
21874W        W26174   8.320   4.113  30.981  0.1103  0.0804 -0.0729
21875W        W26175  20.246   6.484  15.028  0.1409  0.0730 -0.1679
21876W        W26176  16.306   6.388  12.810  0.0083 -0.2237 -0.2511
21877W        W26177  20.768   6.113  33.385 -0.1263  0.0237 -0.1570
21878W        W26178  21.427   2.351  14.234 -0.1158 -0.1483 -0.0221
21879W        W26179  12.820   5.287  35.234  0.2147 -0.2150  0.3915
21880W        W26180  21.775   4.326  24.623  0.2918 -0.1635  0.1771
21881W        W26181  20.579   4.895   8.743 -0.1486  0.1772  0.1091
21882W        W26182  13.021   1.700  33.089 -0.1464 -0.1113 -0.1422
21883W        W26183  21.258   0.605  13.136  0.1586  0.2311  0.3051
21884W        W26184   2.996   2.764   7.479 -0.2679  0.0182  0.1757
21885W        W26185  26.156   3.264   2.247  0.0867  0.2758  0.1739
21886W        W26186   6.937   4.998  21.961 -0.2479  0.1622  0.0915
21887W        W26187  16.233   1.343   5.084  0.1341 -0.0383 -0.1529
21888W        W26188   8.460   2.912  29.460 -0.1843  0.0620 -0.1778
21889W        W26189  16.329   5.074  11.987 -0.1678  0.1589 -0.1888
21890W        W26190  20.117   0.850  34.138 -0.0300 -0.3329  0.1027
21891W        W26191   3.756   5.876   8.263 -0.3361 -0.1196  0.0347
21892W        W26192  22.791   0.378  21.752  0.0053 -0.1528 -0.1987
21893W        W26193   4.094   0.020  30.457 -0.1685  0.0211 -0.3422
21894W        W26194  12.521   4.164  14.763  0.0099 -0.1728  0.0572
21895W        W26195  20.570   1.102   9.770 -0.2306  0.0226 -0.2893
21896W        W26196  22.483   5.669  35.007 -0.0410  0.0152 -0.3001
21897W        W26197  11.041   6.517   2.787  0.3394 -0.1706  0.2317
21898W        W26198   0.201   1.683  29.426 -0.0515 -0.0033 -0.0098
21899W        W26199  25.420   2.587  13.584  0.3501 -0.1285  0.0401
21900W        W26200  13.285   0.834  21.456  0.0787  0.2042  0.1095
21901W        W26201  14.900   5.641   9.626 -0.0429 -0.0216  0.1437
21902W        W26202   5.693   1.805  33.401  0.1343 -0.2986 -0.0365
21903W        W26203  12.584   5.009  25.337  0.1413 -0.0386  0.0765
21904W        W26204  23.610   2.457  33.962 -0.0543  0.1058  0.1020
21905W        W26205   7.636   6.128   5.628  0.0233 -0.0576 -0.2075
21906W        W26206  12.339   1.503   7.675  0.3625  0.0950 -0.1305
21907W        W26207   3.847   6.555  27.628  0.4098  0.1349 -0.1635
21908W        W26208  21.366   4.178   9.753  0.2805  0.0089 -0.0588
21909W        W26209   5.684   4.722  13.281 -0.1058 -0.1383 -0.1195
21910W        W26210  11.779   1.296   4.074 -0.0997 -0.0038  0.2890
21911W        W26211   3.990   5.581  14.539  0.0149 -0.0917  0.1815
21912W        W26212  17.081   5.798  25.463 -0.1950  0.1416  0.0136
21913W        W26213  19.428   5.779  12.751 -0.0709 -0.1282  0.0035
21914W        W26214   7.675   2.357  10.812 -0.0297  0.1924  0.0819
21915W        W26215  13.638   3.703   4.373  0.1237 -0.0433 -0.1710
21916W        W26216  22.545   0.964   1.648  0.1247  0.2640 -0.0236
21917W        W26217   9.530   3.097  29.455  0.0887 -0.4258  0.1166
21918W        W26218  24.904   3.354  14.998  0.1932 -0.2542 -0.0578
21919W        W26219   8.670   5.403  14.835 -0.0660  0.0750  0.1778
21920W        W26220  24.286   3.572   8.010 -0.1899 -0.0433  0.3103
21921W        W26221  11.017   0.346   7.493  0.2356  0.1545  0.2837
21922W        W26222  13.735   3.951  34.779 -0.1362  0.1017 -0.1849
21923W        W26223  14.398   3.513  24.556 -0.0538  0.0395 -0.0418
21924W        W26224   9.027   0.370  33.701  0.4813 -0.1872 -0.2562
21925W        W26225   0.649   0.930  22.506 -0.2963  0.0392 -0.0754
21926W        W26226  18.380   4.777  21.638 -0.0805 -0.4032  0.2128
21927W        W26227  20.442   1.560   3.603 -0.1637 -0.0837  0.0260
21928W        W26228   6.948   2.915  12.088 -0.1884  0.2740  0.1033
21929W        W26229  22.958   6.422   7.767  0.1029 -0.0857 -0.0205
21930W        W26230  24.137   1.626  30.553 -0.2415 -0.0375 -0.3918
21931W        W26231  15.892   6.533  14.668 -0.0141  0.0376 -0.1252
21932W        W26232   2.689   5.617   1.447 -0.3056 -0.0583 -0.1591
21933W        W26233   9.333   5.053  15.317  0.0742 -0.1418 -0.1844
21934W        W26234  15.431   5.037   8.868 -0.0878 -0.0001  0.0829
21935W        W26235   3.989   0.101  13.704  0.1149 -0.0664  0.0330
21936W        W26236  20.656   2.342   5.686  0.1411 -0.0033  0.3476
21937W        W26237   9.357   0.945   7.413 -0.0348  0.0493  0.1193
21938W        W26238   7.723   4.787  24.932  0.2409  0.3130  0.0351
21939W        W26239  21.532   3.253   8.408  0.0065  0.0915 -0.1211
21940W        W26240  14.985   5.240   2.287  0.0920  0.1119  0.0210
21941W        W26241  23.370   2.239  31.123 -0.0451 -0.4394 -0.1443
21942W        W26242  18.905   4.713  21.780  0.1153 -0.2101  0.1468
21943W        W26243  19.377   3.316  23.299 -0.2842 -0.3051  0.0029
21944W        W26244  23.155   0.532  20.634 -0.3253  0.0580  0.4798
21945W        W26245  20.891   1.444  14.138  0.1545  0.1264  0.0525
21946W        W26246  18.013   1.966  27.781  0.0348 -0.1008 -0.1511
21947W        W26247  15.386   5.423  34.782  0.0755  0.1911  0.2190
21948W        W26248   7.516   5.866   2.079 -0.1022 -0.0364 -0.1135
21949W        W26249  12.746   5.904  34.372  0.2334  0.1352 -0.0516
21950W        W26250   8.073   6.043  12.582  0.1749  0.1836 -0.1801
21951W        W26251   8.321   2.774   5.596  0.0061  0.1029  0.1413
21952W        W26252  20.738   0.894   7.345 -0.2128  0.1382 -0.2458
21953W        W26253  12.567   5.025   1.279  0.1530 -0.0592  0.0594
21954W        W26254  21.474   1.861   4.644 -0.1012  0.0873  0.0346
21955W        W26255  19.274   4.795  21.369  0.1320 -0.5441 -0.5236
21956W        W26256  17.548   1.522   6.768 -0.2135  0.1569 -0.3436
21957W        W26257   9.934   0.314  25.791  0.0933  0.0415 -0.2079
21958W        W26258  19.277   4.963   5.705  0.0503 -0.1088  0.2039
21959W        W26259  20.098   6.211  29.760  0.0946  0.1118  0.0139
21960W        W26260   2.067   4.630  34.760 -0.0111  0.0745 -0.1318
21961W        W26261  14.646   5.331  11.574 -0.0152  0.0417 -0.0947
21962W        W26262   0.792   3.177  26.474  0.0135 -0.1303  0.2938
21963W        W26263  20.060   2.050  13.880  0.0339  0.0146 -0.1846
21964W        W26264  22.865   2.365   9.282  0.0783  0.0889  0.0837
21965W        W26265  11.564   5.102   3.158  0.4178 -0.0991 -0.0288
21966W        W26266  19.461   0.041   5.458  0.1772 -0.2188 -0.0549
21967W        W26267   5.789   3.858   0.964  0.0484 -0.2692 -0.1343
21968W        W26268  17.852   5.672  23.967  0.2849 -0.1161 -0.0517
21969W        W26269  18.734   3.511  15.340 -0.0762 -0.1198 -0.1142
21970W        W26270   4.767   2.198  32.210  0.0432  0.2714  0.0183
21971W        W26271  15.516   1.398   3.391  0.0078  0.0341  0.0295
21972W        W26272  25.060   2.620   3.012  0.1822  0.0326 -0.3436
21973W        W26273   8.656   3.347  13.267 -0.2580  0.0093  0.1258
21974W        W26274  14.308   6.560   1.360 -0.2758 -0.2454  0.0715
21975W        W26275  14.404   3.813  33.488 -0.0821 -0.2160 -0.0768
21976W        W26276  15.282   1.362  13.986 -0.0773  0.1082  0.2239
21977W        W26277  24.553   1.259   7.458  0.0500 -0.2833 -0.0874
21978W        W26278  13.606   1.747  24.525  0.3121  0.0584 -0.0395
21979W        W26279  17.295   2.299   2.479  0.0601  0.0077  0.0821
21980W        W26280   8.667   4.007  35.563 -0.0547 -0.0065 -0.0699
21981W        W26281  19.557   5.010   1.309  0.0353  0.0323 -0.1322
21982W        W26282  17.803   2.876   6.762 -0.2449 -0.1992 -0.0062
21983W        W26283   8.525   5.669  22.185  0.0790 -0.4009 -0.0240
21984W        W26284  13.133   4.988  24.167  0.0215 -0.2316  0.1427
21985W        W26285   8.834   5.821  24.697  0.1714 -0.1529  0.0044
21986W        W26286   7.297   5.466  31.459 -0.4894 -0.1784  0.1161
21987W        W26287   7.876   3.241  30.088 -0.0646 -0.1678  0.0542
21988W        W26288  21.647   4.208   4.350 -0.0766 -0.0751 -0.0808
21989W        W26289  20.958   2.581  27.580  0.0118 -0.0485 -0.0895
21990W        W26290  12.067   3.013  29.515  0.1457 -0.2310 -0.0983
21991W        W26291   7.465   0.339  26.475 -0.0044  0.1269 -0.2108
21992W        W26292  19.201   4.664  24.423  0.1836 -0.1936 -0.0737
21993W        W26293  13.497   4.264  25.395 -0.3026 -0.0221  0.0593
21994W        W26294  13.492   4.587  33.939 -0.3667 -0.2511 -0.2788
21995W        W26295  19.935   4.447  14.153 -0.0163 -0.1983  0.1097
21996W        W26296  13.629   5.760  14.006  0.3369 -0.0196  0.3405
21997W        W26297  15.575   2.007  32.575  0.1543 -0.1333 -0.1318
21998W        W26298  12.056   4.562  15.074 -0.1436 -0.0933  0.0147
21999W        W26299  21.721   2.721  27.592  0.0033 -0.0501  0.1045
22000W        W26300   4.659   2.763  26.867  0.1353  0.0074  0.0062
22001W        W26301  25.341   4.165  14.586  0.0989 -0.3070  0.3263
22002W        W26302  13.717   5.731  33.255  0.0165  0.3567 -0.1964
22003W        W26303   8.017   0.743  11.372 -0.0431 -0.2513 -0.1341
22004W        W26304   4.089   0.991   7.208 -0.2521  0.1687 -0.1123
22005W        W26305  14.051   0.433  13.484 -0.0781 -0.0166  0.1457
22006W        W26306  12.260   0.298  25.112 -0.0804  0.0642 -0.3584
22007W        W26307  25.612   3.285  27.654 -0.1361 -0.0628 -0.1274
22008W        W26308  25.754   6.119  21.721 -0.1210 -0.1319  0.1135
22009W        W26309  11.692   2.195  11.606 -0.2831  0.1516  0.0603
22010W        W26310  15.310   5.134  12.606 -0.1747  0.1773 -0.2048
22011W        W26311  21.038   4.027   0.623  0.0394 -0.1017 -0.2002
22012W        W26312   8.911   2.981  12.087 -0.2854 -0.1430  0.1817
22013W        W26313   0.889   6.048   1.556 -0.0004 -0.0150  0.3125
22014W        W26314  11.644   4.185  26.835  0.2797  0.0342  0.0655
22015W        W26315  23.272   1.019  24.328 -0.2215 -0.2709 -0.1088
22016W        W26316  10.698   0.767   2.659  0.0221  0.1842 -0.0475
22017W        W26317  20.325   3.260  23.097 -0.1476 -0.2247 -0.2421
22018W        W26318   4.648   2.729  29.489 -0.2248  0.1041 -0.3514
22019W        W26319  20.977   3.279  26.622  0.0838  0.3058 -0.0444
22020W        W26320  14.111   2.757   9.898  0.1052  0.3099  0.2138
22021W        W26321   0.944   6.136   0.445 -0.2549 -0.1911  0.1759
22022W        W26322  25.540   5.041  33.647 -0.0628 -0.2224  0.0695
22023W        W26323   5.349   0.064  23.732  0.2311  0.0281  0.2115
22024W        W26324   0.662   5.122  36.142  0.0765  0.2787 -0.1288
22025W        W26325  17.385   0.812  14.204  0.2132  0.0677  0.0050
22026W        W26326   0.189   0.312   4.580  0.0158  0.0724  0.0423
22027W        W26327  25.337   5.933  15.052 -0.0254  0.0805 -0.1200
22028W        W26328  11.832   3.441  25.748  0.0411 -0.3005 -0.2522
22029W        W26329  23.004   1.051  33.339  0.0545  0.0132 -0.4284
22030W        W26330   3.554   5.288   1.512 -0.4322 -0.2430  0.0681
22031W        W26331  18.848   3.782  10.996 -0.2521  0.1286  0.1085
22032W        W26332  24.299   1.250   6.659 -0.1011 -0.1782  0.3691
22033W        W26333  16.853   3.088  12.101  0.1160  0.0519  0.0191
22034W        W26334   9.399   1.481  22.429  0.0184 -0.1543  0.0658
22035W        W26335   7.325   2.741  29.971 -0.0543  0.0149  0.0564
22036W        W26336  22.425   1.744  26.097 -0.2130 -0.0378 -0.0470
22037W        W26337   5.138   3.268   0.739  0.0437  0.2931 -0.0194
22038W        W26338   0.716   5.705  10.052  0.1468 -0.0140 -0.2245
22039W        W26339  21.352   3.188  23.915  0.0817 -0.2745 -0.2911
22040W        W26340  13.418   1.852   8.577 -0.1314  0.1952 -0.1060
22041W        W26341  13.020   4.323  29.126  0.1735 -0.1633 -0.2292
22042W        W26342   3.220   6.558  29.339 -0.3186 -0.2032  0.0086
22043W        W26343   0.036   2.066  28.741 -0.2220 -0.2888  0.1301
22044W        W26344   2.798   3.917  34.813 -0.0718 -0.1888 -0.0146
22045W        W26345  12.325   2.405   5.722  0.2388  0.1520  0.0578
22046W        W26346   1.442   6.397  28.068 -0.0189  0.1780  0.0374
22047W        W26347  12.509   1.408   9.620  0.2904 -0.2372 -0.2966
22048W        W26348  23.201   4.529  14.862  0.1483 -0.0750  0.2072
22049W        W26349   9.639   2.673   8.266 -0.0540  0.0787  0.0401
22050W        W26350  17.923   4.339  24.960  0.0540 -0.0647  0.2032
22051W        W26351  16.649   3.039  29.752 -0.1262  0.0565  0.2229
22052W        W26352   9.622   0.190  32.886  0.0817  0.0148 -0.3023
22053W        W26353   0.762   2.795  31.807 -0.0327  0.2383  0.3063
22054W        W26354  15.969   2.108  22.258 -0.3284  0.0251  0.2089
22055W        W26355   0.769   3.296  33.213 -0.0816 -0.1569 -0.2776
22056W        W26356  10.215   1.458   2.492  0.0313 -0.1243 -0.0973
22057W        W26357   9.489   6.435  12.797 -0.2856 -0.0242 -0.1191
22058W        W26358   1.359   3.535  33.357 -0.0788  0.0625 -0.0391
22059W        W26359  24.221   0.059  31.703 -0.2032 -0.0956  0.0664
22060W        W26360  14.817   0.121   3.478  0.1502 -0.1770  0.1821
22061W        W26361  21.886   4.539  33.373  0.4774 -0.0943  0.2050
22062W        W26362  10.303   0.194  26.785 -0.2300 -0.0773  0.2915
22063W        W26363   6.324   1.889   6.189  0.2479  0.0243 -0.1267
22064W        W26364  21.975   5.868  32.823  0.0535 -0.1032 -0.1481
22065W        W26365  19.646   4.530  13.147 -0.0524 -0.0441  0.0444
22066W        W26366  25.390   0.598   2.450 -0.0907  0.1885 -0.0226
22067W        W26367  15.402   1.737  24.419 -0.1893  0.1955 -0.0917
22068W        W26368  25.237   0.305  31.835  0.1498 -0.2748  0.2210
22069W        W26369  14.753   0.610  14.361 -0.2151 -0.0228 -0.1558
22070W        W26370  17.464   1.924  26.495  0.0012  0.0103  0.0881
22071W        W26371  12.044   1.094  32.034 -0.0968 -0.5670 -0.3702
22072W        W26372  23.605   4.952  28.255 -0.1253  0.0625  0.1196
22073W        W26373   5.950   2.259  10.936 -0.0213 -0.0618  0.6498
22074W        W26374   1.135   3.278  26.830 -0.1929 -0.0650  0.0803
22075W        W26375   9.132   4.060  27.949 -0.0558  0.2535 -0.0926
22076W        W26376  15.990   1.703   3.781 -0.1804 -0.2034  0.0784
22077W        W26377  12.654   0.579  34.587  0.1812  0.1611  0.0748
22078W        W26378   6.451   5.901  35.172 -0.2194  0.2227 -0.1104
22079W        W26379  22.189   5.530  34.542  0.1602  0.0397  0.0422
22080W        W26380  14.899   4.574  13.092 -0.1845  0.0914 -0.0106
22081W        W26381  16.260   6.194   6.008  0.1732  0.0190  0.0928
22082W        W26382   2.345   4.557   6.306 -0.2592  0.1381  0.2270
22083W        W26383  12.739   0.943  10.605 -0.0580  0.1024  0.2052
22084W        W26384  10.643   4.911   5.805 -0.0278  0.1910 -0.0205
22085W        W26385  13.723   3.872  24.087  0.0551  0.0699 -0.0736
22086W        W26386   5.336   5.998  34.625  0.0898 -0.0590 -0.2193
22087W        W26387  25.491   4.937   2.803 -0.0249  0.0998  0.0175
22088W        W26388  14.049   4.403  13.118 -0.2184 -0.0371 -0.1488
22089W        W26389  26.353   4.400   1.595  0.1932 -0.1902  0.0773
22090W        W26390   7.834   2.699  12.534  0.0742 -0.1134 -0.0894
22091W        W26391  21.601   4.870   8.498 -0.2303  0.2088  0.1673
22092W        W26392  15.010   5.532   4.398  0.1995  0.1117 -0.2244
22093W        W26393   9.875   4.799   6.155 -0.1578 -0.2984 -0.0011
22094W        W26394  24.205   6.031  35.391 -0.0953  0.0081 -0.0605
22095W        W26395  11.152   4.294  29.058  0.2607 -0.0461 -0.0592
22096W        W26396  14.732   6.509  23.296  0.1333  0.1502 -0.1395
22097W        W26397  25.779   2.507  26.661  0.0482  0.0646 -0.0379
22098W        W26398   9.311   0.784  28.689 -0.1259 -0.4319 -0.3114
22099W        W26399   7.264   4.036  35.843 -0.0256 -0.0157  0.2635
22100W        W26400  25.521   4.019  22.289  0.2127  0.0464  0.1499
22101W        W26401  17.435   2.536  25.262 -0.1159 -0.0211 -0.1648
22102W        W26402   2.091   0.554   5.544  0.0818 -0.0433 -0.0057
22103W        W26403   3.983   3.659  11.634 -0.0228 -0.1334  0.0379
22104W        W26404  17.327   4.670  33.520  0.1656  0.0572 -0.1060
22105W        W26405   0.162   6.535  22.315 -0.2170  0.2353 -0.2189
22106W        W26406  12.188   5.508   4.149 -0.2332 -0.1778  0.1916
22107W        W26407  14.084   0.597  10.164  0.2687 -0.1037 -0.2173
22108W        W26408  14.448   1.432  11.152  0.0714 -0.2524  0.1161
22109W        W26409   6.666   3.596   2.966 -0.0554 -0.0044  0.0823
22110W        W26410  25.767   4.724  26.153  0.0867 -0.0500  0.0534
22111W        W26411  24.176   3.195   1.302 -0.1788 -0.0365 -0.3263
22112W        W26412  24.123   5.576  13.719 -0.0813 -0.0961 -0.2658
22113W        W26413  13.846   6.563   8.826  0.2055  0.0524  0.2032
22114W        W26414   6.884   5.790  34.084 -0.3688 -0.0559 -0.2088
22115W        W26415  15.933   0.867  35.458 -0.0281 -0.1605  0.0185
22116W        W26416  17.421   5.825  34.845  0.0336  0.1255  0.2654
22117W        W26417  25.294   4.021  32.181 -0.2143  0.0846 -0.0046
22118W        W26418  18.622   2.193   0.936 -0.3249  0.1178 -0.1753
22119W        W26419  21.433   5.293  12.570  0.2547  0.1829  0.1701
22120W        W26420  24.736   1.247  22.448 -0.1080 -0.1781  0.1580
22121W        W26421  16.148   2.622  21.210  0.0263 -0.0437 -0.0184
22122W        W26422  18.175   5.492  35.262  0.2095 -0.1813  0.0282
22123W        W26423   1.356   4.133   1.058 -0.0687 -0.1334  0.0424
22124W        W26424  19.691   1.828   2.945  0.0018 -0.1236  0.0399
22125W        W26425  24.876   3.319  25.492 -0.2215  0.1125 -0.0609
22126W        W26426  13.599   5.580  12.913 -0.0530  0.4230 -0.1935
22127W        W26427  26.039   4.156  28.704  0.1529 -0.0951 -0.1947
22128W        W26428   4.139   2.414  33.120  0.0421  0.0890  0.1307
22129W        W26429   6.662   1.790  27.671  0.1325 -0.1703  0.0509
22130W        W26430   4.122   4.014  12.920 -0.1678 -0.3424 -0.0234
22131W        W26431   8.143   0.505  36.066 -0.2208 -0.0181 -0.3254
22132W        W26432  12.839   4.477  13.363 -0.4022  0.2232  0.0878
22133W        W26433   3.460   3.803  26.127 -0.1295 -0.1531  0.0780
22134W        W26434  21.441   5.259   3.671 -0.0419  0.2720  0.0856
22135W        W26435   7.564   1.462  29.642 -0.1214 -0.2529 -0.0821
22136W        W26436  13.650   5.165  31.471  0.0651  0.1560  0.3221
22137W        W26437   8.812   5.380  29.388 -0.0155 -0.1192  0.0184
22138W        W26438   2.719   1.102   1.754  0.1857 -0.1149 -0.3973
22139W        W26439  23.681   5.641   5.118 -0.0813 -0.0567  0.0048
22140W        W26440  22.914   5.011   1.208  0.0847  0.1894  0.1825
22141W        W26441  18.542   4.330   3.587 -0.0990  0.1786  0.1097
22142W        W26442   0.225   2.525  15.054  0.1848  0.1770  0.1506
22143W        W26443  12.963   4.806  30.978  0.0294 -0.0223  0.2200
22144W        W26444   9.275   6.540   2.368  0.0671  0.3053 -0.0272
22145W        W26445  17.661   0.021   0.300  0.0671 -0.2326 -0.1140
22146W        W26446  22.193   2.672  20.920 -0.0078 -0.0692  0.0218
22147W        W26447  25.200   0.170  30.850 -0.0908 -0.1170 -0.2941
22148W        W26448  20.537   0.119  35.816  0.0774 -0.1172 -0.2762
22149W        W26449  18.215   0.132   8.217 -0.5686  0.0926 -0.0954
22150W        W26450   3.403   5.640   3.786 -0.1602 -0.0460 -0.1223
22151W        W26451  18.604   4.214  23.882  0.2341  0.2169  0.2669
22152W        W26452   0.085   3.544  25.667 -0.3347 -0.0371 -0.0601
22153W        W26453   4.905   0.311  27.127  0.3408 -0.2080  0.0661
22154W        W26454   4.097   4.813   0.201  0.2092  0.2600  0.3237
22155W        W26455  16.368   2.906   8.073 -0.2379  0.0156 -0.1235
22156W        W26456   7.815   2.753  22.306  0.0791 -0.0253  0.1218
22157W        W26457   3.063   6.533  28.308 -0.1502  0.1733  0.2565
22158W        W26458   1.289   3.581  35.278  0.0444 -0.1644 -0.0770
22159W        W26459  15.384   3.193   6.049  0.1476  0.0506  0.1237
22160W        W26460   9.125   0.867  33.077  0.1657  0.3150  0.0421
22161W        W26461   1.021   5.290  21.742  0.0604 -0.0823 -0.1149
22162W        W26462  18.490   4.182  25.281 -0.1596  0.2928  0.0113
22163W        W26463   2.350   3.429   1.121  0.0131  0.1143  0.1130
22164W        W26464   3.603   4.524   8.748 -0.4797 -0.1064 -0.0041
22165W        W26465   2.604   0.398  26.990  0.0163 -0.0569 -0.2258
22166W        W26466   4.537   2.478  11.752  0.2268 -0.3444  0.1146
22167W        W26467  14.539   3.848  11.310  0.1922 -0.0733  0.0251
22168W        W26468  15.392   0.459  11.206 -0.1483 -0.1179 -0.0496
22169W        W26469  16.176   0.383   5.491 -0.0528 -0.0502 -0.1582
22170W        W26470  25.360   3.051  23.080  0.1033 -0.1901  0.2231
22171W        W26471  20.212   2.832  13.688  0.2598  0.0332  0.0483
22172W        W26472   7.797   1.831  10.010  0.1590  0.1940  0.1807
22173W        W26473  15.918   5.583   4.418  0.0228 -0.0085  0.2560
22174W        W26474   3.547   1.990   6.299 -0.1524  0.0552 -0.2934
22175W        W26475   3.337   1.568  29.656 -0.1768  0.0286  0.0006
22176W        W26476   5.517   3.443   9.404  0.1349 -0.3279 -0.1071
22177W        W26477  15.545   2.385  22.469 -0.1848 -0.3494 -0.0461
22178W        W26478  24.418   2.076  26.311 -0.0820 -0.2250 -0.0274
22179W        W26479  24.459   0.962   2.269  0.2149  0.0554 -0.0420
22180W        W26480  19.573   3.543   2.209 -0.3291 -0.0671 -0.4267
22181W        W26481  16.778   1.100  21.769  0.0785 -0.0952 -0.2246
22182W        W26482   6.980   3.711  11.498  0.3403 -0.1980  0.0813
22183W        W26483   0.059   4.401   9.835  0.0220 -0.0192  0.2644
22184W        W26484  19.312   2.618   1.245 -0.1942 -0.1146 -0.2057
22185W        W26485  24.601   1.524  32.555  0.1712 -0.0783 -0.1369
22186W        W26486  22.473   4.916   2.692 -0.1132  0.1199  0.2013
22187W        W26487   0.736   6.228  10.962  0.1126 -0.2203 -0.2498
22188W        W26488  18.099   6.181   3.671 -0.1500  0.2292 -0.1161
22189W        W26489   9.531   0.083  26.005  0.1614  0.2543 -0.0266
22190W        W26490   9.505   1.743  35.323 -0.0117  0.2830 -0.0108
22191W        W26491  12.741   1.657  13.508  0.2336  0.0701  0.0338
22192W        W26492   6.771   4.756  20.882 -0.0719  0.0020  0.2633
22193W        W26493  14.995   4.819  26.668  0.0289  0.2012 -0.2136
22194W        W26494  20.547   5.283  22.188  0.0824 -0.0103  0.1365
22195W        W26495  24.451   5.894  21.769 -0.1194 -0.0774  0.2524
22196W        W26496  19.962   0.226  35.502  0.2945  0.1276 -0.1230
22197W        W26497   5.720   6.149  21.614 -0.1956 -0.0978 -0.0289
22198W        W26498   8.971   5.620  35.151  0.1441 -0.2016  0.0870
22199W        W26499  21.408   0.871  23.168  0.2493  0.2151 -0.1430
22200W        W26500  23.589   3.695   2.998  0.1083  0.0223  0.0020
22201W        W26501  10.796   6.398   7.518 -0.4059  0.2600  0.0077
22202W        W26502  20.119   4.173  28.509  0.0317 -0.1571 -0.2690
22203W        W26503  11.759   1.874  14.434 -0.0254  0.0701 -0.1243
22204W        W26504  17.318   0.858  15.780  0.0919  0.0459  0.1002
22205W        W26505  12.493   0.619  35.075  0.2045  0.1738 -0.0968
22206W        W26506  10.805   2.827  20.776 -0.0148 -0.1855 -0.1636
22207W        W26507  15.707   2.428  11.167  0.0673 -0.0688 -0.0687
22208W        W26508  16.860   5.584  15.666 -0.0226 -0.0468 -0.0907
22209W        W26509  17.231   2.041   3.769 -0.2477  0.1715  0.3078
22210W        W26510  19.844   2.127  26.150  0.1405 -0.1565  0.1207
22211W        W26511  17.335   1.217   7.470 -0.0549  0.0096 -0.1017
22212W        W26512   3.049   5.703  24.650  0.1385  0.1372  0.0230
22213W        W26513  16.359   3.679  32.629 -0.0294 -0.1160 -0.3038
22214W        W26514   3.644   2.038  20.645  0.0213  0.0916 -0.1940
22215W        W26515  15.942   0.643  27.683  0.0104  0.0366 -0.0511
22216W        W26516   0.816   2.729  27.886 -0.2654  0.3052 -0.1073
22217W        W26517  20.028   3.672   3.971  0.2503  0.2208 -0.2381
22218W        W26518  22.825   3.466   4.653 -0.1250  0.1563 -0.2035
22219W        W26519  17.627   5.070  24.387 -0.0717 -0.1558 -0.0237
22220W        W26520  18.327   3.464  22.508  0.4556 -0.0866 -0.1320
22221W        W26521   6.513   5.101  24.074 -0.3437 -0.2901  0.1529
22222W        W26522   3.039   3.246  19.845  0.2113  0.2203 -0.2029
22223W        W26523   4.193   2.929  33.144 -0.1582  0.1101 -0.2408
22224W        W26524  15.871   4.752  35.005 -0.0548  0.1093  0.3520
22225W        W26525   0.946   1.163   6.368 -0.3684 -0.0107  0.0769
22226W        W26526  10.906   0.088  29.153  0.0228  0.1003 -0.2294
22227W        W26527   4.429   2.594  35.635  0.0711 -0.0729 -0.0205
22228W        W26528   0.072   1.433  30.966  0.0531 -0.2408  0.2941
22229W        W26529   7.826   2.111  27.913  0.0993 -0.2274  0.0561
22230W        W26530  11.900   6.360  31.811  0.0354  0.1372 -0.2301
22231W        W26531  13.400   3.077   1.354 -0.1461  0.0681 -0.1918
22232W        W26532  11.695   0.608   7.768 -0.2267  0.2477  0.0763
22233W        W26533   8.467   5.638   1.147 -0.0904  0.2077 -0.0391
22234W        W26534  20.499   0.783   4.628  0.0390  0.1531 -0.0648
22235W        W26535  17.368   5.064   0.836  0.0043 -0.1359  0.0006
22236W        W26536  16.877   0.277  24.141  0.3377 -0.4240 -0.1335
22237W        W26537  18.451   2.014  25.794 -0.3105  0.0124  0.0789
22238W        W26538  10.889   2.260  30.350 -0.0680 -0.1791  0.1970
22239W        W26539  23.416   1.016  20.353  0.0450 -0.1576  0.1488
22240W        W26540   8.526   2.037  12.504  0.4340 -0.2484  0.1564
22241W        W26541  23.484   4.300  34.168  0.2218  0.0622 -0.1459
22242W        W26542  25.292   4.150  12.923 -0.1634 -0.1520  0.1211
22243W        W26543  26.019   2.528   7.261 -0.0880 -0.0738 -0.2607
22244W        W26544  24.097   5.331  35.759 -0.1427  0.1588 -0.1035
22245W        W26545  24.214   5.383  32.132  0.0713 -0.1808  0.0880
22246W        W26546   2.450   5.843  23.568  0.6290  0.0431 -0.0262
22247W        W26547  13.846   0.426  14.701 -0.0552 -0.4823  0.1445
22248W        W26548  17.887   6.332   2.730  0.1039 -0.0756  0.0372
22249W        W26549  11.118   4.662  22.941  0.4085 -0.2228 -0.0860
22250W        W26550   1.527   5.599   6.094 -0.0488  0.1030 -0.0859
22251W        W26551  24.965   5.677  26.798  0.3085  0.0250  0.0885
22252W        W26552   4.908   2.800  35.565 -0.0772 -0.0821  0.1432
22253W        W26553   2.340   1.042  13.294 -0.1116  0.1676 -0.0887
22254W        W26554  18.188   2.310  14.694 -0.2500  0.1128  0.3337
22255W        W26555   8.363   1.717  30.129  0.1653 -0.0590 -0.3393
22256W        W26556   5.030   5.101  27.547 -0.3829  0.0806  0.0181
22257W        W26557  17.696   4.589   4.673  0.5078 -0.1565 -0.0179
22258W        W26558  11.190   0.541   7.931  0.1014  0.1842  0.2269
22259W        W26559  11.445   3.044   7.669  0.0602 -0.0080 -0.0305
22260W        W26560  17.822   5.885  14.954 -0.0005 -0.0703 -0.3294
22261W        W26561  20.673   2.905  30.182  0.2248 -0.0115  0.0099
22262W        W26562   1.978   3.320  20.539  0.2002 -0.1382  0.1040
22263W        W26563   1.286   0.625   5.199 -0.0550 -0.0044  0.0995
22264W        W26564   9.632   6.336   4.303  0.1618 -0.2053  0.4514
22265W        W26565  22.912   0.336  36.086  0.0211  0.2171 -0.0403
22266W        W26566   2.192   1.219   7.841 -0.2233  0.2942  0.1988
22267W        W26567  14.816   0.963  34.814 -0.2234  0.2712  0.1699
22268W        W26568   3.325   1.265   3.333 -0.1284 -0.0494 -0.1332
22269W        W26569   0.190   2.266  22.261 -0.0422 -0.1473 -0.0194
22270W        W26570  14.706   4.456   3.573  0.0612  0.2053 -0.1198
22271W        W26571  22.311   2.627   2.831  0.0411 -0.2515 -0.0769
22272W        W26572  19.766   3.183   2.504  0.0155  0.0087 -0.2940
22273W        W26573   0.459   3.352  25.225 -0.0205  0.0039  0.1460
22274W        W26574  24.142   3.430  28.743 -0.0128  0.1095  0.0605
22275W        W26575  12.810   2.122  14.595 -0.0881  0.2147  0.0188
22276W        W26576  21.146   2.982  30.935  0.0093 -0.3834  0.1883
22277W        W26577  11.838   1.357  12.765 -0.2807  0.3581 -0.0692
22278W        W26578   8.013   1.109  26.010 -0.2145  0.1081  0.2401
22279W        W26579   6.311   5.836   9.564 -0.2799 -0.0962 -0.0004
22280W        W26580  14.989   4.239  12.527 -0.2671  0.0585  0.1108
22281W        W26581  15.346   4.423   6.342 -0.1050 -0.2081  0.0871
22282W        W26582   1.182   0.681   7.938  0.1541 -0.2806 -0.0996
22283W        W26583  18.071   0.705  31.403 -0.2319 -0.2289  0.0451
22284W        W26584  14.061   6.436   7.064 -0.4857 -0.0067  0.3139
22285W        W26585   4.537   2.266  27.651  0.0234 -0.3858 -0.0770
22286W        W26586   0.033   0.425  30.211 -0.2997 -0.0227 -0.0411
22287W        W26587  18.902   2.280   2.075 -0.0038  0.1555  0.0726
22288W        W26588  10.303   6.480  23.328  0.2486  0.1658  0.1362
22289W        W26589  11.564   1.097  34.820  0.0215 -0.0700 -0.0028
22290W        W26590  17.580   4.799  24.970  0.3937 -0.1199 -0.0462
22291W        W26591   8.101   5.969  22.382  0.0878  0.1567  0.0895
22292W        W26592  19.435   0.005   3.803  0.1043  0.0752  0.0933
22293W        W26593   2.313   2.728   5.090 -0.1309 -0.1583 -0.0954
22294W        W26594   4.023   2.054  12.166 -0.0529  0.3109 -0.2036
22295W        W26595  25.586   1.674  24.488  0.0327 -0.3690  0.2124
22296W        W26596  11.673   2.771   0.821 -0.1804  0.1855  0.3074
22297W        W26597   5.815   5.886  25.517 -0.0022  0.1397  0.3055
22298W        W26598  15.074   3.868  33.257 -0.0691  0.0757 -0.1416
22299W        W26599   4.082   4.849   9.559 -0.1091  0.5617 -0.0866
22300W        W26600   4.167   3.144  20.387 -0.0063 -0.0862  0.1561
22301W        W26601   6.330   5.857  28.088 -0.2723 -0.0269 -0.2280
22302W        W26602  24.657   5.102  10.033 -0.2643 -0.0549 -0.1470
22303W        W26603   7.781   5.012  24.448  0.0159  0.0150  0.2589
22304W        W26604   2.527   5.203  34.258  0.0558 -0.0049 -0.3501
22305W        W26605  14.917   4.195  11.608 -0.2706  0.1640 -0.0339
22306W        W26606   8.823   0.471  33.276 -0.1191 -0.0063 -0.0554
22307W        W26607   8.388   1.800  10.161  0.1411  0.1964  0.2208
22308W        W26608   3.882   5.274  34.227 -0.0087  0.2061 -0.1355
22309W        W26609  13.159   5.377  27.187  0.2815  0.1196 -0.2209
22310W        W26610  11.616   4.550   6.612  0.1828 -0.2605 -0.1322
22311W        W26611  16.084   0.195  12.463  0.0408 -0.0084 -0.1656
22312W        W26612  24.172   1.515   7.224  0.1743  0.0730 -0.0018
22313W        W26613  15.538   4.762   8.433 -0.0355  0.2018  0.1785
22314W        W26614  14.475   3.942  28.419  0.0403 -0.0364  0.0928
22315W        W26615   4.601   3.252  22.322  0.0462 -0.1416  0.1779
22316W        W26616  23.008   0.114  14.031  0.1216 -0.0595  0.1231
22317W        W26617   0.754   0.403  15.328 -0.0174  0.2695 -0.0197
22318W        W26618  21.737   5.351  12.957 -0.4530  0.0876 -0.0390
22319W        W26619  23.743   3.424  14.485  0.1416  0.0234  0.2073
22320W        W26620   0.327   2.847   2.990  0.1922  0.0082 -0.0519
22321W        W26621   7.935   2.471   6.337 -0.0412 -0.1195  0.3889
22322W        W26622  16.317   2.784  15.123 -0.2133  0.2127 -0.1315
22323W        W26623  10.183   0.989  35.244 -0.0220  0.1216 -0.0819
22324W        W26624   1.639   1.722   2.851  0.0463 -0.0387  0.0219
22325W        W26625  18.800   3.475  10.164  0.0023 -0.5925 -0.0727
22326W        W26626   0.247   3.865   0.061 -0.1447 -0.1406 -0.1104
22327W        W26627   2.914   5.602  14.253 -0.0192  0.0675  0.2957
22328W        W26628   9.979   5.206   2.630 -0.0499  0.0298 -0.1296
22329W        W26629  14.038   0.498  23.030  0.0467  0.1429  0.1916
22330W        W26630  17.100   2.954  32.466  0.1387  0.4856 -0.0379
22331W        W26631   3.300   4.191  36.083  0.0878 -0.2040 -0.0506
22332W        W26632  23.112   3.542  12.269 -0.0639  0.2304  0.0230
22333W        W26633  22.440   4.764  31.882  0.3230 -0.0042  0.2897
22334W        W26634   4.555   2.162  21.200 -0.2607 -0.2750  0.0006
22335W        W26635  12.179   5.153  13.389  0.0106 -0.0238  0.1091
22336W        W26636  21.089   0.101  35.708  0.2855 -0.2692  0.0574
22337W        W26637   6.870   3.923   6.523  0.1676 -0.3156  0.1763
22338W        W26638  24.538   0.941  14.910  0.0263  0.1473 -0.3023
22339W        W26639   4.863   3.495  34.930  0.1248  0.1107 -0.3081
22340W        W26640  10.801   3.788  35.296  0.1249 -0.2326  0.1829
22341W        W26641  17.733   5.906   1.791  0.3348 -0.0727 -0.3094
22342W        W26642  20.494   5.501   1.862  0.0353  0.0467  0.1913
22343W        W26643  26.025   1.423  14.629  0.3043 -0.0588  0.1336
22344W        W26644   0.064   4.508  23.816  0.3064  0.1025  0.1716
22345W        W26645  15.808   6.197  23.255  0.2349  0.0595  0.2161
22346W        W26646  18.961   5.441  23.392 -0.1489 -0.0527  0.0961
22347W        W26647   5.206   5.014  24.608 -0.1560 -0.0673 -0.1037
22348W        W26648  13.346   2.580   1.588 -0.2501 -0.0994 -0.1207
22349W        W26649   1.856   3.846   3.081  0.0918 -0.0710 -0.0840
22350W        W26650  25.516   0.388  14.317  0.1916  0.1008 -0.0960
22351W        W26651  19.964   2.570  14.020 -0.2926  0.0355 -0.3001
22352W        W26652   0.816   0.915  34.610  0.3408 -0.1316  0.0927
22353W        W26653   9.837   3.947  34.509 -0.1523  0.0587  0.4951
22354W        W26654  10.506   0.239   7.467  0.2207 -0.1844  0.1550
22355W        W26655  20.812   1.823   4.917 -0.1409  0.1144 -0.2357
22356W        W26656  22.668   0.539  27.845 -0.2126 -0.0305 -0.1736
22357W        W26657  20.833   1.338  34.528 -0.1664 -0.1285  0.0590
22358W        W26658  10.104   3.804   6.357  0.0157  0.1607  0.0162
22359W        W26659  10.563   1.075  34.489  0.2402  0.0091 -0.2931
22360W        W26660   3.605   2.354  26.896 -0.0459 -0.4220 -0.0777
22361W        W26661   4.652   2.830  32.257 -0.1896  0.0040 -0.0443
22362W        W26662  17.592   6.249  14.689  0.2983 -0.0303 -0.0531
22363W        W26663   6.612   5.194  10.853  0.0178 -0.0826  0.0825
22364W        W26664  17.418   0.380   7.840  0.1634  0.0923 -0.2487
22365W        W26665   9.011   3.009  13.280  0.4959  0.0963  0.3167
22366W        W26666   3.592   2.100  33.271 -0.2064 -0.1429  0.0320
22367W        W26667   5.344   3.533  15.505  0.0246 -0.0952  0.0243
22368W        W26668  19.476   1.119   1.297  0.1985 -0.0069 -0.0063
22369W        W26669   5.438   1.075  13.315 -0.1550  0.1342  0.3503
22370W        W26670   9.409   3.854  35.017 -0.1376  0.2522 -0.1211
22371W        W26671   8.108   4.979  14.573  0.1327  0.1030  0.2070
22372W        W26672  17.650   4.906   8.474  0.0100  0.3105 -0.2789
22373W        W26673  11.692   3.031  33.772 -0.1535 -0.1054 -0.0191
22374W        W26674  14.450   3.362  15.518 -0.1613 -0.0060  0.2372
22375W        W26675  23.773   1.511  22.014  0.1623  0.1966  0.0192
22376W        W26676  22.240   5.253  29.250  0.2050 -0.0846 -0.1599
22377W        W26677  21.162   6.079  12.212 -0.1057  0.0016  0.0814
22378W        W26678  17.307   1.886  35.115  0.3312  0.0906  0.2785
22379W        W26679   0.382   1.937  29.034  0.1564 -0.3278  0.1082
22380W        W26680   0.710   2.283  10.151 -0.3202 -0.0610  0.3576
22381W        W26681   9.959   2.695  28.364  0.0956  0.2678  0.3171
22382W        W26682   5.308   2.227   7.035  0.0699 -0.2468 -0.1511
22383W        W26683  24.600   3.045  19.807  0.0508 -0.0329 -0.3032
22384W        W26684  13.123   0.116   5.998 -0.3485  0.0502  0.0130
22385W        W26685  21.946   5.593   7.734  0.2638  0.0324 -0.0333
22386W        W26686   6.853   5.447   3.143 -0.0213 -0.1274 -0.4350
22387W        W26687  10.997   5.646  34.259  0.2475 -0.2151  0.1086
22388W        W26688   3.056   4.031  21.768 -0.0384  0.0257 -0.3988
22389W        W26689  12.934   6.385   1.945 -0.0534  0.1013  0.1200
22390W        W26690   8.788   1.555  24.548  0.0642 -0.1989 -0.1451
22391W        W26691   0.890   5.092  32.599  0.0137 -0.0411  0.1565
22392W        W26692  13.688   6.588  26.038  0.2547 -0.1273 -0.1166
22393W        W26693   9.951   2.569   9.385 -0.0230  0.0361  0.1556
22394W        W26694   2.674   0.606   7.823  0.0089 -0.0347  0.0212
22395W        W26695  18.487   0.873  12.233 -0.0665  0.1672 -0.3026
22396W        W26696   5.032   6.465  29.056  0.0523 -0.3876 -0.1574
22397W        W26697  14.275   6.077  28.798  0.0148  0.2138  0.1500
22398W        W26698  15.686   2.360   3.216 -0.3001  0.2200 -0.1143
22399W        W26699  11.344   3.798   8.037 -0.0569 -0.2454 -0.0816
22400W        W26700  16.350   3.764  21.171 -0.1912 -0.0398  0.2993
22401W        W26701  13.305   0.575  13.167  0.0538 -0.1070 -0.4081
22402W        W26702   6.542   4.842   9.371 -0.0402  0.0504 -0.4440
22403W        W26703  14.881   0.403  21.313 -0.1532 -0.2860  0.1373
22404W        W26704  12.230   0.618  34.127 -0.0891 -0.0414  0.2112
22405W        W26705   1.328   5.759   8.596  0.1157  0.1107 -0.2537
22406W        W26706  20.663   5.615  10.342  0.2047  0.0537  0.0629
22407W        W26707  17.237   3.434  10.307 -0.2314  0.0301  0.0605
22408W        W26708  22.695   6.135  28.135  0.0674  0.0511  0.2015
22409W        W26709  10.681   2.587  21.177 -0.0395  0.6257  0.2565
22410W        W26710  19.073   5.933   9.601  0.1225  0.0701  0.2490
22411W        W26711  18.534   1.395   6.746 -0.1455 -0.1501  0.0546
22412W        W26712  14.795   1.656   3.762 -0.0494 -0.0941  0.1602
22413W        W26713  20.865   4.393   9.686 -0.0302  0.0770 -0.1774
22414W        W26714  16.086   3.261  26.718 -0.1034 -0.2273  0.5097
22415W        W26715   6.688   4.471  25.780  0.1321 -0.3256 -0.0351
22416W        W26716   1.334   5.043   5.393  0.0910  0.0021 -0.1705
22417W        W26717  21.502   6.500  31.540 -0.0209 -0.3940 -0.2414
22418W        W26718  14.956   5.577   0.366  0.0051 -0.0544 -0.0341
22419W        W26719  16.470   1.869  28.293 -0.0920 -0.1981 -0.1507
22420W        W26720  25.515   5.541   5.143  0.0917  0.1852 -0.0883
22421W        W26721  10.513   4.269  12.651 -0.0271 -0.1938  0.0565
22422W        W26722  11.892   3.673   6.880  0.0317 -0.0333 -0.0034
22423W        W26723   3.418   2.352   6.736  0.0632  0.3119 -0.0002
22424W        W26724   3.615   0.439  35.676 -0.0618 -0.1967 -0.2646
22425W        W26725   8.018   0.042  11.938 -0.3493  0.1796 -0.1789
22426W        W26726  12.571   2.059  13.235  0.1407 -0.0018  0.0719
22427W        W26727   1.812   0.876  14.267  0.0945 -0.0194 -0.1695
22428W        W26728  12.278   4.647   1.367 -0.1936 -0.2199  0.1694
22429W        W26729  12.103   2.504  21.555  0.2777  0.0184 -0.2624
22430W        W26730  22.153   1.580   8.075 -0.0509  0.0433  0.1450
22431W        W26731  20.056   5.035   6.964 -0.0008 -0.0719  0.4869
22432W        W26732   8.954   5.744   4.640 -0.0926 -0.0592 -0.0436
22433W        W26733  25.040   3.414   0.589  0.1826  0.1487  0.0878
22434W        W26734  25.864   4.016  31.080 -0.0521  0.0528 -0.3124
22435W        W26735  18.400   3.862  27.935  0.2861 -0.1440 -0.1316
22436W        W26736  25.684   2.775  35.731  0.0594  0.0215 -0.0651
22437W        W26737  16.720   3.782   6.777  0.0943 -0.0264  0.0392
22438W        W26738   7.170   6.391  11.094  0.0190 -0.1510 -0.0973
22439W        W26739  16.981   1.034  22.204  0.0021 -0.1819  0.1076
22440W        W26740   6.761   5.259   5.897 -0.3417  0.0322  0.2729
22441W        W26741   9.738   0.654  34.519 -0.0707  0.0748 -0.0677
22442W        W26742  12.448   5.335   8.114  0.0605 -0.0453 -0.0057
22443W        W26743   8.534   2.472  31.669  0.1226 -0.3090 -0.2231
22444W        W26744  22.204   1.137  23.722  0.1813  0.0870  0.0337
22445W        W26745   2.166   3.903  31.336  0.1950 -0.1689 -0.2293
22446W        W26746   5.930   4.905   9.297 -0.1022 -0.4888 -0.1521
22447W        W26747   7.376   3.794  22.079  0.3388  0.3197 -0.1128
22448W        W26748   8.843   5.573   3.276  0.0816  0.2898 -0.1382
22449W        W26749  22.486   3.491  34.708 -0.2114 -0.0410 -0.0794
22450W        W26750  10.975   2.462  32.768  0.0316  0.1100  0.0045
22451W        W26751  10.793   4.173   2.997  0.1639  0.0588  0.2074
22452W        W26752   5.025   0.920  20.406  0.1611  0.1443  0.1551
22453W        W26753  24.671   3.293  28.774  0.1333 -0.0253  0.0692
22454W        W26754  19.223   6.344  35.415 -0.1823  0.3724  0.0642
22455W        W26755   4.160   6.546   1.986  0.1613 -0.1751  0.0662
22456W        W26756   9.315   3.557   8.086 -0.0035 -0.0322 -0.0080
22457W        W26757   8.212   2.029  32.565 -0.3665  0.0773  0.0148
22458W        W26758   7.131   0.393  29.649  0.1488 -0.1309 -0.0564
22459W        W26759  25.543   5.628   8.690 -0.5342 -0.1078 -0.0033
22460W        W26760  19.949   2.120   0.538  0.0891  0.0110 -0.1521
22461W        W26761  12.031   4.011   3.836 -0.2464  0.0035 -0.0029
22462W        W26762   5.163   2.675  25.824  0.0733  0.0208  0.0785
22463W        W26763   8.591   0.341  31.065  0.2432 -0.1273 -0.0409
22464W        W26764   3.852   3.359  33.642  0.0311  0.1651  0.0989
22465W        W26765  19.885   5.745   9.420  0.1479 -0.1520 -0.0694
22466W        W26766  17.723   1.940   6.855  0.0728  0.1780  0.0392
22467W        W26767  22.529   0.460  14.804 -0.4698  0.1489 -0.2257
22468W        W26768   9.868   0.191  30.883  0.1913  0.0557 -0.3081
22469W        W26769  10.596   0.621   4.431  0.2662  0.3847 -0.0521
22470W        W26770  11.316   3.429  24.991 -0.3990 -0.0272 -0.0680
22471W        W26771   0.870   5.248  28.304  0.1259  0.1206 -0.0826
22472W        W26772  22.637   4.257  21.740 -0.3352 -0.1992 -0.1307
22473W        W26773  23.675   5.507  26.123  0.2280  0.2175 -0.2300
22474W        W26774  10.093   2.838  25.070 -0.0310 -0.2733  0.0125
22475W        W26775   4.541   0.303  32.475 -0.1140  0.0585  0.0366
22476W        W26776   6.879   1.132  14.540  0.0167  0.0272  0.1569
22477W        W26777  14.385   2.526  30.907  0.0051  0.1602  0.0889
22478W        W26778  12.332   6.428   4.181  0.1929  0.1437  0.0225
22479W        W26779   0.560   3.602  29.451  0.0679 -0.2571  0.0750
22480W        W26780  21.130   5.786  14.045 -0.0285  0.0631  0.3071
22481W        W26781  14.246   2.365  32.514 -0.0396  0.0854  0.2000
22482W        W26782  12.835   3.650  21.789  0.1920  0.0335 -0.0101
22483W        W26783  11.383   5.629  35.336  0.3803 -0.2409  0.1849
22484W        W26784  23.163   1.276   7.028  0.0026  0.0618 -0.2435
22485W        W26785  23.423   5.005  21.853 -0.1498 -0.1399  0.1972
22486W        W26786   1.199   3.799   6.166 -0.0845  0.0734  0.3786
22487W        W26787  17.645   3.180  28.008 -0.0415  0.2875 -0.2034
22488W        W26788  20.595   2.797   8.553  0.2990  0.0029  0.1616
22489W        W26789   5.540   4.573  29.059  0.1814  0.0874  0.0054
22490W        W26790  17.794   4.185  13.948  0.0404 -0.0587  0.2846
22491W        W26791   6.526   5.160  21.023  0.0691  0.0527 -0.0003
22492W        W26792   8.351   3.317  29.848  0.0613  0.0130 -0.2904
22493W        W26793   0.945   0.104  32.800 -0.0865 -0.0211  0.1837
22494W        W26794  22.816   1.445  25.888 -0.2155 -0.4709  0.0140
22495W        W26795  16.712   4.342  20.535  0.0786  0.1568  0.0513
22496W        W26796  19.907   3.457   0.037 -0.1313 -0.0024 -0.1442
22497W        W26797  11.458   0.294   7.027 -0.1463  0.0037  0.0327
22498W        W26798  14.773   6.344  25.608 -0.3921  0.2484 -0.1873
22499W        W26799   3.964   4.996  26.181 -0.0799  0.1672 -0.3199
22500W        W26800  13.975   1.948  35.931 -0.1334  0.0768  0.0550
22501W        W26801  16.364   0.258  22.835 -0.1660  0.0702  0.0687
22502W        W26802  10.323   2.148  31.135 -0.0784  0.0561 -0.0357
22503W        W26803   9.657   3.817   2.405 -0.2606 -0.1388 -0.3571
22504W        W26804   2.503   1.801  26.668 -0.0552  0.0727  0.1061
22505W        W26805  22.287   5.203  22.537 -0.0738 -0.3244  0.2419
22506W        W26806   7.502   0.599   3.252 -0.1237  0.2079  0.0493
22507W        W26807   7.841   6.280  35.622 -0.1675 -0.1098 -0.0265
22508W        W26808  12.706   2.703  35.602 -0.1276 -0.2968  0.0746
22509W        W26809  22.365   0.442  21.542  0.3410  0.2331 -0.1274
22510W        W26810  22.471   0.728  28.725  0.1066 -0.0851  0.2922
22511W        W26811  19.254   4.302   9.187  0.0682 -0.3580 -0.1404
22512W        W26812   7.849   3.027   6.414  0.1920 -0.0452 -0.0619
22513W        W26813   9.736   2.020  10.301 -0.5208  0.0940 -0.0704
22514W        W26814   9.621   0.355  15.193  0.2807 -0.1979 -0.1938
22515W        W26815  20.241   4.108   1.817  0.0569 -0.1807 -0.0782
22516W        W26816   0.523   1.150   4.372 -0.1075  0.0638 -0.1048
22517W        W26817  12.008   5.225  11.775  0.4298 -0.0522  0.0448
22518W        W26818   9.688   5.671   6.159 -0.1261 -0.0430 -0.2504
22519W        W26819  19.243   1.702  21.540  0.0611  0.0371 -0.1094
22520W        W26820  15.206   5.619  23.287 -0.0803 -0.1148 -0.1420
22521W        W26821  13.525   6.255  31.020 -0.2067 -0.1384 -0.1042
22522W        W26822  25.224   6.309   9.338  0.1708  0.0289 -0.1898
22523W        W26823  24.693   2.487  31.364 -0.1063 -0.0995  0.0909
22524W        W26824  22.737   2.717  14.858 -0.2842  0.1234 -0.0933
22525W        W26825   7.703   4.462  34.701  0.1213  0.2155 -0.3695
22526W        W26826  24.464   5.415   6.963  0.0261 -0.1189  0.1330
22527W        W26827  20.464   2.566  14.018  0.0324  0.0183 -0.1078
22528W        W26828   4.471   4.211   7.612  0.1005  0.2773 -0.1312
22529W        W26829  18.536   5.891  22.006  0.1282 -0.0468 -0.4215
22530W        W26830   7.704   3.344   1.842 -0.2985 -0.0859  0.1674
22531W        W26831  24.310   3.896  32.036 -0.0638 -0.1957 -0.0735
22532W        W26832  14.039   5.778   9.392  0.0165  0.1405  0.0374
22533W        W26833   6.775   4.753  31.465  0.1823 -0.0715  0.0590
22534W        W26834  20.252   5.059  32.947  0.1465 -0.1550  0.5312
22535W        W26835   1.174   1.572  22.357  0.0631 -0.0625  0.0239
22536W        W26836  18.423   3.540  34.076 -0.0283  0.0976 -0.1467
22537W        W26837   8.731   4.008   6.723  0.0915 -0.1496  0.0721
22538W        W26838  23.564   4.260  13.462  0.2346 -0.0164 -0.1540
22539W        W26839   6.832   0.160   3.047 -0.1851 -0.0367  0.2201
22540W        W26840  15.260   0.001  12.057  0.0167 -0.0776  0.0102
22541W        W26841   1.918   3.245   3.994 -0.0337  0.2515  0.3606
22542W        W26842   0.030   1.917   2.549  0.0776  0.4363  0.0464
22543W        W26843  10.879   0.398  31.117 -0.1436  0.2605  0.1677
22544W        W26844  10.606   3.260   0.909  0.0817  0.0551 -0.0636
22545W        W26845  10.124   4.888  35.553 -0.1424 -0.0837 -0.0203
22546W        W26846  22.658   1.571  22.189  0.1181  0.1698 -0.2091
22547W        W26847  23.099   1.054  23.194 -0.3025 -0.1058 -0.0216
22548W        W26848  10.010   0.653  29.639  0.0184 -0.0887  0.0709
22549W        W26849  26.217   5.759   1.915  0.0591  0.4634  0.2454
22550W        W26850   0.786   1.383  29.974 -0.0355  0.1174  0.0225
22551W        W26851   3.838   5.308  21.922  0.0500  0.2721 -0.0762
22552W        W26852  15.515   0.129   1.966  0.1276  0.3292  0.2751
22553W        W26853  11.838   5.984  21.121 -0.2136  0.3424  0.1473
22554W        W26854   9.379   2.080  15.028 -0.0362  0.3747  0.3124
22555W        W26855   4.963   1.401  20.992  0.1001  0.1490  0.0755
22556W        W26856  20.611   0.200   3.332  0.1752  0.3157  0.1091
22557W        W26857  25.962   4.056   1.748  0.3232 -0.3887  0.0222
22558W        W26858  18.273   2.917   9.562 -0.2044 -0.0057  0.0954
22559W        W26859   9.271   0.212   3.258 -0.0825 -0.0047 -0.2964
22560W        W26860  25.712   0.234   2.721  0.6234 -0.1512  0.4266
22561W        W26861  25.225   1.617  32.322  0.0831 -0.5048 -0.2277
22562W        W26862  13.482   0.583   7.789 -0.4573 -0.0748  0.0571
22563W        W26863   0.203   0.760  22.819  0.1136  0.1011 -0.1612
22564W        W26864  24.495   4.768  20.463  0.1028 -0.0083 -0.0952
22565W        W26865  14.168   5.659   4.341 -0.4023 -0.2349  0.2841
22566W        W26866  21.163   3.191   7.887  0.0368 -0.1130  0.1276
22567W        W26867  16.239   0.561  33.256  0.1463 -0.0245  0.0198
22568W        W26868  12.900   4.475   6.574 -0.2999  0.2492  0.0492
22569W        W26869  10.187   4.276   9.407 -0.0122  0.0886  0.0465
22570W        W26870  24.112   1.196  28.626  0.0246  0.0730 -0.0594
22571W        W26871   1.331   0.088  32.052 -0.0594 -0.0922 -0.3334
22572W        W26872  24.926   4.910   8.684 -0.1447  0.0431 -0.0809
22573W        W26873  24.581   5.077  31.661  0.1924  0.2588 -0.3147
22574W        W26874  11.340   5.576  31.533  0.1604 -0.2479  0.1403
22575W        W26875  17.566   1.729  33.467 -0.1552 -0.0781 -0.0578
22576W        W26876  17.364   3.476  23.539  0.1699 -0.0284 -0.0438
22577W        W26877  19.701   4.032   4.679  0.1413  0.1218 -0.0880
22578W        W26878   2.762   5.434  31.120 -0.1330  0.1230  0.2032
22579W        W26879   5.249   3.543   6.956  0.0993 -0.1328 -0.1515
22580W        W26880  26.226   0.725  27.230  0.0726 -0.3410 -0.0748
22581W        W26881  18.499   0.364   5.216 -0.1010 -0.1482  0.0592
22582W        W26882   8.901   3.437   0.205  0.0278  0.0349 -0.1368
22583W        W26883   8.653   1.645  10.558  0.0392  0.2219 -0.3083
22584W        W26884  21.370   6.368   3.452  0.1274 -0.0640 -0.3148
22585W        W26885  18.331   6.554  26.996 -0.1745 -0.1255 -0.0805
22586W        W26886  15.206   3.796  11.910  0.3371  0.1229  0.2722
22587W        W26887  25.080   0.509  12.714  0.0706 -0.3558  0.2305
22588W        W26888  26.029   1.227  11.713 -0.1171 -0.2020 -0.1013
22589W        W26889  10.679   5.079  13.948 -0.1650  0.0100 -0.1847
22590W        W26890   4.736   2.580  13.093  0.0886  0.0886  0.1525
22591W        W26891  19.930   4.303  23.878 -0.3317  0.1037 -0.1741
22592W        W26892  18.719   1.486   5.722  0.2673 -0.0090  0.1059
22593W        W26893   4.879   4.440  31.517  0.1539  0.2520 -0.0970
22594W        W26894  22.091   5.567   9.743 -0.2511 -0.1055 -0.1225
22595W        W26895   0.285   1.507  29.878  0.0270 -0.2897 -0.4498
22596W        W26896  20.580   6.337  32.730  0.0155 -0.0378  0.0484
22597W        W26897   0.304   5.709  32.978 -0.0744  0.1564 -0.1134
22598W        W26898  12.657   1.816  11.165 -0.0771  0.2570  0.2581
22599W        W26899  25.351   1.468  12.649  0.1028 -0.0103  0.3889
22600W        W26900   1.013   4.685   7.733  0.2501 -0.0820 -0.2222
22601W        W26901   6.205   1.159  31.271 -0.1775  0.0147 -0.0815
22602W        W26902  10.985   2.715  25.943  0.0497  0.0525 -0.0774
22603W        W26903   3.917   6.398   3.206  0.1130 -0.1792  0.3036
22604W        W26904  14.305   6.267  32.021 -0.0394 -0.3520  0.0837
22605W        W26905   5.325   5.828  26.788 -0.0978 -0.2952 -0.1835
22606W        W26906  24.786   3.398   2.667 -0.1067  0.1847  0.0554
22607W        W26907  12.036   3.319  12.276 -0.0687  0.1020  0.2830
22608W        W26908   2.881   5.743  22.044 -0.0995 -0.2807 -0.0572
22609W        W26909  26.395   2.071  35.084  0.0845 -0.1894  0.0007
22610W        W26910   1.812   0.709  25.870 -0.0119  0.0060  0.1177
22611W        W26911  10.781   3.865  30.205  0.1911  0.0568  0.0636
22612W        W26912  14.229   3.431   0.229  0.1470 -0.3541  0.2992
22613W        W26913  24.432   1.167   5.182 -0.1095 -0.1963 -0.0641
22614W        W26914   9.568   1.922  21.156 -0.0617  0.2432  0.1824
22615W        W26915   9.717   2.032  22.560  0.0413 -0.2200  0.1926
22616W        W26916   1.907   0.579  23.536  0.0817 -0.1293  0.1438
22617W        W26917  14.826   1.890  11.111  0.0843  0.0330  0.0535
22618W        W26918  20.811   1.455   8.119  0.0293  0.1428 -0.0345
22619W        W26919  12.483   2.415   8.452  0.1800  0.0062 -0.3807
22620W        W26920   7.472   0.010   1.032 -0.1609  0.2477 -0.1703
22621W        W26921  15.976   1.893  21.735  0.0527 -0.4729 -0.1587
22622W        W26922  22.121   3.203  25.107  0.0443 -0.1572 -0.2288
22623W        W26923  22.171   6.117  14.651 -0.0228 -0.0693 -0.1415
22624W        W26924  24.883   5.721  21.991 -0.2258  0.3712  0.4082
22625W        W26925   7.308   2.788  26.346  0.1256 -0.2088 -0.0809
22626W        W26926  15.817   6.411   4.911  0.1752 -0.2607  0.1736
22627W        W26927  21.539   0.241  21.961 -0.1566 -0.1982  0.0525
22628W        W26928  18.990   5.982  26.636 -0.3499  0.2090  0.0348
22629W        W26929  10.954   1.210  21.839 -0.0816 -0.1118  0.3294
22630W        W26930  17.500   1.167  35.581  0.2662  0.0814  0.1365
22631W        W26931  16.103   5.258  12.747  0.1143 -0.1252  0.4057
22632W        W26932   2.701   1.326  21.461 -0.3011 -0.1737  0.4037
22633W        W26933  20.631   0.245  29.205  0.2418  0.1385 -0.0532
22634W        W26934   2.730   6.174  27.037 -0.1915 -0.3004  0.1497
22635W        W26935   6.601   6.049   0.107  0.1233 -0.0178  0.0868
22636W        W26936   6.094   1.610   9.324  0.0884 -0.0011 -0.2555
22637W        W26937  19.775   2.785   8.068  0.0988 -0.0682 -0.0087
22638W        W26938  14.691   0.349  28.739 -0.2679  0.2571 -0.3033
22639W        W26939   2.975   2.746   1.021  0.1852 -0.1896  0.0332
22640W        W26940  22.370   5.022   1.434 -0.2868 -0.4871  0.2848
22641W        W26941  13.174   0.205   4.077  0.0043 -0.0651 -0.1314
22642W        W26942  15.268   0.764   7.216 -0.3139 -0.1609  0.0152
22643W        W26943  22.517   1.407  27.969  0.3076 -0.2495 -0.1392
22644W        W26944   9.384   0.969  29.983 -0.4065  0.0002 -0.2281
22645W        W26945  22.580   2.632  25.241  0.1980 -0.3723 -0.0151
22646W        W26946   5.783   1.252  23.700  0.0481 -0.1541 -0.0795
22647W        W26947  23.491   5.033   8.651  0.2418  0.1548 -0.0966
22648W        W26948  25.379   4.689  14.574 -0.1076 -0.3368  0.0275
22649W        W26949  17.024   0.214   9.333  0.3625 -0.1379 -0.1769
22650W        W26950  18.410   1.970   7.716  0.1991 -0.1424  0.2675
22651W        W26951  20.214   4.683  35.952 -0.1978  0.3949  0.1597
22652W        W26952  16.532   2.681  14.652 -0.1070  0.1044 -0.0158
22653W        W26953  16.427   5.122  30.797  0.0704 -0.1424  0.1814
22654W        W26954   9.386   5.719  35.513 -0.2909  0.2092 -0.1708
22655W        W26955  20.341   0.262  28.115 -0.1910  0.4069  0.2458
22656W        W26956  15.552   2.487   9.684 -0.0203  0.0885  0.1806
22657W        W26957  13.742   2.067   7.197 -0.0258 -0.2185 -0.0845
22658W        W26958  17.796   2.338  13.106 -0.1594 -0.2074 -0.3158
22659W        W26959  16.176   3.919  24.433 -0.0296  0.1447 -0.1414
22660W        W26960  23.309   3.105   8.641  0.2049  0.2526  0.3732
22661W        W26961   6.905   0.059  27.237  0.0447  0.1064 -0.3730
22662W        W26962   7.856   5.286  20.514  0.0380 -0.1033  0.1259
22663W        W26963   4.735   0.335   3.010 -0.0035 -0.2289  0.0373
22664W        W26964  23.231   4.178   5.183  0.0819  0.0776 -0.1832
22665W        W26965  14.128   1.800  12.299  0.0321 -0.0164 -0.2843
22666W        W26966  25.856   4.646  25.393  0.1000 -0.0586  0.0845
22667W        W26967  14.351   4.199  32.622 -0.0176  0.4036 -0.1336
22668W        W26968  22.388   5.776  12.069 -0.3170 -0.1073 -0.0786
22669W        W26969  10.251   5.517  14.419  0.3419  0.1892 -0.1412
22670W        W26970  15.058   1.343  35.481  0.0620 -0.0752  0.2050
22671W        W26971  16.491   3.483  34.981  0.1451  0.0393  0.0841
22672W        W26972  10.948   0.115  34.245  0.0051 -0.0253 -0.1371
22673W        W26973   8.618   5.692   7.819  0.0783  0.0364  0.3993
22674W        W26974   5.786   1.160  14.434  0.2764 -0.0212  0.2073
22675W        W26975   1.906   0.989   9.409  0.4459  0.0139 -0.1489
22676W        W26976  14.480   1.973  35.895 -0.1047 -0.0924 -0.0011
22677W        W26977   9.189   5.341  34.820  0.1522  0.0753  0.1371
22678W        W26978  23.362   3.469  27.661  0.2424  0.1709 -0.1552
22679W        W26979  24.435   5.691  35.086  0.2841  0.0345 -0.1616
22680W        W26980  13.228   2.577   7.810 -0.0972  0.4121 -0.0679
22681W        W26981  20.107   2.853  21.454 -0.0444  0.0888 -0.4504
22682W        W26982   1.780   6.107   0.863 -0.1706  0.2343  0.1151
22683W        W26983  14.931   5.808  29.082 -0.0408  0.3632 -0.0405
22684W        W26984  11.609   0.469  12.481  0.4336 -0.1258  0.0748
22685W        W26985  24.909   4.103  21.855  0.3444 -0.0158 -0.1339
22686W        W26986  21.687   3.544  24.021 -0.0653 -0.3496 -0.2185
22687W        W26987  15.055   3.176   0.770  0.0311  0.1059  0.0599
22688W        W26988   0.703   5.183   6.044  0.1303 -0.3019  0.0510
22689W        W26989   9.650   3.630  13.448  0.0427  0.0199 -0.1051
22690W        W26990   7.660   5.192   1.461 -0.2774 -0.0646  0.0038
22691W        W26991   4.300   2.062   0.618 -0.0700  0.0392  0.1708
22692W        W26992   0.104   3.837  30.315 -0.3439 -0.4735  0.0335
22693W        W26993   8.819   1.759  13.706 -0.0426  0.2202 -0.2545
22694W        W26994   2.164   1.240  13.765 -0.1718  0.1356 -0.0194
22695W        W26995  24.505   0.675   3.013  0.0271  0.0396  0.1483
22696W        W26996  10.026   1.539  26.346  0.0751  0.1145 -0.2899
22697W        W26997  23.823   5.543  33.595  0.2941 -0.2656 -0.2542
22698W        W26998  17.571   5.951  28.506  0.2856  0.4042 -0.1155
22699W        W26999  17.121   4.913   0.423 -0.1501 -0.1725 -0.0281
22700W        W27000   6.923   0.464   9.902 -0.5247 -0.1215  0.1433
22701W        W27001   0.285   5.518   0.192 -0.1927  0.0695  0.0069
22702W        W27002   1.276   4.848   5.941  0.0215  0.2136 -0.0018
22703W        W27003  12.226   3.081  10.577 -0.2623 -0.0658  0.1165
22704W        W27004  23.925   5.897  30.672 -0.0761 -0.0374 -0.0066
22705W        W27005   3.455   3.381  29.548  0.0622  0.0829 -0.0571
22706W        W27006  26.422   4.464  15.272 -0.2369 -0.1661  0.0687
22707W        W27007  24.359   2.164  32.334 -0.0047 -0.0495 -0.1544
22708W        W27008  26.227   2.089  33.718  0.0426  0.0958 -0.2100
22709W        W27009  20.620   4.888  27.205  0.0920 -0.1990  0.0566
22710W        W27010  19.852   3.815  27.412 -0.2090 -0.2978 -0.2705
22711W        W27011  21.897   1.799   1.836 -0.0247 -0.0744 -0.1801
22712W        W27012  10.525   2.610   2.413 -0.2668  0.1859  0.2063
22713W        W27013   0.687   2.693  34.104  0.1513 -0.0992 -0.0365
22714W        W27014  15.064   1.921  28.259  0.0256  0.0536 -0.0828
22715W        W27015  24.976   4.520  24.521  0.0029  0.0026  0.2899
22716W        W27016   4.480   1.056  27.300 -0.0575 -0.0932 -0.1349
22717W        W27017   4.145   4.432  14.213  0.2053  0.1889  0.0100
22718W        W27018  19.537   5.166  23.503  0.1136 -0.0145  0.1249
22719W        W27019  18.647   3.989   0.462 -0.0329  0.1978 -0.1375
22720W        W27020  13.165   6.352  29.759 -0.2139 -0.1241 -0.1542
22721W        W27021   7.694   3.683  29.285 -0.3097  0.3013  0.0723
22722W        W27022  16.279   1.623   9.162 -0.0538  0.1781 -0.1786
22723W        W27023   6.618   0.176  34.773  0.0847  0.0759 -0.3672
22724W        W27024  11.572   5.511   5.424 -0.2617 -0.0451  0.3671
22725W        W27025  25.931   0.184   2.235  0.0971  0.0226 -0.0245
22726W        W27026  14.745   0.737  30.179  0.1270  0.1300  0.0926
22727W        W27027  22.434   3.349  31.047 -0.1100  0.0751 -0.1150
22728W        W27028   4.656   5.677  29.329  0.2036  0.3220  0.0043
22729W        W27029  10.183   4.584   1.857 -0.0453 -0.0194  0.0536
22730W        W27030  15.039   2.692  33.963 -0.3482  0.3123 -0.1097
22731W        W27031   0.236   3.851  31.174 -0.1844 -0.0829 -0.1942
22732W        W27032  15.130   6.375   7.627  0.1798 -0.3025 -0.1869
22733W        W27033   8.178   2.030  25.629  0.1554  0.0324  0.2250
22734W        W27034  23.390   4.632  28.598  0.0518 -0.1082 -0.0292
22735W        W27035   3.880   4.947   3.189 -0.0879 -0.0013  0.0098
22736W        W27036   1.024   0.029  28.344  0.1224  0.2485 -0.4085
22737W        W27037  15.601   6.096  35.671  0.1417 -0.0294  0.0907
22738W        W27038   6.949   6.206  15.042  0.0424 -0.3615  0.0110
22739W        W27039   5.944   2.387   5.982  0.0525  0.3532  0.2430
22740W        W27040   6.095   4.346   2.678  0.0857  0.0475  0.2894
22741W        W27041   3.354   4.901  12.834 -0.2806 -0.3518  0.1120
22742W        W27042   3.087   6.224   5.748 -0.2700  0.3628  0.2597
22743W        W27043  24.910   5.421  11.727 -0.1090  0.0641  0.0052
22744W        W27044  13.334   0.996  25.687  0.0588 -0.1362 -0.0798
22745W        W27045  10.748   5.206  36.129 -0.2419 -0.0027 -0.0848
22746W        W27046  16.433   4.943  23.540 -0.0250  0.1556 -0.0336
22747W        W27047  25.958   3.513  36.062 -0.0737  0.2630  0.0242
22748W        W27048  17.406   5.672  22.547  0.0101 -0.1785 -0.1392
22749W        W27049   3.892   4.967  24.915  0.0839 -0.0564  0.0154
22750W        W27050  11.316   6.567   7.360 -0.0502  0.0598 -0.0756
22751W        W27051  14.042   0.699   0.895  0.0577 -0.1885 -0.0492
22752W        W27052   6.387   2.921   8.620  0.1785 -0.2539  0.1840
22753W        W27053  11.582   3.623  10.219  0.0476  0.2189 -0.0888
22754W        W27054  23.202   2.430   9.681 -0.0960 -0.1786 -0.2723
22755W        W27055   1.717   2.717  30.681 -0.0460  0.0445  0.0860
22756W        W27056   3.361   3.671  21.504 -0.1473 -0.3370 -0.0765
22757W        W27057   3.254   3.335  14.865 -0.3439  0.3874 -0.2820
22758W        W27058  14.286   0.638  29.759  0.1389  0.1540  0.1061
22759W        W27059  21.211   5.388  25.666 -0.0588 -0.1003  0.0206
22760W        W27060  19.388   1.378  13.732  0.2125  0.1595 -0.1031
22761W        W27061   5.007   3.324   9.197 -0.1688 -0.2882 -0.1008
22762W        W27062   9.447   3.849  31.447 -0.0608 -0.1084 -0.0594
22763W        W27063   1.457   5.467  28.114  0.1753  0.1046  0.4402
22764W        W27064   6.227   4.419   6.691 -0.0285  0.3928 -0.1973
22765W        W27065  13.563   3.787  24.581 -0.0659 -0.0568 -0.2525
22766W        W27066  22.525   2.425  11.263 -0.0997  0.0264 -0.1813
22767W        W27067  24.651   0.995  13.241 -0.0692  0.0748  0.0515
22768W        W27068  19.351   1.327   8.931 -0.3040 -0.0227  0.0237
22769W        W27069  24.055   1.134  10.327 -0.0419  0.1937 -0.0973
22770W        W27070  13.381   5.917  30.507 -0.0020 -0.0262 -0.0665
22771W        W27071   2.655   0.591  20.515  0.3108 -0.0047 -0.1736
22772W        W27072   4.781   4.380   1.597 -0.1633  0.0437  0.2166
22773W        W27073   7.961   4.954   4.368  0.3627  0.1026  0.2359
22774W        W27074  25.255   1.795  24.831  0.1250 -0.1350  0.0099
22775W        W27075  19.368   1.850   3.713  0.1588 -0.1833  0.1099
22776W        W27076  16.905   0.127  10.220 -0.0029 -0.0562  0.3290
22777W        W27077   4.814   1.283  20.024 -0.3854 -0.0079  0.2473
22778W        W27078  24.195   5.446  33.300 -0.2552  0.0001 -0.0144
22779W        W27079   0.394   2.069  25.677  0.1723  0.0160 -0.0415
22780W        W27080   1.734   3.337  35.943 -0.0173 -0.0387 -0.1655
22781W        W27081  22.034   5.347   1.293  0.1771 -0.0258 -0.0168
22782W        W27082  18.886   4.017   8.790 -0.2081  0.2776 -0.0285
22783W        W27083  18.121   4.992  31.544  0.0262  0.1929 -0.0026
22784W        W27084   9.102   3.093  24.416 -0.2109 -0.0304 -0.4683
22785W        W27085   5.442   0.524  21.847  0.2630  0.1530  0.0436
22786W        W27086  20.939   3.716  25.547  0.0467 -0.0092 -0.0789
22787W        W27087  16.463   3.501  28.539 -0.0966 -0.0566 -0.0976
22788W        W27088   5.517   0.395   8.680 -0.1427 -0.0541 -0.1122
22789W        W27089   5.972   3.527  26.630  0.0365 -0.0880  0.1009
22790W        W27090   9.787   4.307   6.480 -0.1930  0.2835  0.0100
22791W        W27091  21.924   1.332  10.429  0.0940 -0.2525  0.0659
22792W        W27092   1.575   4.109  13.518  0.0590 -0.1675  0.0459
22793W        W27093   8.899   3.423  29.773  0.1006  0.2256 -0.3972
22794W        W27094  17.281   1.465  25.785 -0.0945  0.2915 -0.1855
22795W        W27095  24.105   3.902   9.303  0.1588  0.0636  0.5408
22796W        W27096   8.049   1.953   8.283 -0.1476 -0.0120  0.0572
22797W        W27097   9.969   1.897  11.573  0.0032 -0.1575 -0.0606
22798W        W27098   6.318   5.363   1.699 -0.0173 -0.0338  0.2024
22799W        W27099  14.583   3.060  31.844  0.1477  0.0265  0.1251
22800W        W27100   2.361   5.834  27.263 -0.1572 -0.0107 -0.1399
22801W        W27101  10.197   0.338   0.921 -0.1504  0.1952  0.0180
22802W        W27102   8.013   6.570  21.332  0.1960 -0.1660 -0.0916
22803W        W27103  11.721   3.268   5.546  0.3833 -0.0265  0.0018
22804W        W27104   1.334   3.451  27.299 -0.0761  0.2387  0.0644
22805W        W27105  13.018   6.574  20.952  0.3139  0.0488  0.0896
22806W        W27106  19.065   5.976   7.208  0.1572  0.2942 -0.1564
22807W        W27107  19.021   2.555  13.117 -0.0208  0.0651  0.1599
22808W        W27108  14.583   0.382   7.044  0.1194 -0.1494  0.0614
22809W        W27109  20.378   2.237  25.542  0.2102 -0.3453 -0.1317
22810W        W27110  26.301   3.423  30.627  0.2449 -0.0046 -0.1711
22811W        W27111  22.329   0.214   1.235 -0.0473  0.3136 -0.1923
22812W        W27112  25.116   4.182  10.984  0.0390  0.0414 -0.0807
22813W        W27113   1.956   5.176  32.139  0.2425 -0.2009  0.0490
22814W        W27114  20.946   6.434   3.122 -0.0266  0.0563  0.2308
22815W        W27115   9.385   5.573  30.470  0.1338  0.2957 -0.0608
22816W        W27116   6.924   2.763  13.446  0.2293  0.1236  0.0534
22817W        W27117  12.992   4.533   0.744  0.2893  0.0447 -0.0457
22818W        W27118   9.091   4.708   8.355 -0.1837  0.0180  0.0412
22819W        W27119  14.713   6.278  28.810 -0.1643  0.1394  0.2162
22820W        W27120  20.348   6.202  24.721  0.0425 -0.0628  0.1873
22821W        W27121  14.346   0.888  24.162 -0.0459  0.1974  0.1006
22822W        W27122   6.314   4.819  21.312  0.0619  0.1070  0.2315
22823W        W27123  11.409   4.488  30.489 -0.0876  0.3439  0.2393
22824W        W27124  25.846   1.954   4.773  0.0064  0.0935  0.0967
22825W        W27125   0.125   1.583  14.591  0.2462  0.1702 -0.0743
22826W        W27126   9.632   3.560   7.640  0.1483  0.0226 -0.1018
22827W        W27127  16.109   5.808   8.012 -0.1398  0.2026 -0.1116
22828W        W27128  16.873   5.660  14.751  0.0795 -0.2655 -0.0226
22829W        W27129  10.859   1.223  31.641 -0.3734 -0.0581  0.1295
22830W        W27130  24.861   6.047  32.280  0.1386  0.2471 -0.0031
22831W        W27131  20.152   4.107  31.562  0.1668 -0.1541  0.0976
22832W        W27132   8.463   6.221  21.346 -0.1803 -0.3404 -0.2705
22833W        W27133   4.379   2.180   9.917  0.0784 -0.2952 -0.0368
22834W        W27134  11.215   4.304  24.336  0.1992 -0.0003 -0.0533
22835W        W27135  16.684   2.479  34.772  0.4087 -0.0520  0.1272
22836W        W27136  21.563   0.124   7.821 -0.0436 -0.2056 -0.1814
22837W        W27137   2.173   0.289  27.210  0.0699 -0.0057 -0.3733
22838W        W27138   0.917   6.596  11.689 -0.0317 -0.1572  0.0960
22839W        W27139   5.421   1.974  29.744 -0.1354  0.0271 -0.3078
22840W        W27140  17.516   1.137   2.854  0.1883 -0.3361 -0.2169
22841W        W27141   2.575   1.574  24.265 -0.1213  0.2130 -0.3714
22842W        W27142  26.297   5.313   7.073  0.1055  0.1043 -0.0490
22843W        W27143  15.832   2.202   1.127  0.1157  0.2172  0.0377
22844W        W27144  11.786   5.238  33.854  0.1203  0.2316 -0.0526
22845W        W27145  18.800   1.907   8.182 -0.0380  0.2548 -0.0629
22846W        W27146  17.906   3.090   3.592 -0.0384  0.1132  0.2225
22847W        W27147   9.026   5.464  15.179 -0.2786  0.3199 -0.2239
22848W        W27148   5.010   6.560  20.214 -0.1753 -0.0114  0.0030
22849W        W27149  15.046   4.935   8.484  0.2408 -0.2758  0.1880
22850W        W27150  11.546   0.033  10.936 -0.0773  0.1348 -0.0374
22851W        W27151  19.985   1.924   2.090 -0.1717 -0.1528  0.0048
22852W        W27152  22.544   0.204   6.270 -0.0823 -0.0285  0.3818
22853W        W27153   0.163   4.743  11.152  0.1360 -0.1425  0.4601
22854W        W27154   5.116   4.284   3.789  0.1164  0.1256 -0.1755
22855W        W27155  12.065   3.319   0.946 -0.2300  0.0409 -0.2947
22856W        W27156  15.031   3.625   4.932 -0.2128 -0.1698  0.2377
22857W        W27157  12.451   6.597   0.265 -0.4087  0.0581 -0.1454
22858W        W27158  15.542   6.242  24.520 -0.0587 -0.0798  0.5035
22859W        W27159  14.089   2.170  30.191  0.2830  0.2150 -0.2486
22860W        W27160  15.555   5.384   8.433 -0.3527  0.0146 -0.0158
22861W        W27161  13.985   3.521  32.189  0.0080  0.0926 -0.0361
22862W        W27162  16.409   2.522   7.223  0.0427 -0.0633 -0.0335
22863W        W27163  20.903   3.181  23.019 -0.0449  0.0023 -0.1876
22864W        W27164  15.350   2.121  32.083 -0.1884 -0.1306 -0.1935
22865W        W27165  14.801   0.846   7.110 -0.2133 -0.1277 -0.0969
22866W        W27166  24.811   3.980   3.332  0.2341 -0.0365  0.2088
22867W        W27167  25.255   0.505   1.772 -0.1450  0.1394  0.0746
22868W        W27168  25.427   0.420  22.123 -0.4176 -0.0982 -0.1581
22869W        W27169  18.918   3.500  27.142 -0.2031 -0.0621  0.1043
22870W        W27170   3.793   3.451   3.740 -0.0656 -0.1583  0.0094
22871W        W27171   8.178   3.114  27.639  0.1503  0.0573  0.0773
22872W        W27172  25.868   4.393  28.286  0.3325  0.1452 -0.1014
22873W        W27173  14.308   3.883   7.871 -0.1686  0.1351 -0.1215
22874W        W27174  15.920   2.985   0.727 -0.1117 -0.1366 -0.1945
22875W        W27175  17.778   0.549  29.794 -0.0578  0.1875 -0.1442
22876W        W27176   8.285   4.659   5.770 -0.0207 -0.2685 -0.2543
22877W        W27177  12.830   2.739  23.558 -0.4592 -0.0133  0.0155
22878W        W27178   5.272   4.124  21.987  0.0477  0.4831  0.2958
22879W        W27179   1.032   4.304   6.541 -0.2639  0.1226 -0.1286
22880W        W27180  11.553   1.549  23.674 -0.0356 -0.1327 -0.1680
22881W        W27181   8.314   5.581  13.911  0.1482 -0.1133  0.1325
22882W        W27182  24.638   5.153  33.033 -0.0319  0.1472  0.0950
22883W        W27183   1.214   4.444   4.052 -0.0687  0.0007 -0.1431
22884W        W27184   8.461   0.349  14.973 -0.0579  0.2025 -0.2439
22885W        W27185  14.809   2.286   3.416 -0.2743 -0.1423 -0.1767
22886W        W27186  22.514   2.105  12.364 -0.2440 -0.2801 -0.0246
22887W        W27187  24.595   3.513   8.771  0.1232 -0.1324  0.0311
22888W        W27188  13.614   4.105  13.049  0.1627 -0.0211 -0.1127
22889W        W27189   1.081   3.991  30.560  0.4191  0.1459 -0.6243
22890W        W27190  17.361   4.195   9.350  0.1542 -0.3970  0.2047
22891W        W27191   0.783   6.223  31.274  0.1990 -0.1953  0.1188
22892W        W27192  22.837   1.633  25.412  0.0581 -0.1058 -0.1959
22893W        W27193   6.882   0.021   3.601  0.0763  0.1180 -0.1463
22894W        W27194   6.145   6.534  21.404  0.0845  0.1315  0.1596
22895W        W27195  12.516   1.650   5.249  0.1665 -0.2058  0.0964
22896W        W27196   9.601   1.118   0.735  0.2415  0.0534 -0.0783
22897W        W27197   6.037   2.151  30.569 -0.0417 -0.1092 -0.1300
22898W        W27198  24.068   6.297  32.600 -0.0281  0.2793 -0.0404
22899W        W27199   9.938   6.031   0.701  0.1104 -0.1605 -0.0886
22900W        W27200  11.079   1.367   9.023 -0.2852  0.0469 -0.0477
22901W        W27201   0.872   2.354  28.363  0.0983 -0.1507 -0.0274
22902W        W27202   1.842   3.027  31.645  0.1466  0.0690 -0.0976
22903W        W27203  15.872   3.657  30.170  0.0456  0.0971 -0.0461
22904W        W27204   7.366   1.767  26.126  0.1981  0.1183 -0.0417
22905W        W27205  25.791   0.442  29.032 -0.0334 -0.1060 -0.2856
22906W        W27206  20.672   5.036  21.248 -0.1136 -0.0961  0.1832
22907W        W27207   3.682   4.736  14.930 -0.1573 -0.0734  0.1647
22908W        W27208   1.608   4.289  11.714  0.0471 -0.0829 -0.2505
22909W        W27209   4.381   6.508   8.520 -0.0758  0.3189  0.2316
22910W        W27210  13.297   5.819  27.382 -0.0278  0.1796 -0.0586
22911W        W27211  10.411   2.275  14.043 -0.0042 -0.1654  0.0240
22912W        W27212   7.051   4.376  20.396  0.0513  0.3149 -0.1185
22913W        W27213  26.061   5.829  20.794 -0.1471  0.0567  0.1650
22914W        W27214  25.615   5.839  28.516 -0.2562 -0.2340 -0.3543
22915W        W27215  12.204   2.008  11.781  0.1290 -0.0173  0.2554
22916W        W27216  10.448   0.036   8.405 -0.0697 -0.0070  0.3472
22917W        W27217  12.356   4.825  23.081  0.1871 -0.0013  0.0250
22918W        W27218   4.805   1.876  14.156 -0.0021 -0.0120 -0.2064
22919W        W27219  25.802   0.106  30.056  0.1430 -0.0224 -0.2546
22920W        W27220   2.557   4.864   3.119  0.2331 -0.0633 -0.0060
22921W        W27221  10.560   0.497  26.381 -0.0597  0.2984  0.1087
22922W        W27222  23.044   1.361   8.432 -0.0625 -0.0493  0.0055
22923W        W27223  23.804   1.572   3.368  0.0408  0.1119  0.0239
22924W        W27224   2.432   4.958  32.555 -0.1875  0.0982 -0.1234
22925W        W27225  23.398   1.813   1.122  0.0115  0.1911 -0.0806
22926W        W27226  11.817   0.076  25.850 -0.2095  0.2586  0.0734
22927W        W27227  10.317   2.047   5.023 -0.1175 -0.1711  0.1625
22928W        W27228   5.874   5.630  21.162  0.2324  0.1263  0.2913
22929W        W27229  24.870   4.264  28.202 -0.2046 -0.1734  0.1054
22930W        W27230   8.920   1.663  27.172 -0.0954  0.1003  0.1698
22931W        W27231  15.269   3.255   7.990  0.0096 -0.1754  0.1332
22932W        W27232  23.912   0.743  30.661  0.1803 -0.1198  0.1409
22933W        W27233   7.425   6.409  22.224 -0.1951 -0.1110  0.2939
22934W        W27234   9.410   5.463  26.621  0.0686 -0.3633 -0.0244
22935W        W27235   8.612   5.082  11.265  0.0044 -0.3603  0.0408
22936W        W27236  12.043   5.291  32.823 -0.2397  0.1837  0.0301
22937W        W27237  26.018   4.125   8.686  0.2720  0.3806  0.2124
22938W        W27238  12.274   3.675   4.240  0.1569  0.1985  0.0117
22939W        W27239  17.140   1.412  27.018 -0.0199  0.2431 -0.0638
22940W        W27240  25.539   4.045  32.690 -0.2472 -0.0011  0.2345
22941W        W27241   3.571   5.032  23.800 -0.2470 -0.2127 -0.2131
22942W        W27242  12.910   4.795  35.454 -0.0544  0.3310  0.1594
22943W        W27243  24.285   2.804  29.483  0.2524 -0.0845  0.1022
22944W        W27244   1.605   0.212  27.904  0.2985  0.0581  0.3458
22945W        W27245   6.309   0.074  29.536 -0.1628 -0.1138  0.1695
22946W        W27246   3.063   6.416  23.694  0.1294  0.1394 -0.0302
22947W        W27247   3.926   5.511  22.711  0.0530 -0.2937 -0.1447
22948W        W27248  19.230   0.434  20.710 -0.0482  0.1975  0.2018
22949W        W27249   9.693   4.587  14.577  0.3557  0.3716 -0.1922
22950W        W27250   9.386   3.167   0.966 -0.2856 -0.1635  0.0823
22951W        W27251  10.331   4.931  32.304  0.3271 -0.2727  0.5914
22952W        W27252  10.559   4.991   1.714 -0.2157 -0.0882 -0.1299
22953W        W27253  10.269   4.562   5.898 -0.2338 -0.0332  0.0138
22954W        W27254  12.562   2.947   4.526  0.1614 -0.3517  0.0099
22955W        W27255  22.670   4.962   2.148 -0.0452 -0.0373 -0.0206
22956W        W27256  23.225   4.522   3.021 -0.4249 -0.2525  0.0145
22957W        W27257  23.810   6.146   3.561 -0.0449 -0.0203  0.0952
22958W        W27258  18.262   2.727   8.043  0.3642 -0.1792 -0.0575
22959W        W27259  25.007   6.130   8.007 -0.2029 -0.2110  0.1738
22960W        W27260  24.708   3.137   5.374 -0.0194 -0.0473  0.1641
22961W        W27261  24.068   3.940   3.189  0.0416  0.0514 -0.2284
22962W        W27262  17.284   3.695  35.249  0.4348  0.0704 -0.1153
22963W        W27263  25.163   1.546   1.896 -0.0442  0.1119 -0.5593
22964W        W27264  20.049   2.869  27.531 -0.1217 -0.1297 -0.2637
22965W        W27265   1.572   4.849   8.600 -0.1058  0.3043 -0.1443
22966W        W27266  23.857   1.009   4.544  0.1063  0.0386  0.1869
22967W        W27267  13.666   4.237   9.053  0.1144  0.1479  0.1802
22968W        W27268  24.613   3.785   6.922 -0.1146  0.0378 -0.3080
22969W        W27269  19.689   3.664  10.607  0.1948  0.1142  0.0256
22970W        W27270   9.234   3.311  32.079  0.0714  0.0349  0.0842
22971W        W27271   7.628   4.431   3.193 -0.2920 -0.2554 -0.3479
22972W        W27272  23.951   4.207   3.599 -0.1033  0.1581 -0.1052
22973W        W27273   4.416   5.317  22.719  0.1035  0.0654  0.1910
22974W        W27274  19.168   0.760  21.071 -0.1548 -0.1160  0.1307
22975W        W27275   0.166   3.268  30.212  0.2584 -0.2018  0.0414
22976W        W27276  19.861   2.753  30.726 -0.0217 -0.2165  0.0141
22977W        W27277   7.958   5.143  12.722  0.1730 -0.0937 -0.0144
22978W        W27278  20.639   0.242   9.824  0.1325  0.0145 -0.0015
22979W        W27279   0.364   0.078  29.973 -0.1150 -0.1661 -0.1215
22980W        W27280  17.607   5.302  31.311  0.0056 -0.0525  0.2169
22981W        W27281  13.889   0.493  27.943 -0.2889 -0.2091  0.1926
22982W        W27282  18.688   2.306   9.429 -0.2031  0.2943 -0.1036
22983W        W27283  23.597   0.979  35.681 -0.1097 -0.1153  0.0176
22984W        W27284   6.416   4.702  31.144 -0.2506 -0.0388  0.0324
22985W        W27285   2.853   2.420  31.467 -0.2770  0.4745  0.0977
22986W        W27286  18.449   1.914  31.486  0.2855  0.1608  0.3240
22987W        W27287  20.160   4.663  31.656  0.1565 -0.1799  0.0457
22988W        W27288  15.441   6.147   8.066  0.3581  0.0866  0.1141
22989W        W27289  26.372   5.512  27.981  0.1084  0.0947 -0.0823
22990W        W27290   3.198   3.399  14.346  0.0447  0.0287  0.3139
22991W        W27291  15.368   3.875  14.330  0.0468  0.0183 -0.3197
22992W        W27292  26.027   3.884  32.722 -0.0160  0.0487 -0.0669
22993W        W27293   4.757   0.570  22.638  0.4264 -0.1087  0.0867
22994W        W27294  16.308   1.582   9.662  0.4594  0.0969 -0.0687
22995W        W27295  17.431   4.364  14.554  0.0396  0.1743 -0.0659
22996W        W27296  22.406   0.697  11.264 -0.2244  0.3282  0.1267
22997W        W27297  15.321   0.785   1.515 -0.0013  0.0034  0.1663
22998W        W27298  23.893   4.029  35.960  0.0976 -0.1725  0.2077
22999W        W27299   9.045   5.344   2.497 -0.1220 -0.2154 -0.0729
23000W        W27300  14.797   3.510  35.129  0.1545 -0.0783 -0.1609
23001W        W27301  23.912   2.486   6.315  0.0838 -0.1471  0.0567
23002W        W27302  23.936   1.261  30.303 -0.1010 -0.0503 -0.2088
23003W        W27303  10.034   5.435  28.300  0.2011  0.0513  0.1279
23004W        W27304  26.336   4.334  30.347 -0.1129  0.1749  0.2387
23005W        W27305  11.964   5.527  10.315  0.0612  0.2410  0.1624
23006W        W27306  25.872   4.010  27.183  0.0100  0.3403 -0.1770
23007W        W27307  16.629   4.330  14.764 -0.1749  0.3106 -0.3360
23008W        W27308  11.144   2.540  21.538  0.1272  0.3554  0.0070
23009W        W27309   3.985   3.626  26.038 -0.0726  0.0690  0.0294
23010W        W27310  21.501   1.899  23.146 -0.0273 -0.1636 -0.2309
23011W        W27311   7.610   4.948   3.050  0.1906  0.0720  0.2304
23012W        W27312  21.179   4.765  22.114 -0.3094 -0.1675  0.0822
23013W        W27313  14.824   2.284  35.595 -0.0095  0.1579  0.2955
23014W        W27314   0.800   2.214  33.049 -0.0423 -0.3616 -0.1095
23015W        W27315  25.455   4.761  31.479 -0.1451 -0.0035 -0.1603
23016W        W27316   4.136   0.683  27.212 -0.1615  0.0896  0.1096
23017W        W27317  11.730   3.665  12.247  0.1286 -0.2049  0.1251
23018W        W27318  16.233   3.749  12.578 -0.1189  0.0350  0.0857
23019W        W27319  19.298   1.880  24.085  0.0417  0.1223  0.0403
23020W        W27320   3.510   3.209   0.852 -0.1421 -0.1869 -0.1574
23021W        W27321   8.897   1.624   3.750  0.3073 -0.0045 -0.0407
23022W        W27322  21.505   4.823  33.238  0.0060 -0.1469  0.1576
23023W        W27323  19.146   6.111   0.553  0.0349 -0.1450  0.0796
23024W        W27324  18.238   4.994  11.353  0.0769 -0.0088  0.2255
23025W        W27325  19.186   6.564  11.397  0.1000 -0.1656  0.0296
23026W        W27326  19.000   1.622  13.906  0.2660  0.1047 -0.3048
23027W        W27327  16.904   2.626  31.038 -0.3313  0.0256 -0.0944
23028W        W27328  11.950   1.915   6.319  0.0429  0.2856 -0.0115
23029W        W27329  25.504   6.223  30.102 -0.0965  0.1929  0.0700
23030W        W27330  15.688   0.804  12.100  0.0327 -0.0481 -0.0020
23031W        W27331  11.136   5.933   8.845 -0.0971 -0.2025  0.0094
23032W        W27332  25.785   6.482  31.790 -0.1942  0.2796  0.0560
23033W        W27333   8.420   3.691   4.492  0.0142  0.0868 -0.0937
23034W        W27334  12.990   0.089  30.513 -0.1768 -0.1536  0.0217
23035W        W27335   9.125   6.012   7.954 -0.2476 -0.0151 -0.4565
23036W        W27336  23.280   6.274  25.183 -0.0465 -0.0152  0.0814
23037W        W27337   2.136   5.658   4.096  0.2269  0.2219 -0.0373
23038W        W27338   0.896   1.868  27.471  0.1543 -0.2495  0.0712
23039W        W27339  22.566   0.244  11.161 -0.0487  0.0834  0.0984
23040W        W27340   1.626   0.496  35.800  0.0554 -0.0561  0.1689
23041W        W27341   6.189   0.416   3.123 -0.1713 -0.1780 -0.0380
23042W        W27342   4.501   6.123  12.619 -0.0472  0.1311 -0.1677
23043W        W27343  20.593   2.962  28.903  0.2256  0.0347 -0.0965
23044W        W27344   9.000   0.305   0.241 -0.0406 -0.1653  0.0942
23045W        W27345   2.689   1.270  14.858 -0.1210  0.0917 -0.0703
23046W        W27346  13.834   2.953  28.354 -0.1457  0.0658 -0.1388
23047W        W27347  25.241   0.071  32.243 -0.1083  0.1463  0.4101
23048W        W27348   5.880   0.817  11.138 -0.2419  0.2018 -0.2227
23049W        W27349  14.949   0.332   5.128  0.0068 -0.1537  0.0354
23050W        W27350  19.066   2.713  21.255  0.0253  0.0461  0.1767
23051W        W27351   5.013   4.301  27.868  0.2435  0.2316  0.0139
23052W        W27352  18.309   0.798  30.928 -0.0427 -0.0289  0.4500
23053W        W27353  24.690   1.569   6.564 -0.0412 -0.0126  0.0270
23054W        W27354  15.251   3.526  33.521 -0.1986  0.3554 -0.3474
23055W        W27355  25.114   1.642   6.271  0.2340  0.1481  0.1367
23056W        W27356   5.796   4.614  15.973  0.0800  0.0256 -0.0566
23057W        W27357   4.594   1.133   4.865  0.0866  0.3272  0.3505
23058W        W27358  24.513   4.424  32.412 -0.4166 -0.0815 -0.1271
23059W        W27359   9.390   2.926  27.726  0.1417  0.0622  0.1588
23060W        W27360  22.001   0.031   2.853 -0.1102 -0.4951 -0.1468
23061W        W27361   8.734   4.587   2.755  0.3385 -0.1174  0.1712
23062W        W27362   8.127   0.227  30.646 -0.0175 -0.2519  0.0923
23063W        W27363  20.164   0.853  31.976 -0.0157  0.0016  0.0239
23064W        W27364   5.429   1.410   0.422 -0.3031 -0.2343  0.2568
23065W        W27365  14.742   3.200  25.872  0.0721  0.0132 -0.3314
23066W        W27366   0.582   2.711  11.394 -0.0106  0.2056  0.1176
23067W        W27367  15.528   5.384  34.265 -0.1529 -0.0535  0.1008
23068W        W27368  21.480   4.776   2.458  0.0799 -0.1296  0.1716
23069W        W27369  21.587   3.011   8.926 -0.0870  0.0835 -0.1028
23070W        W27370  20.815   1.005  27.205  0.0762  0.1272  0.0685
23071W        W27371  22.458   5.671   6.046  0.1773 -0.2444 -0.2418
23072W        W27372  21.149   6.054  31.984  0.2453 -0.0420  0.0924
23073W        W27373  19.856   0.622  26.361  0.0775  0.0067 -0.0974
23074W        W27374  11.023   3.315  31.477  0.0416 -0.0528 -0.2846
23075W        W27375  19.559   1.611  34.160 -0.0632 -0.0552  0.2322
23076W        W27376  18.361   0.200  14.939  0.3735  0.0752  0.0396
23077W        W27377  14.131   0.315   6.932 -0.1566  0.2904 -0.2003
23078W        W27378  14.823   2.082   5.867 -0.0393 -0.1646 -0.4890
23079W        W27379   8.440   1.796  27.345 -0.1161  0.1990  0.0108
23080W        W27380  20.193   3.056   0.468  0.0299 -0.2354 -0.0459
23081W        W27381  12.646   0.235  23.966 -0.0735 -0.0020 -0.1505
23082W        W27382  19.187   4.270  13.263  0.0368  0.0614 -0.0637
23083W        W27383  18.134   2.808  35.435  0.2867  0.0449  0.2398
23084W        W27384   5.540   0.681  28.549  0.3012 -0.1075 -0.1229
23085W        W27385  25.583   6.118  22.703 -0.0637  0.2051 -0.0755
23086W        W27386  25.618   6.310  34.157  0.0233  0.1558 -0.1790
23087W        W27387  12.202   5.720  35.366 -0.0229 -0.0020 -0.2134
23088W        W27388   9.854   0.960   5.539 -0.0690 -0.0321 -0.0631
23089W        W27389  17.429   2.614  24.251 -0.2959  0.2462  0.0894
23090W        W27390  16.597   1.352  28.186  0.0094 -0.2388  0.2439
23091W        W27391   2.597   1.893   3.480 -0.3559 -0.0001 -0.2357
23092W        W27392  22.861   1.675   4.222 -0.0456  0.3114  0.1626
23093W        W27393  14.325   2.725   1.846  0.0767  0.1810  0.0494
23094W        W27394  11.635   2.702   4.828  0.1032  0.1045  0.1471
23095W        W27395  18.055   0.235  10.004  0.2007 -0.0484 -0.2936
23096W        W27396  25.079   4.141  12.389 -0.3191  0.0160 -0.2123
23097W        W27397  10.767   2.670  27.602 -0.1109 -0.3874 -0.3027
23098W        W27398   4.377   2.857   2.605 -0.0539 -0.1937 -0.1473
23099W        W27399   3.933   0.203  26.352  0.1048  0.0883 -0.1237
23100W        W27400  23.654   2.537  25.954  0.1223 -0.0078 -0.1883
23101W        W27401  24.557   2.889  20.920  0.2432 -0.2700  0.2306
23102W        W27402  24.181   2.287   5.909 -0.1511  0.0262 -0.0540
23103W        W27403  23.819   2.960  12.334  0.4195  0.0968 -0.0673
23104W        W27404   5.357   0.642  22.901  0.0259 -0.1517  0.3008
23105W        W27405  23.751   3.713  34.034  0.1186  0.4735 -0.3007
23106W        W27406  21.054   3.668   7.126  0.1074 -0.0868  0.2060
23107W        W27407  20.532   4.418  22.681  0.3257 -0.0392  0.0976
23108W        W27408  17.281   3.024  23.368 -0.0686  0.1608  0.1454
23109W        W27409  17.878   5.551   5.431  0.1418 -0.0071 -0.2250
23110W        W27410   8.006   4.082   9.407  0.4820  0.1415 -0.1290
23111W        W27411   3.862   3.822  23.890 -0.2927  0.2247 -0.0063
23112W        W27412   9.675   1.749   7.231  0.2569 -0.1427  0.0760
23113W        W27413  25.704   0.400  26.474  0.0334 -0.1066 -0.2006
23114W        W27414  24.775   2.325   1.437 -0.1782  0.1042 -0.1631
23115W        W27415  18.350   2.531  10.269 -0.1504  0.3321  0.0144
23116W        W27416  24.950   4.152   6.929  0.1274  0.1364 -0.2662
23117W        W27417  19.093   5.177  24.767 -0.0411 -0.1250 -0.0563
23118W        W27418  12.025   5.783   2.259  0.3301  0.1935  0.0559
23119W        W27419   9.315   4.535   2.795  0.0553  0.0878  0.1405
23120W        W27420   1.270   5.950   0.868  0.1302  0.1584  0.1623
23121W        W27421  24.320   0.418  34.778 -0.0261  0.2166  0.3978
23122W        W27422   3.588   0.910   7.184  0.0808 -0.1645 -0.3757
23123W        W27423   3.588   2.770  20.446 -0.0617 -0.0746  0.0205
23124W        W27424   9.386   2.943  34.840 -0.0357 -0.2169 -0.2109
23125W        W27425  15.998   3.932   4.001  0.3531 -0.0686  0.1027
23126W        W27426  25.922   2.904  27.939  0.0181  0.0537 -0.3550
23127W        W27427   9.886   3.356   5.623 -0.4026  0.1271  0.0061
23128W        W27428  17.785   0.333  33.387 -0.3705  0.1260  0.0259
23129W        W27429  16.311   4.188  27.898  0.0136  0.0261 -0.0944
23130W        W27430   3.462   2.842  14.739  0.0580  0.2111 -0.0776
23131W        W27431  23.159   4.083   0.613  0.0176  0.0419  0.2627
23132W        W27432  17.167   6.189  11.585 -0.3129 -0.0232 -0.1457
23133W        W27433   3.053   5.517  34.293  0.0298  0.2346 -0.1420
23134W        W27434   2.629   4.561  23.655 -0.0447  0.1715 -0.0844
23135W        W27435   0.911   2.500  35.415  0.1979  0.1482 -0.0366
23136W        W27436   7.255   5.372   9.280  0.1400  0.2459  0.0098
23137W        W27437  24.756   3.245  34.974 -0.0310 -0.2440  0.1536
23138W        W27438   2.355   0.552  30.737  0.1667  0.0090 -0.2408
23139W        W27439   6.634   1.548  21.107  0.1221 -0.0261  0.1304
23140W        W27440  19.653   4.067   8.230 -0.2203  0.3074 -0.4459
23141W        W27441  26.431   2.644  35.012  0.1381 -0.1223 -0.1975
23142W        W27442  20.934   1.771  30.697 -0.3353 -0.4020 -0.1484
23143W        W27443   0.657   0.080  11.223 -0.0174 -0.2509 -0.0856
23144W        W27444  21.458   2.856  22.330  0.1801 -0.0104  0.1874
23145W        W27445  20.182   2.020  33.053  0.0355 -0.1216 -0.0399
23146W        W27446  18.829   2.280   8.533  0.2639 -0.0655  0.0786
23147W        W27447  17.430   5.626  12.889  0.3054 -0.1949 -0.0413
23148W        W27448  24.399   0.405  23.451 -0.2246  0.0384 -0.3156
23149W        W27449  10.137   0.933  33.680 -0.0045 -0.0010  0.0869
23150W        W27450  21.742   6.312  13.942  0.2759  0.2576 -0.4532
23151W        W27451  20.149   3.751   4.474 -0.0307 -0.1756 -0.0714
23152W        W27452  16.045   5.938  34.407  0.2290  0.0010 -0.0499
23153W        W27453  25.446   1.931  15.012  0.3043  0.1023  0.1739
23154W        W27454  22.707   0.002  29.297 -0.3748 -0.0365  0.0407
23155W        W27455   9.553   2.878  28.591 -0.0614 -0.0003 -0.3695
23156W        W27456  15.771   5.084   2.203 -0.1344 -0.2903 -0.3143
23157W        W27457  18.794   2.569  12.281  0.2685 -0.0934 -0.2319
23158W        W27458  15.283   3.922  21.583  0.2170 -0.0915 -0.2070
23159W        W27459  26.130   3.611  31.049  0.0778 -0.3898  0.0039
23160W        W27460   3.642   2.573  29.309  0.2653  0.2019 -0.0782
23161W        W27461  20.969   1.756  11.591 -0.0520  0.1686 -0.1710
23162W        W27462   5.126   5.995   0.378  0.1006 -0.0692 -0.1181
23163W        W27463  13.407   5.735  23.846  0.1758  0.0943 -0.1784
23164W        W27464   9.630   4.279   4.680  0.5715  0.0806  0.1098
23165W        W27465  26.292   4.783  14.559 -0.4386  0.1743 -0.1321
23166W        W27466   3.647   2.661  34.081 -0.1032 -0.1193  0.1679
23167W        W27467  16.216   6.291  24.095  0.0486 -0.1038 -0.0441
23168W        W27468   1.164   0.700  23.371  0.0981 -0.0541  0.0561
23169W        W27469   2.942   4.322  33.184  0.1633  0.2449 -0.1785
23170W        W27470   1.854   2.885   3.062 -0.1687 -0.1136 -0.1710
23171W        W27471  12.949   0.350  21.338  0.2372  0.2532 -0.2131
23172W        W27472   2.633   2.773  31.707 -0.0252  0.1484 -0.1540
23173W        W27473   7.110   4.227   5.370  0.0124  0.0366  0.1829
23174W        W27474  22.697   6.489  35.930  0.1102 -0.0505 -0.3154
23175W        W27475   7.169   0.193  21.180  0.3469 -0.1531  0.1448
23176W        W27476  11.920   1.086   9.392 -0.2295 -0.0118  0.3067
23177W        W27477  21.166   3.659   6.572  0.0862 -0.0755 -0.1318
23178W        W27478   4.487   5.529   0.320 -0.0695 -0.1609 -0.3720
23179W        W27479   1.769   6.304  15.786 -0.4049 -0.1199  0.1328
23180W        W27480  26.131   6.342  27.695  0.0336 -0.1208 -0.1114
23181W        W27481   3.035   0.453   8.187 -0.0378 -0.1334 -0.3622
23182W        W27482  25.804   5.548  34.054 -0.1593  0.0615  0.1134
23183W        W27483  23.786   0.019  24.695  0.1952  0.3279  0.0220
23184W        W27484   8.380   4.942  15.327  0.3024 -0.1674 -0.0736
23185W        W27485   3.718   0.229   3.422 -0.1164 -0.0058 -0.0443
23186W        W27486   1.730   2.167   0.662 -0.0622 -0.0763 -0.0527
23187W        W27487  10.972   0.200   4.547  0.0175  0.0451  0.0321
23188W        W27488   4.620   2.901  30.350  0.0727 -0.1043 -0.2687
23189W        W27489  24.094   0.820  14.110  0.1422 -0.0617  0.0835
23190W        W27490  17.005   3.341  15.147 -0.0353  0.3370  0.2601
23191W        W27491  18.274   2.251  25.018  0.1507  0.1859 -0.1691
23192W        W27492   1.326   5.725  35.606 -0.1316 -0.1762 -0.0157
23193W        W27493  12.669   5.650  36.076 -0.1934  0.0789 -0.0771
23194W        W27494  14.194   5.325  28.988  0.0182 -0.1800  0.3447
23195W        W27495  24.286   5.483  31.115  0.2354 -0.1433  0.0603
23196W        W27496   1.049   3.512  10.389 -0.1063 -0.1352 -0.0755
23197W        W27497   0.929   3.314   6.155  0.1034  0.1208  0.0120
23198W        W27498  15.971   4.660   0.946 -0.2388  0.4240 -0.0532
23199W        W27499   9.802   5.509   1.434  0.4411  0.0841 -0.2620
23200W        W27500  14.317   1.464  24.115 -0.2502  0.1280  0.3040
23201W        W27501  11.442   5.936   6.185  0.2663  0.1070  0.0937
23202W        W27502  15.961   0.611  23.561  0.0437 -0.0790 -0.1575
23203W        W27503   1.640   1.402  10.198  0.0539 -0.0794  0.1472
23204W        W27504  10.257   0.293  24.834  0.1852 -0.1547  0.0717
23205W        W27505   9.800   6.464  15.351  0.1913  0.1318 -0.3948
23206W        W27506  24.154   1.168  26.938  0.0878 -0.0878  0.1244
23207W        W27507  13.543   2.092  28.317 -0.1593 -0.1858 -0.1066
23208W        W27508   7.207   5.737   7.937  0.1195  0.0312  0.2666
23209W        W27509  20.291   3.339  32.975  0.1646 -0.4745  0.0621
23210W        W27510   3.886   4.622  30.995 -0.1448  0.1833  0.1482
23211W        W27511   4.971   5.894   2.058  0.0517  0.1387  0.0821
23212W        W27512   3.563   5.847   5.650 -0.1063  0.1095 -0.2185
23213W        W27513  16.194   2.522  34.617 -0.0125  0.1338  0.1951
23214W        W27514   9.970   5.805  13.486 -0.2644  0.1146  0.1512
23215W        W27515  19.411   5.655  21.522 -0.1970  0.0342 -0.4620
23216W        W27516   7.497   2.574  34.140 -0.3228 -0.0415  0.1790
23217W        W27517  18.978   4.598   4.310  0.2629  0.2355  0.0423
23218W        W27518   1.507   4.926  31.362 -0.1190 -0.0407 -0.1764
23219W        W27519  23.712   0.199  30.979  0.3444  0.3578  0.0087
23220W        W27520   7.236   1.328  26.761 -0.4313 -0.2390  0.2879
23221W        W27521  19.007   3.353   0.929 -0.0226  0.1401 -0.0002
23222W        W27522  20.438   6.362   3.769 -0.2798  0.2538 -0.0240
23223W        W27523  15.324   4.005   5.133 -0.0594  0.1196 -0.0247
23224W        W27524   4.676   0.508  29.768  0.0849  0.0779  0.1598
23225W        W27525  11.124   2.870   6.026  0.3069  0.3090  0.2089
23226W        W27526  18.577   1.471  11.586  0.3694  0.3094 -0.1298
23227W        W27527  19.969   6.016   7.391 -0.0661  0.2441 -0.2033
23228W        W27528  25.307   2.753   8.152 -0.1678 -0.2881  0.1506
23229W        W27529   6.346   3.083  35.836  0.3825 -0.2654 -0.1368
23230W        W27530   7.216   0.760   2.875  0.2640 -0.1265  0.3075
23231W        W27531   9.100   5.220  14.644  0.3346  0.2192 -0.2271
23232W        W27532  22.397   2.728  31.758  0.0466  0.0722 -0.0299
23233W        W27533  26.302   6.549   1.279 -0.0223  0.1817 -0.3506
23234W        W27534  22.222   2.878   4.290 -0.2634 -0.1729 -0.1914
23235W        W27535  26.197   5.674   0.112  0.3078  0.1650  0.0497
23236W        W27536   8.317   6.286  13.326 -0.0875 -0.1464  0.2541
23237W        W27537  24.777   0.400  34.983  0.1384  0.1703 -0.1442
23238W        W27538  15.334   3.067  33.587  0.1940 -0.0269  0.1938
23239W        W27539  18.789   4.961   5.872 -0.0721  0.3674 -0.0589
23240W        W27540   0.525   0.726  29.586 -0.2826 -0.1439 -0.1491
23241W        W27541   8.620   5.727   4.191  0.0409  0.0168 -0.0203
23242W        W27542   0.756   6.384  27.907  0.1253  0.0046  0.4727
23243W        W27543  24.477   5.791   8.672 -0.0829  0.0954 -0.0898
23244W        W27544   2.099   0.702  31.639 -0.0176  0.0870 -0.2005
23245W        W27545  16.042   6.445  23.604 -0.0041 -0.4047 -0.0309
23246W        W27546  17.949   2.188  10.060 -0.0467  0.0241  0.1705
23247W        W27547   8.320   4.130  12.872 -0.0189 -0.3028 -0.0058
23248W        W27548  15.604   3.178  24.376 -0.0767 -0.1016 -0.1019
23249W        W27549   8.327   2.766  27.349  0.2112  0.2222  0.0112
23250W        W27550  11.217   0.812   2.220 -0.3245 -0.0410  0.3465
23251W        W27551  21.349   5.433  14.420 -0.0668  0.4112  0.2485
23252W        W27552   5.871   2.069   7.741  0.1494 -0.1354  0.0569
23253W        W27553  25.052   5.236  31.435  0.0265 -0.1000 -0.0013
23254W        W27554  11.429   3.880  24.677  0.3415 -0.0869 -0.0284
23255W        W27555  20.329   2.951  27.978 -0.0291 -0.0602  0.1836
23256W        W27556   3.491   0.740   7.961  0.0297  0.4122  0.2499
23257W        W27557  18.980   3.178  30.740  0.3225  0.2810  0.0722
23258W        W27558  15.664   1.499   8.459 -0.0205  0.0362  0.0343
23259W        W27559   9.091   1.060  20.683  0.1001  0.0086  0.2005
23260W        W27560   2.143   5.434  23.639  0.0256 -0.1931  0.0066
23261W        W27561  18.242   4.847  23.066  0.1872 -0.1495 -0.0911
23262W        W27562   2.448   2.222   9.280  0.0782 -0.1578  0.0212
23263W        W27563   5.746   1.817  23.207 -0.3963  0.0158 -0.2414
23264W        W27564   4.541   5.385  10.377  0.1079  0.1110  0.2065
23265W        W27565  18.344   2.318  20.607  0.0037 -0.1413  0.0244
23266W        W27566   4.883   3.389  26.150  0.1454  0.0463 -0.1865
23267W        W27567   6.087   3.916  21.070 -0.1032  0.1713  0.0721
23268W        W27568  19.416   2.421   3.872  0.0095 -0.2866  0.1661
23269W        W27569  19.026   2.658  32.267 -0.1009 -0.2193  0.2395
23270W        W27570   9.802   6.280  22.190 -0.1224  0.0633 -0.2808
23271W        W27571   8.425   3.879  21.450  0.1144 -0.0358  0.0500
23272W        W27572   7.360   2.357  21.495  0.0112  0.4148 -0.0569
23273W        W27573   4.274   3.121   4.435 -0.1942  0.1971  0.1454
23274W        W27574   8.806   2.653  12.503  0.4303  0.0286 -0.1715
23275W        W27575  22.297   1.876  30.691  0.0404 -0.2825 -0.0520
23276W        W27576  14.774   0.907  28.813  0.0559  0.0700  0.3399
23277W        W27577  11.971   4.416   1.667  0.0165 -0.0062 -0.0153
23278W        W27578   9.049   1.685   9.114 -0.0063 -0.0443  0.2443
23279W        W27579   5.366   1.790  24.227 -0.0151  0.0629  0.1364
23280W        W27580  21.367   3.952  31.908 -0.1459  0.1820  0.1120
23281W        W27581  23.854   3.318   6.978 -0.0283  0.3265  0.0340
23282W        W27582   5.485   3.799  27.929 -0.3306 -0.1163 -0.2608
23283W        W27583  23.901   1.337   7.999  0.3891 -0.0283 -0.2647
23284W        W27584  11.414   2.586  24.593 -0.0050  0.0289  0.3338
23285W        W27585   2.251   5.315   1.044 -0.0773 -0.1399 -0.0069
23286W        W27586   1.772   5.450  30.677 -0.1953 -0.3215  0.0840
23287W        W27587   8.565   2.008  29.032  0.0753 -0.0671 -0.0117
23288W        W27588  13.219   2.685  20.290  0.2949 -0.1092  0.1227
23289W        W27589  12.546   4.296  11.039 -0.2848  0.0557  0.0440
23290W        W27590  22.794   1.372  29.382  0.2122  0.0240 -0.0281
23291W        W27591  16.872   0.224   1.343  0.1392 -0.0601 -0.1063
23292W        W27592   6.071   5.691  28.515  0.1933  0.1538  0.2037
23293W        W27593  24.618   6.142  20.994 -0.0710 -0.0194 -0.1710
23294W        W27594  14.135   5.079   4.442  0.0937 -0.2268 -0.1335
23295W        W27595  13.572   1.164  30.450  0.3000  0.1828 -0.2403
23296W        W27596   9.600   3.099  28.150  0.0713  0.0091 -0.1969
23297W        W27597   6.467   1.360  33.235  0.1465 -0.1752  0.0728
23298W        W27598  23.868   1.906  31.417 -0.3079 -0.0440  0.2215
23299W        W27599  10.311   3.603  10.025 -0.0269 -0.1701  0.2400
23300W        W27600   8.319   5.081   1.640  0.0474 -0.3879  0.0733
23301W        W27601   9.879   5.089  31.993 -0.0489  0.0780 -0.0620
23302W        W27602  20.779   0.875  23.425  0.0616 -0.3265  0.1275
23303W        W27603  10.419   1.160  11.867  0.2801  0.0122  0.3040
23304W        W27604  11.854   3.244   4.315  0.0341  0.1479 -0.1358
23305W        W27605   9.745   6.187   0.259 -0.2444  0.0162 -0.2203
23306W        W27606   9.708   0.671  29.041  0.1360  0.1576  0.1716
23307W        W27607   6.895   5.150  32.440  0.0181  0.3420  0.0983
23308W        W27608  23.718   4.395  26.241 -0.2296  0.1266 -0.3433
23309W        W27609   9.635   2.153  33.677  0.0399  0.0405 -0.2323
23310W        W27610  10.074   1.833  21.953  0.1964 -0.2901 -0.2466
23311W        W27611  22.913   5.186  30.231  0.1218  0.0377 -0.0084
23312W        W27612  24.662   1.142  26.024 -0.3962  0.0850 -0.2258
23313W        W27613  23.589   5.335   4.154  0.0472  0.1933 -0.0628
23314W        W27614  18.378   3.274  26.562  0.1595 -0.0294 -0.0998
23315W        W27615  18.304   6.074  33.440 -0.0289  0.1455  0.0345
23316W        W27616   6.353   2.084   7.754  0.2206 -0.2589 -0.0118
23317W        W27617   6.044   5.485  12.099 -0.0308 -0.0142 -0.0409
23318W        W27618  11.952   3.911   9.982  0.0820  0.0841  0.2006
23319W        W27619  10.187   5.564  10.313 -0.0494  0.0111 -0.3128
23320W        W27620  10.503   2.492  15.057  0.0781  0.1706 -0.2773
23321W        W27621  21.590   1.287   2.523 -0.0691  0.0548  0.0219
23322W        W27622   8.342   1.761  24.270 -0.1965  0.1609  0.0837
23323W        W27623  11.459   2.298  22.209 -0.4812  0.1639 -0.1115
23324W        W27624  17.278   1.981  21.895  0.2321 -0.1763 -0.5713
23325W        W27625  12.724   1.673   7.242 -0.0833  0.2068 -0.0211
23326W        W27626   4.088   3.385  24.127 -0.1441  0.1511 -0.1367
23327W        W27627   6.632   5.409  23.370  0.0388  0.0104 -0.1635
23328W        W27628   3.177   2.659  31.821  0.2136  0.0981 -0.2262
23329W        W27629   5.790   0.353  28.218 -0.1300  0.1309 -0.0341
23330W        W27630  18.656   6.235  23.480  0.1103  0.0208 -0.3266
23331W        W27631   4.783   1.018  26.844 -0.3048 -0.0604 -0.1382
23332W        W27632   9.094   6.299  28.228 -0.2350 -0.0528  0.0563
23333W        W27633   2.216   4.533  25.557 -0.0559 -0.1079  0.2397
23334W        W27634  15.079   2.875   8.224 -0.1858  0.2649  0.0231
23335W        W27635   2.968   4.035   1.126 -0.1046 -0.1612 -0.0389
23336W        W27636   2.096   1.857  32.022  0.0180 -0.1331 -0.0082
23337W        W27637  19.959   1.267   4.035 -0.2077 -0.0087  0.1309
23338W        W27638   5.068   1.110  14.437  0.2108  0.0777 -0.2071
23339W        W27639  22.522   1.926  10.074  0.2884 -0.0422  0.1921
23340W        W27640   1.880   3.904  14.314  0.0331 -0.1232  0.1457
23341W        W27641   5.181   1.359  13.010  0.1979 -0.2823 -0.0208
23342W        W27642  24.552   1.836  30.177 -0.2382 -0.1873 -0.2746
23343W        W27643  26.260   5.924   3.027  0.1889 -0.1063  0.1798
23344W        W27644   2.638   3.415  13.942  0.3693  0.1902  0.3352
23345W        W27645   6.506   3.430   6.496  0.1764 -0.1687 -0.1349
23346W        W27646  14.108   5.349  12.735  0.1759  0.1131  0.2145
23347W        W27647  16.895   2.138  21.600 -0.0514  0.3269 -0.2166
23348W        W27648  23.239   5.040  14.543  0.2832  0.1753 -0.2264
23349W        W27649   2.197   6.394   3.514  0.1656  0.1642 -0.0980
23350W        W27650   7.187   1.388  22.271 -0.0032 -0.1280 -0.1150
23351W        W27651  26.010   5.610  35.770 -0.1133  0.1404  0.2848
23352W        W27652  13.532   0.691  13.893  0.3173 -0.2571  0.0475
23353W        W27653  23.175   0.002  21.615 -0.1217  0.0371  0.2238
23354W        W27654   9.426   0.750   0.225  0.0712  0.0843 -0.1894
23355W        W27655  13.312   5.409   1.413  0.0508  0.1812 -0.1609
23356W        W27656  20.691   0.414  30.773  0.3231  0.2476 -0.2326
23357W        W27657  20.502   2.753   4.876 -0.3463 -0.2436 -0.1885
23358W        W27658   7.286   0.218  36.088  0.1269 -0.1229 -0.0226
23359W        W27659   6.554   4.137   8.457 -0.1078 -0.0122 -0.2652
23360W        W27660  24.542   2.488   0.575  0.5109  0.2115  0.0527
23361W        W27661   6.954   1.268  27.450  0.2720 -0.0485  0.0374
23362W        W27662  23.329   2.250  13.816  0.0223  0.0857 -0.2739
23363W        W27663  25.631   4.132  33.625 -0.1989 -0.1638  0.1725
23364W        W27664  10.523   3.904  23.203  0.4295  0.1752 -0.0997
23365W        W27665  17.686   1.831   3.970 -0.1447 -0.2102  0.1597
23366W        W27666   7.857   1.617   5.909 -0.1416  0.0351 -0.1518
23367W        W27667   1.453   3.357  23.841 -0.1102 -0.1931  0.0068
23368W        W27668  20.831   0.843  27.737  0.2842 -0.0168  0.2425
23369W        W27669  14.779   5.851   7.482  0.5402 -0.1082  0.0696
23370W        W27670   7.958   4.380  31.301 -0.2627 -0.0470  0.2167
23371W        W27671  10.765   6.213  34.202 -0.2542  0.2606  0.0903
23372W        W27672   6.130   1.108   7.900  0.3135  0.1126 -0.1330
23373W        W27673   7.229   2.341  14.758 -0.2446 -0.0352  0.1302
23374W        W27674  16.025   0.352  21.948 -0.1239 -0.3741  0.1015
23375W        W27675   1.665   5.855   9.631 -0.1075 -0.0313  0.4791
23376W        W27676  21.597   5.154  29.735 -0.0280  0.0349 -0.3873
23377W        W27677  15.877   1.661  31.651 -0.1992  0.0796  0.0736
23378W        W27678   2.324   4.714  34.396  0.4069 -0.0589  0.2100
23379W        W27679   8.294   2.079  12.935  0.1956  0.1770  0.2948
23380W        W27680  11.071   1.208   2.425 -0.1415  0.0082 -0.0532
23381W        W27681   6.690   6.546  10.353 -0.0509 -0.2754 -0.0226
23382W        W27682  25.232   3.032   4.720 -0.1406  0.0617  0.1821
23383W        W27683  14.729   1.992   5.002  0.2125 -0.0888  0.1177
23384W        W27684   6.296   2.128  14.402 -0.1192  0.4003 -0.1888
23385W        W27685   9.819   0.859  20.394 -0.1513 -0.3025 -0.2340
23386W        W27686  14.887   5.812  30.006 -0.6110 -0.1520  0.2017
23387W        W27687   0.703   2.933  12.238 -0.0540  0.1865 -0.0233
23388W        W27688  13.860   1.443  22.408  0.3039 -0.1903  0.0319
23389W        W27689   1.779   5.866  13.381 -0.3200 -0.0813 -0.1102
23390W        W27690   6.195   1.599  32.370 -0.2249  0.3337 -0.0986
23391W        W27691  20.018   0.448  11.346  0.1983  0.0662  0.0970
23392W        W27692  10.520   5.775  20.654 -0.1734 -0.0103  0.0437
23393W        W27693   3.790   4.789   9.168 -0.0276 -0.1050 -0.0895
23394W        W27694  11.485   2.887  28.240 -0.3876  0.1061 -0.0092
23395W        W27695  25.954   0.525  21.971  0.0247 -0.2262  0.2333
23396W        W27696   2.526   1.062   4.613  0.1380  0.0464 -0.2020
23397W        W27697   9.558   2.448  30.605  0.1719  0.1145 -0.1593
23398W        W27698  14.201   2.528  26.975 -0.0253  0.2048  0.0679
23399W        W27699   0.921   3.359   7.438 -0.2054  0.1401  0.0869
23400W        W27700  12.607   1.386  22.972 -0.3157 -0.0536  0.2004
23401W        W27701   4.305   0.828   1.902 -0.0068 -0.2028 -0.1969
23402W        W27702  24.481   3.710   6.437 -0.1106  0.1495  0.3453
23403W        W27703  16.100   5.781   0.547 -0.3680  0.0229  0.2954
23404W        W27704   5.750   5.631  28.160  0.1078 -0.1232 -0.1830
23405W        W27705   2.675   4.413   7.751 -0.1410 -0.0472 -0.0594
23406W        W27706   4.898   1.205  26.367  0.0895 -0.2376 -0.2630
23407W        W27707   4.007   1.236   3.756  0.2773  0.0822  0.0119
23408W        W27708   6.046   2.050   9.642  0.2083  0.2291 -0.0119
23409W        W27709  25.255   0.056  34.012  0.4407 -0.0643 -0.0888
23410W        W27710   1.762   0.686  28.111 -0.1781  0.0475 -0.2667
23411W        W27711   4.443   0.149  10.324 -0.2870  0.4021 -0.4313
23412W        W27712  24.742   0.494  20.212 -0.1783 -0.2701 -0.0370
23413W        W27713  21.529   6.147  32.573  0.1121 -0.0349 -0.3745
23414W        W27714   6.316   2.461   2.184  0.1451 -0.1696  0.0347
23415W        W27715   7.593   5.440  26.770 -0.0725  0.1624  0.1060
23416W        W27716  25.749   3.264  33.508  0.2213  0.0664 -0.2265
23417W        W27717   4.744   2.860  36.049 -0.0918  0.0776 -0.1282
23418W        W27718  24.189   4.878  15.000  0.0123 -0.0524  0.2693
23419W        W27719  19.553   5.891   9.778  0.1041  0.4236 -0.0010
23420W        W27720  15.332   0.718  13.187 -0.0376  0.0967  0.0310
23421W        W27721  16.019   2.574  31.515 -0.2697 -0.2523  0.1354
23422W        W27722  12.930   0.766  25.896  0.0971 -0.0753  0.0478
23423W        W27723  16.443   1.539   3.922 -0.1193 -0.3211 -0.1213
23424W        W27724   6.573   3.869  20.967 -0.1411  0.0237 -0.0512
23425W        W27725   4.578   4.806  31.708  0.0333 -0.1832  0.0363
23426W        W27726   4.223   5.406  25.041  0.1605 -0.2347  0.2863
23427W        W27727   6.605   0.023  12.244  0.2537 -0.0309 -0.0562
23428W        W27728  19.127   3.884  31.408  0.0381 -0.2401 -0.0442
23429W        W27729  22.893   0.757  11.349 -0.0837  0.0515 -0.4508
23430W        W27730   8.928   6.249   4.874 -0.2056  0.0455 -0.0625
23431W        W27731   4.917   4.578  24.379 -0.3074 -0.1932 -0.1346
23432W        W27732  18.488   1.570   9.953  0.2807  0.0625 -0.0524
23433W        W27733   2.654   5.237  30.576 -0.0244  0.1152 -0.1158
23434W        W27734   0.570   2.294  12.612  0.3089 -0.0382 -0.1583
23435W        W27735   9.725   0.634  23.428  0.0370 -0.2462 -0.0805
23436W        W27736   9.843   5.271  14.571  0.0716  0.1812  0.4637
23437W        W27737  16.380   2.876   5.796 -0.0472 -0.0633  0.1533
23438W        W27738  24.085   2.008  30.009  0.0609  0.3598 -0.1620
23439W        W27739  14.616   4.203   5.803  0.3121 -0.1910 -0.0876
23440W        W27740   2.844   5.357   3.049  0.3078  0.2685  0.2135
23441W        W27741  11.426   3.513   4.587  0.0894  0.0081  0.0815
23442W        W27742  14.055   1.262   8.132 -0.4344 -0.2972 -0.0022
23443W        W27743  24.566   0.785  31.895  0.0021 -0.0983 -0.2024
23444W        W27744  17.693   3.248  22.573  0.1397  0.0711  0.0364
23445W        W27745   8.971   1.961  23.554  0.0788 -0.2009 -0.0946
23446W        W27746   7.314   1.273  21.800  0.0242 -0.0139 -0.0652
23447W        W27747   1.507   0.531   6.517  0.2088 -0.2502 -0.0421
23448W        W27748   5.719   6.136  30.010  0.2479 -0.0670 -0.0156
23449W        W27749   5.335   0.672   8.154  0.2587  0.0870 -0.4693
23450W        W27750   1.252   1.965  33.137 -0.1692  0.1938 -0.3022
23451W        W27751  21.741   6.181   8.975  0.2642 -0.0098  0.0132
23452W        W27752  17.338   0.970  12.903  0.3299 -0.2595 -0.1139
23453W        W27753  26.112   4.494  29.822  0.2156 -0.2148  0.0993
23454W        W27754   6.305   0.964   6.409  0.0823  0.1609 -0.1036
23455W        W27755  22.069   3.184  10.482 -0.4064  0.1740 -0.1220
23456W        W27756  25.089   4.034  31.183 -0.1560 -0.0996  0.0418
23457W        W27757  21.991   6.566  12.208  0.1083 -0.3627  0.0211
23458W        W27758  18.842   3.133   2.009  0.4247  0.0240 -0.2253
23459W        W27759   1.185   3.930  14.758 -0.2828 -0.3967 -0.0561
23460W        W27760   6.848   3.355  28.713 -0.0060  0.0947 -0.2851
23461W        W27761  23.176   0.088  20.950  0.0947  0.0656  0.0041
23462W        W27762  12.139   1.569  28.173 -0.1243  0.0309  0.0210
23463W        W27763  13.326   4.377  10.281 -0.1120 -0.0047 -0.0363
23464W        W27764   0.560   2.416   8.834 -0.0222  0.2298 -0.1779
23465W        W27765  22.377   0.016  21.945  0.0953  0.0267 -0.1438
23466W        W27766  15.001   4.742  12.362  0.2575 -0.0432  0.0952
23467W        W27767  20.352   1.720  24.475  0.1585 -0.0052  0.4144
23468W        W27768  12.760   5.610   6.380 -0.1466 -0.1295  0.1446
23469W        W27769   3.815   4.602   7.312 -0.3248  0.1063 -0.1195
23470W        W27770  18.248   4.649  12.174  0.0191 -0.0531 -0.2228
23471W        W27771  22.384   5.337  14.086 -0.0564  0.2184 -0.0239
23472W        W27772  15.920   1.320  20.887 -0.2283  0.1095  0.4250
23473W        W27773   1.061   0.851  34.127  0.1186  0.0751  0.1812
23474W        W27774  19.654   5.964  29.090 -0.0552  0.1401 -0.0927
23475W        W27775  12.679   5.909  23.553 -0.2114 -0.2335 -0.0320
23476W        W27776   3.461   0.221   0.410 -0.1289 -0.0047 -0.0776
23477W        W27777  10.172   0.416   4.224 -0.3353  0.2691  0.5903
23478W        W27778  14.784   0.093  29.185  0.1335 -0.1005  0.2353
23479W        W27779  15.874   3.270   6.864 -0.2005  0.1098  0.0841
23480W        W27780   6.351   3.746  25.172  0.0480 -0.0925 -0.2118
23481W        W27781   2.797   3.667  21.656  0.0776 -0.0839 -0.4497
23482W        W27782  17.639   0.918   5.087 -0.0877 -0.1720 -0.0147
23483W        W27783   3.540   6.223   4.388  0.2019  0.1862  0.0516
23484W        W27784  24.004   3.561  23.405  0.0976  0.0285  0.0270
23485W        W27785  23.101   3.207   9.172  0.0729  0.3257 -0.0330
23486W        W27786  21.575   1.908  23.943 -0.0103  0.0355  0.2510
23487W        W27787  16.186   2.079   6.040  0.1319  0.2220  0.3131
23488W        W27788  12.440   3.845  28.693  0.1624  0.0594  0.3439
23489W        W27789  19.844   0.200  22.868 -0.1225  0.0737  0.2376
23490W        W27790  15.327   1.478  26.588  0.1038 -0.0870  0.0175
23491W        W27791   8.993   2.621  24.255  0.1152 -0.3238  0.0075
23492W        W27792  22.201   3.706  30.154  0.0217  0.0874  0.1870
23493W        W27793  13.879   0.525   3.544 -0.0165  0.0072 -0.0730
23494W        W27794   8.959   4.893   3.940 -0.1471 -0.1656 -0.1455
23495W        W27795  15.520   4.763  35.428 -0.1499  0.1387 -0.2791
23496W        W27796  10.985   4.718   2.423 -0.1151 -0.3070  0.2054
23497W        W27797   5.237   1.845   3.405 -0.5023  0.0511  0.0351
23498W        W27798   2.564   2.692  34.649 -0.2271  0.0795  0.1643
23499W        W27799  19.890   4.571   1.048 -0.2069  0.0508  0.0160
23500W        W27800   4.634   3.389  14.463  0.1997 -0.1375 -0.3023
23501W        W27801  18.935   4.140  25.966  0.1111 -0.0831  0.0652
23502W        W27802  11.926   5.788  30.246 -0.3346 -0.0171 -0.0019
23503W        W27803   4.305   4.766  25.849  0.0732  0.0266 -0.0514
23504W        W27804  24.729   1.826  21.489 -0.2266  0.3942 -0.0076
23505W        W27805  12.269   1.127  23.307 -0.1548 -0.1140  0.1975
23506W        W27806   6.561   4.696   3.689 -0.2073 -0.1373 -0.1035
23507W        W27807  24.042   5.626   8.921 -0.0973  0.2224 -0.2374
23508W        W27808  19.776   1.929  10.790 -0.1894 -0.3452 -0.0597
23509W        W27809   1.895   1.769  14.459  0.0942 -0.0986  0.0172
23510W        W27810   6.682   1.220  22.753 -0.1507  0.1896 -0.0832
23511W        W27811  18.511   6.223  26.581  0.2201  0.0518 -0.0679
23512W        W27812   7.164   0.074   4.489  0.0134  0.1912 -0.2358
23513W        W27813  19.152   0.697  29.765 -0.2180 -0.0077 -0.0077
23514W        W27814   8.533   0.123  21.250  0.2053 -0.4286  0.1637
23515W        W27815   7.445   5.250  23.539  0.3439  0.0075 -0.0795
23516W        W27816   0.653   1.857  24.943 -0.0964  0.0507 -0.0322
23517W        W27817   8.211   0.687  13.059  0.1322  0.2153 -0.0693
23518W        W27818  26.158   6.595   6.638 -0.1767  0.1200  0.3008
23519W        W27819   9.078   0.146  14.651  0.2737  0.4109 -0.1175
23520W        W27820  12.186   6.503   7.568 -0.0162 -0.0019  0.1707
23521W        W27821  21.927   4.641  34.805  0.3428  0.1646 -0.0758
23522W        W27822  18.858   0.333   1.370 -0.1612  0.0104  0.1943
23523W        W27823  16.706   0.545   7.383 -0.2600  0.1130 -0.1609
23524W        W27824   4.070   6.039  14.762 -0.0091 -0.1684 -0.1561
23525W        W27825  15.224   5.351  13.073 -0.1056 -0.0008  0.2683
23526W        W27826  24.646   1.222   6.179  0.1021  0.0283 -0.2856
23527W        W27827  11.375   5.756  11.710  0.1372 -0.0873 -0.1917
23528W        W27828  15.698   4.521  30.568 -0.2300 -0.1361 -0.1257
23529W        W27829  24.952   5.093  12.163 -0.0919  0.0711  0.1121
23530W        W27830   0.301   0.095   2.868 -0.3811 -0.0248  0.0125
23531W        W27831   6.199   5.885  34.662 -0.0831 -0.0995  0.0963
23532W        W27832   0.871   6.246  25.320 -0.0347 -0.1827  0.1566
23533W        W27833  22.703   0.863   7.526 -0.1736 -0.0174 -0.0038
23534W        W27834  18.862   2.354   5.061  0.0067  0.0169 -0.1894
23535W        W27835  24.511   6.393  13.632  0.0391 -0.0126  0.3530
23536W        W27836  12.928   2.643   8.800 -0.2852  0.2045 -0.1496
23537W        W27837   5.543   1.077  22.727 -0.0968 -0.0655 -0.0051
23538W        W27838  24.728   4.566  34.949 -0.0153  0.1519  0.0213
23539W        W27839  21.937   4.068  24.074 -0.1664 -0.1446  0.0686
23540W        W27840  24.092   1.203  10.834 -0.0958 -0.0966  0.1594
23541W        W27841   0.786   2.267  21.254  0.1374 -0.2027 -0.1333
23542W        W27842  18.432   2.207   8.145  0.3270  0.0848  0.3922
23543W        W27843  13.150   2.311   4.866  0.1972 -0.2737  0.1717
23544W        W27844  16.832   4.700  20.246 -0.0098 -0.1272  0.1266
23545W        W27845   7.847   5.131  25.307  0.1779 -0.2148  0.0553
23546W        W27846  23.503   5.915   8.420 -0.3109 -0.1964  0.0177
23547W        W27847   9.252   1.594   5.226 -0.0058 -0.2895  0.0030
23548W        W27848  16.826   3.169  12.586  0.0829 -0.1601 -0.1068
23549W        W27849  11.963   4.902  28.550  0.1026 -0.0121 -0.1322
23550W        W27850   9.894   2.703  14.376  0.0648 -0.1389 -0.0033
23551W        W27851  21.813   0.559  31.011 -0.0938  0.0995  0.0748
23552W        W27852  15.615   3.750  29.518 -0.1309 -0.2029  0.0254
23553W        W27853  23.490   3.542  22.214 -0.0137  0.0490  0.3119
23554W        W27854  14.436   6.036   5.472 -0.0255  0.1898  0.0816
23555W        W27855   1.269   4.208  35.914 -0.1089 -0.2538 -0.3138
23556W        W27856  25.825   0.070  21.753 -0.0297  0.0598  0.0076
23557W        W27857  13.234   5.018  25.877 -0.2955 -0.0248 -0.0576
23558W        W27858   3.992   5.796   9.161  0.0602 -0.0634 -0.2064
23559W        W27859  11.803   5.916   3.614 -0.1785 -0.2819  0.2408
23560W        W27860  15.564   1.990  25.677  0.1321  0.2435  0.0752
23561W        W27861  20.525   2.324  14.775 -0.2225 -0.3693 -0.0167
23562W        W27862  10.298   1.433  29.247 -0.2269  0.3401 -0.1885
23563W        W27863  17.622   3.570   9.850  0.1714  0.0403 -0.4548
23564W        W27864   7.132   1.863  24.726 -0.1642 -0.2481 -0.0997
23565W        W27865   8.529   4.317   0.400 -0.1244  0.0397 -0.1432
23566W        W27866  17.081   2.818  15.472  0.0380 -0.2297 -0.1060
23567W        W27867  19.359   2.186  29.480 -0.1454 -0.2466 -0.0141
23568W        W27868   1.762   1.377   5.518 -0.1204  0.1773 -0.0348
23569W        W27869  13.610   4.796  25.449  0.0988  0.0079  0.2277
23570W        W27870  24.293   0.376   1.713 -0.3236 -0.3850 -0.0206
23571W        W27871  22.359   2.003  24.049  0.0390  0.2018 -0.1435
23572W        W27872  21.853   1.839  35.732 -0.0348 -0.0822 -0.1170
23573W        W27873   7.542   4.376   9.367 -0.2121  0.0024 -0.1994
23574W        W27874   4.881   6.552   2.713  0.3218 -0.1796  0.3590
23575W        W27875   5.490   3.070   7.099 -0.0755 -0.1088 -0.1212
23576W        W27876   2.874   5.671   3.988  0.1273  0.0572  0.2884
23577W        W27877  12.893   5.026  24.902 -0.1964 -0.2166 -0.0766
23578W        W27878  11.549   6.032  29.111 -0.1320 -0.0540  0.0722
23579W        W27879  17.157   3.502  27.456 -0.2057 -0.2384  0.2507
23580W        W27880  12.431   6.006  35.770  0.0647 -0.3250  0.2623
23581W        W27881  19.718   3.844  10.113 -0.3582  0.1442 -0.1321
23582W        W27882  21.388   2.532   2.035 -0.1209  0.2941 -0.1769
23583W        W27883   0.148   4.377  21.433  0.1126  0.1044 -0.0585
23584W        W27884   4.351   2.995  24.464  0.1746  0.0464  0.0605
23585W        W27885  24.949   6.032  30.451 -0.0813  0.0000 -0.0013
23586W        W27886   2.668   4.054  21.190 -0.0890  0.2316  0.0003
23587W        W27887   9.304   6.592   7.242 -0.0298 -0.1821  0.0272
23588W        W27888  19.349   0.079  27.442 -0.0955  0.2697  0.1018
23589W        W27889  15.204   3.435   1.203 -0.1849 -0.1726 -0.3233
23590W        W27890  22.273   3.775   2.189 -0.1223 -0.1910  0.2935
23591W        W27891   5.079   1.703  32.550  0.2507  0.0823  0.0894
23592W        W27892  22.623   4.797   8.051 -0.0021 -0.0469  0.1474
23593W        W27893   5.193   1.385  26.742  0.1636 -0.2406  0.0805
23594W        W27894   3.710   2.180   3.009  0.1399  0.2888  0.0550
23595W        W27895   5.986   0.391   3.571  0.1610  0.1750  0.0673
23596W        W27896  26.240   2.450  11.931 -0.1592  0.0509 -0.1084
23597W        W27897  14.110   5.930  31.691  0.0686  0.1687 -0.2770
23598W        W27898  19.413   0.487  24.154  0.2707 -0.0179  0.1349
23599W        W27899  14.622   5.236  25.638  0.0172  0.2770 -0.0465
23600W        W27900   7.751   3.818  12.280 -0.1776 -0.0748  0.0633
23601W        W27901  24.990   5.084  10.462 -0.2922 -0.1200  0.1530
23602W        W27902   9.874   5.482  12.563 -0.2402  0.2861 -0.1035
23603W        W27903  25.448   3.105   7.258 -0.0723  0.0397 -0.2694
23604W        W27904   1.643   1.487   6.906 -0.0068 -0.0845  0.2649
23605W        W27905  15.614   3.452  25.922  0.1169 -0.1786 -0.1588
23606W        W27906  16.994   2.886  24.423  0.1379  0.0110 -0.0463
23607W        W27907  17.130   4.037  22.919  0.0593 -0.3888  0.1612
23608W        W27908  19.324   0.820  31.107  0.0728 -0.1616  0.4175
23609W        W27909   1.638   0.346  23.905 -0.1841 -0.0909 -0.1355
23610W        W27910  15.690   2.538   0.721  0.1347  0.1791 -0.1149
23611W        W27911  12.458   4.312  15.313 -0.0082  0.0149 -0.1399
23612W        W27912   0.479   5.005   7.111 -0.0538  0.1816  0.2694
23613W        W27913   1.416   4.964   7.672 -0.0581 -0.1040  0.1380
23614W        W27914  14.592   5.243   3.278 -0.0173  0.0584 -0.2460
23615W        W27915  12.334   6.442   1.050  0.2261 -0.1624 -0.1328
23616W        W27916  18.096   5.737  33.876  0.2342 -0.4811  0.0718
23617W        W27917  25.667   5.954  32.498  0.2553 -0.2397 -0.1118
23618W        W27918  11.615   5.664  10.702  0.0615  0.0923  0.1404
23619W        W27919  18.236   1.042  23.539  0.0140 -0.0040  0.0482
23620W        W27920  15.500   5.888  22.926 -0.2889  0.1504  0.1537
23621W        W27921   7.435   0.290   9.224 -0.1821  0.0308 -0.3037
23622W        W27922   8.724   2.442  28.094 -0.1800 -0.0256 -0.0476
23623W        W27923   6.100   5.926  15.482  0.4146  0.1849 -0.2847
23624W        W27924  13.881   1.758  30.011 -0.0758  0.0066  0.0435
23625W        W27925   0.299   0.640  24.081 -0.0239  0.0204  0.2386
23626W        W27926  13.493   6.300  33.054  0.0744 -0.1638 -0.0717
23627W        W27927  20.481   2.471   1.433  0.1308  0.0626 -0.0054
23628W        W27928  17.950   2.366   3.063  0.1181 -0.0912 -0.0449
23629W        W27929  25.204   5.281   8.885  0.0890 -0.1960  0.0973
23630W        W27930  13.058   3.630  26.395  0.0472  0.0858 -0.0320
23631W        W27931  19.953   5.467  13.508  0.0347  0.0902  0.1242
23632W        W27932  10.111   3.071  30.191 -0.1284 -0.0239 -0.4514
23633W        W27933   3.044   1.319  28.057 -0.1116 -0.4683 -0.0114
23634W        W27934   1.456   0.444   4.692  0.2139 -0.3206 -0.3616
23635W        W27935  25.411   1.137  32.315 -0.2801  0.0269  0.0188
23636W        W27936  21.308   1.454  27.164  0.0069 -0.0336  0.0019
23637W        W27937  23.094   4.326  15.293  0.0051 -0.0787 -0.1913
23638W        W27938   2.354   4.186  34.929  0.2423  0.1288 -0.2050
23639W        W27939  18.150   5.418   5.907 -0.2528 -0.0531  0.1380
23640W        W27940  11.264   3.684  12.150 -0.2692 -0.0395  0.2860
23641W        W27941  25.928   1.450  35.789 -0.2523 -0.1115  0.0804
23642W        W27942  19.898   0.756  30.364 -0.0316  0.2210  0.0926
23643W        W27943   6.132   6.435  32.849  0.1555 -0.0392 -0.4710
23644W        W27944  11.596   1.528  12.373  0.1080  0.0084  0.0622
23645W        W27945   4.223   1.350  12.943  0.1241 -0.1985  0.0480
23646W        W27946   2.555   2.349  14.981 -0.4449 -0.0199 -0.1063
23647W        W27947  16.880   4.790  11.048  0.3204  0.0722 -0.0647
23648W        W27948   8.826   4.758  23.405 -0.0723 -0.0533  0.0214
23649W        W27949  18.545   3.810  26.295  0.0198  0.0492 -0.1153
23650W        W27950  14.475   1.755  10.726  0.1214 -0.2530  0.2746
23651W        W27951  24.753   2.305  23.327  0.4040  0.1007  0.2529
23652W        W27952  20.578   0.002  13.652  0.2246  0.1783 -0.0027
23653W        W27953  23.076   1.218  32.243 -0.1856 -0.0265  0.0227
23654W        W27954  16.884   6.434   8.112 -0.1646 -0.2801 -0.1219
23655W        W27955   1.204   5.194   3.120  0.2116 -0.2248 -0.1467
23656W        W27956  16.507   3.089  24.580  0.0651  0.0660  0.1540
23657W        W27957  25.578   5.470   3.666  0.3113 -0.4153 -0.0631
23658W        W27958  25.777   0.090  30.852  0.0536 -0.3548 -0.0172
23659W        W27959  25.786   3.495  23.099  0.0772  0.0879 -0.0193
23660W        W27960  22.087   4.302  28.339 -0.1639  0.3555  0.1600
23661W        W27961   3.283   4.762  24.120 -0.1495 -0.0990  0.0374
23662W        W27962  11.821   2.200  21.851  0.4843  0.3170  0.1759
23663W        W27963  22.583   6.072   5.875 -0.2502 -0.1166 -0.0901
23664W        W27964   8.411   5.416  35.160  0.0195 -0.1615  0.2821
23665W        W27965  10.342   5.760  29.183 -0.2152  0.0013  0.0111
23666W        W27966   7.095   5.877  10.210  0.1316  0.2361  0.2385
23667W        W27967  25.638   2.676  10.701  0.1251  0.3167 -0.0731
23668W        W27968  18.871   5.781  31.046  0.1693  0.0698  0.0516
23669W        W27969   5.577   1.089   5.377 -0.1267 -0.1821 -0.2097
23670W        W27970   0.799   2.310  28.904 -0.2292 -0.0432 -0.2416
23671W        W27971   7.383   0.960  10.752 -0.0059  0.1957  0.1557
23672W        W27972  17.009   6.072  27.628 -0.0474 -0.0818 -0.0222
23673W        W27973  24.510   3.138   8.198  0.0722 -0.1502  0.2377
23674W        W27974  25.485   1.640   4.721  0.1659 -0.3637  0.1876
23675W        W27975  13.085   2.304  26.156  0.1380  0.1073 -0.4350
23676W        W27976  15.427   2.307  15.450  0.0937 -0.1691  0.1702
23677W        W27977   1.536   3.571  24.802 -0.1836  0.1673 -0.1822
23678W        W27978   7.516   1.423   7.777 -0.0305  0.4288  0.0452
23679W        W27979  20.879   5.968  34.801 -0.4732 -0.0503 -0.0917
23680W        W27980  10.753   1.811  25.700 -0.0546 -0.1140 -0.0427
23681W        W27981  22.433   4.865   3.533  0.1292  0.3413  0.0970
23682W        W27982   3.639   5.767   1.635 -0.0646  0.0967 -0.2159
23683W        W27983   2.446   2.167   8.707  0.1660  0.2381 -0.1167
23684W        W27984  17.098   1.541   8.117  0.0550 -0.2571  0.1231
23685W        W27985  22.232   2.002  13.327  0.0232  0.1163  0.0906
23686W        W27986  22.686   4.729   1.651  0.2281 -0.2017  0.1801
23687W        W27987  21.340   6.036  25.517 -0.2170  0.1620  0.0404
23688W        W27988   6.223   2.538  11.237  0.0420  0.1198  0.1333
23689W        W27989  19.512   3.105   1.379  0.1278 -0.1345  0.4394
23690W        W27990   4.545   4.252   9.372  0.0854  0.2593  0.0686
23691W        W27991   9.532   0.667   0.765 -0.1736  0.2246 -0.3212
23692W        W27992   2.590   1.218  11.184  0.0329 -0.1154  0.2429
23693W        W27993  11.787   5.263  28.204 -0.3270  0.2391  0.3473
23694W        W27994  19.454   3.995   2.371  0.0420 -0.1620  0.1082
23695W        W27995   7.139   6.032  10.772  0.1019 -0.2888 -0.3377
23696W        W27996   2.345   5.765  24.089 -0.1017 -0.1423 -0.1837
23697W        W27997   2.418   3.645  33.145 -0.1339 -0.3277 -0.1503
23698W        W27998   8.719   2.159  25.656  0.0337  0.1105  0.0129
23699W        W27999  23.263   5.992   5.146 -0.0074 -0.0325 -0.2298
23700W        W28000  18.162   3.811   7.862 -0.1938  0.0016  0.1130
23701W        W28001   9.202   3.125  28.924  0.1208  0.2023 -0.0354
23702W        W28002  18.515   6.257  14.328  0.2483  0.0271 -0.0432
23703W        W28003  12.537   0.486  25.624 -0.2268  0.1497  0.0301
23704W        W28004  11.630   2.344  13.289 -0.0287 -0.1997 -0.2139
23705W        W28005  11.850   3.121  21.229 -0.2733 -0.1956  0.0768
23706W        W28006  12.220   5.852   3.265  0.0471 -0.1199  0.0246
23707W        W28007   2.503   0.298  35.312  0.0109  0.2238  0.0213
23708W        W28008  10.137   6.410  12.589  0.3065  0.0294  0.1336
23709W        W28009  17.829   1.464   8.088  0.3753  0.2129  0.0494
23710W        W28010   2.119   2.560  34.769  0.0977  0.2833  0.1678
23711W        W28011  21.005   4.321  25.542  0.0152  0.2630 -0.4321
23712W        W28012   8.984   6.332  11.657  0.2291  0.0943  0.3588
23713W        W28013   7.946   4.363   0.647  0.1536  0.4532  0.0950
23714W        W28014  14.867   2.041  12.843  0.0972  0.1323  0.0464
23715W        W28015  13.771   4.785  10.904 -0.0028  0.1281 -0.0969
23716W        W28016  22.419   5.738  24.171 -0.2033  0.1049  0.3187
23717W        W28017   7.168   6.461  23.807 -0.1306  0.1847  0.0208
23718W        W28018   4.507   1.323  15.563  0.0595 -0.0008 -0.2661
23719W        W28019  10.124   6.395   4.223 -0.2375 -0.0156 -0.0081
23720W        W28020  25.040   1.803   7.948  0.1156  0.1818  0.3078
23721W        W28021   7.580   6.371  14.481 -0.0168 -0.0858 -0.3355
23722W        W28022  13.137   4.578  23.692 -0.1577 -0.3555 -0.0065
23723W        W28023  20.274   5.380  11.084 -0.0945 -0.0683  0.1474
23724W        W28024  13.634   5.744  35.355  0.2013  0.1067  0.0251
23725W        W28025  22.640   4.052  20.948  0.2151 -0.4518 -0.2195
23726W        W28026   6.058   0.758  32.512 -0.1749 -0.1448  0.0761
23727W        W28027  16.266   4.595   5.419  0.2500  0.1000 -0.0824
23728W        W28028   3.989   4.505  32.436 -0.1942 -0.0406  0.1022
23729W        W28029  13.841   0.658  15.916 -0.0705  0.1419  0.1024
23730W        W28030   1.101   4.537  14.217 -0.2678  0.0479  0.0876
23731W        W28031  25.260   6.278  34.602 -0.0842 -0.4498  0.0193
23732W        W28032  11.377   0.784  31.858 -0.2799  0.2253  0.2693
23733W        W28033   5.172   0.524  29.876  0.0079  0.1434  0.1404
23734W        W28034   8.203   3.582  13.310 -0.2694 -0.2890  0.1171
23735W        W28035  16.463   4.716   7.556  0.0402 -0.1818  0.0036
23736W        W28036  19.005   5.159  21.908 -0.0201 -0.2264 -0.0757
23737W        W28037  16.103   5.499  26.752  0.3017  0.3362  0.2186
23738W        W28038  11.622   2.016   1.191 -0.0004 -0.3333  0.2040
23739W        W28039  21.790   6.121  21.351 -0.0463 -0.0393 -0.0832
23740W        W28040   6.258   4.247   8.853  0.1968 -0.1306 -0.3179
23741W        W28041  13.731   4.416   6.869  0.1112 -0.1341 -0.0663
23742W        W28042  23.453   2.630  32.191 -0.2085 -0.0766 -0.0049
23743W        W28043  12.934   4.312   3.915  0.0107 -0.1606  0.1329
23744W        W28044  16.334   1.552   8.320  0.2062  0.0552  0.1266
23745W        W28045  21.146   3.625  11.451  0.4823  0.0202 -0.1582
23746W        W28046  17.346   5.227  11.802 -0.0522 -0.0986  0.0906
23747W        W28047   8.854   5.461  26.525  0.0763 -0.0067 -0.0495
23748W        W28048  11.687   4.821  34.215  0.2859  0.0886 -0.0601
23749W        W28049   4.307   2.705   4.680  0.1395  0.1480 -0.4011
23750W        W28050   1.432   0.757   7.513  0.1996  0.0675 -0.1330
23751W        W28051  11.232   2.473   6.287  0.0404  0.2292  0.1078
23752W        W28052  12.708   1.407  23.519  0.1615  0.2253  0.1166
23753W        W28053  22.621   1.216  24.830  0.2437  0.1433  0.0802
23754W        W28054   6.683   2.006   5.305 -0.0780  0.0353 -0.0606
23755W        W28055  21.710   4.876   2.865  0.0373 -0.2470  0.2084
23756W        W28056   6.822   6.448  36.053  0.1245  0.4257 -0.0788
23757W        W28057   4.715   1.202  12.835 -0.1509 -0.1441  0.0357
23758W        W28058   0.799   1.859   4.097  0.2494 -0.0551 -0.1513
23759W        W28059  14.844   4.767  32.478  0.1550  0.0618 -0.1844
23760W        W28060  13.999   0.305   9.189 -0.0440 -0.0997 -0.0359
23761W        W28061  17.618   1.250  27.067 -0.0536 -0.0815 -0.0546
23762W        W28062   7.786   1.557  25.913 -0.1980  0.2872 -0.3056
23763W        W28063  24.950   0.057  26.454  0.2009  0.2520 -0.0684
23764W        W28064   0.748   2.421  23.653 -0.0634 -0.1744 -0.0569
23765W        W28065  18.945   0.543  13.246  0.0429  0.0510  0.4566
23766W        W28066  12.040   3.234   6.111 -0.1801 -0.0860  0.1972
23767W        W28067   9.979   3.825   2.934 -0.1396  0.1678  0.1024
23768W        W28068   9.973   6.436  25.712  0.0161 -0.0714 -0.2239
23769W        W28069   6.138   6.474  12.953  0.0105 -0.0011 -0.0909
23770W        W28070  18.346   1.028  32.237 -0.0796 -0.1186  0.0765
23771W        W28071   9.502   5.806   4.341 -0.1087  0.2113  0.2047
23772W        W28072   9.714   2.789  32.710 -0.2965  0.2870 -0.3090
23773W        W28073   9.533   0.787  11.713 -0.2121  0.0899  0.0433
23774W        W28074   5.607   5.345  35.615 -0.0457 -0.5823 -0.1053
23775W        W28075  11.056   3.764   8.804  0.0308 -0.2553 -0.0093
23776W        W28076   0.290   2.688   3.799  0.3544 -0.0660 -0.0296
23777W        W28077  25.547   3.197   0.024 -0.0297 -0.1612  0.0284
23778W        W28078   0.976   4.377   4.495 -0.2074  0.0692 -0.0096
23779W        W28079  11.829   5.017  26.032  0.0293 -0.0215 -0.1994
23780W        W28080  18.017   1.227  23.949  0.0439  0.0678 -0.1964
23781W        W28081  13.677   3.604  32.829  0.2889  0.1353  0.0898
23782W        W28082  11.733   6.369  26.561 -0.1503  0.0553 -0.1705
23783W        W28083  16.305   2.949   9.990 -0.0900 -0.1862 -0.3134
23784W        W28084  25.173   0.862  30.990  0.1964 -0.0454  0.0575
23785W        W28085  22.753   0.326   4.038  0.0795 -0.0134 -0.0552
23786W        W28086   2.225   2.626   2.208 -0.1857  0.4089 -0.0949
23787W        W28087  10.738   1.932  32.295  0.1371 -0.1102 -0.0729
23788W        W28088   2.450   1.188  27.348 -0.1775  0.0190  0.4810
23789W        W28089  15.415   6.459   7.220 -0.0589  0.2306 -0.2992
23790W        W28090  11.058   4.017  12.680 -0.0920  0.2821 -0.2113
23791W        W28091   2.124   1.889  22.950 -0.0459 -0.1700 -0.1637
23792W        W28092   9.440   4.056   0.679  0.3606  0.0285 -0.2560
23793W        W28093   1.720   5.053  34.683 -0.0016  0.2535  0.1811
23794W        W28094  19.676   4.683  27.450 -0.0142  0.0251 -0.3321
23795W        W28095  17.915   5.873  30.519 -0.1292  0.1698 -0.2368
23796W        W28096  26.004   0.992  34.484 -0.2296  0.1268 -0.3673
23797W        W28097  15.047   5.927  27.978 -0.0983  0.1079  0.0672
23798W        W28098   6.501   3.461   2.378  0.3507  0.0349 -0.0578
23799W        W28099  20.066   2.320  35.089 -0.2039  0.0043 -0.0398
23800W        W28100   7.814   1.735  20.951 -0.2119  0.0856  0.0004
23801W        W28101  23.964   0.273   2.116  0.0287 -0.3434  0.1211
23802W        W28102  21.638   0.624  20.300 -0.0123 -0.1177 -0.0106
23803W        W28103  22.775   5.832  12.931 -0.2455 -0.1069 -0.2939
23804W        W28104   7.259   4.465  11.572  0.1195  0.2912  0.1269
23805W        W28105   0.238   6.515  15.919  0.0612 -0.3376 -0.0965
23806W        W28106  12.752   5.727   3.459  0.0674 -0.1701  0.0195
23807W        W28107   2.494   1.914  32.788  0.3290  0.1686  0.0533
23808W        W28108  26.152   2.759  22.834 -0.1584  0.0628 -0.0258
23809W        W28109   1.455   0.754  11.235 -0.3231 -0.0195 -0.0693
23810W        W28110  24.086   2.407  15.310  0.0149  0.0415 -0.0244
23811W        W28111  19.275   1.462  23.350  0.3260  0.2570  0.0371
23812W        W28112  24.595   5.205   4.741  0.4827 -0.1425  0.0993
23813W        W28113  17.774   5.260  14.376 -0.0711  0.0683  0.0876
23814W        W28114  17.687   4.501   3.172 -0.2436  0.1153  0.1943
23815W        W28115  18.318   0.229   4.034  0.0436 -0.0911 -0.0785
23816W        W28116  25.976   5.745  27.701 -0.1738  0.2137 -0.1913
23817W        W28117   7.714   4.960  35.465 -0.1032  0.0734 -0.0663
23818W        W28118  22.894   3.142  16.269 -0.2572 -0.3389  0.1595
23819W        W28119  23.032   0.455  32.202  0.0225 -0.1595  0.2452
23820W        W28120  18.856   5.663  11.402  0.1541 -0.1410 -0.2370
23821W        W28121  13.738   4.750  36.001  0.2852 -0.2679 -0.0011
23822W        W28122   3.796   3.751  33.161  0.0687 -0.0271 -0.2797
23823W        W28123   7.752   0.606  20.595 -0.0343 -0.1473 -0.2385
23824W        W28124  17.659   2.971  14.683 -0.1380 -0.0589  0.3402
23825W        W28125  19.473   3.322   4.739  0.0789  0.2618 -0.0580
23826W        W28126  13.189   0.365  27.175 -0.1690 -0.0135  0.0433
23827ION     NA28127   3.303   0.243  35.408 -0.1382  0.0812  0.2322
23828ION     NA28128  10.250   6.605  10.658  0.1555 -0.2267  0.2716
23829ION     NA28129  11.195   6.217   3.176  0.0677  0.1694 -0.3037
23830ION     NA28130  24.017   4.099  26.181  0.0039 -0.1722 -0.6405
23831ION     NA28131  19.544   1.729   6.955 -0.0319 -0.2172 -0.1899
23832ION     NA28132   9.290   0.186  31.467 -0.0552 -0.5361 -0.0920
23833ION     NA28133  20.410   1.742   9.607  0.0904 -0.0493 -0.0090
23834ION     NA28134   0.007   2.023   1.122  0.0484  0.0883  0.0459
23835ION     NA28135  21.210   4.918  12.638  0.2032  0.0552  0.1750
23836ION     NA28136  17.535   5.112  27.671  0.1106  0.2073 -0.1457
23837ION     NA28137  26.130   5.946  21.928 -0.2499 -0.1641  0.0179
23838ION     NA28138  17.403   4.956  34.234 -0.1163  0.1195 -0.0146
23839ION     NA28139   8.674   3.631  33.887  0.0403 -0.2332 -0.1586
23840ION     NA28140   3.940   3.380  11.970  0.2211 -0.0878 -0.2525
23841ION     NA28141  13.066   3.061   7.745 -0.1917 -0.2135 -0.8689
23842ION     NA28142  23.915   6.149   6.263  0.2328 -0.2711  0.1907
23843ION     NA28143  14.473   2.388  32.185 -0.1486  0.1651 -0.1390
23844ION     NA28144   1.561   5.604  26.089  0.1675  0.1086 -0.4924
23845ION     NA28145  16.718   2.596  33.884  0.1155  0.0813 -0.2374
23846ION     NA28146   5.895   6.172  24.213  0.3813 -0.4696  0.1804
23847ION     NA28147   7.837   5.798  11.888 -0.0420  0.0437 -0.1462
23848ION     NA28148   3.911   4.152  32.752  0.2010  0.0679 -0.2220
23849ION     NA28149  18.331   0.349   4.792 -0.2209 -0.3453 -0.3088
23850ION     NA28150   0.770   5.498  32.667  0.6523 -0.2203  0.3950
23851ION     NA28151   2.711   3.268   1.566 -0.0574  0.2323 -0.6829
23852ION     NA28152   1.345   0.509  29.069 -0.5615  0.2569  0.2806
23853ION     NA28153   9.190   2.101   4.889  0.1665  0.1650 -0.1822
23854ION     NA28154  17.443   2.738  31.232  0.1369  0.1118 -0.1362
23855ION     NA28155   0.125   5.091   7.900  0.1620  0.0286  0.1962
23856ION     NA28156  20.277   5.170  13.538  0.3201  0.1365  0.4837
23857ION     NA28157  25.606   5.106   9.320 -0.3154 -0.0143 -0.0834
23858ION     NA28158  15.343   6.523   5.904 -0.4819 -0.1886 -0.3049
23859ION     NA28159   1.882   0.289  29.632 -0.0806  0.1850  0.0817
23860ION     NA28160  25.068   1.317   8.226 -0.2098 -0.0525  0.0880
23861ION     NA28161  24.475   3.430  12.625 -0.6404  0.1041  0.0478
23862ION     NA28162  23.634   4.462  13.090  0.4165  0.0942 -0.2419
23863ION     NA28163  10.092   6.249  30.489  0.2121 -0.2473  0.2288
23864ION     NA28164  20.514   3.846   4.087  0.0227  0.3808  0.2210
23865ION     NA28165  10.981   2.205  34.539 -0.1854 -0.1930  0.6263
23866ION     NA28166  24.542   5.113  34.977  0.0264  0.4904 -0.1504
23867ION     NA28167  12.477   5.788   2.851 -0.0202 -0.1513 -0.3745
23868ION     NA28168  19.833   3.085  29.329  0.0119  0.0839  0.3909
23869ION     NA28169   4.770   5.939  32.117 -0.1686  0.2706 -0.2151
23870ION     NA28170  21.014   1.667  34.704  0.2187 -0.1531 -0.0731
23871ION     NA28171   0.294   4.228   8.991  0.1118 -0.2123  0.3290
23872ION     NA28172  13.868   5.401   3.735 -0.2787 -0.0888 -0.0849
23873ION     NA28173  14.972   1.575   2.719  0.0659  0.5460 -0.0939
23874ION     NA28174   3.718   4.561  26.264 -0.6707 -0.1929 -0.4549
23875ION     NA28175  19.636   2.680   5.279  0.1098 -0.1347 -0.3454
23876ION     NA28176  21.664   5.066  20.441  0.1139  0.3732  0.4569
23877ION     NA28177  17.346   4.158  25.587 -0.4190 -0.4567  0.3421
23878ION     NA28178  24.014   6.015   9.088 -0.1919  0.1738 -0.3265
23879ION     NA28179  11.093   3.700  10.528 -0.0284  0.0302  0.2670
23880ION     NA28180   8.719   2.190  13.614  0.1266 -0.0705  0.0709
23881ION     NA28181  13.490   1.508  31.916  0.1405 -0.1071  0.3954
23882ION     NA28182  21.892   3.007  32.592 -0.1997 -0.1944  0.2363
23883ION     NA28183  11.172   3.192  35.867 -0.0398 -0.0254  0.1361
23884ION     NA28184   9.076   3.898  14.158 -0.6784  0.2712 -0.2491
23885ION     NA28185  25.952   5.686  26.227 -0.3089 -0.3806 -0.3802
23886ION     NA28186   6.081   3.010  15.587  0.3216  0.0126 -0.1327
23887ION     NA28187   0.885   0.895   4.404 -0.0560 -0.6331  0.0354
23888ION     NA28188  20.267   1.649  11.508  0.3498  0.2247 -0.2173
23889ION     NA28189  12.083   5.325  29.023  0.1893 -0.1201 -0.5166
23890ION     NA28190  24.740   1.245  26.445 -0.1439  0.3250 -0.3632
23891ION     NA28191  15.278   4.294   2.906  0.0949  0.0054  0.0422
23892ION     NA28192  17.415   1.082  12.217 -0.1550 -0.1996 -0.0872
23893ION     NA28193   5.706   4.381  13.072 -0.3785  0.2185 -0.3357
23894ION     NA28194  16.119   5.125  35.212 -0.3938 -0.4840  0.1868
23895ION     NA28195   5.136   3.764   9.189  0.0079  0.2750  0.2536
23896ION     NA28196   1.180   3.759   2.606 -0.0315 -0.1356 -0.2009
23897ION     NA28197  25.613   2.949  26.880  0.0332  0.0632  0.1087
23898ION     NA28198  15.027   3.026   8.649  0.4704 -0.1340 -0.1306
23899ION     NA28199  25.395   5.012  33.243  0.1146  0.0283  0.1372
23900ION     NA28200   1.578   5.055  32.320  0.2333 -0.2095 -0.1523
23901ION     NA28201  20.394   2.333  35.400  0.1323  0.1464  0.3214
23902ION     NA28202   4.459   4.269  33.658 -0.1462  0.1403  0.0504
23903ION     NA28203  21.098   2.271  32.628  0.0968  0.3208  0.1870
23904ION     NA28204  25.182   0.238   1.430 -0.3352 -0.4493 -0.3218
23905ION     NA28205   2.146   2.025  28.477 -0.2335  0.3136  0.2860
23906ION     NA28206  10.249   4.137   7.199  0.4729 -0.1687 -0.0251
23907ION     NA28207   6.327   3.163   0.377  0.3781 -0.3072 -0.0033
23908ION     NA28208  19.702   4.207  27.307  0.1269 -0.2463 -0.2902
23909ION     NA28209   4.927   1.186   9.548 -0.4308  0.1134  0.3235
23910ION     NA28210  25.832   2.573  15.184 -0.3028  0.0996  0.1420
23911ION     NA28211  15.440   0.738  10.770 -0.2174  0.2864  0.0492
23912ION     NA28212  14.436   4.697  27.951  0.5316 -0.4501  0.3552
23913ION     NA28213  13.386   4.352  33.321  0.0924  0.1796  0.6438
23914ION     NA28214  21.880   0.929  10.129 -0.4685 -0.2018  0.5763
23915ION     NA28215  13.631   0.941   0.816  0.0124  0.1665 -0.2073
23916ION     NA28216  19.384   4.343  35.417 -0.5647  0.3119  0.1502
23917ION     NA28217   0.144   0.699   7.736  0.1997  0.2611 -0.2634
23918ION     NA28218  10.818   2.496  23.833 -0.2913 -0.1881 -0.7001
23919ION     NA28219   4.322   5.182   6.162  0.4099  0.0131  0.4007
23920ION     NA28220  17.351   0.963  35.202 -0.1448  0.5544  0.0080
23921ION     NA28221   4.288   1.430  31.810 -0.2797  0.4184  0.1649
23922ION     NA28222   5.005   1.553  10.789  0.3007 -0.1253  0.0830
23923ION     NA28223   4.511   3.135  12.896  0.4141  0.1603  0.0212
23924ION     NA28224  10.585   5.754   1.224 -0.2855 -0.3559 -0.0995
23925ION     NA28225  21.168   0.453   0.258  0.0015  0.0330  0.1009
23926ION     NA28226  21.280   1.412  11.547 -0.0945  0.0269 -0.2224
23927ION     NA28227  18.590   0.264  24.482  0.0260 -0.2034  0.2338
23928ION     NA28228   2.875   0.384   2.968 -0.0875 -0.1651 -0.0240
23929ION     NA28229  24.987   5.049   2.749 -0.2593  0.1623 -0.1373
23930ION     NA28230  16.500   5.436  12.709  0.4550 -0.3637 -0.0195
23931ION     NA28231   5.501   4.665   2.076 -0.2258  0.4314 -0.0327
23932ION     NA28232   7.775   0.060  13.339  0.0786  0.1293 -0.1419
23933ION     NA28233  14.419   4.630   0.250  0.5723 -0.1421  0.2751
23934ION     NA28234  17.322   1.989   2.765 -0.0370  0.2217 -0.1193
23935ION     NA28235  15.157   1.853  26.692 -0.2844 -0.1851 -0.3272
23936ION     NA28236   0.056   6.045  26.685 -0.3884 -0.0518  0.1410
23937ION     NA28237  19.243   3.369  26.927 -0.1311 -0.2671  0.0790
23938ION     NA28238  18.435   6.173   5.595 -0.4847 -0.2226  0.0516
23939ION     NA28239   3.918   2.586  25.028  0.0096 -0.0839  0.1857
23940ION     NA28240   2.162   5.483  21.538 -0.1494  0.1964  0.0503
23941ION     NA28241  15.485   6.413  11.789 -0.1286  0.0190 -0.0029
23942ION     NA28242  25.559   4.656  34.962 -0.2723 -0.1990  0.1386
23943ION     NA28243  18.307   2.805  15.848 -0.2864  0.2890 -0.1657
23944ION     NA28244  13.773   6.112   9.486  0.4332  0.0931 -0.0429
23945ION     NA28245  16.433   5.661   2.025  0.3714 -0.3037 -0.1302
23946ION     NA28246  26.328   4.853  11.714  0.0399 -0.1399 -0.0607
23947ION     NA28247   5.263   2.194  28.336 -0.2653 -0.2290 -0.5457
23948ION     NA28248   5.314   3.676  30.248 -0.4671 -0.2608 -0.4128
23949ION     NA28249  17.094   6.227  10.553  0.2541 -0.2222 -0.2798
23950ION     NA28250  18.943   4.222   2.759  0.3327  0.1733 -0.2367
23951ION     NA28251   3.908   1.632   5.971  0.0408 -0.1221  0.5794
23952ION     NA28252  18.907   2.363  13.470 -0.2426  0.3656 -0.0214
23953ION     NA28253   5.117   0.736  31.869 -0.2173  0.1109 -0.1657
23954ION     NA28254  19.236   1.874  33.106 -0.3521 -0.6173 -0.2385
23955ION     NA28255  16.565   4.463  33.957  0.2096 -0.0747 -0.0937
23956ION     NA28256   9.003   1.232  34.278 -0.0869  0.7538  0.0655
23957ION     NA28257  22.061   3.507  26.050  0.2959 -0.0862  0.2085
23958ION     NA28258  14.304   6.449  21.286 -0.2382 -0.3517 -0.2877
23959ION     NA28259  21.109   3.399  30.758 -0.0666 -0.0705  0.2979
23960ION     NA28260  12.150   5.379  33.334 -0.4295 -0.1021 -0.0867
23961ION     NA28261  20.097   2.273   5.053 -0.3589  0.1047  0.3415
23962ION     NA28262  26.172   0.612   1.989 -0.5319  0.1126  0.0059
23963ION     NA28263   4.007   3.382  34.714 -0.1746 -0.3962 -0.0682
23964ION     NA28264  12.235   0.666  29.020 -0.4249  0.4433 -0.2089
23965ION     NA28265  24.845   1.963  11.250 -0.0171  0.1176 -0.1517
23966ION     NA28266   3.699   6.584   8.414 -0.3034  0.0105  0.1654
23967ION     NA28267  22.742   6.181   9.503  0.3102  0.1747  0.1965
23968ION     NA28268  20.973   4.433  24.484  0.4186 -0.0608 -0.2260
23969ION     NA28269   4.128   2.142   2.899 -0.0531 -0.2022 -0.0151
23970ION     NA28270  17.346   3.543   5.439 -0.0905 -0.4245  0.3391
23971ION     NA28271   9.477   4.603   4.360 -0.3166  0.3266 -0.1491
23972ION     NA28272   7.481   1.499  32.940 -0.5871  0.1722 -0.0697
23973ION     NA28273  16.368   0.589  26.394 -0.1656 -0.1809 -0.1350
23974ION     NA28274  17.845   2.952  33.886 -0.0041 -0.3819 -0.3086
23975ION     NA28275  19.827   1.229  28.804  0.1012 -0.3914 -0.2349
23976ION     NA28276   3.336   5.503  14.104 -0.0377 -0.2545  0.3664
23977ION     NA28277  18.479   5.482  33.088  0.0865  0.0160 -0.1238
23978ION     NA28278   3.616   1.662   1.332 -0.0351 -0.2705  0.0696
23979ION     NA28279  20.514   1.330  30.700 -0.0618 -0.0947  0.1803
23980ION     NA28280   0.987   3.353  35.073 -0.1841 -0.2295 -0.3607
23981ION     NA28281  16.569   4.898  27.983 -0.2913 -0.2306 -0.4109
23982ION     NA28282  23.488   4.026  24.432  0.0600 -0.1464  0.3638
23983ION     NA28283   5.845   4.463  23.091 -0.2535  0.3056  0.1457
23984ION     NA28284   1.365   5.927  28.136 -0.1750 -0.2960 -0.4176
23985ION     NA28285   0.540   5.006  25.782  0.2494  0.0721 -0.0317
23986ION     NA28286  16.408   3.640  22.859  0.2716 -0.0132  0.2928
23987ION     NA28287  17.199   0.926   6.331 -0.0121 -0.1573 -0.0285
23988ION     NA28288   8.306   6.091   0.982  0.3178  0.3733  0.1529
23989ION     NA28289  22.019   5.374  31.644  0.3248 -0.1611 -0.1741
23990ION     NA28290   5.295   2.717   7.692 -0.1760  0.4356 -0.1238
23991ION     NA28291  17.411   1.560  14.098 -0.1142  0.1379 -0.4634
23992ION     NA28292  11.332   3.861   8.471  0.3182  0.1536  0.0873
23993ION     NA28293  24.476   2.396  33.052  0.0720  0.2260  0.4593
23994ION     NA28294   4.150   2.315  10.239 -0.4461 -0.0883  0.3135
23995ION     NA28295   7.789   4.847  25.604 -0.0464 -0.1226  0.0631
23996ION     NA28296   0.671   1.850  25.368 -0.2050  0.1687  0.0989
23997ION     NA28297  20.990   5.634  34.371 -0.0525  0.3414  0.3139
23998ION     NA28298  16.922   4.625  11.978  0.1680 -0.4547 -0.0862
23999ION     NA28299   4.536   4.178  31.091 -0.1857 -0.0233  0.1450
24000ION     NA28300   4.220   3.053  19.962  0.0339 -0.2285 -0.2730
24001ION     NA28301  20.437   0.398  11.441 -0.0541  0.2999  0.3058
24002ION     NA28302  23.157   1.243   2.291 -0.2761  0.3297  0.0618
24003ION     NA28303  25.734   1.931  32.470 -0.0977 -0.6084  0.2577
24004ION     NA28304   0.584   1.321  32.901 -0.0159 -0.1589 -0.0560
24005ION     NA28305  13.422   5.453  31.224  0.2354  0.0396 -0.2964
24006ION     NA28306   6.752   0.631  29.216  0.1540 -0.2291  0.1674
24007ION     NA28307  23.733   4.334  30.780 -0.2878 -0.1329  0.1279
24008ION     NA28308   4.461   0.402  27.224 -0.0481 -0.4430  0.1113
24009ION     NA28309   4.530   5.764  22.143  0.0099  0.3025 -0.1172
24010ION     NA28310   2.055   6.061  23.964  0.2664 -0.3108 -0.2417
24011ION     NA28311  13.244   3.676   0.323  0.2777 -0.0009 -0.2422
24012ION     NA28312   8.410   6.571  32.312 -0.6515  0.3979  0.0290
24013ION     NA28313   3.552   1.785  13.871  0.3633 -0.2617 -0.1865
24014ION     NA28314   2.158   1.522   5.595 -0.0808 -0.0244 -0.3297
24015ION     NA28315   5.646   4.010  14.945  0.3267 -0.3551  0.2580
24016ION     NA28316   9.270   6.101  12.985 -0.4830 -0.1050  0.1381
24017ION     NA28317   1.860   4.142  23.449 -0.7647 -0.0339  0.0176
24018ION     NA28318  19.125   3.084   5.552  0.3762  0.1075  0.2490
24019ION     NA28319  18.236   5.440  25.100  0.1535 -0.0575  0.0805
24020ION     NA28320   4.486   3.615  10.970  0.0578 -0.1806  0.7218
24021ION     NA28321  23.968   6.223  34.709  0.1645  0.0147  0.5307
24022ION     CL28322  23.476   6.140   6.631  0.2759  0.0405 -0.4269
24023ION     CL28323  22.111   6.048   0.899 -0.3233 -0.2575 -0.2552
24024ION     CL28324   2.580   3.335   1.908  0.0045 -0.0347  0.2872
24025ION     CL28325  21.897   0.183   0.087 -0.0244  0.2523  0.2815
24026ION     CL28326  15.111   1.769   2.992 -0.1449  0.1494  0.1076
24027ION     CL28327  23.980   4.575   3.871 -0.0464  0.1410 -0.1454
24028ION     CL28328   9.411   4.783   3.996 -0.2549 -0.6260 -0.1652
24029ION     CL28329  25.619   5.374  36.042 -0.0488  0.2545 -0.2519
24030ION     CL28330  10.813   4.570  35.584 -0.0739 -0.1319 -0.0628
24031ION     CL28331  26.297   2.240   7.354  0.5382  0.0862  0.0129
24032ION     CL28332  11.785   5.600  11.930  0.1969  0.5047  0.2067
24033ION     CL28333   4.725   0.783  13.967  0.0167 -0.3389  0.1546
24034ION     CL28334  12.295   5.460  13.650 -0.0135 -0.0592  0.1160
24035ION     CL28335  20.424   4.375   4.141 -0.4701 -0.0130  0.0909
24036ION     CL28336   2.494   4.473   3.259  0.2534 -0.3141 -0.1169
24037ION     CL28337  11.613   0.664   2.831  0.1660 -0.5614  0.3263
24038ION     CL28338   4.804   3.679  24.318  0.3268 -0.2760 -0.2195
24039ION     CL28339   9.048   4.523  22.510 -0.0421  0.2828  0.3955
24040ION     CL28340   2.099   0.549  10.553  0.2001  0.1569  0.0268
24041ION     CL28341   9.625   1.239   2.045  0.0447 -0.2073 -0.0211
24042ION     CL28342  20.432   2.704   9.985  0.2305 -0.5179 -0.1473
24043ION     CL28343   7.598   4.762  11.439 -0.5384  0.0181  0.0440
24044ION     CL28344  11.547   3.425  21.349 -0.4666 -0.3165  0.1553
24045ION     CL28345   3.908   4.247  23.843 -0.8720  0.1917  0.0281
24046ION     CL28346   7.466   2.887  25.949 -0.1272  0.1074 -0.0493
24047ION     CL28347  16.293   1.384  26.681  0.2076 -0.3358 -0.1346
24048ION     CL28348  15.073   1.539  28.438 -0.1967 -0.1269  0.3397
24049ION     CL28349  20.839   5.983   2.506  0.2160 -0.2506  0.1385
24050ION     CL28350  22.467   4.004  14.549  0.1125  0.1346 -0.0424
24051ION     CL28351  26.198   5.928  26.168  0.1014  0.0170 -0.1073
24052ION     CL28352   8.625   3.261  13.917 -0.2473  0.0485 -0.4960
24053ION     CL28353  21.862   6.460  14.683 -0.0105 -0.0361  0.1173
24054ION     CL28354  25.825   3.077   8.000 -0.3983 -0.5976  0.0172
24055ION     CL28355   5.343   6.536  32.792 -0.3437 -0.1907  0.5425
24056ION     CL28356   6.898   0.159  11.110 -0.3258  0.2427 -0.2741
24057ION     CL28357  10.325   6.362  14.493 -0.2615  0.2542  0.0711
24058ION     CL28358   3.645   5.108  12.159  0.1486 -0.1979  0.4813
24059ION     CL28359  21.371   6.171  24.094  0.1820  0.0979 -0.0639
24060ION     CL28360  21.290   2.912  32.909  0.2080  0.0822  0.3795
24061ION     CL28361  18.175   5.485  24.749  0.2193 -0.1750 -0.0474
24062ION     CL28362   0.452   4.754   6.623 -0.4843  0.0780  0.3262
24063ION     CL28363  21.578   3.538  34.077  0.0311  0.1125 -0.6062
24064ION     CL28364  21.414   5.043  12.215  0.3025  0.5366  0.1569
24065ION     CL28365  22.113   5.181  24.248  0.1550 -0.1224 -0.2543
24066ION     CL28366  17.090   4.306  11.511 -0.6979 -0.1388 -0.1828
24067ION     CL28367  25.366   1.049  23.863  0.2839 -0.1128 -0.1145
24068ION     CL28368   8.650   1.155  28.948  0.2577 -0.3071 -0.0634
24069ION     CL28369  12.940   1.157  12.802 -0.0667  0.3184  0.0311
24070ION     CL28370  15.315   4.956   0.492  0.2025 -0.1721  0.0964
24071ION     CL28371  15.123   4.656   3.064 -0.2674  0.0469  0.3047
24072ION     CL28372   0.996   1.926  32.814 -0.0826 -0.1879 -0.1052
24073ION     CL28373  26.263   3.113  33.045  0.2867 -0.1825 -0.1819
24074ION     CL28374   4.376   4.342  32.291 -0.4040 -0.0420 -0.0829
24075ION     CL28375   5.731   2.720  23.097  0.1365 -0.1950  0.3047
24076ION     CL28376  14.682   2.774   8.090 -0.2869 -0.2060 -0.3270
24077ION     CL28377  13.914   4.159  30.566 -0.0690  0.1467 -0.3375
24078ION     CL28378  25.442   2.693  34.815  0.3256 -0.0363 -0.1128
24079ION     CL28379  13.062   5.384   9.640  0.2292 -0.0652 -0.4587
24080ION     CL28380  12.481   1.276  27.442 -0.2642 -0.2787 -0.3145
24081ION     CL28381  23.087   5.908   4.039  0.1838 -0.2934  0.0442
24082ION     CL28382   6.605   3.755  23.216  0.4203 -0.1296 -0.0843
24083ION     CL28383   5.405   5.703  29.121  0.4448 -0.0025 -0.2011
24084ION     CL28384  16.035   5.107  34.883 -0.0570 -0.1088 -0.2027
24085ION     CL28385   0.679   1.501  32.166 -0.2000 -0.0183 -0.1675
24086ION     CL28386  21.557   3.147  22.827 -0.1405 -0.0558 -0.0740
24087ION     CL28387  10.511   3.053  30.002 -0.1222  0.3102  0.1450
24088ION     CL28388  15.033   3.632  22.789 -0.1235  0.0912 -0.0195
24089ION     CL28389  22.016   2.118  10.161 -0.3381 -0.7050 -0.1302
24090ION     CL28390   4.453   3.994  35.752  0.1003  0.0497 -0.4384
24091ION     CL28391  14.662   1.125  23.993 -0.2767  0.1481  0.3328
24092ION     CL28392  12.070   5.850  11.347 -0.2021  0.1865  0.1178
24093ION     CL28393   9.411   5.218   4.632 -0.1956 -0.1231  0.4587
24094ION     CL28394   7.264   2.044  14.421 -0.1786 -0.0600  0.3504
24095ION     CL28395  17.472   3.978  34.965  0.3998 -0.0300 -0.0065
24096ION     CL28396   4.839   0.001   4.627 -0.6593  0.2875 -0.3704
24097ION     CL28397  16.954   6.038  11.259  0.2282 -0.2128 -0.1219
24098ION     CL28398  13.503   5.910   3.870 -0.1317 -0.0940 -0.1724
24099ION     CL28399  18.590   3.963   6.153  0.1676 -0.2061  0.0986
24100ION     CL28400  22.312   5.189   3.768 -0.2874 -0.2283  0.0151
24101ION     CL28401  15.919   4.653  22.785 -0.2123  0.2070  0.0186
24102ION     CL28402   1.723   6.115  23.985 -0.0555 -0.5902 -0.3564
24103ION     CL28403   5.159   1.897  10.821  0.3544 -0.2447  0.0408
24104ION     CL28404   7.505   5.654  23.363  0.2143  0.4406  0.0512
24105ION     CL28405  18.055   5.352   7.396  0.0286 -0.1872 -0.2201
24106ION     CL28406  11.521   3.042  32.224  0.4002 -0.1091  0.1324
24107ION     CL28407  17.162   0.912  27.818 -0.1862  0.5549 -0.0535
24108ION     CL28408  13.156   4.015   0.154 -0.1320  0.2354 -0.3952
24109ION     CL28409  19.437   2.917  26.584 -0.0080 -0.3301  0.3569
24110ION     CL28410   0.700   5.196  31.542  0.1743  0.1396 -0.6676
24111ION     CL28411  22.616   0.724  28.315 -0.5788 -0.2050  0.2412
24112ION     CL28412   1.497   0.772   9.609 -0.4422 -0.0997 -0.0107
24113ION     CL28413  10.451   3.754  35.524 -0.0042 -0.2213 -0.2873
24114ION     CL28414  21.804   1.626   6.464  0.3358  0.3178 -0.0948
24115ION     CL28415  14.055   6.218   9.344  0.4009 -0.0185 -0.2578
24116ION     CL28416  16.181   3.883  22.587  0.1462  0.4400  0.3436
24117ION     CL28417   3.811   4.107  32.448 -0.5231 -0.3134 -0.1769
24118ION     CL28418  20.070   5.903   6.978  0.2434 -0.0866  0.3206
24119ION     CL28419   9.929   3.670  23.291 -0.0516 -0.0369 -0.1732
24120ION     CL28420  15.021   6.286   8.105 -0.3480  0.0860  0.2246
24121ION     CL28421  11.008   4.247   2.591  0.2535 -0.2262 -0.2904
24122ION     CL28422  14.943   2.526  24.650  0.0295 -0.0169 -0.0950
24123ION     CL28423   1.879   1.633  28.126  0.0258 -0.0294  0.4827
24124ION     CL28424  14.602   2.405  35.972  0.2550  0.2237  0.1195
24125ION     CL28425   8.301   2.955  35.881  0.3844 -0.2516  0.0599
24126ION     CL28426   9.066   1.046  14.440  0.0257  0.2791 -0.3978
24127ION     CL28427   5.027   0.709   3.582 -0.1297 -0.1864  0.2306
24128ION     CL28428   0.394   1.541  24.889  0.1950 -0.0753  0.1921
24129ION     CL28429  19.105   5.081   0.367 -0.1811 -0.3329  0.1655
24130ION     CL28430   3.859   0.169   1.704  0.2801 -0.5536 -0.1304
24131ION     CL28431  22.412   3.851  30.819  0.0030 -0.1762  0.1847
24132ION     CL28432  18.318   6.397   6.692  0.1315  0.1802  0.2689
24133ION     CL28433   7.960   2.174  34.598  0.4394  0.1157 -0.0107
24134ION     CL28434  19.000   5.623  28.241  0.1856 -0.2337  0.3883
24135ION     CL28435  13.414   6.079   0.946  0.3159  0.2060 -0.1971
24136ION     CL28436   5.439   1.437  23.874  0.0084  0.4547  0.1125
24137ION     CL28437   5.306   2.680  12.228  0.0226 -0.1206  0.3446
24138ION     CL28438   3.154   1.489   8.373 -0.3071 -0.2584  0.1141
24139ION     CL28439  14.544   4.101  34.397  0.1106 -0.1227 -0.5735
24140ION     CL28440  10.170   3.282   0.886  0.0675 -0.3944 -0.2925
24141ION     CL28441  25.684   4.681  21.247  0.1320 -0.4104  0.0160
24142ION     CL28442  10.303   2.370   5.695  0.4840 -0.0777 -0.1207
24143ION     CL28443   6.337   5.218   4.748  0.4283 -0.1432 -0.0620
24144ION     CL28444  20.095   1.376   0.939  0.1185  0.0520 -0.2452
24145ION     CL28445  23.315   5.266   8.957  0.1006  0.0607 -0.2939
24146ION     CL28446   5.586   5.137   0.176 -0.0436  0.6916 -0.0104
24147ION     CL28447   3.130   1.226   1.818  0.0586  0.4326 -0.4358
24148ION     CL28448  20.478   2.795  21.745 -0.4462 -0.0681 -0.2509
24149ION     CL28449  13.364   3.285   8.286 -0.1156 -0.2832 -0.0881
24150ION     CL28450  15.789   1.566  12.288  0.2863 -0.3692 -0.1366
24151ION     CL28451   4.970   3.795  21.126  0.0676  0.1137  0.2974
24152ION     CL28452  17.178   3.617  27.030  0.0184 -0.0904  0.2011
24153ION     CL28453  19.902   6.362   4.234  0.0913 -0.3913 -0.0334
24154ION     CL28454  25.225   5.829  32.176  0.0325 -0.1971  0.4957
24155ION     CL28455  10.140   3.362  22.593  0.2562  0.0386 -0.4438
24156ION     CL28456   1.959   5.191  33.835 -0.2029 -0.0540 -0.0705
24157ION     CL28457   2.379   0.121   8.924  0.0971  0.0382 -0.0306
24158ION     CL28458  21.440   0.178   1.464 -0.2318 -0.2796  0.0101
24159ION     CL28459  19.835   1.745  27.058 -0.3482  0.0752 -0.0212
24160ION     CL28460   5.121   2.974   8.242 -0.2889 -0.1468  0.0446
24161ION     CL28461  19.976   6.035  29.358  0.1727  0.2954 -0.2014
24162ION     CL28462  16.591   2.041   6.103 -0.2171 -0.1473  0.3217
24163ION     CL28463  24.268   4.035   4.287  0.0062 -0.0914  0.0807
24164ION     CL28464  21.275   2.644  23.277  0.3431 -0.1125  0.3393
24165ION     CL28465  18.127   5.212  27.722 -0.4920 -0.0838  0.2455
24166ION     CL28466  13.476   4.124   4.579  0.4804 -0.1592  0.1390
24167DPPC   NC328467  18.033   5.024  20.519  0.1225 -0.1306 -0.1546
24167DPPC   PO428468  18.237   4.694  20.368 -0.0757  0.1247  0.0876
24167DPPC   GL128469  18.238   4.742  19.999 -0.0755 -0.1489 -0.2521
24167DPPC   GL228470  18.057   4.997  19.989  0.0577 -0.0154 -0.3903
24167DPPC   C1A28471  18.349   4.649  19.649 -0.2687 -0.0977 -0.2632
24167DPPC   C2A28472  18.454   4.563  19.251 -0.2652  0.2347  0.0965
24167DPPC   C3A28473  18.437   4.493  18.825 -0.0172 -0.1813  0.1086
24167DPPC   C4A28474  18.289   4.086  18.523 -0.1439 -0.0945 -0.2196
24167DPPC   C1B28475  18.123   5.060  19.594 -0.0541  0.2642  0.0081
24167DPPC   C2B28476  18.133   5.032  19.230 -0.0387 -0.0849 -0.1138
24167DPPC   C3B28477  18.084   5.000  18.760 -0.1684 -0.2132  0.0690
24167DPPC   C4B28478  18.135   4.938  18.271  0.0401  0.2863 -0.0389
24168DPPC   NC328479  18.391   4.297  20.612  0.1261  0.0811  0.1770
24168DPPC   PO428480  18.274   4.071  20.325  0.1699 -0.0648  0.0667
24168DPPC   GL128481  18.384   4.045  19.907  0.2830 -0.2810  0.1791
24168DPPC   GL228482  18.399   3.748  19.947  0.2968 -0.3950  0.4420
24168DPPC   C1A28483  18.331   4.104  19.533 -0.0934  0.0689  0.2354
24168DPPC   C2A28484  18.153   4.130  19.167  0.0580  0.1595 -0.0538
24168DPPC   C3A28485  17.826   4.053  18.836 -0.0607 -0.1577  0.0595
24168DPPC   C4A28486  17.360   4.034  18.579 -0.1478 -0.2889  0.1865
24168DPPC   C1B28487  18.553   3.709  19.610  0.2323  0.2367  0.2011
24168DPPC   C2B28488  18.581   3.764  19.193 -0.1804 -0.0960 -0.1195
24168DPPC   C3B28489  18.623   3.781  18.720 -0.1162 -0.4214 -0.1541
24168DPPC   C4B28490  18.581   3.741  18.242  0.0318 -0.4174 -0.0463
24169DPPC   NC328491  16.724   6.486  21.030 -0.3693  0.1477 -0.0098
24169DPPC   PO428492  17.007   6.591  20.770 -0.1563 -0.0889 -0.1857
24169DPPC   GL128493  17.172   6.832  20.475 -0.0021 -0.1103  0.1146
24169DPPC   GL228494  16.940   6.942  20.369  0.0506 -0.0231  0.1170
24169DPPC   C1A28495  17.313   6.834  20.137  0.0642  0.2253  0.3366
24169DPPC   C2A28496  17.411   6.590  19.809  0.1549 -0.0658  0.2270
24169DPPC   C3A28497  17.327   6.522  19.333  0.1608 -0.3423  0.2857
24169DPPC   C4A28498  17.352   6.546  18.831  0.2398 -0.3677  0.3039
24169DPPC   C1B28499  16.878   7.051  19.986  0.3687  0.1884 -0.0232
24169DPPC   C2B28500  17.070   6.903  19.641 -0.1840  0.0243 -0.1836
24169DPPC   C3B28501  16.938   6.911  19.196 -0.2714  0.0914  0.1128
24169DPPC   C4B28502  17.041   6.896  18.696 -0.1051 -0.1934 -0.1060
24170DPPC   NC328503  14.209   6.213  20.650 -0.1050 -0.0288  0.3012
24170DPPC   PO428504  13.792   6.191  20.659  0.1601  0.0954  0.1071
24170DPPC   GL128505  13.816   5.935  20.256  0.2378  0.0707 -0.1220
24170DPPC   GL228506  14.060   6.066  20.247  0.2103 -0.2712 -0.1432
24170DPPC   C1A28507  13.603   6.004  19.990 -0.1289  0.4000  0.3322
24170DPPC   C2A28508  13.747   5.960  19.564 -0.1021  0.0240 -0.1804
24170DPPC   C3A28509  13.783   5.905  19.106  0.0405 -0.1719  0.1781
24170DPPC   C4A28510  13.774   5.963  18.562 -0.0913 -0.0854 -0.1388
24170DPPC   C1B28511  14.151   6.041  19.907  0.0551  0.1419 -0.0110
24170DPPC   C2B28512  14.343   6.005  19.541  0.0803  0.2625  0.1839
24170DPPC   C3B28513  14.299   5.958  19.038 -0.0103 -0.0508 -0.0525
24170DPPC   C4B28514  14.273   5.956  18.569 -0.1307  0.2058 -0.1935
24171DPPC   NC328515  19.639   0.543  20.446  0.0307  0.0599  0.2076
24171DPPC   PO428516  19.994   0.437  20.318 -0.0201  0.0171  0.0977
24171DPPC   GL128517  20.069   0.065  20.088 -0.0544 -0.0120 -0.0893
24171DPPC   GL228518  20.104   0.249  19.886 -0.4007  0.1823 -0.0295
24171DPPC   C1A28519  20.037  -0.169  19.786 -0.1139  0.1614 -0.0286
24171DPPC   C2A28520  19.927  -0.301  19.443  0.0302  0.1111 -0.1656
24171DPPC   C3A28521  19.884  -0.360  18.971 -0.0912 -0.1491 -0.1655
24171DPPC   C4A28522  19.904  -0.298  18.461 -0.1282  0.3048 -0.2527
24171DPPC   C1B28523  20.159   0.164  19.528  0.1574  0.1371 -0.0994
24171DPPC   C2B28524  20.060   0.127  19.075  0.0962  0.3616 -0.3935
24171DPPC   C3B28525  20.045   0.192  18.564  0.1360 -0.1128 -0.2890
24171DPPC   C4B28526  20.066   0.152  18.064  0.2439  0.0937 -0.4021
24172DPPC   NC328527  13.205   6.079  20.858  0.1042 -0.1175 -0.0197
24172DPPC   PO428528  13.194   5.712  20.781 -0.1314  0.0867 -0.2230
24172DPPC   GL128529  13.410   5.461  20.483 -0.0270 -0.0842 -0.4944
24172DPPC   GL228530  13.109   5.402  20.352 -0.1329 -0.0407 -0.1674
24172DPPC   C1A28531  13.593   5.391  20.122  0.1232 -0.0593 -0.1335
24172DPPC   C2A28532  13.619   5.484  19.753  0.3257 -0.1845 -0.1228
24172DPPC   C3A28533  13.609   5.468  19.216  0.1012  0.0726 -0.0227
24172DPPC   C4A28534  13.579   5.529  18.744 -0.3119 -0.1038 -0.0419
24172DPPC   C1B28535  13.201   5.607  20.041  0.2300 -0.0257 -0.1261
24172DPPC   C2B28536  13.131   5.441  19.659  0.2867 -0.1391  0.1223
24172DPPC   C3B28537  13.106   5.330  19.167  0.0078 -0.1459 -0.1414
24172DPPC   C4B28538  13.077   5.429  18.646  0.1155  0.1846 -0.1169
24173DPPC   NC328539  17.826   3.246  20.568 -0.1413 -0.0510  0.2991
24173DPPC   PO428540  18.007   3.582  20.470 -0.0648  0.1807 -0.0486
24173DPPC   GL128541  17.970   3.865  20.038 -0.0856 -0.2477  0.0364
24173DPPC   GL228542  17.648   3.801  20.167 -0.2399  0.0783 -0.0433
24173DPPC   C1A28543  17.908   4.036  19.724  0.0941 -0.0362  0.2417
24173DPPC   C2A28544  17.706   4.085  19.377  0.0785  0.0407 -0.0676
24173DPPC   C3A28545  17.316   4.033  19.096 -0.1206 -0.2175  0.0382
24173DPPC   C4A28546  16.926   4.202  18.862  0.0229  0.2453  0.0306
24173DPPC   C1B28547  17.498   4.164  20.088  0.3353 -0.1073 -0.6299
24173DPPC   C2B28548  17.338   4.412  19.801 -0.0069 -0.1909 -0.1888
24173DPPC   C3B28549  17.401   4.448  19.301 -0.4427  0.0944  0.0798
24173DPPC   C4B28550  17.388   4.461  18.827  0.4350 -0.0348 -0.2101
24174DPPC   NC328551  16.602   0.873  21.000  0.3004  0.2629  0.0691
24174DPPC   PO428552  16.421   1.197  20.940 -0.4690 -0.0228 -0.4992
24174DPPC   GL128553  16.307   1.471  20.607  0.0077  0.0935 -0.3805
24174DPPC   GL228554  16.477   1.293  20.458  0.1350 -0.0697  0.2546
24174DPPC   C1A28555  16.106   1.569  20.312 -0.1955  0.0459 -0.1318
24174DPPC   C2A28556  15.938   1.434  19.977  0.2393  0.2774 -0.0678
24174DPPC   C3A28557  15.929   1.380  19.476 -0.3924 -0.2882 -0.0739
24174DPPC   C4A28558  15.972   1.436  18.947 -0.1081 -0.1580  0.2054
24174DPPC   C1B28559  16.357   1.215  20.126 -0.0445  0.4645  0.0036
24174DPPC   C2B28560  16.242   1.092  19.742 -0.1145 -0.2209 -0.1591
24174DPPC   C3B28561  16.354   1.071  19.288  0.0015 -0.0124 -0.2398
24174DPPC   C4B28562  16.260   1.058  18.828 -0.0987 -0.1636 -0.1141
24175DPPC   NC328563  15.466   4.099  20.665  0.0021 -0.1342 -0.0343
24175DPPC   PO428564  15.463   3.760  20.470 -0.1886 -0.0882  0.1200
24175DPPC   GL128565  15.201   3.714  20.162  0.0422 -0.0050 -0.1392
24175DPPC   GL228566  14.993   3.558  20.301 -0.1879  0.3834 -0.1757
24175DPPC   C1A28567  15.253   3.615  19.782 -0.1910 -0.2297 -0.0992
24175DPPC   C2A28568  15.188   3.517  19.366 -0.1627  0.1375  0.0894
24175DPPC   C3A28569  15.226   3.507  18.900  0.0879 -0.1107 -0.0411
24175DPPC   C4A28570  15.253   3.465  18.387  0.1415 -0.3006 -0.1021
24175DPPC   C1B28571  14.826   3.436  19.969  0.0179  0.1581  0.0780
24175DPPC   C2B28572  14.746   3.419  19.576  0.0061 -0.0067 -0.2994
24175DPPC   C3B28573  14.734   3.447  19.099 -0.0770  0.1585 -0.2806
24175DPPC   C4B28574  14.750   3.446  18.585  0.0334 -0.0986  0.0120
24176DPPC   NC328575  15.723   4.974  20.956  0.0440 -0.0103  0.1670
24176DPPC   PO428576  15.835   4.762  20.647  0.4185 -0.0925  0.1636
24176DPPC   GL128577  15.730   4.661  20.196  0.0828  0.0033  0.0407
24176DPPC   GL228578  15.611   4.379  20.373  0.1270 -0.0310  0.1610
24176DPPC   C1A28579  15.583   4.609  19.860  0.3335  0.0634 -0.3423
24176DPPC   C2A28580  15.668   4.546  19.454 -0.0524  0.0312 -0.0178
24176DPPC   C3A28581  15.684   4.475  19.012  0.0218 -0.0469  0.0254
24176DPPC   C4A28582  15.673   4.469  18.535  0.0033  0.1373 -0.1680
24176DPPC   C1B28583  15.504   4.183  20.054  0.3094 -0.3973  0.1634
24176DPPC   C2B28584  15.437   4.036  19.685  0.1640 -0.0607  0.1556
24176DPPC   C3B28585  15.409   4.026  19.256 -0.3817 -0.2680 -0.0190
24176DPPC   C4B28586  15.469   3.980  18.758  0.0139 -0.0795  0.0762
24177DPPC   NC328587  15.999   3.399  21.030  0.2928 -0.3991 -0.1679
24177DPPC   PO428588  16.278   3.427  20.779  0.0686  0.4194 -0.1562
24177DPPC   GL128589  16.398   3.061  20.579  0.2163  0.2217 -0.1223
24177DPPC   GL228590  16.588   3.161  20.436  0.0063 -0.6215 -0.0043
24177DPPC   C1A28591  16.298   2.924  20.253 -0.0896  0.2158  0.0675
24177DPPC   C2A28592  16.359   2.874  19.876  0.1123  0.1211  0.1007
24177DPPC   C3A28593  16.399   2.892  19.379 -0.0220 -0.3025 -0.1519
24177DPPC   C4A28594  16.407   2.862  18.874  0.0005 -0.0413 -0.1678
24177DPPC   C1B28595  16.579   3.277  20.021 -0.0314  0.1707 -0.3254
24177DPPC   C2B28596  16.539   3.356  19.623  0.2121  0.0208 -0.0354
24177DPPC   C3B28597  16.615   3.346  19.157  0.0192 -0.1469  0.1396
24177DPPC   C4B28598  16.486   3.344  18.656 -0.2736 -0.2460 -0.0403
24178DPPC   NC328599  19.767   2.970  20.725 -0.2829 -0.2660 -0.1165
24178DPPC   PO428600  19.697   2.617  20.514 -0.0407 -0.2844  0.3374
24178DPPC   GL128601  19.680   2.551  20.092 -0.1943 -0.1046 -0.1266
24178DPPC   GL228602  19.829   2.715  19.952  0.2002 -0.0721  0.3463
24178DPPC   C1A28603  19.584   2.335  19.823 -0.1996 -0.1890  0.0914
24178DPPC   C2A28604  19.473   2.206  19.455 -0.1094  0.2772 -0.2475
24178DPPC   C3A28605  19.391   2.160  18.976  0.1047 -0.0259 -0.1621
24178DPPC   C4A28606  19.380   2.180  18.514 -0.2077  0.3959  0.3011
24178DPPC   C1B28607  19.956   2.685  19.608 -0.0805  0.2652  0.0415
24178DPPC   C2B28608  20.019   2.726  19.233  0.0091 -0.2864  0.2318
24178DPPC   C3B28609  20.139   2.709  18.707  0.0068 -0.1931  0.0259
24178DPPC   C4B28610  20.119   2.690  18.252  0.0769  0.0624  0.1787
24179DPPC   NC328611  18.535   6.436  20.780 -0.3755  0.0756  0.0596
24179DPPC   PO428612  18.576   6.189  20.465  0.0562 -0.1869  0.0600
24179DPPC   GL128613  18.759   6.253  20.169  0.2801  0.0445  0.2381
24179DPPC   GL228614  18.776   5.957  20.123 -0.0966  0.0990  0.3346
24179DPPC   C1A28615  18.706   6.316  19.834 -0.1609  0.1618 -0.0230
24179DPPC   C2A28616  18.616   6.460  19.479 -0.2681  0.0997 -0.1051
24179DPPC   C3A28617  18.608   6.491  18.985  0.0523  0.1536  0.2548
24179DPPC   C4A28618  18.681   6.401  18.512  0.1607  0.0801  0.0324
24179DPPC   C1B28619  18.507   5.887  19.891  0.3261  0.0933 -0.0876
24179DPPC   C2B28620  18.471   5.978  19.458 -0.0493  0.2045 -0.4808
24179DPPC   C3B28621  18.467   5.976  19.015  0.1214 -0.0945  0.1335
24179DPPC   C4B28622  18.378   5.935  18.586 -0.1782  0.2827  0.0433
24180DPPC   NC328623  18.633   3.572  20.435  0.1255  0.0598  0.1283
24180DPPC   PO428624  18.399   3.241  20.354 -0.0616 -0.1370  0.0449
24180DPPC   GL128625  18.207   3.357  20.048  0.0962  0.1368 -0.1818
24180DPPC   GL228626  18.302   3.121  19.905 -0.1107  0.1042  0.0942
24180DPPC   C1A28627  18.039   3.511  19.775 -0.3239  0.0689  0.2073
24180DPPC   C2A28628  18.078   3.601  19.318 -0.0304  0.1292  0.0868
24180DPPC   C3A28629  18.140   3.651  18.831  0.0471  0.1587  0.0130
24180DPPC   C4A28630  18.113   3.657  18.381  0.0645 -0.2588 -0.0028
24180DPPC   C1B28631  18.411   3.176  19.551 -0.3082  0.0731 -0.4349
24180DPPC   C2B28632  18.423   3.281  19.135  0.1232  0.2166  0.0750
24180DPPC   C3B28633  18.466   3.317  18.613 -0.1029 -0.2529 -0.1553
24180DPPC   C4B28634  18.365   3.320  18.122 -0.1176 -0.2164  0.2261
24181DPPC   NC328635  13.515   1.093  20.672 -0.0378  0.0630 -0.0950
24181DPPC   PO428636  13.565   0.726  20.542  0.0205  0.2539  0.2373
24181DPPC   GL128637  13.569   0.583  20.234 -0.0137  0.0106  0.2798
24181DPPC   GL228638  13.563   0.268  20.229 -0.0502  0.0883  0.1506
24181DPPC   C1A28639  13.666   0.673  19.888 -0.0575 -0.1818  0.1613
24181DPPC   C2A28640  13.755   0.720  19.455 -0.2272  0.2564  0.1326
24181DPPC   C3A28641  13.774   0.629  18.950 -0.3517  0.0384  0.0592
24181DPPC   C4A28642  13.830   0.606  18.436 -0.2415  0.1046 -0.0454
24181DPPC   C1B28643  13.528   0.245  19.908 -0.2253 -0.0105 -0.0777
24181DPPC   C2B28644  13.566   0.170  19.457  0.0388 -0.3184  0.3713
24181DPPC   C3B28645  13.586   0.094  19.003 -0.0663 -0.0275 -0.0791
24181DPPC   C4B28646  13.672   0.140  18.482 -0.0160 -0.0705  0.2078
24182DPPC   NC328647  16.545   2.940  21.004 -0.0686 -0.0680  0.1732
24182DPPC   PO428648  16.860   3.007  20.757  0.1028 -0.2529  0.3885
24182DPPC   GL128649  17.014   3.132  20.453  0.4286 -0.1015 -0.3592
24182DPPC   GL228650  17.256   2.961  20.381 -0.1959 -0.1838  0.2520
24182DPPC   C1A28651  16.983   3.263  20.107  0.0324  0.2734  0.0074
24182DPPC   C2A28652  17.062   3.440  19.726 -0.2312 -0.1680 -0.1941
24182DPPC   C3A28653  17.112   3.508  19.282 -0.0943  0.2041  0.1934
24182DPPC   C4A28654  17.159   3.640  18.809 -0.1803  0.0284  0.4030
24182DPPC   C1B28655  17.307   3.045  19.991 -0.0163  0.1670 -0.2981
24182DPPC   C2B28656  17.428   3.025  19.624 -0.0206  0.3305  0.2130
24182DPPC   C3B28657  17.462   3.138  19.182 -0.2263  0.0340  0.1322
24182DPPC   C4B28658  17.422   3.173  18.723  0.0673  0.1974 -0.3677
24183DPPC   NC328659  17.789   2.346  20.686  0.0868  0.0960  0.4423
24183DPPC   PO428660  17.900   2.013  20.776 -0.0073  0.0636  0.1630
24183DPPC   GL128661  17.838   1.954  20.265  0.2703 -0.1264 -0.2998
24183DPPC   GL228662  18.105   2.046  20.259 -0.0480 -0.1244 -0.1016
24183DPPC   C1A28663  17.785   1.939  19.905  0.0763  0.2468  0.0916
24183DPPC   C2A28664  17.856   1.897  19.509 -0.4262  0.0342  0.3816
24183DPPC   C3A28665  17.911   1.871  19.025  0.2197  0.0503 -0.2063
24183DPPC   C4A28666  17.957   1.864  18.520 -0.0519 -0.2541  0.0603
24183DPPC   C1B28667  18.279   1.980  19.939 -0.2426  0.1033 -0.2861
24183DPPC   C2B28668  18.324   1.962  19.560 -0.3048  0.2687 -0.2326
24183DPPC   C3B28669  18.409   1.959  19.114 -0.1955 -0.2231  0.1765
24183DPPC   C4B28670  18.428   1.976  18.565  0.1033 -0.0342 -0.2408
24184DPPC   NC328671  15.778   2.664  20.857  0.1328 -0.0386  0.0113
24184DPPC   PO428672  15.986   2.979  20.847 -0.2217  0.3010 -0.0693
24184DPPC   GL128673  15.949   3.011  20.466 -0.1558 -0.0289  0.4606
24184DPPC   GL228674  15.892   2.812  20.313  0.1088 -0.1602 -0.0952
24184DPPC   C1A28675  15.987   3.236  20.189  0.1397 -0.2004  0.2727
24184DPPC   C2A28676  16.044   3.254  19.770 -0.0682 -0.1349 -0.0074
24184DPPC   C3A28677  16.076   3.287  19.276 -0.0628  0.1634  0.0509
24184DPPC   C4A28678  15.989   3.256  18.787 -0.0065  0.0661  0.3185
24184DPPC   C1B28679  15.848   2.884  19.974 -0.1440  0.2289  0.3034
24184DPPC   C2B28680  15.934   2.771  19.582  0.0165 -0.2061 -0.2277
24184DPPC   C3B28681  15.977   2.765  19.122  0.1830  0.0982  0.1496
24184DPPC   C4B28682  15.916   2.704  18.612 -0.0020 -0.3717  0.0460
24185DPPC   NC328683  15.199   0.643  20.682  0.3763 -0.0504 -0.3925
24185DPPC   PO428684  15.139   1.035  20.718  0.2897 -0.0532  0.0202
24185DPPC   GL128685  15.029   1.178  20.316 -0.0295  0.1750 -0.0836
24185DPPC   GL228686  14.985   0.861  20.307 -0.0783 -0.2332  0.1615
24185DPPC   C1A28687  15.237   1.348  20.073  0.0604  0.0097  0.0662
24185DPPC   C2A28688  15.457   1.434  19.764  0.4013 -0.0722 -0.0555
24185DPPC   C3A28689  15.447   1.375  19.266 -0.0255 -0.1387 -0.0344
24185DPPC   C4A28690  15.475   1.377  18.785 -0.0266 -0.1299 -0.1924
24185DPPC   C1B28691  14.831   0.822  20.000 -0.2251 -0.2414  0.2471
24185DPPC   C2B28692  14.760   0.784  19.591  0.0472  0.0318  0.1149
24185DPPC   C3B28693  14.702   0.796  19.038 -0.2819 -0.1988 -0.1676
24185DPPC   C4B28694  14.803   0.754  18.578 -0.0362 -0.1699  0.0065
24186DPPC   NC328695  17.484   0.082  20.806  0.1043  0.0050 -0.0465
24186DPPC   PO428696  17.586  -0.161  20.519  0.0343 -0.2633 -0.0254
24186DPPC   GL128697  17.261  -0.366  20.291  0.2078 -0.0665  0.1176
24186DPPC   GL228698  17.058  -0.115  20.289 -0.0517 -0.4334  0.4988
24186DPPC   C1A28699  17.266  -0.521  19.942  0.4932  0.1322 -0.1347
24186DPPC   C2A28700  17.184  -0.530  19.562  0.1114 -0.2095 -0.0304
24186DPPC   C3A28701  17.112  -0.532  19.097  0.1261 -0.0111 -0.0256
24186DPPC   C4A28702  17.088  -0.491  18.625  0.0772  0.2623 -0.0456
24186DPPC   C1B28703  16.906  -0.227  19.953 -0.0138  0.0917  0.1426
24186DPPC   C2B28704  16.868  -0.152  19.473 -0.1782  0.2360 -0.2818
24186DPPC   C3B28705  16.851  -0.121  18.991  0.2856  0.1192 -0.0278
24186DPPC   C4B28706  16.752  -0.070  18.492  0.1897  0.1251  0.0397
24187DPPC   NC328707  12.526   2.909  20.744 -0.2832  0.2587 -0.2469
24187DPPC   PO428708  12.653   2.595  20.501  0.5497 -0.0034  0.2182
24187DPPC   GL128709  12.595   2.590  20.098  0.0057 -0.1161  0.1250
24187DPPC   GL228710  12.585   2.315  20.009 -0.0867  0.1269  0.1446
24187DPPC   C1A28711  12.646   2.740  19.764  0.1868  0.0267  0.1664
24187DPPC   C2A28712  12.655   2.683  19.356  0.2792  0.3252  0.0898
24187DPPC   C3A28713  12.658   2.649  18.909  0.1985 -0.0647  0.1489
24187DPPC   C4A28714  12.598   2.648  18.370 -0.3209 -0.2662 -0.3580
24187DPPC   C1B28715  12.456   2.300  19.659 -0.3112 -0.1940  0.3251
24187DPPC   C2B28716  12.436   2.252  19.231  0.0118  0.3129  0.0586
24187DPPC   C3B28717  12.434   2.194  18.741  0.2687 -0.2377 -0.1483
24187DPPC   C4B28718  12.545   2.153  18.243  0.0416  0.0813 -0.1878
24188DPPC   NC328719  16.685   4.816  20.800  0.0514  0.0389  0.0129
24188DPPC   PO428720  16.337   4.635  20.685  0.1009  0.0698 -0.1804
24188DPPC   GL128721  16.170   4.555  20.285  0.1264 -0.1932  0.0879
24188DPPC   GL228722  16.391   4.507  20.118  0.1653  0.1673 -0.3025
24188DPPC   C1A28723  15.965   4.348  20.084 -0.0337 -0.3666 -0.0963
24188DPPC   C2A28724  15.913   4.105  19.749 -0.2758  0.2075 -0.1504
24188DPPC   C3A28725  15.917   4.080  19.314  0.1367 -0.2829  0.2462
24188DPPC   C4A28726  16.011   4.160  18.846 -0.1480 -0.1822  0.1339
24188DPPC   C1B28727  16.533   4.703  19.880  0.0092  0.4060  0.0840
24188DPPC   C2B28728  16.684   5.052  19.733  0.2618  0.1948  0.0113
24188DPPC   C3B28729  16.781   5.099  19.274  0.3076  0.0792  0.1761
24188DPPC   C4B28730  16.785   5.139  18.838 -0.1352  0.1482  0.1913
24189DPPC   NC328731  17.083   6.112  20.764 -0.2546  0.1648  0.0244
24189DPPC   PO428732  16.743   5.986  20.862  0.1504 -0.0426 -0.1728
24189DPPC   GL128733  16.557   5.855  20.538  0.2561 -0.0609  0.1587
24189DPPC   GL228734  16.663   5.640  20.414 -0.1883 -0.0444 -0.2406
24189DPPC   C1A28735  16.311   5.991  20.264  0.1290  0.1787 -0.1884
24189DPPC   C2A28736  16.104   5.970  19.877 -0.1283 -0.1796  0.3674
24189DPPC   C3A28737  16.110   5.953  19.419 -0.0036 -0.0763 -0.1946
24189DPPC   C4A28738  16.055   5.945  18.938  0.1472 -0.1480 -0.0102
24189DPPC   C1B28739  16.611   5.610  20.039  0.0776 -0.1919  0.1866
24189DPPC   C2B28740  16.512   5.592  19.645 -0.1091  0.1005  0.0997
24189DPPC   C3B28741  16.514   5.552  19.145 -0.0073 -0.3469  0.2438
24189DPPC   C4B28742  16.558   5.548  18.647 -0.1987 -0.1020  0.0250
24190DPPC   NC328743  15.201   1.527  20.716 -0.3245 -0.3466  0.4197
24190DPPC   PO428744  15.512   1.395  20.538 -0.1286  0.0392 -0.1788
24190DPPC   GL128745  15.546   0.996  20.396  0.0588 -0.1640  0.5191
24190DPPC   GL228746  15.374   0.849  20.350 -0.0052  0.0611  0.1003
24190DPPC   C1A28747  15.676   1.075  20.049 -0.1390  0.0281 -0.2572
24190DPPC   C2A28748  15.788   0.932  19.677  0.0001  0.2238 -0.1859
24190DPPC   C3A28749  15.829   0.957  19.200  0.0519 -0.3927  0.0432
24190DPPC   C4A28750  15.801   1.047  18.714  0.1086 -0.0590 -0.0439
24190DPPC   C1B28751  15.313   0.874  19.976 -0.2718 -0.1109 -0.0497
24190DPPC   C2B28752  15.307   0.904  19.576 -0.3635 -0.0713 -0.2661
24190DPPC   C3B28753  15.309   0.907  19.046  0.0559 -0.0738  0.2336
24190DPPC   C4B28754  15.285   0.853  18.557 -0.3881 -0.2387 -0.0496
24191DPPC   NC328755  14.899   4.687  20.770  0.1065 -0.0602 -0.3771
24191DPPC   PO428756  14.951   4.313  20.747  0.1345 -0.1060 -0.0230
24191DPPC   GL128757  14.795   4.164  20.404 -0.1036  0.1260  0.2300
24191DPPC   GL228758  15.053   4.070  20.297 -0.3013 -0.0111  0.2236
24191DPPC   C1A28759  14.749   4.312  20.051  0.2638  0.2246  0.1472
24191DPPC   C2A28760  14.630   4.398  19.699  0.0188 -0.0146  0.1439
24191DPPC   C3A28761  14.672   4.348  19.199 -0.2774 -0.0157 -0.1510
24191DPPC   C4A28762  14.695   4.281  18.729 -0.0349 -0.0020  0.1203
24191DPPC   C1B28763  14.982   3.947  19.925 -0.4874  0.1805 -0.0354
24191DPPC   C2B28764  14.950   3.988  19.514  0.2052  0.2715  0.0470
24191DPPC   C3B28765  14.957   3.929  19.030 -0.1091  0.0577  0.0436
24191DPPC   C4B28766  14.975   3.885  18.514  0.0440  0.0624  0.0317
24192DPPC   NC328767  14.478   4.581  20.409  0.1758 -0.0908  0.1361
24192DPPC   PO428768  14.472   4.947  20.474 -0.0471 -0.0105  0.1672
24192DPPC   GL128769  14.328   5.109  20.205  0.0517  0.1986  0.1502
24192DPPC   GL228770  14.234   4.825  20.053 -0.2284 -0.3113  0.1371
24192DPPC   C1A28771  14.464   5.190  19.893  0.0911 -0.4447 -0.0667
24192DPPC   C2A28772  14.437   5.184  19.463  0.2256 -0.2329  0.0811
24192DPPC   C3A28773  14.520   5.178  19.019 -0.0829 -0.2878 -0.0932
24192DPPC   C4A28774  14.449   5.178  18.543 -0.1107 -0.1054 -0.1186
24192DPPC   C1B28775  14.351   4.784  19.720  0.0921 -0.0291  0.0931
24192DPPC   C2B28776  14.320   4.733  19.269 -0.2330 -0.1427 -0.2211
24192DPPC   C3B28777  14.290   4.737  18.760 -0.2351 -0.2397 -0.0746
24192DPPC   C4B28778  14.402   4.742  18.285  0.1172  0.2409  0.1504
24193DPPC   NC328779  19.368   1.461  20.561  0.0728 -0.3582  0.3973
24193DPPC   PO428780  19.625   1.620  20.310 -0.1018  0.0634  0.2926
24193DPPC   GL128781  19.677   1.391  19.956  0.2105 -0.1401  0.0487
24193DPPC   GL228782  19.420   1.252  20.007  0.1180  0.0477 -0.1418
24193DPPC   C1A28783  19.630   1.419  19.589  0.1329 -0.1132  0.0225
24193DPPC   C2A28784  19.629   1.338  19.184 -0.0141  0.1142  0.0636
24193DPPC   C3A28785  19.639   1.331  18.742 -0.0187 -0.0893 -0.0865
24193DPPC   C4A28786  19.712   1.319  18.284  0.0262 -0.2265  0.1278
24193DPPC   C1B28787  19.209   1.246  19.666 -0.0667  0.2797  0.1847
24193DPPC   C2B28788  19.155   1.302  19.255 -0.1633 -0.0197  0.0938
24193DPPC   C3B28789  19.109   1.239  18.764  0.2551  0.0836 -0.1175
24193DPPC   C4B28790  19.095   1.245  18.271  0.3648  0.0638  0.0810
24194DPPC   NC328791  21.488   1.597  20.348 -0.0951 -0.0258  0.0501
24194DPPC   PO428792  21.254   1.885  20.450  0.0273 -0.0802 -0.0640
24194DPPC   GL128793  21.138   1.959  20.068  0.0535  0.1683 -0.1520
24194DPPC   GL228794  20.924   2.089  20.037 -0.2150 -0.3524 -0.2860
24194DPPC   C1A28795  21.284   1.752  19.825 -0.4680  0.0404 -0.0987
24194DPPC   C2A28796  21.164   1.591  19.467  0.1189 -0.0539  0.0816
24194DPPC   C3A28797  21.120   1.636  18.993  0.0397  0.0494 -0.2670
24194DPPC   C4A28798  21.165   1.585  18.515  0.0714 -0.2790  0.2013
24194DPPC   C1B28799  21.019   2.098  19.690 -0.0757  0.1398  0.0897
24194DPPC   C2B28800  21.264   2.100  19.393 -0.0260  0.1843  0.4294
24194DPPC   C3B28801  21.254   2.128  18.922  0.0208 -0.3000  0.3320
24194DPPC   C4B28802  21.203   2.068  18.433 -0.1353  0.1806 -0.0727
24195DPPC   NC328803  16.023   1.139  20.411 -0.1109 -0.1281  0.0108
24195DPPC   PO428804  16.185   0.854  20.653 -0.5374  0.1137 -0.1233
24195DPPC   GL128805  16.246   0.518  20.416  0.1383  0.0467  0.2240
24195DPPC   GL228806  16.337   0.715  20.257  0.1609 -0.1132 -0.0147
24195DPPC   C1A28807  16.134   0.339  20.137  0.0611  0.1226  0.5123
24195DPPC   C2A28808  16.073   0.145  19.746 -0.0177  0.0937  0.0345
24195DPPC   C3A28809  15.937   0.158  19.297 -0.0411  0.1364 -0.0859
24195DPPC   C4A28810  15.892   0.090  18.807  0.0802  0.0551  0.2381
24195DPPC   C1B28811  16.508   0.745  19.905 -0.3422  0.2091  0.0359
24195DPPC   C2B28812  16.676   0.575  19.538 -0.1031 -0.0871 -0.2189
24195DPPC   C3B28813  16.574   0.582  19.104  0.1886 -0.0338 -0.1785
24195DPPC   C4B28814  16.631   0.701  18.621  0.1486 -0.1274 -0.0915
24196DPPC   NC328815  14.478   2.087  20.878  0.0984 -0.1927 -0.3501
24196DPPC   PO428816  14.244   2.386  20.691  0.1912 -0.0352 -0.1012
24196DPPC   GL128817  14.280   2.314  20.278 -0.1744  0.2646 -0.2080
24196DPPC   GL228818  14.305   2.130  20.216  0.2865 -0.1569 -0.1821
24196DPPC   C1A28819  14.107   2.483  20.032 -0.3738 -0.1756  0.3605
24196DPPC   C2A28820  13.937   2.466  19.653  0.1623  0.0279 -0.2320
24196DPPC   C3A28821  13.917   2.394  19.180 -0.3393 -0.1646  0.1874
24196DPPC   C4A28822  13.915   2.371  18.726 -0.3048 -0.0226  0.2550
24196DPPC   C1B28823  14.313   2.093  19.850  0.0801 -0.5469  0.0850
24196DPPC   C2B28824  14.188   2.069  19.445  0.1459  0.0157  0.0686
24196DPPC   C3B28825  14.235   2.030  18.910  0.1713  0.0473 -0.1658
24196DPPC   C4B28826  14.295   1.962  18.424 -0.1678  0.3455 -0.1374
24197DPPC   NC328827  15.896   5.644  21.360 -0.2239 -0.3690  0.1435
24197DPPC   PO428828  15.894   5.528  20.989 -0.0095  0.1893  0.0334
24197DPPC   GL128829  15.823   5.325  20.622  0.0476  0.3566 -0.2566
24197DPPC   GL228830  15.761   5.551  20.440  0.0311  0.2848 -0.0277
24197DPPC   C1A28831  15.812   5.176  20.242  0.0340  0.0111  0.0136
24197DPPC   C2A28832  15.676   5.065  19.909 -0.0568 -0.1222 -0.1667
24197DPPC   C3A28833  15.749   5.046  19.419 -0.5855 -0.0950 -0.0242
24197DPPC   C4A28834  15.777   4.985  18.939 -0.1327 -0.0960 -0.2643
24197DPPC   C1B28835  15.869   5.620  20.104 -0.0332 -0.1060  0.1375
24197DPPC   C2B28836  15.947   5.541  19.684  0.1415 -0.0954 -0.3504
24197DPPC   C3B28837  15.986   5.471  19.195 -0.3062 -0.0817 -0.0778
24197DPPC   C4B28838  15.994   5.451  18.735 -0.1603 -0.3655 -0.3067
24198DPPC   NC328839  16.951   5.233  20.169 -0.0829  0.1662 -0.0573
24198DPPC   PO428840  16.728   5.161  20.492 -0.0910 -0.1291  0.1014
24198DPPC   GL128841  16.463   5.150  20.206 -0.0988  0.2534  0.2027
24198DPPC   GL228842  16.245   4.978  20.383 -0.1028  0.2700  0.5141
24198DPPC   C1A28843  16.246   5.224  19.865  0.1606 -0.1794 -0.0913
24198DPPC   C2A28844  16.290   5.109  19.469 -0.2326  0.2736 -0.0228
24198DPPC   C3A28845  16.310   5.060  19.018  0.0946 -0.1486  0.1484
24198DPPC   C4A28846  16.344   5.125  18.524  0.0368 -0.0598 -0.0307
24198DPPC   C1B28847  16.077   4.862  20.021 -0.1359  0.1069  0.0692
24198DPPC   C2B28848  16.086   4.688  19.685  0.0209 -0.0675  0.1441
24198DPPC   C3B28849  16.102   4.648  19.252 -0.0352 -0.1399  0.0267
24198DPPC   C4B28850  16.136   4.642  18.808  0.2140 -0.1922 -0.0457
24199DPPC   NC328851  17.462   4.079  20.557 -0.0664  0.1437  0.2437
24199DPPC   PO428852  17.054   3.997  20.570 -0.0267 -0.0595 -0.1025
24199DPPC   GL128853  16.981   3.984  20.145 -0.6607  0.2940 -0.0409
24199DPPC   GL228854  17.043   4.251  20.132 -0.1014  0.0381 -0.3157
24199DPPC   C1A28855  16.836   3.856  19.808  0.1276 -0.1595 -0.0598
24199DPPC   C2A28856  16.784   3.817  19.396  0.0273  0.1584  0.0829
24199DPPC   C3A28857  16.635   3.782  18.886 -0.2467  0.0925  0.2754
24199DPPC   C4A28858  16.842   3.697  18.457 -0.1678  0.1832 -0.0294
24199DPPC   C1B28859  16.766   4.309  19.871 -0.1314 -0.1826  0.0349
24199DPPC   C2B28860  16.493   4.241  19.595 -0.1437  0.1724 -0.0073
24199DPPC   C3B28861  16.422   4.252  19.100  0.0706  0.1876  0.0528
24199DPPC   C4B28862  16.469   4.221  18.591  0.1902 -0.1073 -0.0760
24200DPPC   NC328863  15.975   4.271  20.613  0.1629 -0.0032  0.1278
24200DPPC   PO428864  15.924   3.879  20.779 -0.1240  0.2563  0.0350
24200DPPC   GL128865  15.893   3.803  20.360  0.0880 -0.0780 -0.0831
24200DPPC   GL228866  16.106   3.912  20.293  0.0789 -0.3192  0.2906
24200DPPC   C1A28867  15.808   3.664  20.031 -0.0847  0.2895 -0.3937
24200DPPC   C2A28868  15.732   3.632  19.619 -0.2488  0.0878 -0.0654
24200DPPC   C3A28869  15.630   3.594  19.144 -0.1189  0.1835 -0.0647
24200DPPC   C4A28870  15.611   3.562  18.628 -0.4951 -0.1984 -0.2486
24200DPPC   C1B28871  16.192   3.789  19.966  0.1073  0.2500  0.1029
24200DPPC   C2B28872  16.290   3.805  19.548  0.0282  0.1087  0.1041
24200DPPC   C3B28873  16.180   3.713  19.051 -0.1083  0.1039  0.1312
24200DPPC   C4B28874  16.083   3.691  18.612  0.1469  0.0101  0.3853
24201DPPC   NC328875  17.896   0.918  21.069  0.0590  0.1236  0.1893
24201DPPC   PO428876  17.925   1.097  20.765 -0.1387 -0.1477 -0.0982
24201DPPC   GL128877  17.969   0.983  20.286  0.1075  0.1248  0.1705
24201DPPC   GL228878  17.690   1.038  20.359  0.0452  0.1993 -0.2406
24201DPPC   C1A28879  18.092   1.077  19.991  0.0056 -0.3597 -0.3093
24201DPPC   C2A28880  18.173   1.130  19.553 -0.2356 -0.0413  0.0307
24201DPPC   C3A28881  18.140   1.103  19.074  0.1460  0.0378  0.0099
24201DPPC   C4A28882  18.080   1.028  18.606 -0.1050 -0.1305  0.2108
24201DPPC   C1B28883  17.535   0.969  20.021  0.3381 -0.0746  0.0333
24201DPPC   C2B28884  17.594   0.995  19.631 -0.5470  0.2358  0.1693
24201DPPC   C3B28885  17.578   0.904  19.145  0.2451 -0.2608 -0.3382
24201DPPC   C4B28886  17.555   0.996  18.725  0.1765 -0.0248  0.0335
24202DPPC   NC328887  20.768   1.860  20.390  0.3065  0.0644  0.0314
24202DPPC   PO428888  20.740   2.253  20.517  0.1097 -0.1323  0.1216
24202DPPC   GL128889  20.613   2.366  20.102  0.0619  0.0419  0.1845
24202DPPC   GL228890  20.490   2.077  20.020  0.1801 -0.3091  0.1045
24202DPPC   C1A28891  20.688   2.467  19.794  0.1555  0.4086 -0.1169
24202DPPC   C2A28892  20.791   2.525  19.419 -0.0381  0.0077 -0.0917
24202DPPC   C3A28893  20.939   2.529  18.953  0.0201  0.2495  0.1512
24202DPPC   C4A28894  20.907   2.481  18.457  0.1425 -0.0442  0.1646
24202DPPC   C1B28895  20.592   2.019  19.658  0.4087 -0.0933  0.1109
24202DPPC   C2B28896  20.781   2.010  19.279 -0.1326 -0.0735 -0.0869
24202DPPC   C3B28897  20.746   1.959  18.779  0.2908 -0.2008 -0.1364
24202DPPC   C4B28898  20.751   1.998  18.247  0.0563 -0.1504  0.1839
24203DPPC   NC328899  17.832   5.869  20.799 -0.0134 -0.1267  0.3539
24203DPPC   PO428900  17.990   5.510  20.658 -0.1534 -0.0398 -0.1898
24203DPPC   GL128901  17.835   5.313  20.248  0.3652 -0.0922  0.0138
24203DPPC   GL228902  18.184   5.361  20.168  0.1172  0.0462 -0.2133
24203DPPC   C1A28903  17.813   5.370  19.858 -0.3577 -0.3198 -0.0638
24203DPPC   C2A28904  17.813   5.402  19.442 -0.1965 -0.1729 -0.3811
24203DPPC   C3A28905  17.754   5.361  18.972 -0.1436  0.1680  0.1885
24203DPPC   C4A28906  17.808   5.319  18.486  0.3001 -0.0694 -0.2235
24203DPPC   C1B28907  18.325   5.379  19.812  0.4307 -0.0804  0.0951
24203DPPC   C2B28908  18.318   5.485  19.384 -0.0072 -0.1391  0.1674
24203DPPC   C3B28909  18.270   5.558  18.908  0.1528 -0.2259  0.1693
24203DPPC   C4B28910  18.348   5.390  18.471  0.1707  0.2470  0.0659
24204DPPC   NC328911  19.894   3.507  20.739  0.0391  0.0962 -0.0988
24204DPPC   PO428912  20.091   3.667  20.472 -0.0729  0.1421  0.0833
24204DPPC   GL128913  20.020   3.646  20.038 -0.0260  0.0348 -0.1334
24204DPPC   GL228914  20.256   3.561  19.938 -0.1122 -0.1103 -0.2703
24204DPPC   C1A28915  19.864   3.478  19.705 -0.1173  0.3200 -0.2749
24204DPPC   C2A28916  19.876   3.502  19.325  0.1322 -0.3110  0.1633
24204DPPC   C3A28917  19.886   3.603  18.814  0.4149 -0.2426  0.0698
24204DPPC   C4A28918  19.892   3.629  18.336 -0.1636  0.1194  0.0774
24204DPPC   C1B28919  20.256   3.640  19.548 -0.2917 -0.0093 -0.1782
24204DPPC   C2B28920  20.336   3.648  19.124 -0.1413  0.0805  0.0761
24204DPPC   C3B28921  20.354   3.647  18.611 -0.0896  0.2722  0.1537
24204DPPC   C4B28922  20.413   3.667  18.155  0.0188 -0.2025  0.2466
24205DPPC   NC328923  15.438   5.038  20.507 -0.0412 -0.2287  0.3640
24205DPPC   PO428924  15.331   4.713  20.568  0.2399 -0.0519 -0.0640
24205DPPC   GL128925  15.211   4.489  20.197  0.0373 -0.2064 -0.1763
24205DPPC   GL228926  14.963   4.603  20.297 -0.0556 -0.4261  0.1899
24205DPPC   C1A28927  15.139   4.389  19.868 -0.1140 -0.2629  0.1566
24205DPPC   C2A28928  15.091   4.464  19.426 -0.2996  0.0021 -0.2880
24205DPPC   C3A28929  15.146   4.362  18.926 -0.2951 -0.2587  0.1705
24205DPPC   C4A28930  15.158   4.364  18.464 -0.0642  0.2212  0.0728
24205DPPC   C1B28931  14.735   4.739  20.021  0.3312 -0.2161 -0.1979
24205DPPC   C2B28932  14.791   4.866  19.606  0.2350  0.0522  0.0787
24205DPPC   C3B28933  14.816   4.806  19.136  0.0788 -0.0013  0.2162
24205DPPC   C4B28934  14.797   4.767  18.659 -0.2161  0.1024  0.0413
24206DPPC   NC328935  14.984   0.201  20.859 -0.2594 -0.0564 -0.0971
24206DPPC   PO428936  14.611   0.235  20.787  0.2058  0.0831  0.4068
24206DPPC   GL128937  14.347   0.191  20.383  0.1564 -0.0413  0.1719
24206DPPC   GL228938  14.450  -0.096  20.357 -0.0369 -0.1226  0.0223
24206DPPC   C1A28939  14.229   0.258  20.008  0.1197 -0.0441  0.0735
24206DPPC   C2A28940  14.082   0.267  19.614  0.2300 -0.1056 -0.2280
24206DPPC   C3A28941  14.142   0.237  19.136  0.0471 -0.4335 -0.3276
24206DPPC   C4A28942  14.142   0.231  18.675 -0.0635  0.0144  0.0542
24206DPPC   C1B28943  14.536  -0.040  20.009 -0.2529 -0.0623 -0.3188
24206DPPC   C2B28944  14.452  -0.127  19.597 -0.0126  0.0760 -0.0208
24206DPPC   C3B28945  14.454  -0.101  19.116  0.0213  0.0961  0.0648
24206DPPC   C4B28946  14.411  -0.160  18.648 -0.0120 -0.0777  0.1041
24207DPPC   NC328947  14.656   4.022  21.059  0.2206 -0.1413 -0.0217
24207DPPC   PO428948  14.460   4.282  20.868  0.0372  0.0412 -0.1036
24207DPPC   GL128949  14.375   4.089  20.564 -0.1923 -0.2856 -0.0946
24207DPPC   GL228950  14.570   3.811  20.515  0.0754  0.0263  0.2904
24207DPPC   C1A28951  14.350   4.160  20.227  0.1386 -0.2161 -0.0790
24207DPPC   C2A28952  14.177   4.360  19.942 -0.0470  0.0134 -0.0846
24207DPPC   C3A28953  14.138   4.281  19.456 -0.3568  0.3022  0.0034
24207DPPC   C4A28954  14.202   4.217  18.976 -0.0208  0.0202  0.0147
24207DPPC   C1B28955  14.619   3.744  20.165  0.0368 -0.1112 -0.1942
24207DPPC   C2B28956  14.512   3.873  19.805  0.4094  0.0116 -0.1162
24207DPPC   C3B28957  14.500   3.914  19.330 -0.1660  0.0289  0.1291
24207DPPC   C4B28958  14.509   3.796  18.836  0.2302 -0.2216  0.0205
24208DPPC   NC328959  14.275   5.263  21.079  0.0874 -0.2174 -0.0918
24208DPPC   PO428960  14.454   5.574  20.905  0.0795 -0.2646  0.1210
24208DPPC   GL128961  14.395   5.783  20.498  0.0115  0.2120  0.1276
24208DPPC   GL228962  14.591   5.963  20.527  0.1319 -0.5912  0.3470
24208DPPC   C1A28963  14.170   5.707  20.210 -0.0916  0.4641  0.0018
24208DPPC   C2A28964  14.179   5.562  19.826  0.1267 -0.0212  0.1039
24208DPPC   C3A28965  14.078   5.575  19.354 -0.4423 -0.2140  0.0862
24208DPPC   C4A28966  14.159   5.508  18.817 -0.2252 -0.1161 -0.1759
24208DPPC   C1B28967  14.631   6.088  20.181  0.2372 -0.0179  0.1222
24208DPPC   C2B28968  14.813   6.184  19.868 -0.0709 -0.1835 -0.1811
24208DPPC   C3B28969  14.761   6.088  19.346  0.2160  0.0419 -0.2040
24208DPPC   C4B28970  14.744   6.077  18.881  0.1483  0.3421 -0.2167
24209DPPC   NC328971  15.282   3.338  20.604 -0.1055  0.0590 -0.0681
24209DPPC   PO428972  15.048   3.099  20.801 -0.1548  0.0963 -0.1586
24209DPPC   GL128973  15.098   2.758  20.485  0.1984 -0.0661  0.1488
24209DPPC   GL228974  15.093   3.017  20.372 -0.0781 -0.1783 -0.0793
24209DPPC   C1A28975  14.958   2.518  20.255 -0.3530 -0.0729  0.3025
24209DPPC   C2A28976  15.026   2.570  19.854 -0.2496 -0.1753  0.0699
24209DPPC   C3A28977  14.976   2.584  19.422 -0.2588  0.0484 -0.0172
24209DPPC   C4A28978  14.871   2.587  18.892  0.1023  0.6425  0.0495
24209DPPC   C1B28979  15.096   3.062  20.014  0.1134  0.0873 -0.1087
24209DPPC   C2B28980  15.150   3.060  19.578  0.0287 -0.0865  0.1273
24209DPPC   C3B28981  15.018   3.062  19.162  0.1334 -0.1191  0.1192
24209DPPC   C4B28982  15.014   3.012  18.644 -0.1229 -0.1533  0.2009
24210DPPC   NC328983  20.206   2.689  20.317 -0.0663  0.1993 -0.0891
24210DPPC   PO428984  20.097   2.357  20.132  0.0844  0.0692 -0.2981
24210DPPC   GL128985  20.051   2.248  19.763 -0.1761  0.0768 -0.1003
24210DPPC   GL228986  20.294   2.330  19.712  0.1583  0.1168  0.1191
24210DPPC   C1A28987  19.910   2.226  19.408 -0.3055  0.3962  0.0665
24210DPPC   C2A28988  19.955   2.234  19.002 -0.0352 -0.1783 -0.4846
24210DPPC   C3A28989  19.924   2.272  18.485  0.1212  0.1671  0.0087
24210DPPC   C4A28990  19.950   2.273  17.979  0.1998 -0.1096 -0.2328
24210DPPC   C1B28991  20.370   2.283  19.400  0.0520 -0.0289  0.0350
24210DPPC   C2B28992  20.495   2.287  18.998  0.0069 -0.0415 -0.1227
24210DPPC   C3B28993  20.418   2.350  18.497  0.1760 -0.1241 -0.3552
24210DPPC   C4B28994  20.473   2.332  18.037 -0.1326  0.1604  0.1023
24211DPPC   NC328995  17.355   3.083  20.852 -0.1469 -0.2305  0.1361
24211DPPC   PO428996  17.645   2.847  20.730 -0.5683  0.2852  0.1426
24211DPPC   GL128997  17.591   2.715  20.278 -0.1075  0.1400 -0.1229
24211DPPC   GL228998  17.756   2.959  20.217 -0.1720 -0.1372 -0.0723
24211DPPC   C1A28999  17.639   2.632  19.932 -0.0946  0.1243 -0.3370
24211DPPC   C2A29000  17.755   2.704  19.550 -0.0315  0.3095 -0.0232
24211DPPC   C3A29001  17.809   2.689  19.086  0.0370  0.2664 -0.1738
24211DPPC   C4A29002  17.843   2.652  18.574  0.1177 -0.1764  0.0213
24211DPPC   C1B29003  17.849   3.078  19.876 -0.0264 -0.0092  0.0651
24211DPPC   C2B29004  17.942   3.154  19.426  0.0133 -0.0852 -0.0674
24211DPPC   C3B29005  17.923   3.141  18.946  0.2564  0.2875 -0.1480
24211DPPC   C4B29006  17.942   3.132  18.463 -0.1968 -0.0865 -0.1933
24212DPPC   NC329007  19.284   6.588  20.475  0.0778 -0.3960 -0.1979
24212DPPC   PO429008  19.686   6.679  20.451  0.1364  0.1373 -0.1411
24212DPPC   GL129009  19.663   6.910  20.035  0.2536  0.1065 -0.4216
24212DPPC   GL229010  19.607   6.585  19.976 -0.0780 -0.4204 -0.0418
24212DPPC   C1A29011  19.782   7.144  19.782  0.3520 -0.0679 -0.0327
24212DPPC   C2A29012  19.823   7.091  19.371  0.2267  0.0036  0.1869
24212DPPC   C3A29013  19.810   7.184  18.918  0.0756 -0.3184 -0.1683
24212DPPC   C4A29014  19.816   7.198  18.359  0.2806 -0.0267 -0.0520
24212DPPC   C1B29015  19.525   6.618  19.604  0.2538  0.4610 -0.1934
24212DPPC   C2B29016  19.610   6.608  19.204 -0.2001 -0.1700  0.1611
24212DPPC   C3B29017  19.622   6.697  18.758  0.0424  0.3019 -0.1127
24212DPPC   C4B29018  19.630   6.750  18.277  0.0772 -0.0159  0.2360
24213DPPC   NC329019  17.105   5.312  20.993  0.1033 -0.0812  0.0075
24213DPPC   PO429020  17.156   5.028  20.694 -0.4029 -0.0179 -0.2422
24213DPPC   GL129021  17.442   5.184  20.353 -0.2043 -0.0044 -0.1675
24213DPPC   GL229022  17.245   4.931  20.319  0.0200  0.1811 -0.2052
24213DPPC   C1A29023  17.410   5.204  20.025  0.0628 -0.2973  0.3160
24213DPPC   C2A29024  17.367   5.321  19.611  0.0564 -0.0146  0.2507
24213DPPC   C3A29025  17.285   5.191  19.145  0.2046  0.0717  0.3246
24213DPPC   C4A29026  17.234   5.244  18.667  0.1078 -0.1181 -0.0245
24213DPPC   C1B29027  17.131   4.865  19.936  0.0054  0.2654 -0.1881
24213DPPC   C2B29028  17.173   4.829  19.513 -0.3250 -0.4265  0.3649
24213DPPC   C3B29029  16.996   4.749  19.082 -0.0811 -0.1122  0.4255
24213DPPC   C4B29030  16.597   4.711  18.789 -0.3016  0.3383 -0.1809
24214DPPC   NC329031  16.226   0.386  20.956 -0.1518  0.4105  0.3991
24214DPPC   PO429032  16.538   0.250  20.748 -0.0053  0.3206 -0.0243
24214DPPC   GL129033  16.649  -0.030  20.517 -0.2626  0.1027  0.0714
24214DPPC   GL229034  16.685  -0.280  20.556 -0.1163 -0.1580 -0.1763
24214DPPC   C1A29035  16.662   0.087  20.147 -0.1169  0.0631  0.2373
24214DPPC   C2A29036  16.567   0.160  19.797  0.0565 -0.0359  0.1081
24214DPPC   C3A29037  16.448   0.172  19.358 -0.0307 -0.0159  0.3287
24214DPPC   C4A29038  16.420   0.209  18.832 -0.0575  0.0075 -0.1172
24214DPPC   C1B29039  16.803  -0.497  20.260  0.2693 -0.2262 -0.0372
24214DPPC   C2B29040  16.744  -0.609  19.846 -0.2702  0.1242 -0.3168
24214DPPC   C3B29041  16.669  -0.607  19.351  0.0169  0.2043 -0.1526
24214DPPC   C4B29042  16.640  -0.552  18.859  0.0511 -0.0904 -0.2347
24215DPPC   NC329043  13.917   0.436  20.550 -0.3175  0.2226 -0.0024
24215DPPC   PO429044  13.935   0.034  20.486  0.0589 -0.1133 -0.2206
24215DPPC   GL129045  14.103  -0.150  20.093 -0.0899  0.0946 -0.2551
24215DPPC   GL229046  13.827  -0.128  20.160 -0.0452 -0.0775 -0.2333
24215DPPC   C1A29047  13.915  -0.223  19.756  0.0241  0.3496 -0.0652
24215DPPC   C2A29048  13.988  -0.227  19.303  0.2629 -0.3174 -0.1063
24215DPPC   C3A29049  13.963  -0.249  18.864  0.1384 -0.1164 -0.3694
24215DPPC   C4A29050  14.050  -0.222  18.389 -0.1250  0.0043 -0.1485
24215DPPC   C1B29051  13.443  -0.211  20.049 -0.1081  0.2371  0.3046
24215DPPC   C2B29052  13.430  -0.270  19.674  0.0777 -0.0009  0.1184
24215DPPC   C3B29053  13.463  -0.328  19.242 -0.2668 -0.3666  0.3511
24215DPPC   C4B29054  13.439  -0.298  18.750 -0.0769  0.0172 -0.1685
24216DPPC   NC329055  19.672   3.443  20.321  0.2047  0.1902  0.3269
24216DPPC   PO429056  19.587   3.808  20.225 -0.1861 -0.0914  0.2343
24216DPPC   GL129057  19.460   4.001  19.922 -0.1367  0.1359  0.0231
24216DPPC   GL229058  19.710   4.067  19.817 -0.2264  0.0390 -0.0192
24216DPPC   C1A29059  19.188   4.053  19.646 -0.2886  0.1071  0.2433
24216DPPC   C2A29060  19.124   3.867  19.302 -0.0196 -0.0510 -0.2826
24216DPPC   C3A29061  19.109   3.767  18.821 -0.2713  0.1832 -0.0410
24216DPPC   C4A29062  19.076   3.810  18.324 -0.0751  0.2001 -0.0219
24216DPPC   C1B29063  19.624   4.035  19.460 -0.2553 -0.3498 -0.2092
24216DPPC   C2B29064  19.619   3.968  19.067 -0.0267 -0.0384 -0.1162
24216DPPC   C3B29065  19.563   3.911  18.596 -0.0333  0.2406  0.0292
24216DPPC   C4B29066  19.581   3.956  18.101  0.0565  0.1527  0.1619
24217DPPC   NC329067  18.370   1.258  20.617 -0.0364 -0.2322  0.1432
24217DPPC   PO429068  18.661   1.058  20.452 -0.1001 -0.2962 -0.2712
24217DPPC   GL129069  18.563   1.130  20.132 -0.0323 -0.1415  0.1587
24217DPPC   GL229070  18.460   0.919  20.010  0.1566 -0.1223  0.2965
24217DPPC   C1A29071  18.477   1.303  19.867 -0.2236  0.0761  0.3219
24217DPPC   C2A29072  18.677   1.248  19.535  0.1037  0.0283  0.0527
24217DPPC   C3A29073  18.659   1.098  19.031 -0.1037  0.0569 -0.1055
24217DPPC   C4A29074  18.588   1.095  18.559 -0.0492 -0.1761 -0.1302
24217DPPC   C1B29075  18.548   0.712  19.675 -0.2705  0.3079 -0.3000
24217DPPC   C2B29076  18.450   0.674  19.280 -0.1580  0.3364 -0.1453
24217DPPC   C3B29077  18.445   0.713  18.819  0.2084 -0.1621  0.0347
24217DPPC   C4B29078  18.441   0.679  18.306  0.0960 -0.1532  0.0802
24218DPPC   NC329079  16.741   3.549  20.875  0.0152 -0.2140  0.1156
24218DPPC   PO429080  17.096   3.466  20.736  0.1464 -0.1276 -0.2304
24218DPPC   GL129081  17.248   3.627  20.331 -0.2141 -0.2889  0.2433
24218DPPC   GL229082  17.453   3.407  20.345  0.1337 -0.1737 -0.3110
24218DPPC   C1A29083  17.288   3.780  19.923 -0.0724 -0.0507 -0.3047
24218DPPC   C2A29084  17.212   3.955  19.587 -0.1055  0.1615 -0.2150
24218DPPC   C3A29085  16.953   4.293  19.417  0.2347 -0.1491  0.1558
24218DPPC   C4A29086  16.588   4.636  19.309  0.0796 -0.0511 -0.0214
24218DPPC   C1B29087  17.535   3.435  19.956  0.0383  0.0892  0.1573
24218DPPC   C2B29088  17.567   3.558  19.552  0.1514  0.0823 -0.1821
24218DPPC   C3B29089  17.628   3.579  19.086  0.0650 -0.2642  0.0781
24218DPPC   C4B29090  17.658   3.590  18.619  0.1021 -0.0750 -0.2630
24219DPPC   NC329091  15.831   1.842  20.597  0.0772  0.0449  0.0935
24219DPPC   PO429092  15.461   1.933  20.552  0.0583  0.1072 -0.1984
24219DPPC   GL129093  15.413   1.823  20.166  0.0420  0.2498  0.3395
24219DPPC   GL229094  15.681   1.839  20.151 -0.4872 -0.2001 -0.1458
24219DPPC   C1A29095  15.239   1.798  19.867 -0.1057 -0.2434 -0.0495
24219DPPC   C2A29096  15.120   1.717  19.505  0.0286 -0.0265  0.1671
24219DPPC   C3A29097  15.069   1.721  19.023 -0.1320 -0.0499 -0.4216
24219DPPC   C4A29098  15.067   1.613  18.540  0.1016 -0.0478 -0.1847
24219DPPC   C1B29099  15.662   1.890  19.826 -0.1269 -0.3061  0.1471
24219DPPC   C2B29100  15.640   1.812  19.453 -0.4033 -0.2749 -0.0028
24219DPPC   C3B29101  15.550   1.878  19.009 -0.1232 -0.1579 -0.0343
24219DPPC   C4B29102  15.577   1.816  18.548  0.1960  0.2280  0.1200
24220DPPC   NC329103  16.936   2.175  20.627  0.2655  0.4537 -0.1285
24220DPPC   PO429104  16.759   2.438  20.857  0.0091  0.0916 -0.1658
24220DPPC   GL129105  16.663   2.731  20.471 -0.3037 -0.0584  0.0318
24220DPPC   GL229106  16.640   2.454  20.413 -0.3929  0.0922 -0.2108
24220DPPC   C1A29107  16.789   2.873  20.126  0.0959  0.1224 -0.2930
24220DPPC   C2A29108  16.913   2.938  19.758  0.0257 -0.1571 -0.0025
24220DPPC   C3A29109  16.969   3.045  19.313 -0.2545  0.2316 -0.2346
24220DPPC   C4A29110  16.944   3.025  18.862  0.0132 -0.1448  0.1659
24220DPPC   C1B29111  16.713   2.444  20.046  0.2226  0.1168  0.0766
24220DPPC   C2B29112  16.779   2.485  19.652  0.1041 -0.0225  0.0283
24220DPPC   C3B29113  16.712   2.584  19.192  0.0160  0.1051  0.0069
24220DPPC   C4B29114  16.757   2.519  18.779 -0.2090  0.1063  0.0439
24221DPPC   NC329115  16.796   1.443  20.784 -0.2268 -0.0514  0.2581
24221DPPC   PO429116  17.056   1.698  20.737 -0.2980  0.0045 -0.1440
24221DPPC   GL129117  17.166   1.876  20.365  0.0110  0.1946  0.1208
24221DPPC   GL229118  17.356   2.050  20.435  0.0475 -0.1645 -0.1403
24221DPPC   C1A29119  17.302   1.858  20.025  0.4121  0.1130 -0.5006
24221DPPC   C2A29120  17.447   1.704  19.650  0.1006  0.1435 -0.1069
24221DPPC   C3A29121  17.442   1.866  19.205 -0.0114  0.2335  0.1381
24221DPPC   C4A29122  17.431   1.771  18.693  0.0839  0.4197 -0.1025
24221DPPC   C1B29123  17.520   2.215  20.141  0.5063  0.1177  0.2220
24221DPPC   C2B29124  17.530   2.268  19.746 -0.0717 -0.1163 -0.0987
24221DPPC   C3B29125  17.501   2.341  19.300 -0.1195  0.1405 -0.1479
24221DPPC   C4B29126  17.598   2.201  18.843  0.1041 -0.0655 -0.2941
24222DPPC   NC329127  18.893   5.912  20.614 -0.0339  0.3091 -0.0366
24222DPPC   PO429128  19.146   6.146  20.372 -0.1814 -0.0532 -0.0593
24222DPPC   GL129129  19.251   6.067  19.983  0.0261  0.1415  0.3837
24222DPPC   GL229130  19.139   6.376  20.020  0.3444 -0.0100 -0.0903
24222DPPC   C1A29131  19.010   6.014  19.688 -0.3456  0.0454 -0.3019
24222DPPC   C2A29132  18.968   6.081  19.284  0.2780 -0.1539  0.2102
24222DPPC   C3A29133  18.966   6.012  18.796 -0.1319 -0.2555 -0.2027
24222DPPC   C4A29134  18.957   6.029  18.307  0.1524 -0.1705 -0.0246
24222DPPC   C1B29135  19.086   6.606  19.719 -0.4938  0.1715  0.4486
24222DPPC   C2B29136  19.116   6.631  19.332 -0.0301 -0.1231  0.0936
24222DPPC   C3B29137  19.142   6.599  18.870  0.0854  0.0537 -0.0620
24222DPPC   C4B29138  19.109   6.576  18.402  0.0369  0.0289  0.2427
24223DPPC   NC329139  21.599   3.290  20.461  0.0945 -0.2452 -0.1860
24223DPPC   PO429140  21.550   2.964  20.237 -0.4256  0.3167 -0.0732
24223DPPC   GL129141  21.338   2.999  19.869  0.1619 -0.1113  0.5782
24223DPPC   GL229142  21.584   3.126  19.729  0.0976  0.1044  0.1570
24223DPPC   C1A29143  21.082   3.001  19.612  0.0754 -0.0538 -0.0347
24223DPPC   C2A29144  20.990   2.945  19.236 -0.0489 -0.1715  0.3289
24223DPPC   C3A29145  21.109   2.980  18.786  0.0495  0.0514  0.1815
24223DPPC   C4A29146  21.094   2.926  18.272  0.3335  0.0697  0.2120
24223DPPC   C1B29147  21.514   2.997  19.404 -0.0675  0.1541  0.1416
24223DPPC   C2B29148  21.536   3.016  18.988  0.3637  0.3548 -0.2152
24223DPPC   C3B29149  21.555   3.053  18.568  0.1420 -0.1676 -0.0801
24223DPPC   C4B29150  21.608   2.988  18.065  0.0989  0.3002 -0.2833
24224DPPC   NC329151  15.211   2.644  20.941  0.2051 -0.0874 -0.0234
24224DPPC   PO429152  15.429   2.263  20.953 -0.2112 -0.1509  0.1082
24224DPPC   GL129153  15.674   2.332  20.591 -0.4367  0.0545 -0.2975
24224DPPC   GL229154  15.504   2.473  20.472  0.0290 -0.0478  0.1780
24224DPPC   C1A29155  15.813   2.212  20.294 -0.0125  0.1844 -0.2816
24224DPPC   C2A29156  15.808   2.309  19.897 -0.0080  0.1150 -0.0482
24224DPPC   C3A29157  15.792   2.311  19.419  0.0486 -0.0751  0.0295
24224DPPC   C4A29158  15.780   2.358  18.924  0.1802 -0.1262 -0.1528
24224DPPC   C1B29159  15.364   2.329  20.115  0.0152  0.4268  0.1389
24224DPPC   C2B29160  15.343   2.189  19.705  0.1576  0.2792 -0.2025
24224DPPC   C3B29161  15.191   2.141  19.233 -0.0396 -0.2097 -0.1002
24224DPPC   C4B29162  15.202   2.160  18.805  0.0406 -0.1264  0.0881
24225DPPC   NC329163  15.982   5.933  20.611  0.0810 -0.0393  0.1492
24225DPPC   PO429164  15.564   5.923  20.654  0.0240  0.1375  0.0820
24225DPPC   GL129165  15.478   5.827  20.303  0.0756  0.4134  0.2000
24225DPPC   GL229166  15.616   6.006  20.126  0.4409 -0.1329  0.1142
24225DPPC   C1A29167  15.269   5.801  20.016 -0.2266 -0.0544  0.1662
24225DPPC   C2A29168  15.120   5.836  19.644 -0.2512 -0.2176 -0.2310
24225DPPC   C3A29169  15.139   5.782  19.174 -0.0499 -0.0294  0.1116
24225DPPC   C4A29170  15.096   5.822  18.675  0.0743 -0.2056 -0.6365
24225DPPC   C1B29171  15.651   5.874  19.775  0.3075 -0.0854  0.3156
24225DPPC   C2B29172  15.631   5.814  19.381  0.0259 -0.0524  0.1743
24225DPPC   C3B29173  15.601   5.818  18.879  0.1725  0.0066 -0.0080
24225DPPC   C4B29174  15.657   5.775  18.371  0.0025  0.1268 -0.0540
24226DPPC   NC329175  20.833   4.273  20.329  0.1618  0.0925 -0.3341
24226DPPC   PO429176  21.069   4.020  20.118  0.1116  0.2830 -0.1503
24226DPPC   GL129177  21.435   4.009  19.817  0.3222 -0.2366 -0.0984
24226DPPC   GL229178  21.456   4.275  19.812 -0.0900  0.0908 -0.0212
24226DPPC   C1A29179  21.355   3.922  19.458  0.2077 -0.1747 -0.1603
24226DPPC   C2A29180  21.340   3.958  19.077 -0.0462  0.0645  0.1047
24226DPPC   C3A29181  21.398   3.945  18.600  0.0896 -0.1343 -0.2117
24226DPPC   C4A29182  21.361   3.966  18.147 -0.1762 -0.0290  0.0615
24226DPPC   C1B29183  21.548   4.308  19.445 -0.0065 -0.2603  0.3619
24226DPPC   C2B29184  21.523   4.442  19.048  0.0644  0.2585 -0.1489
24226DPPC   C3B29185  21.513   4.470  18.537 -0.1869  0.2220 -0.2385
24226DPPC   C4B29186  21.516   4.473  18.026 -0.0406  0.0014  0.1163
24227DPPC   NC329187  14.973   5.581  21.017  0.2513  0.2614 -0.0977
24227DPPC   PO429188  14.946   5.813  20.734  0.0579 -0.0565 -0.2217
24227DPPC   GL129189  15.023   5.683  20.320 -0.1704  0.3355 -0.1206
24227DPPC   GL229190  15.194   5.417  20.360 -0.1116  0.1148  0.0473
24227DPPC   C1A29191  14.748   5.672  20.042  0.2670  0.1137 -0.0912
24227DPPC   C2A29192  14.702   5.588  19.679 -0.4755 -0.1007  0.2134
24227DPPC   C3A29193  14.668   5.624  19.211 -0.0202 -0.2848  0.2535
24227DPPC   C4A29194  14.680   5.588  18.786 -0.1296  0.1268  0.2371
24227DPPC   C1B29195  15.324   5.292  20.069 -0.0477  0.0486 -0.0383
24227DPPC   C2B29196  15.459   5.385  19.634  0.2758 -0.0506  0.1486
24227DPPC   C3B29197  15.515   5.388  19.082 -0.1322 -0.0764 -0.2144
24227DPPC   C4B29198  15.465   5.280  18.642  0.4491  0.0796 -0.1042
24228DPPC   NC329199  19.297   2.451  20.304 -0.1069  0.0930  0.4012
24228DPPC   PO429200  18.897   2.391  20.292  0.0593 -0.1896 -0.0382
24228DPPC   GL129201  18.548   2.455  20.039 -0.0664  0.4420  0.0958
24228DPPC   GL229202  18.569   2.710  20.024  0.1849 -0.0472 -0.1908
24228DPPC   C1A29203  18.643   2.316  19.743 -0.2020 -0.0917 -0.1156
24228DPPC   C2A29204  18.631   2.406  19.362 -0.1576  0.0739  0.0347
24228DPPC   C3A29205  18.644   2.386  18.861 -0.0290 -0.1221 -0.2096
24228DPPC   C4A29206  18.651   2.367  18.366 -0.1135 -0.0912  0.0736
24228DPPC   C1B29207  18.708   2.762  19.705 -0.2656  0.0245 -0.0743
24228DPPC   C2B29208  18.799   2.878  19.308  0.1893 -0.2326  0.0216
24228DPPC   C3B29209  18.734   2.879  18.867  0.1083 -0.0730  0.2241
24228DPPC   C4B29210  18.786   2.876  18.388 -0.1420  0.3324  0.1147
24229DPPC   NC329211  14.700   5.429  20.507 -0.0630  0.1624  0.0462
24229DPPC   PO429212  14.942   5.177  20.645 -0.2400 -0.4816 -0.5135
24229DPPC   GL129213  14.971   5.033  20.327  0.1993 -0.4705  0.1575
24229DPPC   GL229214  14.851   5.216  20.113  0.1536 -0.0446  0.1172
24229DPPC   C1A29215  15.156   4.897  20.020  0.0539 -0.1804  0.0125
24229DPPC   C2A29216  15.295   4.870  19.606  0.0597 -0.1100 -0.2443
24229DPPC   C3A29217  15.345   4.858  19.156  0.3299 -0.1422 -0.1839
24229DPPC   C4A29218  15.280   4.826  18.646 -0.0225  0.1273 -0.1126
24229DPPC   C1B29219  14.997   5.235  19.756 -0.2785  0.1356 -0.0847
24229DPPC   C2B29220  15.023   5.327  19.357 -0.0662 -0.1400 -0.0908
24229DPPC   C3B29221  15.047   5.221  18.916 -0.4964 -0.2687 -0.0619
24229DPPC   C4B29222  14.951   5.173  18.372  0.1326  0.2318 -0.0520
24230DPPC   NC329223  13.322   4.164  20.868 -0.0670  0.1639  0.1128
24230DPPC   PO429224  13.079   4.479  20.849 -0.2244 -0.0246 -0.0582
24230DPPC   GL129225  13.186   4.561  20.451 -0.0420 -0.0457 -0.2374
24230DPPC   GL229226  12.853   4.678  20.407  0.2299 -0.0688  0.0184
24230DPPC   C1A29227  13.302   4.589  20.061 -0.2059 -0.0024  0.0744
24230DPPC   C2A29228  13.353   4.556  19.695  0.2258 -0.0095 -0.1633
24230DPPC   C3A29229  13.272   4.523  19.208  0.1940 -0.1150  0.2319
24230DPPC   C4A29230  13.266   4.508  18.671  0.1735  0.3529 -0.0204
24230DPPC   C1B29231  12.868   4.534  20.071  0.0040  0.1997 -0.1530
24230DPPC   C2B29232  12.777   4.445  19.700  0.1559  0.0503  0.2572
24230DPPC   C3B29233  12.755   4.445  19.267  0.1788  0.1530 -0.0282
24230DPPC   C4B29234  12.772   4.468  18.755 -0.3443  0.1712  0.1144
24231DPPC   NC329235  17.580   1.696  20.566  0.0369 -0.1116  0.0649
24231DPPC   PO429236  17.911   1.539  20.454 -0.1895 -0.0611 -0.0589
24231DPPC   GL129237  17.809   1.377  20.073 -0.1301  0.0264 -0.2704
24231DPPC   GL229238  17.504   1.474  20.176 -0.3404 -0.1763 -0.0830
24231DPPC   C1A29239  17.771   1.406  19.721 -0.1171  0.1955  0.0183
24231DPPC   C2A29240  17.722   1.404  19.351  0.2972  0.3202  0.0489
24231DPPC   C3A29241  17.781   1.439  18.865 -0.3082  0.0009 -0.1331
24231DPPC   C4A29242  17.761   1.305  18.350 -0.1798 -0.1988 -0.1154
24231DPPC   C1B29243  17.309   1.330  19.854 -0.0832 -0.5251  0.1047
24231DPPC   C2B29244  17.224   1.261  19.480  0.0305  0.1430  0.2212
24231DPPC   C3B29245  17.309   1.333  19.025  0.0092 -0.0114 -0.2363
24231DPPC   C4B29246  17.247   1.335  18.519 -0.3884 -0.2272 -0.0235
24232DPPC   NC329247  14.192   2.784  20.940  0.2728  0.1597  0.1202
24232DPPC   PO429248  13.838   2.893  20.747 -0.1620 -0.1746  0.1248
24232DPPC   GL129249  13.818   3.028  20.348 -0.1820  0.1414  0.3409
24232DPPC   GL229250  13.581   2.921  20.312  0.0069 -0.0829 -0.0459
24232DPPC   C1A29251  13.897   3.260  20.087 -0.0115 -0.1094 -0.0214
24232DPPC   C2A29252  13.802   3.372  19.682  0.0723 -0.0123  0.0801
24232DPPC   C3A29253  13.797   3.372  19.164 -0.0561 -0.0191 -0.0568
24232DPPC   C4A29254  13.840   3.242  18.756  0.0379  0.4382  0.1587
24232DPPC   C1B29255  13.584   2.827  19.989  0.0043  0.0320  0.1030
24232DPPC   C2B29256  13.574   2.798  19.580  0.0976  0.0503 -0.2054
24232DPPC   C3B29257  13.647   2.851  19.140  0.1077 -0.2585  0.1916
24232DPPC   C4B29258  13.688   2.813  18.628  0.0155  0.1470 -0.2281
24233DPPC   NC329259  13.937   1.953  21.175 -0.3408  0.2684 -0.0416
24233DPPC   PO429260  13.870   1.978  20.791  0.1316 -0.0371  0.0840
24233DPPC   GL129261  13.752   1.950  20.488 -0.0361 -0.0743  0.0866
24233DPPC   GL229262  13.878   2.113  20.278 -0.0425  0.1652 -0.0747
24233DPPC   C1A29263  13.675   1.732  20.217 -0.2984  0.4205  0.1680
24233DPPC   C2A29264  13.640   1.535  19.854 -0.2150  0.1571 -0.1482
24233DPPC   C3A29265  13.627   1.485  19.371  0.2754 -0.0125 -0.1548
24233DPPC   C4A29266  13.634   1.416  18.856 -0.1482 -0.2298 -0.2181
24233DPPC   C1B29267  13.838   2.013  19.920 -0.3906  0.0712  0.0556
24233DPPC   C2B29268  13.737   1.972  19.528 -0.2376  0.2174  0.1644
24233DPPC   C3B29269  13.726   1.883  19.064 -0.0058 -0.1123 -0.0214
24233DPPC   C4B29270  13.736   1.926  18.551  0.4045 -0.2181  0.0833
24234DPPC   NC329271  18.784   0.610  20.219  0.0323 -0.2539 -0.1626
24234DPPC   PO429272  18.382   0.659  20.390  0.2132 -0.0281 -0.1489
24234DPPC   GL129273  18.033   0.574  20.111  0.0319 -0.0394 -0.3114
24234DPPC   GL229274  18.241   0.495  19.972  0.1092  0.1929 -0.2983
24234DPPC   C1A29275  17.921   0.693  19.821  0.2075 -0.1959  0.2819
24234DPPC   C2A29276  17.906   0.640  19.408 -0.2612 -0.0075  0.0550
24234DPPC   C3A29277  17.956   0.605  18.971  0.0915 -0.2081  0.4250
24234DPPC   C4A29278  17.915   0.538  18.499 -0.3915  0.0811  0.3373
24234DPPC   C1B29279  18.260   0.315  19.656  0.0664 -0.0266 -0.1911
24234DPPC   C2B29280  18.267   0.185  19.268 -0.2945  0.2781 -0.1596
24234DPPC   C3B29281  18.274   0.189  18.785  0.0894  0.2673  0.0571
24234DPPC   C4B29282  18.266   0.049  18.286  0.1195 -0.3194  0.1519
24235DPPC   NC329283  15.627   0.873  20.859 -0.0864  0.1009 -0.1131
24235DPPC   PO429284  15.726   0.560  20.630 -0.1391  0.1170  0.1319
24235DPPC   GL129285  15.884   0.667  20.265  0.0731  0.3948 -0.0210
24235DPPC   GL229286  15.648   0.592  20.109 -0.0908  0.1678  0.0028
24235DPPC   C1A29287  16.079   0.675  19.924 -0.0992 -0.1204  0.0842
24235DPPC   C2A29288  16.147   0.620  19.507  0.1812  0.0464  0.0426
24235DPPC   C3A29289  16.104   0.578  19.049 -0.0259  0.1454  0.1281
24235DPPC   C4A29290  16.128   0.609  18.513  0.1400 -0.1360  0.0203
24235DPPC   C1B29291  15.708   0.477  19.739  0.0612  0.1258  0.0935
24235DPPC   C2B29292  15.577   0.558  19.337 -0.2166 -0.1094  0.1547
24235DPPC   C3B29293  15.679   0.615  18.847 -0.0310  0.0009 -0.1687
24235DPPC   C4B29294  15.612   0.512  18.379 -0.2040 -0.1441  0.1627
24236DPPC   NC329295  20.522   0.358  20.236  0.0818  0.1971  0.0081
24236DPPC   PO429296  20.473   0.746  20.313  0.1554  0.1546  0.3816
24236DPPC   GL129297  20.381   0.896  19.973  0.0341  0.0739 -0.1357
24236DPPC   GL229298  20.183   0.719  19.950  0.1291 -0.0072  0.1788
24236DPPC   C1A29299  20.499   1.070  19.697  0.0422  0.0958  0.0013
24236DPPC   C2A29300  20.456   1.082  19.302 -0.0251 -0.0116  0.4450
24236DPPC   C3A29301  20.484   1.086  18.797 -0.1601  0.0021 -0.3273
24236DPPC   C4A29302  20.495   1.145  18.248  0.3049  0.1644 -0.0489
24236DPPC   C1B29303  20.292   0.571  19.638 -0.0590  0.0524  0.2086
24236DPPC   C2B29304  20.269   0.602  19.240 -0.1729 -0.0795 -0.0484
24236DPPC   C3B29305  20.306   0.589  18.780  0.2125 -0.1146 -0.1521
24236DPPC   C4B29306  20.298   0.627  18.298  0.2455 -0.0313 -0.1641
24237DPPC   NC329307  16.386   2.188  21.012 -0.5247  0.1601 -0.0325
24237DPPC   PO429308  16.026   2.206  20.867 -0.0972  0.2328 -0.2585
24237DPPC   GL129309  16.195   2.232  20.522 -0.1056  0.1954  0.0608
24237DPPC   GL229310  16.238   1.982  20.399  0.0384  0.0627  0.3256
24237DPPC   C1A29311  16.229   2.461  20.251  0.0683  0.0404 -0.0160
24237DPPC   C2A29312  16.292   2.317  19.852 -0.0855 -0.2287 -0.1897
24237DPPC   C3A29313  16.311   2.342  19.424 -0.2890  0.1538  0.2366
24237DPPC   C4A29314  16.245   2.351  18.943  0.1066  0.0513  0.2679
24237DPPC   C1B29315  16.093   1.963  20.043  0.1467 -0.1949 -0.2692
24237DPPC   C2B29316  16.118   1.892  19.622  0.0891 -0.1415  0.0443
24237DPPC   C3B29317  16.080   1.876  19.149 -0.1540 -0.1735  0.4640
24237DPPC   C4B29318  16.085   1.880  18.693 -0.2262 -0.1459 -0.2107
24238DPPC   NC329319  14.385   1.186  20.938  0.0453 -0.2612  0.1459
24238DPPC   PO429320  14.022   1.099  20.831  0.0329  0.2591 -0.0387
24238DPPC   GL129321  13.965   0.878  20.394 -0.0983 -0.1063 -0.0032
24238DPPC   GL229322  13.813   1.104  20.341 -0.1396  0.0824  0.2454
24238DPPC   C1A29323  14.049   0.650  20.117  0.0854 -0.3074  0.0195
24238DPPC   C2A29324  14.234   0.701  19.770  0.1652 -0.1488 -0.1332
24238DPPC   C3A29325  14.209   0.733  19.267 -0.0005 -0.0475  0.1681
24238DPPC   C4A29326  14.289   0.723  18.816  0.1689 -0.1006  0.1088
24238DPPC   C1B29327  13.959   1.089  19.964 -0.2302 -0.0800 -0.0663
24238DPPC   C2B29328  13.955   1.122  19.545 -0.0596 -0.2036  0.1515
24238DPPC   C3B29329  13.922   1.133  19.087 -0.0550  0.2348 -0.1215
24238DPPC   C4B29330  13.995   1.086  18.537 -0.2478 -0.0901  0.2720
24239DPPC   NC329331  12.907   5.809  20.392  0.0084  0.2876  0.1378
24239DPPC   PO429332  12.620   6.130  20.375  0.2057 -0.1152 -0.2261
24239DPPC   GL129333  12.559   6.348  19.951 -0.3321 -0.0165 -0.3658
24239DPPC   GL229334  12.390   6.086  19.986  0.3692 -0.3540  0.3590
24239DPPC   C1A29335  12.473   6.324  19.585 -0.0005  0.0535  0.0649
24239DPPC   C2A29336  12.432   6.218  19.210 -0.0586 -0.3207 -0.0878
24239DPPC   C3A29337  12.505   6.205  18.755  0.0093  0.0309 -0.0170
24239DPPC   C4A29338  12.486   6.110  18.290 -0.2842  0.0241  0.2340
24239DPPC   C1B29339  12.311   5.814  19.705 -0.1040  0.0234  0.3254
24239DPPC   C2B29340  12.319   5.740  19.271 -0.1005  0.1806  0.2359
24239DPPC   C3B29341  12.289   5.700  18.809  0.0529  0.0769  0.1240
24239DPPC   C4B29342  12.329   5.653  18.348 -0.0989  0.1058  0.2834
24240DPPC   NC329343  18.278   3.282  20.826 -0.5140 -0.1980  0.0935
24240DPPC   PO429344  18.235   2.858  20.798 -0.0512 -0.1347 -0.1053
24240DPPC   GL129345  18.025   2.655  20.502 -0.0760 -0.1242 -0.3569
24240DPPC   GL229346  18.185   2.821  20.257 -0.0574 -0.1813 -0.3155
24240DPPC   C1A29347  17.928   2.432  20.231  0.1896 -0.2274 -0.2218
24240DPPC   C2A29348  18.081   2.343  19.825 -0.0596 -0.0284  0.0217
24240DPPC   C3A29349  18.073   2.321  19.315 -0.2130  0.0224 -0.0507
24240DPPC   C4A29350  18.156   2.310  18.846 -0.0293 -0.2538  0.3220
24240DPPC   C1B29351  18.129   2.740  19.944  0.1181  0.1053  0.1254
24240DPPC   C2B29352  18.255   2.751  19.584 -0.1473 -0.0323 -0.1162
24240DPPC   C3B29353  18.298   2.686  19.121 -0.0404 -0.0709  0.0052
24240DPPC   C4B29354  18.349   2.773  18.616 -0.1188  0.2415 -0.2318
24241DPPC   NC329355  17.877   0.195  20.420  0.1586  0.2384 -0.2841
24241DPPC   PO429356  18.235   0.138  20.337 -0.0679  0.1755  0.1413
24241DPPC   GL129357  18.322  -0.221  20.108  0.1084 -0.0195 -0.2763
24241DPPC   GL229358  18.039  -0.267  20.135 -0.0752 -0.1560  0.0376
24241DPPC   C1A29359  18.233  -0.198  19.718 -0.2434  0.1561 -0.3386
24241DPPC   C2A29360  18.119  -0.301  19.280 -0.2318 -0.1671 -0.2267
24241DPPC   C3A29361  18.081  -0.293  18.812  0.1113  0.0710 -0.3633
24241DPPC   C4A29362  18.018  -0.378  18.303 -0.0949  0.0916 -0.2591
24241DPPC   C1B29363  17.906   0.068  19.947  0.3894 -0.0033  0.1406
24241DPPC   C2B29364  17.813   0.114  19.517  0.0249 -0.2555 -0.1996
24241DPPC   C3B29365  17.859   0.080  19.025 -0.2342  0.2495  0.0599
24241DPPC   C4B29366  17.791   0.085  18.533  0.1445 -0.2467  0.0182
24242DPPA   PO429367  19.168   1.039  20.593 -0.2863  0.3063 -0.0054
24242DPPA   GL129368  19.286   0.799  20.207  0.0791  0.1102  0.0953
24242DPPA   GL229369  19.000   0.961  20.065  0.2513  0.0884  0.2711
24242DPPA   C1A29370  19.429   0.853  19.893  0.0916 -0.1740  0.3222
24242DPPA   C2A29371  19.502   0.932  19.475  0.3002  0.1141 -0.0330
24242DPPA   C3A29372  19.423   0.947  18.992 -0.0965 -0.0863  0.0955
24242DPPA   C4A29373  19.423   0.950  18.541  0.0776 -0.0653  0.2400
24242DPPA   C1B29374  19.024   0.840  19.705 -0.0576 -0.1956  0.2523
24242DPPA   C2B29375  18.977   0.748  19.338  0.0128 -0.0869 -0.1372
24242DPPA   C3B29376  19.017   0.771  18.832 -0.1077 -0.2549 -0.2838
24242DPPA   C4B29377  18.919   0.790  18.314 -0.2121 -0.0191 -0.0847
24243DPPA   PO429378  16.562   1.861  20.707  0.0607  0.0372 -0.2556
24243DPPA   GL129379  16.660   1.920  20.301 -0.0470  0.3065 -0.0692
24243DPPA   GL229380  16.571   1.694  20.283  0.3200  0.0487  0.1093
24243DPPA   C1A29381  16.658   1.978  19.975  0.3455 -0.4385  0.1315
24243DPPA   C2A29382  16.632   1.985  19.581 -0.2171  0.1164 -0.3366
24243DPPA   C3A29383  16.626   2.042  19.148  0.0168  0.2045  0.0201
24243DPPA   C4A29384  16.559   2.023  18.663  0.0542  0.0571 -0.2030
24243DPPA   C1B29385  16.489   1.566  19.917  0.3368 -0.1629  0.2793
24243DPPA   C2B29386  16.428   1.518  19.525  0.2003  0.0801 -0.3059
24243DPPA   C3B29387  16.457   1.548  19.055 -0.1691 -0.2073 -0.2631
24243DPPA   C4B29388  16.400   1.494  18.556  0.1768  0.0792  0.1884
24244DPPA   PO429389  18.390   1.812  20.551  0.0036  0.0155  0.1335
24244DPPA   GL129390  18.464   1.585  20.163 -0.3460  0.0265  0.3253
24244DPPA   GL229391  18.189   1.566  20.099 -0.0819  0.1242  0.2116
24244DPPA   C1A29392  18.723   1.713  19.903  0.2514  0.1150  0.2516
24244DPPA   C2A29393  18.862   1.690  19.503 -0.2808 -0.3042 -0.1220
24244DPPA   C3A29394  18.733   1.581  19.029 -0.2362  0.0177  0.0629
24244DPPA   C4A29395  18.780   1.563  18.551  0.1262  0.1298 -0.1809
24244DPPA   C1B29396  18.142   1.549  19.770 -0.0700 -0.2748  0.2781
24244DPPA   C2B29397  18.197   1.561  19.328  0.0508  0.2013  0.1385
24244DPPA   C3B29398  18.293   1.545  18.803  0.2228 -0.0630 -0.1831
24244DPPA   C4B29399  18.266   1.416  18.298  0.0052 -0.0966 -0.0502
24245DPPA   PO429400  18.942   1.740  15.913  0.0349  0.2564 -0.1723
24245DPPA   GL129401  18.865   1.491  16.121 -0.1010  0.1634 -0.3181
24245DPPA   GL229402  18.674   1.733  16.277 -0.1826 -0.1500 -0.1701
24245DPPA   C1A29403  19.096   1.391  16.396  0.1557 -0.1327  0.1130
24245DPPA   C2A29404  19.127   1.243  16.794 -0.0127  0.0190 -0.1582
24245DPPA   C3A29405  19.185   1.211  17.248  0.0128  0.0579  0.0440
24245DPPA   C4A29406  19.175   1.213  17.771 -0.1352 -0.1816 -0.0582
24245DPPA   C1B29407  18.781   1.641  16.618  0.3377  0.0649 -0.1374
24245DPPA   C2B29408  18.791   1.606  17.062  0.0613 -0.1591  0.3349
24245DPPA   C3B29409  18.818   1.592  17.557  0.0019 -0.0010 -0.2759
24245DPPA   C4B29410  18.889   1.558  18.004 -0.1960  0.0124  0.0068
24246DPPA   PO429411  16.292   6.390  20.781  0.2057  0.4676 -0.2348
24246DPPA   GL129412  16.296   6.446  20.312  0.0254  0.0585 -0.1576
24246DPPA   GL229413  16.012   6.354  20.356  0.0076 -0.1550 -0.3227
24246DPPA   C1A29414  16.277   6.405  19.972 -0.0988 -0.1410  0.1016
24246DPPA   C2A29415  16.325   6.303  19.558 -0.0114  0.0723  0.1338
24246DPPA   C3A29416  16.234   6.390  19.111 -0.1367  0.1285  0.0020
24246DPPA   C4A29417  16.207   6.317  18.629  0.1943  0.1398 -0.0489
24246DPPA   C1B29418  15.868   6.370  19.968  0.0343 -0.0356 -0.4662
24246DPPA   C2B29419  15.782   6.345  19.571 -0.0305  0.0462  0.3118
24246DPPA   C3B29420  15.776   6.317  19.088  0.0332  0.1863 -0.1626
24246DPPA   C4B29421  15.713   6.234  18.560  0.0766 -0.0642 -0.0014
24247DPPA   PO429422  18.802   3.993  20.507  0.0994  0.1581 -0.1511
24247DPPA   GL129423  19.093   4.074  20.129  0.2518 -0.2195 -0.1363
24247DPPA   GL229424  18.939   3.898  20.053  0.1234 -0.0707 -0.0097
24247DPPA   C1A29425  18.911   4.261  19.869 -0.2884  0.1207 -0.2446
24247DPPA   C2A29426  18.807   4.216  19.449  0.0746  0.3814  0.1178
24247DPPA   C3A29427  18.890   4.177  18.937 -0.2268 -0.0288 -0.2294
24247DPPA   C4A29428  18.815   4.179  18.496 -0.1102 -0.2028  0.3779
24247DPPA   C1B29429  19.025   3.675  19.768 -0.0947  0.1050  0.1733
24247DPPA   C2B29430  18.927   3.402  19.466  0.0540  0.0136 -0.2775
24247DPPA   C3B29431  18.887   3.347  18.974  0.1075  0.0857 -0.1610
24247DPPA   C4B29432  18.941   3.327  18.463  0.0014  0.0472  0.1637
24248DPPA   PO429433  13.902   4.926  20.818  0.0966  0.0761 -0.1553
24248DPPA   GL129434  13.919   4.849  20.355 -0.0762  0.2727  0.2943
24248DPPA   GL229435  13.774   4.672  20.278  0.0107  0.2146  0.2308
24248DPPA   C1A29436  13.884   5.077  20.095  0.0234  0.0771 -0.0757
24248DPPA   C2A29437  13.986   5.111  19.712 -0.2045 -0.2406 -0.1347
24248DPPA   C3A29438  14.016   5.148  19.166 -0.4067  0.1395 -0.2061
24248DPPA   C4A29439  13.956   5.114  18.657 -0.0115 -0.1813 -0.1496
24248DPPA   C1B29440  13.741   4.642  19.923 -0.1314  0.0424  0.0881
24248DPPA   C2B29441  13.857   4.678  19.495  0.1550  0.0127  0.0530
24248DPPA   C3B29442  13.816   4.700  18.987  0.3169  0.0696  0.0830
24248DPPA   C4B29443  13.766   4.656  18.483 -0.0168  0.0471  0.1762
24249DPPA   PO429444  17.038   0.989  20.799  0.2088 -0.0506  0.2702
24249DPPA   GL129445  16.856   1.068  20.409  0.1015  0.4269 -0.0691
24249DPPA   GL229446  17.032   1.339  20.417  0.0322  0.2971  0.1530
24249DPPA   C1A29447  16.782   1.094  20.048 -0.1181  0.0491  0.1244
24249DPPA   C2A29448  16.749   1.122  19.638  0.0764 -0.0512  0.0553
24249DPPA   C3A29449  16.810   1.231  19.151  0.0444  0.4171  0.1316
24249DPPA   C4A29450  16.775   1.168  18.702  0.0796  0.0260  0.0043
24249DPPA   C1B29451  16.960   1.532  20.103 -0.3721  0.3316 -0.0880
24249DPPA   C2B29452  16.973   1.622  19.728 -0.1844 -0.1912  0.2827
24249DPPA   C3B29453  16.974   1.680  19.275  0.0327 -0.2815  0.1823
24249DPPA   C4B29454  16.865   1.624  18.795  0.0011 -0.0568  0.0601
24250DPPA   PO429455  19.003   5.457  20.689  0.0169 -0.0477 -0.0676
24250DPPA   GL129456  18.985   5.504  20.314 -0.0964 -0.0805 -0.1868
24250DPPA   GL229457  19.162   5.710  20.133  0.2160  0.0583 -0.2460
24250DPPA   C1A29458  18.993   5.220  19.989  0.2953 -0.0715  0.2866
24250DPPA   C2A29459  19.097   5.155  19.591 -0.0378  0.2147  0.0292
24250DPPA   C3A29460  19.102   5.158  19.127 -0.1665  0.1822  0.0835
24250DPPA   C4A29461  19.062   5.107  18.640  0.0671  0.1919  0.0647
24250DPPA   C1B29462  19.223   5.648  19.785  0.0601 -0.1931  0.2508
24250DPPA   C2B29463  19.256   5.651  19.385 -0.0391  0.2480  0.1793
24250DPPA   C3B29464  19.204   5.569  18.907  0.1637  0.0140 -0.1382
24250DPPA   C4B29465  19.206   5.603  18.448 -0.0245 -0.3940 -0.0693
24251DPPA   PO429466  14.202   3.263  20.773 -0.2885  0.0188  0.0896
24251DPPA   GL129467  14.589   3.094  20.627 -0.2150  0.4002  0.3719
24251DPPA   GL229468  14.714   3.368  20.607  0.1620 -0.3404  0.1105
24251DPPA   C1A29469  14.701   2.965  20.201  0.3388  0.0533  0.1438
24251DPPA   C2A29470  14.639   2.977  19.808 -0.1717  0.1305 -0.1946
24251DPPA   C3A29471  14.562   2.969  19.328  0.0370 -0.0164  0.1069
24251DPPA   C4A29472  14.540   2.945  18.814  0.2455 -0.0274 -0.0054
24251DPPA   C1B29473  14.474   3.392  20.305 -0.1852 -0.0060 -0.3839
24251DPPA   C2B29474  14.336   3.377  19.935 -0.0709  0.0315  0.1359
24251DPPA   C3B29475  14.240   3.388  19.480  0.0131  0.0652  0.0241
24251DPPA   C4B29476  14.263   3.310  19.008 -0.2477  0.0309 -0.1437
24252DPPA   PO429477  14.734   6.411  20.654  0.2836 -0.3521  0.0390
24252DPPA   GL129478  15.094   6.604  20.455 -0.0970  0.1516 -0.1796
24252DPPA   GL229479  14.861   6.839  20.407 -0.3175 -0.2905  0.5317
24252DPPA   C1A29480  15.274   6.464  20.152 -0.0858 -0.1917 -0.2598
24252DPPA   C2A29481  15.392   6.266  19.802  0.4133 -0.0084 -0.3100
24252DPPA   C3A29482  15.289   6.251  19.380  0.2712 -0.4010  0.1448
24252DPPA   C4A29483  15.316   6.217  18.874 -0.2198 -0.1197  0.1802
24252DPPA   C1B29484  14.939   6.696  19.996 -0.2301 -0.2194 -0.2503
24252DPPA   C2B29485  14.971   6.564  19.616 -0.0844  0.0400  0.1380
24252DPPA   C3B29486  14.952   6.506  19.111  0.1165  0.3319 -0.1571
24252DPPA   C4B29487  14.920   6.476  18.613 -0.2056  0.1408  0.1301
24253DPPA   PO429488  17.234   2.590  20.683 -0.0412 -0.0933  0.2144
24253DPPA   GL129489  17.050   2.546  20.290 -0.0620 -0.1666  0.1533
24253DPPA   GL229490  17.046   2.244  20.192  0.1043 -0.1826  0.0034
24253DPPA   C1A29491  17.236   2.577  19.990  0.1572 -0.1854  0.3544
24253DPPA   C2A29492  17.222   2.606  19.571  0.0256 -0.0728 -0.1830
24253DPPA   C3A29493  17.267   2.666  19.019  0.0859 -0.0293  0.0318
24253DPPA   C4A29494  17.334   2.602  18.562 -0.0495 -0.1090  0.1087
24253DPPA   C1B29495  17.033   2.195  19.825  0.0622  0.2905  0.1450
24253DPPA   C2B29496  17.077   2.123  19.414  0.0128 -0.1196 -0.1885
24253DPPA   C3B29497  17.090   2.168  18.962 -0.0083 -0.3130  0.1231
24253DPPA   C4B29498  17.100   2.118  18.447 -0.2354  0.0014  0.0554
24254DPPA   PO429499  14.663   0.812  21.083  0.0856  0.1674  0.0698
24254DPPA   GL129500  14.738   0.659  20.610 -0.1062  0.1098 -0.0756
24254DPPA   GL229501  14.641   0.981  20.633  0.0553 -0.1147  0.1267
24254DPPA   C1A29502  14.628   0.542  20.271  0.1273  0.2799  0.1671
24254DPPA   C2A29503  14.599   0.395  19.890  0.0096  0.1987 -0.0268
24254DPPA   C3A29504  14.574   0.325  19.373  0.0564  0.0129 -0.0881
24254DPPA   C4A29505  14.644   0.284  18.921 -0.0876 -0.0437  0.2451
24254DPPA   C1B29506  14.581   1.050  20.272  0.0244 -0.1254  0.0760
24254DPPA   C2B29507  14.422   1.188  19.919 -0.1277 -0.0204  0.3006
24254DPPA   C3B29508  14.424   1.180  19.462 -0.1765  0.0668 -0.0872
24254DPPA   C4B29509  14.419   1.251  18.988  0.0979  0.0138 -0.0763
24255DPPA   PO429510  17.504   0.558  21.007 -0.1217  0.0348  0.0606
24255DPPA   GL129511  17.265   0.638  20.586 -0.0334  0.0992 -0.3835
24255DPPA   GL229512  17.543   0.500  20.513 -0.1992 -0.0848 -0.0424
24255DPPA   C1A29513  17.201   0.770  20.258 -0.1859  0.2372  0.2016
24255DPPA   C2A29514  17.140   0.805  19.820  0.0119  0.0027 -0.1940
24255DPPA   C3A29515  17.104   0.812  19.331  0.1721 -0.1020 -0.0863
24255DPPA   C4A29516  17.054   0.813  18.880 -0.0590  0.2791  0.1492
24255DPPA   C1B29517  17.640   0.532  20.131  0.1276 -0.2315 -0.2140
24255DPPA   C2B29518  17.528   0.462  19.721  0.0099 -0.1493 -0.1997
24255DPPA   C3B29519  17.430   0.441  19.287  0.1748 -0.0376 -0.1150
24255DPPA   C4B29520  17.497   0.538  18.796 -0.2465 -0.2362 -0.2446
24256DPPA   PO429521  14.715   2.657  20.885  0.1993 -0.1400 -0.3151
24256DPPA   GL129522  14.563   2.629  20.421  0.2802 -0.0469 -0.2829
24256DPPA   GL229523  14.307   2.774  20.479 -0.1229  0.0277 -0.3048
24256DPPA   C1A29524  14.561   2.573  20.044 -0.1067  0.0988 -0.0737
24256DPPA   C2A29525  14.542   2.526  19.625 -0.1542  0.2131 -0.3583
24256DPPA   C3A29526  14.488   2.490  19.221 -0.2697  0.0691 -0.2377
24256DPPA   C4A29527  14.452   2.441  18.684  0.1131  0.1111 -0.0890
24256DPPA   C1B29528  14.245   2.955  20.188  0.4398  0.2225  0.0223
24256DPPA   C2B29529  14.159   2.897  19.785  0.2538  0.1531  0.1449
24256DPPA   C3B29530  14.060   2.956  19.374 -0.0404  0.0421 -0.0668
24256DPPA   C4B29531  14.103   2.822  18.947  0.2621 -0.1537 -0.2910
24257DPPA   PO429532  15.444   0.174  20.808 -0.0274  0.1656 -0.0117
24257DPPA   GL129533  15.405   0.324  20.417 -0.0232 -0.5542  0.0991
24257DPPA   GL229534  15.688   0.232  20.314  0.4911 -0.1655  0.1590
24257DPPA   C1A29535  15.131   0.458  20.213  0.0965 -0.2807 -0.1429
24257DPPA   C2A29536  15.144   0.467  19.802 -0.4391  0.1523  0.1013
24257DPPA   C3A29537  15.094   0.354  19.304 -0.1705 -0.0003 -0.0854
24257DPPA   C4A29538  15.156   0.424  18.826 -0.0300  0.0232 -0.0223
24257DPPA   C1B29539  15.616   0.093  19.977  0.1093 -0.0845  0.3261
24257DPPA   C2B29540  15.439   0.119  19.581 -0.2898 -0.0457 -0.1186
24257DPPA   C3B29541  15.450   0.057  19.083 -0.0793  0.3730 -0.1416
24257DPPA   C4B29542  15.430   0.017  18.594  0.1596  0.0718 -0.2170
24258DPPA   PO429543  14.889   1.873  20.745  0.0529 -0.2193  0.1998
24258DPPA   GL129544  14.993   1.657  20.358 -0.0315 -0.1448 -0.0216
24258DPPA   GL229545  15.020   2.026  20.195 -0.0724  0.3239 -0.3161
24258DPPA   C1A29546  14.785   1.446  20.152 -0.1123  0.2390  0.0780
24258DPPA   C2A29547  14.887   1.264  19.778 -0.2404  0.1793  0.1242
24258DPPA   C3A29548  14.944   1.202  19.297  0.1106 -0.1476 -0.1551
24258DPPA   C4A29549  14.934   1.187  18.786  0.0320 -0.1475  0.2063
24258DPPA   C1B29550  14.861   2.149  19.846 -0.0671 -0.1373 -0.1709
24258DPPA   C2B29551  14.729   2.096  19.466  0.0149  0.2523  0.2089
24258DPPA   C3B29552  14.747   2.083  18.996  0.2925  0.1467  0.1686
24258DPPA   C4B29553  14.785   2.086  18.542  0.0751 -0.2720 -0.0922
24259DPPA   PO429554  17.631   4.801  20.687  0.2219  0.1022  0.0272
24259DPPA   GL129555  17.767   4.698  20.347  0.0571  0.2687 -0.2276
24259DPPA   GL229556  17.799   4.436  20.367 -0.1313  0.0589 -0.3050
24259DPPA   C1A29557  17.540   4.757  20.065  0.0111 -0.1015  0.2873
24259DPPA   C2A29558  17.702   4.960  19.741  0.0232 -0.1283  0.1434
24259DPPA   C3A29559  17.648   4.963  19.328 -0.1124 -0.1057 -0.0766
24259DPPA   C4A29560  17.583   4.927  18.817 -0.0719 -0.0214 -0.0654
24259DPPA   C1B29561  17.861   4.447  19.990 -0.2993 -0.0019  0.2002
24259DPPA   C2B29562  17.914   4.467  19.594  0.2643  0.0928  0.0417
24259DPPA   C3B29563  17.956   4.547  19.063  0.0354  0.0355  0.1613
24259DPPA   C4B29564  17.899   4.524  18.583  0.2121  0.1159  0.0293
24260DPPA   PO429565  14.181   1.601  20.837 -0.0693 -0.2222  0.1917
24260DPPA   GL129566  14.229   1.778  20.438  0.0607 -0.3542 -0.2778
24260DPPA   GL229567  14.475   1.795  20.485 -0.1878  0.4006 -0.1400
24260DPPA   C1A29568  14.161   1.692  20.081  0.2147 -0.3687 -0.0741
24260DPPA   C2A29569  14.134   1.588  19.678  0.0537  0.2624  0.0591
24260DPPA   C3A29570  14.094   1.591  19.208 -0.2131  0.1422  0.0390
24260DPPA   C4A29571  14.073   1.537  18.708  0.0146 -0.0437 -0.0626
24260DPPA   C1B29572  14.608   1.815  20.139 -0.1670 -0.1255 -0.0230
24260DPPA   C2B29573  14.622   1.660  19.779 -0.0617 -0.0044  0.0354
24260DPPA   C3B29574  14.630   1.612  19.271  0.2293 -0.2545 -0.0263
24260DPPA   C4B29575  14.667   1.660  18.791  0.2103  0.0543  0.0681
24261DPPA   PO429576  19.259   0.335  20.200  0.0324 -0.0452 -0.0612
24261DPPA   GL129577  19.157   0.486  19.826 -0.0382 -0.0010 -0.0662
24261DPPA   GL229578  18.883   0.440  19.812 -0.2224 -0.1950 -0.1443
24261DPPA   C1A29579  19.321   0.503  19.487  0.0487 -0.0552 -0.2267
24261DPPA   C2A29580  19.361   0.437  19.102 -0.1672 -0.1200  0.0831
24261DPPA   C3A29581  19.320   0.406  18.577  0.1281  0.0013  0.0636
24261DPPA   C4A29582  19.253   0.378  18.110  0.0648  0.1284 -0.1766
24261DPPA   C1B29583  18.770   0.330  19.487  0.0415 -0.3978 -0.2011
24261DPPA   C2B29584  18.757   0.326  19.079 -0.0364 -0.1156  0.2940
24261DPPA   C3B29585  18.694   0.322  18.541  0.0261  0.2178  0.0680
24261DPPA   C4B29586  18.769   0.344  18.075  0.0170 -0.0800  0.0031
24262DPPA   PO429587  19.093   3.529  20.312 -0.0630  0.0824  0.0461
24262DPPA   GL129588  19.392   3.513  19.901 -0.1786 -0.0281 -0.0530
24262DPPA   GL229589  19.284   3.246  19.886  0.3174 -0.1524 -0.3788
24262DPPA   C1A29590  19.481   3.526  19.530  0.0024  0.3201  0.1278
24262DPPA   C2A29591  19.462   3.531  19.105  0.0997 -0.2166 -0.0685
24262DPPA   C3A29592  19.437   3.435  18.653 -0.4231  0.0181  0.1215
24262DPPA   C4A29593  19.443   3.463  18.097 -0.1275 -0.1039 -0.1431
24262DPPA   C1B29594  19.212   3.019  19.602  0.2637  0.0964 -0.1261
24262DPPA   C2B29595  19.236   3.070  19.209 -0.2127 -0.0209  0.1881
24262DPPA   C3B29596  19.222   2.986  18.783  0.0563  0.0418  0.1362
24262DPPA   C4B29597  19.311   2.988  18.311 -0.0588 -0.0741 -0.2044
24263DPPA   PO429598  15.498   2.924  20.591 -0.0049 -0.0853 -0.0731
24263DPPA   GL129599  15.538   3.039  20.291 -0.1668 -0.4085  0.0548
24263DPPA   GL229600  15.547   3.312  20.167 -0.0355  0.1206 -0.0705
24263DPPA   C1A29601  15.473   2.782  20.019  0.1162  0.0081 -0.1241
24263DPPA   C2A29602  15.467   2.662  19.631  0.0426 -0.3368 -0.0003
24263DPPA   C3A29603  15.411   2.659  19.168  0.0296 -0.1089 -0.1536
24263DPPA   C4A29604  15.416   2.607  18.684  0.0094 -0.0606 -0.0236
24263DPPA   C1B29605  15.616   3.225  19.841 -0.0719  0.0638 -0.0633
24263DPPA   C2B29606  15.597   3.115  19.423 -0.1123  0.1895  0.1417
24263DPPA   C3B29607  15.587   3.054  18.963  0.0190 -0.1538  0.0772
24263DPPA   C4B29608  15.627   3.069  18.492  0.0152 -0.0570 -0.1068
24264DPPA   PO429609  17.362   5.754  20.875 -0.2392  0.1928 -0.1851
24264DPPA   GL129610  17.453   5.885  20.535 -0.2751  0.1214 -0.1832
24264DPPA   GL229611  17.515   5.636  20.479  0.1073  0.0230 -0.0363
24264DPPA   C1A29612  17.191   5.836  20.276 -0.0452 -0.1274 -0.0279
24264DPPA   C2A29613  17.086   5.652  19.947  0.1492 -0.0868 -0.1621
24264DPPA   C3A29614  16.968   5.599  19.470  0.0869  0.2753 -0.1997
24264DPPA   C4A29615  16.945   5.612  18.995  0.0347 -0.0005  0.1091
24264DPPA   C1B29616  17.533   5.641  20.120 -0.5353 -0.2077  0.1979
24264DPPA   C2B29617  17.555   5.763  19.739 -0.2385 -0.0614  0.2220
24264DPPA   C3B29618  17.467   5.732  19.240 -0.0180  0.2055  0.0420
24264DPPA   C4B29619  17.375   5.753  18.746 -0.1426 -0.0080 -0.3233
24265DPPA   PO429620  18.084   6.275  20.547 -0.0910  0.0164  0.0299
24265DPPA   GL129621  17.940   5.887  20.341  0.0825  0.2333 -0.2865
24265DPPA   GL229622  17.772   6.077  20.294  0.2560 -0.0952  0.1876
24265DPPA   C1A29623  17.991   5.754  20.010  0.0407  0.2631 -0.2680
24265DPPA   C2A29624  18.029   5.796  19.638  0.0947 -0.1480  0.2791
24265DPPA   C3A29625  17.977   5.819  19.199  0.0488  0.1417 -0.2273
24265DPPA   C4A29626  17.883   5.829  18.701 -0.1383 -0.0945  0.0070
24265DPPA   C1B29627  17.691   6.150  19.921  0.0403  0.1359  0.0907
24265DPPA   C2B29628  17.660   6.205  19.507  0.3075 -0.0474 -0.0309
24265DPPA   C3B29629  17.655   6.166  19.098  0.3577  0.0545 -0.0894
24265DPPA   C4B29630  17.591   6.212  18.605 -0.0479 -0.0047  0.1314
24266DPPA   PO429631  18.151   0.658  15.703 -0.0124 -0.1169  0.1836
24266DPPA   GL129632  18.237   0.762  16.131  0.1774  0.0503  0.4529
24266DPPA   GL229633  18.089   0.539  16.223 -0.0436  0.1207  0.2273
24266DPPA   C1A29634  18.426   0.704  16.434 -0.2885  0.2049 -0.0172
24266DPPA   C2A29635  18.423   0.628  16.853  0.1662  0.1074  0.1171
24266DPPA   C3A29636  18.403   0.678  17.301 -0.1903  0.0940  0.5528
24266DPPA   C4A29637  18.443   0.679  17.775 -0.1118 -0.1048 -0.0264
24266DPPA   C1B29638  18.025   0.546  16.584  0.3268 -0.1001  0.1372
24266DPPA   C2B29639  17.944   0.552  16.966  0.4813 -0.1699  0.1848
24266DPPA   C3B29640  17.918   0.509  17.446 -0.1444  0.2252  0.4069
24266DPPA   C4B29641  17.958   0.513  17.976  0.1379 -0.1245 -0.0725
24267DPPC   NC329642  16.852   1.798  16.062 -0.1609  0.0248  0.0236
24267DPPC   PO429643  16.568   2.032  16.287  0.2000  0.1870 -0.0588
24267DPPC   GL129644  16.582   2.254  16.541  0.2206 -0.5588  0.1990
24267DPPC   GL229645  16.296   2.288  16.668  0.2028 -0.1154  0.0669
24267DPPC   C1A29646  16.729   2.472  16.809 -0.2062 -0.1428  0.0031
24267DPPC   C2A29647  16.743   2.480  17.205 -0.2946  0.1705 -0.1360
24267DPPC   C3A29648  16.747   2.428  17.723  0.1078 -0.1986 -0.1311
24267DPPC   C4A29649  16.812   2.438  18.249 -0.3067  0.1967  0.1209
24267DPPC   C1B29650  16.222   2.298  17.010 -0.1210 -0.0648 -0.0033
24267DPPC   C2B29651  16.311   2.340  17.446  0.1123  0.0145  0.1403
24267DPPC   C3B29652  16.288   2.370  17.956  0.2145  0.1681 -0.3363
24267DPPC   C4B29653  16.311   2.339  18.443  0.1245 -0.0057 -0.1962
24268DPPC   NC329654  15.232   3.494  15.957 -0.1191 -0.1581  0.1483
24268DPPC   PO429655  15.275   3.103  15.987 -0.2807  0.0156  0.2447
24268DPPC   GL129656  15.179   3.113  16.347  0.1768 -0.1366 -0.0821
24268DPPC   GL229657  14.939   3.304  16.396 -0.2928  0.1104 -0.1356
24268DPPC   C1A29658  15.237   3.014  16.696 -0.2350 -0.0649  0.0199
24268DPPC   C2A29659  15.128   2.966  17.124 -0.1100 -0.1212 -0.1281
24268DPPC   C3A29660  15.184   2.983  17.598 -0.0707  0.0632 -0.1535
24268DPPC   C4A29661  15.152   3.021  18.105 -0.0319 -0.1103 -0.3069
24268DPPC   C1B29662  14.901   3.358  16.747 -0.1024 -0.2708  0.1841
24268DPPC   C2B29663  14.745   3.332  17.139 -0.2224 -0.2414 -0.1313
24268DPPC   C3B29664  14.808   3.356  17.565 -0.2662  0.1331  0.0566
24268DPPC   C4B29665  14.799   3.398  18.062  0.3811 -0.0829  0.3222
24269DPPC   NC329666  21.763   0.241  15.965 -0.0909  0.1663 -0.1047
24269DPPC   PO429667  21.384   0.292  15.842  0.0314 -0.0763  0.0161
24269DPPC   GL129668  21.264   0.505  16.148  0.2583 -0.3155 -0.1014
24269DPPC   GL229669  21.341   0.736  16.270 -0.0500  0.0360  0.1297
24269DPPC   C1A29670  21.160   0.332  16.422  0.0136  0.0018  0.1675
24269DPPC   C2A29671  21.016   0.294  16.775  0.1631  0.0452 -0.1692
24269DPPC   C3A29672  20.964   0.310  17.263  0.0204 -0.2799 -0.1394
24269DPPC   C4A29673  21.082   0.271  17.754 -0.1725  0.1219  0.0983
24269DPPC   C1B29674  21.113   0.730  16.535  0.0181  0.0452 -0.2639
24269DPPC   C2B29675  21.144   0.722  16.971  0.1128  0.0882  0.2691
24269DPPC   C3B29676  21.249   0.689  17.439 -0.2269  0.1986  0.1905
24269DPPC   C4B29677  21.231   0.739  17.958 -0.0248  0.2463  0.0325
24270DPPC   NC329678  15.247   2.186  16.049 -0.0119  0.0295 -0.2670
24270DPPC   PO429679  15.584   2.191  16.249  0.1012 -0.2485 -0.4242
24270DPPC   GL129680  15.755   2.190  16.658 -0.0953 -0.2227 -0.3509
24270DPPC   GL229681  15.750   2.482  16.633  0.2217  0.0415 -0.1422
24270DPPC   C1A29682  15.783   2.220  17.066  0.0024 -0.2254 -0.0359
24270DPPC   C2A29683  15.839   2.225  17.485  0.0252 -0.2746  0.2301
24270DPPC   C3A29684  15.816   2.241  17.956 -0.0526  0.3011  0.3480
24270DPPC   C4A29685  15.814   2.201  18.435  0.1240  0.0180 -0.1519
24270DPPC   C1B29686  15.491   2.662  16.823 -0.0094  0.3263 -0.2398
24270DPPC   C2B29687  15.446   2.549  17.186 -0.2741  0.1965  0.0615
24270DPPC   C3B29688  15.450   2.555  17.661 -0.0360  0.0343  0.3240
24270DPPC   C4B29689  15.509   2.611  18.149  0.0385 -0.0396 -0.1507
24271DPPC   NC329690  13.860   6.425  15.697 -0.0763  0.0233  0.2341
24271DPPC   PO429691  13.804   6.768  15.839  0.0699 -0.0577  0.1225
24271DPPC   GL129692  13.953   6.804  16.212  0.2375  0.2715  0.1913
24271DPPC   GL229693  14.022   7.034  16.290 -0.0514  0.0406 -0.2256
24271DPPC   C1A29694  13.923   6.627  16.590 -0.2876  0.0178 -0.0577
24271DPPC   C2A29695  13.994   6.364  16.908  0.0297  0.2034 -0.0200
24271DPPC   C3A29696  14.061   6.301  17.387 -0.1228 -0.2037 -0.0922
24271DPPC   C4A29697  14.108   6.405  17.857  0.1758 -0.1490  0.0978
24271DPPC   C1B29698  13.950   7.152  16.609 -0.0765 -0.2540  0.0533
24271DPPC   C2B29699  13.880   7.220  16.993  0.0387  0.2046  0.0739
24271DPPC   C3B29700  13.807   7.210  17.466 -0.1389  0.1575 -0.1557
24271DPPC   C4B29701  13.881   7.203  17.924 -0.1427 -0.1842  0.0446
24272DPPC   NC329702  14.508   6.019  16.055  0.1901 -0.0330 -0.0786
24272DPPC   PO429703  14.713   6.356  16.122 -0.0087  0.1366 -0.0113
24272DPPC   GL129704  14.601   6.428  16.487 -0.1041  0.0863 -0.1230
24272DPPC   GL229705  14.349   6.573  16.481  0.0489 -0.1185 -0.6310
24272DPPC   C1A29706  14.727   6.432  16.834  0.6682  0.1268 -0.1195
24272DPPC   C2A29707  14.554   6.420  17.195  0.1041  0.0857 -0.0976
24272DPPC   C3A29708  14.533   6.494  17.688  0.1850  0.2413  0.0057
24272DPPC   C4A29709  14.503   6.391  18.158  0.0129 -0.0584 -0.2486
24272DPPC   C1B29710  14.302   6.699  16.822 -0.2389  0.1079  0.0249
24272DPPC   C2B29711  14.230   6.796  17.221  0.1863  0.1098 -0.1974
24272DPPC   C3B29712  14.166   6.876  17.646  0.0534 -0.2467  0.2521
24272DPPC   C4B29713  14.113   6.845  18.151 -0.0243 -0.1115 -0.2376
24273DPPC   NC329714  19.466   4.496  15.488  0.0570  0.2135  0.0328
24273DPPC   PO429715  19.680   4.191  15.519 -0.2402 -0.1783  0.1423
24273DPPC   GL129716  19.719   4.026  15.911  0.0560 -0.1731 -0.0931
24273DPPC   GL229717  19.951   4.246  15.923 -0.3769 -0.0460  0.3272
24273DPPC   C1A29718  19.733   3.833  16.217  0.3839  0.0141 -0.0763
24273DPPC   C2A29719  19.563   3.858  16.601  0.2109 -0.0602 -0.0325
24273DPPC   C3A29720  19.626   3.893  17.106 -0.1880 -0.1141 -0.0143
24273DPPC   C4A29721  19.694   3.967  17.567  0.4225  0.1272  0.1549
24273DPPC   C1B29722  20.199   4.340  16.115  0.3317  0.2052 -0.2077
24273DPPC   C2B29723  20.226   4.394  16.536  0.0367 -0.1616  0.2019
24273DPPC   C3B29724  20.276   4.530  16.930  0.0020  0.3034 -0.3211
24273DPPC   C4B29725  20.301   4.527  17.417  0.1742 -0.0106 -0.0332
24274DPPC   NC329726  15.504   2.692  16.184  0.0421 -0.0953 -0.0659
24274DPPC   PO429727  15.128   2.653  16.269  0.1860 -0.2878  0.0257
24274DPPC   GL129728  15.047   2.494  16.676  0.2120 -0.2999  0.0084
24274DPPC   GL229729  15.266   2.281  16.656  0.1904 -0.4438 -0.2618
24274DPPC   C1A29730  14.964   2.521  17.053 -0.0956 -0.1361  0.2167
24274DPPC   C2A29731  14.989   2.473  17.479 -0.0936 -0.3011 -0.1872
24274DPPC   C3A29732  15.057   2.540  17.949 -0.0569  0.0338 -0.0834
24274DPPC   C4A29733  14.982   2.524  18.437 -0.1234 -0.1671  0.2389
24274DPPC   C1B29734  15.304   2.082  16.900  0.0880 -0.0092 -0.2716
24274DPPC   C2B29735  15.322   2.077  17.307 -0.1074 -0.0385  0.1544
24274DPPC   C3B29736  15.205   2.122  17.768 -0.3542  0.0300 -0.4086
24274DPPC   C4B29737  15.251   2.151  18.296 -0.0320  0.0459  0.3926
24275DPPC   NC329738  20.226   2.770  15.553  0.0809 -0.0849 -0.1330
24275DPPC   PO429739  20.348   3.032  15.785  0.1458 -0.0085  0.0298
24275DPPC   GL129740  19.981   3.267  16.043  0.0611  0.2591 -0.0508
24275DPPC   GL229741  20.170   3.226  16.250 -0.0653  0.1375 -0.1369
24275DPPC   C1A29742  19.676   3.312  16.194 -0.0636 -0.0673  0.2302
24275DPPC   C2A29743  19.531   3.305  16.588  0.1590  0.0062 -0.2419
24275DPPC   C3A29744  19.517   3.357  17.085  0.1602 -0.2136  0.0424
24275DPPC   C4A29745  19.440   3.429  17.615  0.1342  0.0982  0.2470
24275DPPC   C1B29746  20.154   3.151  16.567 -0.1325  0.0285 -0.0264
24275DPPC   C2B29747  20.259   3.146  16.992  0.1728  0.0971  0.1181
24275DPPC   C3B29748  20.312   3.147  17.507  0.1269  0.1204 -0.2911
24275DPPC   C4B29749  20.371   3.143  17.984 -0.0936  0.0746 -0.0661
24276DPPC   NC329750  18.487   1.506  15.751  0.0336 -0.1702  0.1447
24276DPPC   PO429751  18.405   1.193  15.955 -0.0228 -0.3823 -0.0575
24276DPPC   GL129752  18.693   1.140  16.360  0.3016 -0.1108 -0.1001
24276DPPC   GL229753  18.878   1.000  16.205  0.0220 -0.0050 -0.2064
24276DPPC   C1A29754  18.685   1.146  16.732 -0.1375  0.1177  0.1604
24276DPPC   C2A29755  18.641   1.115  17.134  0.1555 -0.2892 -0.3977
24276DPPC   C3A29756  18.730   1.113  17.598  0.2312  0.0967  0.1916
24276DPPC   C4A29757  18.642   1.076  18.074 -0.2562 -0.0039 -0.2645
24276DPPC   C1B29758  18.993   0.826  16.480  0.2526 -0.0245 -0.1722
24276DPPC   C2B29759  18.965   0.771  16.871  0.0626  0.1316  0.1088
24276DPPC   C3B29760  18.957   0.767  17.335 -0.2172 -0.2405 -0.1806
24276DPPC   C4B29761  18.986   0.778  17.815  0.0800  0.2558  0.3142
24277DPPC   NC329762  18.801   6.090  15.919 -0.2066  0.3301  0.0244
24277DPPC   PO429763  18.992   6.447  15.944  0.0023 -0.0942  0.1795
24277DPPC   GL129764  18.588   6.655  16.102  0.1308  0.0980  0.0080
24277DPPC   GL229765  18.652   6.396  16.226 -0.0207  0.1184 -0.0581
24277DPPC   C1A29766  18.319   6.740  16.386  0.3774 -0.0738  0.1492
24277DPPC   C2A29767  18.280   6.774  16.785  0.1205 -0.0485  0.1422
24277DPPC   C3A29768  18.209   6.728  17.276  0.0449  0.0899 -0.1883
24277DPPC   C4A29769  18.325   6.762  17.750  0.0512 -0.0163 -0.1597
24277DPPC   C1B29770  18.682   6.319  16.552  0.2145  0.1752 -0.1701
24277DPPC   C2B29771  18.628   6.366  17.012  0.2214  0.1530 -0.2016
24277DPPC   C3B29772  18.604   6.371  17.517  0.0518  0.1645  0.1588
24277DPPC   C4B29773  18.589   6.360  18.021 -0.3570  0.0417 -0.0202
24278DPPC   NC329774  17.709   1.788  15.834  0.1216 -0.1127 -0.2429
24278DPPC   PO429775  17.945   1.496  15.769 -0.2575 -0.1020  0.1428
24278DPPC   GL129776  18.137   1.543  16.193 -0.2307 -0.0382  0.1763
24278DPPC   GL229777  17.829   1.442  16.192 -0.0469 -0.4051 -0.3799
24278DPPC   C1A29778  18.354   1.489  16.526  0.1369 -0.1554 -0.0359
24278DPPC   C2A29779  18.272   1.495  16.888 -0.2372  0.0972 -0.1374
24278DPPC   C3A29780  18.332   1.471  17.342 -0.1882 -0.2232 -0.2395
24278DPPC   C4A29781  18.379   1.518  17.830  0.0771 -0.0542 -0.0584
24278DPPC   C1B29782  17.745   1.354  16.538 -0.0896  0.3217  0.1165
24278DPPC   C2B29783  17.793   1.359  16.884 -0.5014  0.1637  0.0013
24278DPPC   C3B29784  17.804   1.402  17.358  0.1852  0.0703 -0.0826
24278DPPC   C4B29785  17.810   1.385  17.858  0.3417  0.0641 -0.1379
24279DPPC   NC329786  15.919   5.464  16.392 -0.1039  0.0915  0.0184
24279DPPC   PO429787  16.178   5.709  16.265  0.0026  0.0318  0.2066
24279DPPC   GL129788  16.451   5.762  16.602 -0.1522 -0.0755 -0.2299
24279DPPC   GL229789  16.206   5.855  16.682 -0.0304 -0.2307  0.2620
24279DPPC   C1A29790  16.637   5.830  16.937  0.0472 -0.3404  0.1113
24279DPPC   C2A29791  16.671   5.872  17.346  0.4036  0.0978 -0.1342
24279DPPC   C3A29792  16.723   5.890  17.832 -0.1026  0.0470 -0.1951
24279DPPC   C4A29793  16.602   5.981  18.333  0.0122 -0.0564 -0.0209
24279DPPC   C1B29794  16.153   5.757  17.011 -0.0506 -0.1863  0.2381
24279DPPC   C2B29795  16.142   5.823  17.392  0.0781 -0.0563 -0.0227
24279DPPC   C3B29796  16.187   5.851  17.909  0.1900  0.0508  0.0122
24279DPPC   C4B29797  16.152   5.837  18.396  0.4193  0.2634  0.0102
24280DPPC   NC329798  17.301   4.830  16.311 -0.0951  0.1659  0.0789
24280DPPC   PO429799  17.022   4.522  16.322  0.0225 -0.1735  0.3024
24280DPPC   GL129800  16.937   4.323  16.613  0.3141 -0.1504 -0.0002
24280DPPC   GL229801  16.659   4.479  16.610 -0.3635  0.0120  0.2102
24280DPPC   C1A29802  17.028   4.242  16.956 -0.1327 -0.2352 -0.1078
24280DPPC   C2A29803  16.997   4.153  17.374 -0.0185  0.0097 -0.1475
24280DPPC   C3A29804  16.952   4.190  17.822  0.2210 -0.0241  0.1269
24280DPPC   C4A29805  16.927   4.188  18.331  0.2080  0.3353 -0.1285
24280DPPC   C1B29806  16.668   4.474  16.956 -0.2379  0.1708  0.0599
24280DPPC   C2B29807  16.602   4.497  17.379 -0.2840  0.0505  0.0415
24280DPPC   C3B29808  16.595   4.622  17.851  0.1230 -0.0120 -0.1183
24280DPPC   C4B29809  16.675   4.614  18.311 -0.1168 -0.3852  0.2094
24281DPPC   NC329810  16.708   5.520  16.207  0.1890 -0.0937  0.0627
24281DPPC   PO429811  16.685   5.923  16.105 -0.0074 -0.1783  0.0933
24281DPPC   GL129812  16.728   6.071  16.471 -0.3342  0.2190  0.6956
24281DPPC   GL229813  16.924   5.828  16.504 -0.1384 -0.3830  0.0995
24281DPPC   C1A29814  16.489   6.207  16.761  0.0367  0.0110 -0.2946
24281DPPC   C2A29815  16.262   6.323  17.082 -0.0432  0.4909  0.1317
24281DPPC   C3A29816  16.376   6.298  17.586 -0.1043 -0.3811 -0.1267
24281DPPC   C4A29817  16.355   6.342  18.106 -0.1454  0.0715 -0.2677
24281DPPC   C1B29818  17.052   5.892  16.847 -0.0042  0.0201  0.1117
24281DPPC   C2B29819  17.192   5.954  17.200 -0.0545 -0.2553  0.1072
24281DPPC   C3B29820  17.164   5.969  17.675 -0.1528 -0.1008  0.0841
24281DPPC   C4B29821  17.147   6.039  18.146 -0.2866 -0.1273 -0.0434
24282DPPC   NC329822  19.664   5.409  15.676  0.0448  0.0630  0.1306
24282DPPC   PO429823  19.351   5.374  15.934  0.0334 -0.0182  0.0775
24282DPPC   GL129824  19.205   5.359  16.285  0.1025 -0.0612  0.4616
24282DPPC   GL229825  19.039   5.105  16.285 -0.1870 -0.3052 -0.1977
24282DPPC   C1A29826  19.087   5.590  16.548  0.0233  0.1397 -0.0772
24282DPPC   C2A29827  19.121   5.604  16.972 -0.2376 -0.2341  0.1066
24282DPPC   C3A29828  19.223   5.675  17.458 -0.1117 -0.4155  0.1197
24282DPPC   C4A29829  19.244   5.693  17.931  0.3169 -0.1966  0.0526
24282DPPC   C1B29830  18.961   5.028  16.599  0.0364  0.0054 -0.0914
24282DPPC   C2B29831  19.029   5.098  17.034  0.0321  0.0699 -0.0912
24282DPPC   C3B29832  19.091   5.129  17.502 -0.0980 -0.2075  0.0063
24282DPPC   C4B29833  18.988   5.174  17.996 -0.1183 -0.0739 -0.0353
24283DPPC   NC329834  14.509   3.800  15.731 -0.0485 -0.0479 -0.1597
24283DPPC   PO429835  14.859   3.891  16.011  0.0720  0.0173 -0.0634
24283DPPC   GL129836  14.728   4.097  16.410  0.0083  0.0342 -0.0444
24283DPPC   GL229837  14.951   4.379  16.336 -0.0303  0.1916 -0.4026
24283DPPC   C1A29838  14.677   4.147  16.788 -0.3029 -0.2068 -0.1978
24283DPPC   C2A29839  14.627   4.218  17.189  0.1572  0.1422  0.0409
24283DPPC   C3A29840  14.671   4.335  17.660 -0.2130 -0.1008  0.0763
24283DPPC   C4A29841  14.655   4.318  18.190  0.0943 -0.0027 -0.2663
24283DPPC   C1B29842  15.154   4.202  16.587  0.0259 -0.0950 -0.2319
24283DPPC   C2B29843  15.136   4.266  17.011  0.0065  0.1061  0.1621
24283DPPC   C3B29844  15.135   4.391  17.486 -0.2890 -0.1043 -0.0679
24283DPPC   C4B29845  15.159   4.374  17.987  0.0022  0.3062  0.1429
24284DPPC   NC329846  15.704   1.206  16.046  0.1646  0.1534 -0.0881
24284DPPC   PO429847  15.396   1.341  16.196  0.1056 -0.2842  0.1096
24284DPPC   GL129848  15.346   1.403  16.583 -0.0773  0.0561  0.1681
24284DPPC   GL229849  15.065   1.310  16.567  0.0793  0.0976  0.6987
24284DPPC   C1A29850  15.461   1.402  16.904  0.0119  0.3680 -0.0508
24284DPPC   C2A29851  15.468   1.326  17.316 -0.1112  0.1761 -0.0615
24284DPPC   C3A29852  15.445   1.273  17.795  0.3162  0.3006  0.2681
24284DPPC   C4A29853  15.412   1.260  18.260  0.0856 -0.0022 -0.3598
24284DPPC   C1B29854  14.988   1.236  16.910 -0.1120  0.1519 -0.1328
24284DPPC   C2B29855  14.925   1.223  17.303 -0.1489  0.0543 -0.0762
24284DPPC   C3B29856  14.958   1.188  17.799  0.2168  0.1160 -0.0708
24284DPPC   C4B29857  14.941   1.138  18.286 -0.0549  0.0219 -0.2215
24285DPPC   NC329858  17.536   5.565  15.991  0.0287  0.0573 -0.4283
24285DPPC   PO429859  17.279   5.633  16.268  0.3650  0.0512  0.0899
24285DPPC   GL129860  16.995   5.417  16.540 -0.0151  0.1497 -0.3060
24285DPPC   GL229861  17.199   5.518  16.728  0.1595 -0.0059 -0.0906
24285DPPC   C1A29862  16.708   5.440  16.769 -0.0590 -0.3546 -0.1769
24285DPPC   C2A29863  16.483   5.442  17.134 -0.0512 -0.0420 -0.1177
24285DPPC   C3A29864  16.454   5.479  17.577 -0.0320  0.1531 -0.0367
24285DPPC   C4A29865  16.454   5.476  18.089  0.0599 -0.0240 -0.0551
24285DPPC   C1B29866  17.054   5.505  17.061  0.2523  0.0170 -0.2536
24285DPPC   C2B29867  17.009   5.524  17.489 -0.1306  0.1995  0.0253
24285DPPC   C3B29868  17.018   5.558  17.971  0.0592 -0.0014 -0.1979
24285DPPC   C4B29869  17.020   5.660  18.413  0.1453  0.1043 -0.0479
24286DPPC   NC329870  17.823   1.033  15.907 -0.2376  0.1387 -0.1676
24286DPPC   PO429871  17.600   0.815  16.151  0.1426  0.1707 -0.0516
24286DPPC   GL129872  17.761   0.899  16.497  0.1608  0.2536 -0.0932
24286DPPC   GL229873  17.989   1.092  16.396  0.1583  0.3553 -0.1525
24286DPPC   C1A29874  17.675   0.923  16.843  0.0318  0.2803  0.0996
24286DPPC   C2A29875  17.585   0.954  17.253 -0.0158 -0.1521  0.2330
24286DPPC   C3A29876  17.634   0.869  17.750  0.0713  0.0711  0.1325
24286DPPC   C4A29877  17.642   0.873  18.184 -0.1372  0.1108  0.0067
24286DPPC   C1B29878  18.245   1.069  16.629 -0.1882 -0.0825 -0.2309
24286DPPC   C2B29879  18.165   1.010  17.046 -0.1173 -0.2365  0.1478
24286DPPC   C3B29880  18.072   1.014  17.490  0.0208 -0.3151 -0.1375
24286DPPC   C4B29881  18.143   1.007  18.016  0.0027  0.2499  0.1736
24287DPPC   NC329882  14.099   4.802  15.933  0.0810 -0.2892 -0.0577
24287DPPC   PO429883  14.013   5.199  15.897 -0.0692 -0.0592  0.3382
24287DPPC   GL129884  13.767   5.144  16.281  0.2188  0.3968  0.4581
24287DPPC   GL229885  14.069   5.033  16.386 -0.1655 -0.0625 -0.1099
24287DPPC   C1A29886  13.702   5.271  16.604  0.0578 -0.1598 -0.0574
24287DPPC   C2A29887  13.697   5.362  17.030 -0.1722  0.2815  0.0110
24287DPPC   C3A29888  13.661   5.399  17.521 -0.1399 -0.0413 -0.0118
24287DPPC   C4A29889  13.670   5.461  18.018  0.3031 -0.1876  0.1108
24287DPPC   C1B29890  13.989   4.905  16.736 -0.0201 -0.1363 -0.2530
24287DPPC   C2B29891  14.014   4.933  17.159  0.2799  0.2353 -0.4341
24287DPPC   C3B29892  13.970   4.994  17.598  0.1381  0.0642  0.2607
24287DPPC   C4B29893  13.959   5.041  18.067  0.0953 -0.4303 -0.1019
24288DPPC   NC329894  15.389   5.989  15.789 -0.3694  0.0497  0.1463
24288DPPC   PO429895  15.475   6.230  16.095 -0.1753 -0.0785 -0.1696
24288DPPC   GL129896  15.375   6.623  16.319  0.1352 -0.1407 -0.1119
24288DPPC   GL229897  15.190   6.446  16.367 -0.1919  0.0203  0.0632
24288DPPC   C1A29898  15.578   6.835  16.568  0.0152  0.0170  0.1808
24288DPPC   C2A29899  15.629   7.025  16.921 -0.1076 -0.1598 -0.2027
24288DPPC   C3A29900  15.629   7.079  17.415 -0.0527  0.1860  0.0652
24288DPPC   C4A29901  15.600   7.051  17.920  0.2521 -0.1103  0.1452
24288DPPC   C1B29902  15.165   6.438  16.751 -0.0023  0.1976 -0.1894
24288DPPC   C2B29903  15.051   6.453  17.134  0.1499  0.1382 -0.1511
24288DPPC   C3B29904  14.992   6.514  17.598  0.0715  0.4757  0.1387
24288DPPC   C4B29905  14.977   6.523  18.106  0.1026 -0.1100  0.3833
24289DPPC   NC329906  17.854   6.401  16.155 -0.1412  0.0464 -0.1468
24289DPPC   PO429907  17.528   6.144  16.161  0.0544  0.1277  0.2594
24289DPPC   GL129908  17.377   5.977  16.528 -0.0556 -0.1155 -0.1381
24289DPPC   GL229909  17.565   5.840  16.607 -0.3899  0.0471 -0.1510
24289DPPC   C1A29910  17.221   6.307  16.699  0.0439  0.0576 -0.3796
24289DPPC   C2A29911  16.910   6.361  17.009  0.1692  0.0453 -0.4220
24289DPPC   C3A29912  16.822   6.318  17.435 -0.0521 -0.2652 -0.3608
24289DPPC   C4A29913  16.847   6.399  17.986 -0.0192  0.1049  0.1551
24289DPPC   C1B29914  17.587   5.664  16.944 -0.0634  0.1013  0.0965
24289DPPC   C2B29915  17.488   5.611  17.349  0.0486  0.1600 -0.0327
24289DPPC   C3B29916  17.492   5.588  17.859 -0.1591  0.0201 -0.0513
24289DPPC   C4B29917  17.553   5.770  18.269  0.2536 -0.2819 -0.0640
24290DPPC   NC329918  15.476   4.463  16.323  0.1212  0.2335  0.1290
24290DPPC   PO429919  15.731   4.711  16.256  0.3804 -0.1848 -0.1353
24290DPPC   GL129920  15.893   5.060  16.524 -0.1237 -0.0374  0.1214
24290DPPC   GL229921  15.817   4.862  16.674  0.2298  0.2249  0.0952
24290DPPC   C1A29922  15.971   5.261  16.839  0.1476 -0.1631 -0.4353
24290DPPC   C2A29923  15.998   5.360  17.256  0.2254  0.1192  0.1301
24290DPPC   C3A29924  15.981   5.436  17.753 -0.0254  0.2549 -0.3481
24290DPPC   C4A29925  15.981   5.382  18.239 -0.0754  0.0936  0.0300
24290DPPC   C1B29926  15.861   4.785  17.046 -0.3160  0.0903 -0.0924
24290DPPC   C2B29927  15.818   4.859  17.450  0.3081  0.0639  0.1548
24290DPPC   C3B29928  15.782   4.905  17.936 -0.1810  0.1981  0.0677
24290DPPC   C4B29929  15.768   4.949  18.411  0.2401  0.0488 -0.1048
24291DPPC   NC329930  14.976   5.163  15.931 -0.0936  0.1247 -0.1905
24291DPPC   PO429931  15.245   4.915  16.003  0.1828  0.1872  0.0523
24291DPPC   GL129932  15.322   4.876  16.448 -0.1839 -0.1000 -0.2375
24291DPPC   GL229933  14.996   4.818  16.390 -0.4349  0.2867 -0.3413
24291DPPC   C1A29934  15.384   4.710  16.804 -0.3483  0.0542 -0.0399
24291DPPC   C2A29935  15.403   4.747  17.210 -0.0286  0.3220  0.0813
24291DPPC   C3A29936  15.352   4.806  17.688  0.1658 -0.1238  0.0874
24291DPPC   C4A29937  15.352   4.775  18.190  0.0074  0.0573  0.1130
24291DPPC   C1B29938  14.868   4.704  16.696 -0.0971  0.0154  0.3810
24291DPPC   C2B29939  14.865   4.673  17.097  0.1628 -0.1345  0.0502
24291DPPC   C3B29940  14.836   4.787  17.580  0.0327 -0.2326 -0.4643
24291DPPC   C4B29941  14.816   4.776  18.082 -0.0083  0.3643 -0.1332
24292DPPC   NC329942  14.644   2.848  16.139  0.0887 -0.0128  0.1576
24292DPPC   PO429943  14.521   3.139  16.392 -0.0686 -0.0355 -0.4318
24292DPPC   GL129944  14.470   3.191  16.773 -0.3932 -0.0764  0.5099
24292DPPC   GL229945  14.310   3.412  16.658  0.2737 -0.0840 -0.4595
24292DPPC   C1A29946  14.289   3.259  17.129  0.0497 -0.1150 -0.0436
24292DPPC   C2A29947  14.299   3.311  17.573  0.2898 -0.1160 -0.2127
24292DPPC   C3A29948  14.293   3.247  17.989  0.2597 -0.2893 -0.1509
24292DPPC   C4A29949  14.335   3.394  18.436  0.1638 -0.3185  0.2637
24292DPPC   C1B29950  14.537   3.681  16.867  0.0998 -0.0494 -0.0156
24292DPPC   C2B29951  14.491   3.761  17.279  0.0999 -0.1266  0.2702
24292DPPC   C3B29952  14.503   3.849  17.735  0.0301  0.1960 -0.1444
24292DPPC   C4B29953  14.485   3.822  18.229 -0.0142  0.0608  0.2972
24293DPPC   NC329954  16.810   2.683  15.848  0.4163 -0.0521 -0.0747
24293DPPC   PO429955  16.652   3.022  15.972  0.2986  0.1489  0.1227
24293DPPC   GL129956  16.669   3.200  16.422  0.0691 -0.1909 -0.2435
24293DPPC   GL229957  16.435   3.416  16.347 -0.1450 -0.3697  0.2051
24293DPPC   C1A29958  16.634   3.203  16.784  0.0199 -0.0338  0.3597
24293DPPC   C2A29959  16.627   3.219  17.205  0.1120  0.3092 -0.0489
24293DPPC   C3A29960  16.620   3.330  17.693 -0.3663 -0.4295  0.0552
24293DPPC   C4A29961  16.632   3.314  18.181  0.1277 -0.0813  0.0399
24293DPPC   C1B29962  16.318   3.533  16.706  0.1256 -0.3673  0.0474
24293DPPC   C2B29963  16.294   3.573  17.082 -0.0212 -0.0254 -0.0417
24293DPPC   C3B29964  16.311   3.644  17.530  0.1149 -0.0382  0.0237
24293DPPC   C4B29965  16.206   3.659  18.041 -0.0086 -0.1599 -0.1454
24294DPPC   NC329966  12.928   5.761  16.149  0.1289 -0.0805  0.0477
24294DPPC   PO429967  13.095   5.450  15.965 -0.3791 -0.0946 -0.0147
24294DPPC   GL129968  13.331   5.452  16.282 -0.0806  0.1608 -0.1202
24294DPPC   GL229969  13.316   5.114  16.252  0.0099 -0.1957  0.2137
24294DPPC   C1A29970  13.397   5.582  16.630  0.0041  0.0525 -0.0511
24294DPPC   C2A29971  13.327   5.785  16.909  0.1679  0.4584  0.1765
24294DPPC   C3A29972  13.380   5.769  17.358  0.1569 -0.1269 -0.3541
24294DPPC   C4A29973  13.399   5.826  17.808 -0.1810 -0.0062 -0.0281
24294DPPC   C1B29974  13.248   5.196  16.650  0.3548 -0.1997  0.3492
24294DPPC   C2B29975  13.201   5.321  17.042 -0.0041  0.2446  0.2491
24294DPPC   C3B29976  13.151   5.312  17.523  0.2668  0.2945  0.1649
24294DPPC   C4B29977  13.166   5.292  18.033  0.0369  0.1131  0.0527
24295DPPC   NC329978  20.131   0.152  15.804 -0.0262  0.1486  0.2481
24295DPPC   PO429979  19.876  -0.172  15.748  0.1811  0.4001 -0.0359
24295DPPC   GL129980  19.925  -0.205  16.185 -0.4927 -0.0290 -0.1599
24295DPPC   GL229981  19.800  -0.422  16.114  0.1828  0.0760 -0.2728
24295DPPC   C1A29982  19.902  -0.341  16.560 -0.0893  0.1209  0.1591
24295DPPC   C2A29983  19.850  -0.385  16.961 -0.0751  0.1427 -0.2703
24295DPPC   C3A29984  19.845  -0.450  17.485 -0.0024 -0.0575 -0.0517
24295DPPC   C4A29985  19.933  -0.392  17.911 -0.3089 -0.2816  0.3670
24295DPPC   C1B29986  19.533  -0.327  16.298  0.0896 -0.0488  0.1331
24295DPPC   C2B29987  19.397  -0.424  16.642  0.2433 -0.0652 -0.1102
24295DPPC   C3B29988  19.393  -0.410  17.132  0.0833  0.0703  0.0149
24295DPPC   C4B29989  19.362  -0.413  17.658  0.0388  0.3140 -0.3332
24296DPPC   NC329990  17.385   1.219  16.304 -0.1276 -0.4130  0.0797
24296DPPC   PO429991  17.313   1.596  16.184 -0.0586 -0.2826  0.3336
24296DPPC   GL129992  17.152   1.911  16.343  0.0030  0.1574 -0.4408
24296DPPC   GL229993  16.933   1.768  16.535  0.1270  0.6261 -0.1129
24296DPPC   C1A29994  17.125   2.171  16.582  0.5222  0.0500 -0.0215
24296DPPC   C2A29995  17.058   2.124  16.997 -0.2131 -0.4120  0.2364
24296DPPC   C3A29996  17.101   2.144  17.449  0.0800 -0.0496 -0.0057
24296DPPC   C4A29997  17.090   2.060  17.880  0.0312 -0.0078 -0.0656
24296DPPC   C1B29998  16.905   1.661  16.889 -0.2374 -0.0752  0.2876
24296DPPC   C2B29999  16.962   1.577  17.265  0.0001  0.1346  0.0076
24296DPPC   C3B30000  16.946   1.571  17.722  0.0526  0.1325  0.1540
24296DPPC   C4B30001  17.066   1.663  18.203  0.0183 -0.0535 -0.1431
24297DPPC   NC330002  16.103   0.903  15.968 -0.0079  0.0630  0.2343
24297DPPC   PO430003  16.383   0.649  16.038  0.0862  0.1041 -0.0431
24297DPPC   GL130004  16.308   0.750  16.384 -0.2628  0.0331  0.0396
24297DPPC   GL230005  16.286   0.964  16.525 -0.0149 -0.3194 -0.2461
24297DPPC   C1A30006  16.416   0.550  16.721  0.0808 -0.1198  0.0125
24297DPPC   C2A30007  16.577   0.589  17.121  0.1401 -0.0413 -0.0418
24297DPPC   C3A30008  16.622   0.653  17.610  0.3131 -0.0345  0.0710
24297DPPC   C4A30009  16.632   0.671  18.060  0.0640 -0.1557 -0.1280
24297DPPC   C1B30010  16.196   0.949  16.874 -0.2675 -0.2359  0.1029
24297DPPC   C2B30011  16.198   0.932  17.304  0.0134 -0.0142 -0.0766
24297DPPC   C3B30012  16.219   0.972  17.780  0.1748  0.0137  0.2006
24297DPPC   C4B30013  16.325   1.072  18.234  0.0631  0.0306 -0.0054
24298DPPC   NC330014  15.797   4.296  15.997  0.3565 -0.0599  0.2866
24298DPPC   PO430015  16.167   4.351  16.168  0.0718  0.0493 -0.0402
24298DPPC   GL130016  16.061   4.575  16.520  0.1576  0.0821 -0.2494
24298DPPC   GL230017  16.233   4.781  16.371  0.2529  0.3814  0.5656
24298DPPC   C1A30018  16.112   4.453  16.911 -0.1241 -0.1441  0.0655
24298DPPC   C2A30019  16.131   4.450  17.304 -0.0530  0.0052 -0.0357
24298DPPC   C3A30020  16.099   4.510  17.783 -0.0565 -0.2506  0.3038
24298DPPC   C4A30021  16.180   4.551  18.321 -0.2362  0.3020 -0.0789
24298DPPC   C1B30022  16.354   4.862  16.692 -0.3885 -0.4088  0.0128
24298DPPC   C2B30023  16.289   4.965  17.076 -0.1362  0.2378 -0.1337
24298DPPC   C3B30024  16.291   4.981  17.530 -0.2872  0.1553  0.2085
24298DPPC   C4B30025  16.304   4.994  18.033  0.2215 -0.0356  0.0508
24299DPPC   NC330026  19.137   6.070  15.434 -0.0314  0.1283 -0.0442
24299DPPC   PO430027  19.364   5.782  15.581 -0.0873  0.3698  0.0993
24299DPPC   GL130028  19.527   5.791  16.010 -0.3204  0.0521 -0.0738
24299DPPC   GL230029  19.173   5.764  16.038 -0.0245 -0.2360  0.2296
24299DPPC   C1A30030  19.561   5.790  16.389 -0.1060  0.1766  0.1375
24299DPPC   C2A30031  19.651   5.783  16.815  0.3773 -0.1552 -0.1174
24299DPPC   C3A30032  19.691   5.717  17.302  0.1758  0.0395  0.2957
24299DPPC   C4A30033  19.761   5.754  17.803  0.0479 -0.1047 -0.1644
24299DPPC   C1B30034  19.106   5.952  16.362  0.1194 -0.0559 -0.1514
24299DPPC   C2B30035  18.933   6.002  16.783 -0.3782  0.3671 -0.0151
24299DPPC   C3B30036  18.901   6.035  17.281  0.0896  0.2723 -0.1808
24299DPPC   C4B30037  18.892   6.007  17.778 -0.1362 -0.0646  0.2791
24300DPPC   NC330038  18.821   4.412  15.742  0.1307 -0.3245 -0.1841
24300DPPC   PO430039  19.167   4.235  15.778 -0.0533 -0.2743  0.0394
24300DPPC   GL130040  19.503   4.376  15.990 -0.2022  0.0445 -0.1515
24300DPPC   GL230041  19.655   4.597  15.884  0.0089  0.0222 -0.1452
24300DPPC   C1A30042  19.633   4.279  16.286 -0.0295 -0.0461 -0.2250
24300DPPC   C2A30043  19.732   4.313  16.709 -0.1990 -0.0601  0.0165
24300DPPC   C3A30044  19.816   4.376  17.203 -0.0680  0.2378  0.1093
24300DPPC   C4A30045  19.776   4.467  17.707  0.3613  0.1536 -0.0094
24300DPPC   C1B30046  19.835   4.644  16.237 -0.3130 -0.3018 -0.1998
24300DPPC   C2B30047  19.824   4.806  16.630  0.0299 -0.2840  0.0837
24300DPPC   C3B30048  19.833   4.900  17.092 -0.0377 -0.2381 -0.1555
24300DPPC   C4B30049  19.996   4.928  17.533 -0.1338 -0.1137  0.0232
24301DPPC   NC330050  17.636   3.316  16.320 -0.1022  0.0863  0.0086
24301DPPC   PO430051  17.683   3.711  16.169  0.1835  0.0815  0.0364
24301DPPC   GL130052  17.696   3.910  16.477  0.0515  0.1759 -0.0180
24301DPPC   GL230053  17.812   4.189  16.362  0.3751 -0.3524 -0.0283
24301DPPC   C1A30054  17.740   3.927  16.840 -0.3600 -0.1686 -0.3172
24301DPPC   C2A30055  17.749   3.947  17.241  0.1033  0.1520  0.4130
24301DPPC   C3A30056  17.809   4.062  17.779  0.2249  0.0411  0.1048
24301DPPC   C4A30057  17.825   4.036  18.273  0.0336  0.0585  0.2555
24301DPPC   C1B30058  17.957   4.347  16.671  0.2543  0.1797 -0.0140
24301DPPC   C2B30059  17.971   4.437  17.038  0.2629  0.3565 -0.0416
24301DPPC   C3B30060  17.998   4.430  17.536 -0.0283  0.1738  0.3225
24301DPPC   C4B30061  17.911   4.446  18.031  0.3223 -0.1288 -0.1072
24302DPPC   NC330062  18.815   2.791  15.198  0.0301  0.0988 -0.0015
24302DPPC   PO430063  18.569   2.676  15.507  0.3570  0.1785 -0.0190
24302DPPC   GL130064  18.790   2.684  15.886 -0.2206 -0.3145 -0.2841
24302DPPC   GL230065  18.801   2.971  16.006 -0.0737 -0.2582 -0.0531
24302DPPC   C1A30066  18.799   2.526  16.200 -0.2340 -0.0715 -0.2745
24302DPPC   C2A30067  18.999   2.471  16.558 -0.1074 -0.1223 -0.0064
24302DPPC   C3A30068  19.100   2.477  17.072 -0.2547 -0.1155  0.3123
24302DPPC   C4A30069  19.114   2.530  17.530 -0.0162  0.0511  0.0629
24302DPPC   C1B30070  18.713   2.904  16.350 -0.2464  0.0060 -0.1985
24302DPPC   C2B30071  18.752   2.903  16.763 -0.0133 -0.0510  0.0034
24302DPPC   C3B30072  18.752   2.875  17.234 -0.0302  0.2537  0.1066
24302DPPC   C4B30073  18.807   2.874  17.688  0.0370 -0.0166 -0.1166
24303DPPC   NC330074  16.841   3.515  16.041  0.0882 -0.1793 -0.0509
24303DPPC   PO430075  17.212   3.570  16.121  0.0952  0.0458  0.0003
24303DPPC   GL130076  17.170   3.580  16.518  0.0372 -0.3595  0.1444
24303DPPC   GL230077  16.990   3.419  16.617  0.1456 -0.2462 -0.2859
24303DPPC   C1A30078  17.475   3.547  16.689  0.0250 -0.0733  0.2010
24303DPPC   C2A30079  17.622   3.445  17.093  0.0661  0.2289 -0.2140
24303DPPC   C3A30080  17.653   3.471  17.580 -0.1778 -0.0730  0.2042
24303DPPC   C4A30081  17.679   3.405  18.116 -0.2408 -0.1996  0.1669
24303DPPC   C1B30082  17.127   3.278  16.941  0.3480  0.0393 -0.1167
24303DPPC   C2B30083  17.187   3.427  17.330  0.0080 -0.5359  0.1536
24303DPPC   C3B30084  17.138   3.413  17.794 -0.1173 -0.0571 -0.1921
24303DPPC   C4B30085  17.177   3.346  18.258  0.3584 -0.1678  0.0927
24304DPPC   NC330086  17.498   3.166  15.891 -0.2524  0.1755 -0.1142
24304DPPC   PO430087  17.186   3.066  16.127  0.1582 -0.2758 -0.0357
24304DPPC   GL130088  17.268   3.068  16.512  0.0051  0.1319  0.0684
24304DPPC   GL230089  16.996   3.016  16.643 -0.1704  0.1261 -0.0438
24304DPPC   C1A30090  17.415   3.050  16.820 -0.0249  0.1918 -0.0975
24304DPPC   C2A30091  17.461   3.009  17.252 -0.1086 -0.3868 -0.1248
24304DPPC   C3A30092  17.439   3.029  17.755  0.3154 -0.0148 -0.0899
24304DPPC   C4A30093  17.499   2.970  18.191  0.1652 -0.1787 -0.0603
24304DPPC   C1B30094  16.889   2.919  16.981  0.0924  0.3129 -0.1048
24304DPPC   C2B30095  16.972   2.902  17.393  0.2702 -0.2291  0.1250
24304DPPC   C3B30096  16.981   2.828  17.835 -0.1249  0.0806  0.3215
24304DPPC   C4B30097  16.968   2.876  18.360 -0.0418 -0.0511  0.2645
24305DPPC   NC330098  16.967   1.191  15.842  0.1799  0.1537 -0.2761
24305DPPC   PO430099  16.608   1.142  15.998  0.2028 -0.1693 -0.0335
24305DPPC   GL130100  16.694   1.271  16.289 -0.3139 -0.2465  0.1270
24305DPPC   GL230101  16.938   1.406  16.317  0.0239  0.1771 -0.0959
24305DPPC   C1A30102  16.581   1.370  16.588 -0.3584 -0.0855  0.0972
24305DPPC   C2A30103  16.425   1.422  16.996  0.0237 -0.0451 -0.0409
24305DPPC   C3A30104  16.463   1.491  17.436 -0.2785  0.2392  0.4382
24305DPPC   C4A30105  16.471   1.528  17.917 -0.2272 -0.1311  0.0399
24305DPPC   C1B30106  17.113   1.316  16.696 -0.4449 -0.0454  0.4922
24305DPPC   C2B30107  17.221   1.232  17.060  0.0452 -0.0090  0.0639
24305DPPC   C3B30108  17.276   1.225  17.504 -0.0657  0.3209 -0.1434
24305DPPC   C4B30109  17.356   1.239  17.966  0.0562 -0.2415 -0.0595
24306DPPC   NC330110  17.205   0.516  16.213  0.6085 -0.2815 -0.0349
24306DPPC   PO430111  16.971   0.862  16.256  0.4205  0.0069  0.1185
24306DPPC   GL130112  16.790   0.759  16.587 -0.0505  0.2662 -0.3419
24306DPPC   GL230113  16.943   0.547  16.702 -0.0732 -0.1128  0.0792
24306DPPC   C1A30114  16.670   0.983  16.859 -0.0834 -0.4700 -0.1054
24306DPPC   C2A30115  16.743   1.063  17.243 -0.0694  0.3047  0.1401
24306DPPC   C3A30116  16.783   1.088  17.673 -0.1040  0.0332  0.1990
24306DPPC   C4A30117  16.826   1.146  18.201  0.0907 -0.0187 -0.0233
24306DPPC   C1B30118  17.074   0.692  17.045  0.3529  0.3986  0.0600
24306DPPC   C2B30119  17.075   0.742  17.433  0.0772  0.1032  0.1424
24306DPPC   C3B30120  17.179   0.768  17.925 -0.1808 -0.1958  0.5356
24306DPPC   C4B30121  17.097   0.687  18.379 -0.1952 -0.1813 -0.2999
24307DPPC   NC330122  19.556   2.313  15.820  0.0564  0.1090 -0.2308
24307DPPC   PO430123  19.655   2.667  15.669 -0.2953 -0.1242  0.0200
24307DPPC   GL130124  19.977   2.754  16.005 -0.1609 -0.2448  0.2204
24307DPPC   GL230125  19.694   2.761  16.160  0.1550  0.3165  0.1385
24307DPPC   C1A30126  20.094   2.650  16.360  0.2409 -0.4935  0.0142
24307DPPC   C2A30127  20.104   2.745  16.748 -0.0762  0.2187 -0.1941
24307DPPC   C3A30128  20.124   2.726  17.282 -0.0826 -0.0206  0.0155
24307DPPC   C4A30129  20.152   2.703  17.722  0.1081  0.0265 -0.0158
24307DPPC   C1B30130  19.685   2.905  16.516  0.1548  0.1118 -0.0096
24307DPPC   C2B30131  19.774   2.973  16.970  0.1230 -0.1244 -0.1340
24307DPPC   C3B30132  19.789   3.053  17.501  0.0740 -0.4023  0.1790
24307DPPC   C4B30133  19.807   3.041  17.992 -0.2521  0.1738  0.1647
24308DPPC   NC330134  14.775   5.596  16.239 -0.1789 -0.2925 -0.0742
24308DPPC   PO430135  15.092   5.877  16.166 -0.2168  0.0455  0.1081
24308DPPC   GL130136  15.132   6.027  16.595 -0.0660 -0.1153  0.1176
24308DPPC   GL230137  15.369   6.149  16.590  0.0220  0.1541  0.3794
24308DPPC   C1A30138  14.960   5.948  16.888  0.2554 -0.0180  0.2054
24308DPPC   C2A30139  14.853   6.028  17.284 -0.2005  0.2988 -0.0836
24308DPPC   C3A30140  14.865   6.089  17.752  0.2444 -0.0543  0.0733
24308DPPC   C4A30141  14.811   6.059  18.282  0.2161 -0.5182  0.0788
24308DPPC   C1B30142  15.412   6.121  16.965  0.2311  0.2167  0.3295
24308DPPC   C2B30143  15.342   6.126  17.379  0.1396 -0.0232  0.1631
24308DPPC   C3B30144  15.342   6.174  17.876 -0.4417  0.0219  0.0224
24308DPPC   C4B30145  15.286   6.127  18.340 -0.2283  0.1206  0.2751
24309DPPC   NC330146  13.984   2.423  16.007  0.0034  0.0152  0.0727
24309DPPC   PO430147  14.339   2.328  16.120  0.0248  0.5029 -0.0110
24309DPPC   GL130148  14.365   2.326  16.546  0.1102 -0.0498 -0.3001
24309DPPC   GL230149  14.103   2.372  16.536 -0.0527 -0.2858  0.0539
24309DPPC   C1A30150  14.375   2.386  16.934 -0.0643 -0.4135 -0.1061
24309DPPC   C2A30151  14.510   2.405  17.271 -0.2344 -0.2074  0.0348
24309DPPC   C3A30152  14.521   2.458  17.739  0.2231 -0.0135 -0.1670
24309DPPC   C4A30153  14.517   2.460  18.173 -0.2481  0.0584  0.1833
24309DPPC   C1B30154  13.990   2.262  16.869  0.0348  0.2177 -0.0227
24309DPPC   C2B30155  13.978   2.378  17.254 -0.1167 -0.2709  0.2535
24309DPPC   C3B30156  13.962   2.341  17.708  0.4462 -0.2305 -0.1899
24309DPPC   C4B30157  13.972   2.326  18.201 -0.2550  0.0328  0.2112
24310DPPC   NC330158  16.556   4.610  16.113  0.0851  0.0329  0.1491
24310DPPC   PO430159  16.725   4.932  16.322 -0.0029 -0.2246  0.2164
24310DPPC   GL130160  16.945   4.939  16.640  0.2911  0.1484  0.0189
24310DPPC   GL230161  17.014   4.752  16.770 -0.2155  0.1275  0.4444
24310DPPC   C1A30162  16.824   5.054  17.000  0.1513  0.2137  0.4041
24310DPPC   C2A30163  16.726   5.009  17.356 -0.1771 -0.0729 -0.1759
24310DPPC   C3A30164  16.785   5.106  17.778 -0.0697  0.0607  0.0851
24310DPPC   C4A30165  16.868   5.160  18.267 -0.1667  0.1431 -0.1407
24310DPPC   C1B30166  17.047   4.706  17.125 -0.1388  0.2521 -0.1216
24310DPPC   C2B30167  17.081   4.732  17.513 -0.1342 -0.1988 -0.1011
24310DPPC   C3B30168  17.098   4.744  18.021 -0.1329 -0.1856  0.0821
24310DPPC   C4B30169  17.124   4.792  18.570  0.1043  0.0587  0.1939
24311DPPC   NC330170  18.541   3.623  15.784  0.0427  0.1284  0.2041
24311DPPC   PO430171  18.828   3.891  15.741  0.0134  0.4705  0.3901
24311DPPC   GL130172  18.817   4.123  16.110  0.1147 -0.2142 -0.0203
24311DPPC   GL230173  18.562   4.073  16.084  0.1223 -0.1221  0.0274
24311DPPC   C1A30174  19.108   4.167  16.371  0.3212  0.1947  0.0697
24311DPPC   C2A30175  19.199   4.225  16.723  0.0974  0.0940  0.0459
24311DPPC   C3A30176  19.321   4.257  17.172  0.0739  0.2042 -0.2373
24311DPPC   C4A30177  19.291   4.295  17.679  0.0948  0.1545  0.4625
24311DPPC   C1B30178  18.628   3.831  16.381 -0.1038  0.0253 -0.1452
24311DPPC   C2B30179  18.643   3.699  16.795 -0.1548  0.2132  0.0204
24311DPPC   C3B30180  18.622   3.639  17.252 -0.1406 -0.0352  0.0946
24311DPPC   C4B30181  18.602   3.713  17.739  0.1786  0.0675  0.0451
24312DPPC   NC330182  14.685   4.350  15.875 -0.1741 -0.1174 -0.2403
24312DPPC   PO430183  14.709   4.721  15.974 -0.1747 -0.0074 -0.2146
24312DPPC   GL130184  14.448   4.957  16.216 -0.0058 -0.1556 -0.0131
24312DPPC   GL230185  14.564   5.152  16.220 -0.0308 -0.0746 -0.1284
24312DPPC   C1A30186  14.432   4.940  16.618 -0.1221 -0.4920  0.0015
24312DPPC   C2A30187  14.532   5.098  17.065  0.1660 -0.0717  0.2358
24312DPPC   C3A30188  14.471   5.109  17.560 -0.0421 -0.3221  0.1827
24312DPPC   C4A30189  14.461   5.193  18.022 -0.2438 -0.1915  0.2057
24312DPPC   C1B30190  14.787   5.196  16.555 -0.0380  0.0489 -0.3283
24312DPPC   C2B30191  15.061   5.072  16.827 -0.0102 -0.0607 -0.1435
24312DPPC   C3B30192  15.107   5.168  17.339 -0.1477 -0.0350  0.0759
24312DPPC   C4B30193  14.974   5.213  17.827 -0.0269  0.1275  0.2312
24313DPPC   NC330194  16.045   2.742  16.065 -0.1180  0.1473 -0.3178
24313DPPC   PO430195  16.190   3.050  16.156 -0.0060 -0.0678 -0.0146
24313DPPC   GL130196  16.150   3.127  16.515  0.1406 -0.0257  0.1436
24313DPPC   GL230197  15.922   3.410  16.427 -0.1329 -0.1035 -0.1212
24313DPPC   C1A30198  16.250   3.078  16.920 -0.2629 -0.0329  0.1262
24313DPPC   C2A30199  16.115   3.182  17.300  0.2799  0.1963 -0.2410
24313DPPC   C3A30200  16.102   3.171  17.838 -0.1631  0.1338  0.2847
24313DPPC   C4A30201  16.123   3.260  18.323 -0.2071 -0.2349  0.1094
24313DPPC   C1B30202  15.865   3.526  16.792  0.1022  0.2452  0.2354
24313DPPC   C2B30203  15.780   3.550  17.155  0.0288  0.2066  0.0219
24313DPPC   C3B30204  15.753   3.499  17.617  0.1108 -0.0387  0.0597
24313DPPC   C4B30205  15.656   3.468  18.109 -0.4196 -0.1210  0.2869
24314DPPC   NC330206  14.007   5.707  15.822  0.0787  0.1559 -0.0453
24314DPPC   PO430207  13.949   6.052  16.013  0.1354  0.3393  0.4624
24314DPPC   GL130208  13.994   6.102  16.361 -0.0953  0.0062  0.2166
24314DPPC   GL230209  14.198   6.199  16.412 -0.2537 -0.1532 -0.1474
24314DPPC   C1A30210  13.872   5.941  16.699  0.0539 -0.1754 -0.3733
24314DPPC   C2A30211  13.897   5.900  17.088 -0.0380 -0.0019 -0.2354
24314DPPC   C3A30212  13.816   5.856  17.580  0.2298 -0.2877  0.1278
24314DPPC   C4A30213  13.927   5.922  18.077  0.0030  0.2025  0.3526
24314DPPC   C1B30214  14.337   6.212  16.740 -0.5130  0.2866  0.1945
24314DPPC   C2B30215  14.392   5.956  17.038 -0.1819 -0.4619  0.0839
24314DPPC   C3B30216  14.410   5.906  17.510 -0.2421  0.3269  0.2042
24314DPPC   C4B30217  14.386   5.916  17.978  0.3433 -0.3296 -0.1211
24315DPPC   NC330218  19.477   0.631  15.655  0.0418  0.2940  0.2100
24315DPPC   PO430219  19.638   0.262  15.729 -0.2943  0.0276 -0.1605
24315DPPC   GL130220  19.663   0.124  16.137 -0.3478 -0.2435 -0.2205
24315DPPC   GL230221  19.374   0.000  16.126 -0.1761 -0.4369  0.0663
24315DPPC   C1A30222  19.604   0.114  16.493 -0.0935  0.2273  0.1290
24315DPPC   C2A30223  19.522   0.020  16.864  0.0932 -0.1494 -0.0629
24315DPPC   C3A30224  19.603  -0.042  17.360 -0.1268  0.2708  0.0795
24315DPPC   C4A30225  19.632  -0.033  17.832  0.2469 -0.4795  0.0473
24315DPPC   C1B30226  19.215  -0.016  16.481 -0.0310  0.0244  0.0745
24315DPPC   C2B30227  19.045  -0.066  16.851 -0.1992  0.2220 -0.1662
24315DPPC   C3B30228  19.037  -0.064  17.344 -0.2513 -0.0734  0.0542
24315DPPC   C4B30229  19.045  -0.063  17.838  0.1142 -0.0920 -0.3137
24316DPPC   NC330230  14.068   1.593  16.006  0.1466  0.1831 -0.3068
24316DPPC   PO430231  14.397   1.479  16.169 -0.0129 -0.1429 -0.3441
24316DPPC   GL130232  14.617   1.736  16.411  0.0565  0.0410  0.1132
24316DPPC   GL230233  14.667   1.493  16.598 -0.0020  0.1136  0.0184
24316DPPC   C1A30234  14.682   1.964  16.700 -0.3771 -0.2261 -0.1183
24316DPPC   C2A30235  14.801   2.085  17.077 -0.3390 -0.2423 -0.0165
24316DPPC   C3A30236  14.774   2.071  17.580 -0.1109  0.3802  0.1504
24316DPPC   C4A30237  14.797   2.065  18.077 -0.2957 -0.2018  0.1376
24316DPPC   C1B30238  14.649   1.516  16.940 -0.2404  0.1065  0.2046
24316DPPC   C2B30239  14.619   1.638  17.312 -0.1436 -0.0567 -0.2802
24316DPPC   C3B30240  14.602   1.619  17.794 -0.1694  0.0047 -0.0493
24316DPPC   C4B30241  14.607   1.643  18.284 -0.0452 -0.2685 -0.4935
24317DPPC   NC330242  18.669   0.771  15.870  0.3237  0.0200 -0.2614
24317DPPC   PO430243  18.956   0.713  15.618  0.0967 -0.0244  0.0619
24317DPPC   GL130244  19.159   0.379  15.896 -0.1954  0.1530  0.2580
24317DPPC   GL230245  18.901   0.274  15.847  0.1149 -0.3459 -0.2113
24317DPPC   C1A30246  19.180   0.417  16.235  0.0743  0.1174 -0.0955
24317DPPC   C2A30247  19.229   0.387  16.643 -0.0551 -0.1357  0.3481
24317DPPC   C3A30248  19.280   0.387  17.126 -0.1947  0.0354  0.0104
24317DPPC   C4A30249  19.254   0.375  17.600 -0.0153  0.0849  0.0213
24317DPPC   C1B30250  18.756   0.421  16.132 -0.3656  0.1740  0.2722
24317DPPC   C2B30251  18.757   0.338  16.540  0.0215  0.0770 -0.0561
24317DPPC   C3B30252  18.752   0.293  16.994  0.1013 -0.0679 -0.0251
24317DPPC   C4B30253  18.779   0.346  17.518 -0.0419 -0.1561 -0.0719
24318DPPC   NC330254  17.689   0.520  15.759 -0.0169  0.2345  0.0254
24318DPPC   PO430255  17.610   0.191  15.972  0.0327 -0.3089 -0.1477
24318DPPC   GL130256  17.748   0.271  16.311 -0.3561  0.2033 -0.3341
24318DPPC   GL230257  17.587   0.473  16.518  0.0553  0.2971 -0.2588
24318DPPC   C1A30258  17.855   0.104  16.642 -0.2140 -0.2202  0.3778
24318DPPC   C2A30259  17.800   0.037  17.035  0.0871 -0.0266 -0.1149
24318DPPC   C3A30260  17.782  -0.032  17.505  0.0459  0.2393 -0.0008
24318DPPC   C4A30261  17.824  -0.018  17.995  0.1222  0.0653  0.3445
24318DPPC   C1B30262  17.497   0.408  16.860  0.2279  0.1561  0.0665
24318DPPC   C2B30263  17.461   0.485  17.250 -0.2670  0.1281  0.0488
24318DPPC   C3B30264  17.484   0.415  17.741  0.0018 -0.0798 -0.1617
24318DPPC   C4B30265  17.465   0.382  18.242  0.0479 -0.1464 -0.0819
24319DPPC   NC330266  20.036   1.852  15.549  0.1207 -0.0293  0.1060
24319DPPC   PO430267  20.231   1.569  15.756  0.0430 -0.0630  0.0673
24319DPPC   GL130268  20.246   1.572  16.219 -0.1085  0.0291 -0.1184
24319DPPC   GL230269  20.485   1.491  16.257 -0.1021  0.0822  0.0059
24319DPPC   C1A30270  20.094   1.537  16.581  0.0722 -0.0346 -0.0331
24319DPPC   C2A30271  20.074   1.475  16.964 -0.0142  0.2986 -0.0951
24319DPPC   C3A30272  20.152   1.453  17.493  0.3245  0.2189  0.2102
24319DPPC   C4A30273  20.223   1.448  17.925  0.1971  0.3215  0.0698
24319DPPC   C1B30274  20.543   1.474  16.635 -0.1227 -0.2403  0.0118
24319DPPC   C2B30275  20.622   1.490  17.006 -0.2388 -0.0605  0.1504
24319DPPC   C3B30276  20.658   1.529  17.516  0.1215  0.0391  0.2210
24319DPPC   C4B30277  20.697   1.550  18.001  0.0483  0.2467 -0.2854
24320DPPC   NC330278  18.487   5.313  15.872 -0.1748  0.0645 -0.0074
24320DPPC   PO430279  18.739   5.561  16.064  0.1936 -0.0112 -0.0963
24320DPPC   GL130280  18.700   5.447  16.442  0.4227  0.0274  0.0766
24320DPPC   GL230281  18.592   5.184  16.383 -0.2414  0.0250  0.1077
24320DPPC   C1A30282  18.680   5.505  16.814  0.1755 -0.0875 -0.3432
24320DPPC   C2A30283  18.713   5.481  17.225  0.2892 -0.0181  0.0427
24320DPPC   C3A30284  18.781   5.543  17.688  0.0731 -0.0027  0.1654
24320DPPC   C4A30285  18.774   5.550  18.226  0.0968  0.2911  0.0481
24320DPPC   C1B30286  18.534   4.973  16.681  0.4886 -0.2995 -0.5280
24320DPPC   C2B30287  18.521   4.957  17.058  0.2355  0.1302  0.1524
24320DPPC   C3B30288  18.554   4.942  17.512 -0.0188  0.1184 -0.1340
24320DPPC   C4B30289  18.565   4.913  18.051  0.0758  0.0506  0.1668
24321DPPC   NC330290  17.707   4.134  15.901 -0.1432  0.3189 -0.0675
24321DPPC   PO430291  17.367   4.340  15.981 -0.0676 -0.0602 -0.1004
24321DPPC   GL130292  17.382   4.106  16.313 -0.1132 -0.2894 -0.3748
24321DPPC   GL230293  17.439   4.385  16.483 -0.1645 -0.3125 -0.1124
24321DPPC   C1A30294  17.239   3.984  16.643  0.1677  0.0901  0.0445
24321DPPC   C2A30295  17.286   3.862  17.040  0.2012  0.1848  0.0058
24321DPPC   C3A30296  17.351   3.828  17.486  0.3179 -0.1563  0.1605
24321DPPC   C4A30297  17.319   3.938  18.006 -0.1924  0.0424 -0.2265
24321DPPC   C1B30298  17.452   4.321  16.831  0.0411  0.1128 -0.1363
24321DPPC   C2B30299  17.435   4.321  17.270 -0.2034  0.2365 -0.1186
24321DPPC   C3B30300  17.400   4.359  17.804  0.0092 -0.0625 -0.2380
24321DPPC   C4B30301  17.406   4.445  18.313  0.0777 -0.0057  0.1190
24322DPPC   NC330302  15.150   6.525  15.878 -0.0311  0.0719  0.0422
24322DPPC   PO430303  14.988   6.809  16.116  0.0492  0.0222 -0.2195
24322DPPC   GL130304  15.021   6.845  16.536 -0.1490  0.2667 -0.1269
24322DPPC   GL230305  14.738   6.797  16.604 -0.1796  0.1474  0.1343
24322DPPC   C1A30306  15.202   6.835  16.895  0.1095  0.4684  0.2593
24322DPPC   C2A30307  15.173   7.010  17.262 -0.0087  0.0031 -0.1114
24322DPPC   C3A30308  15.120   6.946  17.720  0.3565 -0.1965  0.0341
24322DPPC   C4A30309  15.142   6.984  18.240  0.0023 -0.0832  0.1230
24322DPPC   C1B30310  14.675   6.841  16.981 -0.0918 -0.0981 -0.1117
24322DPPC   C2B30311  14.699   6.892  17.372 -0.4081  0.0621 -0.0268
24322DPPC   C3B30312  14.631   6.899  17.894 -0.0968  0.1240  0.0135
24322DPPC   C4B30313  14.568   6.907  18.385  0.0881 -0.2453  0.1097
24323DPPC   NC330314  13.758   2.862  16.232 -0.3152  0.0743  0.0245
24323DPPC   PO430315  14.158   2.797  16.331 -0.1812 -0.0201 -0.3484
24323DPPC   GL130316  14.318   2.791  16.733  0.2407 -0.1931  0.0804
24323DPPC   GL230317  14.029   2.760  16.794 -0.2031 -0.1188  0.2700
24323DPPC   C1A30318  14.596   2.753  16.981  0.0685 -0.0248 -0.2909
24323DPPC   C2A30319  14.698   2.859  17.398  0.0299  0.1481  0.0217
24323DPPC   C3A30320  14.703   2.921  17.835 -0.1897 -0.1895 -0.2866
24323DPPC   C4A30321  14.648   2.923  18.288  0.1626  0.2829  0.0108
24323DPPC   C1B30322  14.079   2.844  17.104 -0.2528 -0.1720 -0.0937
24323DPPC   C2B30323  14.163   2.798  17.505  0.0313  0.2983  0.1151
24323DPPC   C3B30324  14.127   2.771  17.978  0.1037 -0.0196 -0.1823
24323DPPC   C4B30325  14.160   2.842  18.435 -0.3272 -0.1361 -0.1984
24324DPPC   NC330326  13.323   2.020  15.994  0.0882  0.0585  0.1225
24324DPPC   PO430327  13.728   1.974  16.039 -0.0045 -0.0722  0.1221
24324DPPC   GL130328  13.959   2.085  16.271  0.0365 -0.1386 -0.0467
24324DPPC   GL230329  14.185   1.911  16.260 -0.2037  0.1478 -0.1154
24324DPPC   C1A30330  13.714   2.171  16.531  0.0079 -0.4657  0.0449
24324DPPC   C2A30331  13.560   2.291  16.910  0.0125  0.0288  0.1126
24324DPPC   C3A30332  13.483   2.263  17.395 -0.1438 -0.0387  0.3676
24324DPPC   C4A30333  13.532   2.234  17.870 -0.2117  0.3307 -0.0861
24324DPPC   C1B30334  14.260   1.896  16.655 -0.1010  0.2500 -0.0632
24324DPPC   C2B30335  14.318   1.904  17.023 -0.1335 -0.0286  0.1351
24324DPPC   C3B30336  14.241   1.996  17.482  0.1039 -0.2441  0.0427
24324DPPC   C4B30337  14.292   1.941  17.933 -0.0042 -0.0530  0.1241
24325DPPC   NC330338  17.220   2.288  15.647 -0.0996 -0.3689  0.2180
24325DPPC   PO430339  17.324   2.580  15.892 -0.1671  0.0785  0.2628
24325DPPC   GL130340  17.323   2.557  16.293 -0.4833  0.2775 -0.1829
24325DPPC   GL230341  17.541   2.758  16.330  0.0078  0.2133 -0.0316
24325DPPC   C1A30342  17.179   2.638  16.634 -0.0686  0.0920 -0.0005
24325DPPC   C2A30343  17.207   2.588  17.053  0.0870  0.0162  0.0411
24325DPPC   C3A30344  17.342   2.575  17.517  0.0107  0.3518  0.2137
24325DPPC   C4A30345  17.312   2.507  18.032 -0.1511  0.0437 -0.2842
24325DPPC   C1B30346  17.715   2.785  16.677 -0.3851  0.1976  0.3364
24325DPPC   C2B30347  17.797   2.660  17.106  0.1680  0.0992  0.0048
24325DPPC   C3B30348  17.891   2.645  17.609  0.0444 -0.2120  0.0139
24325DPPC   C4B30349  17.869   2.650  18.116 -0.3464 -0.0612  0.5402
24326DPPC   NC330350  13.897   4.060  16.005  0.1302 -0.0956  0.1992
24326DPPC   PO430351  14.166   4.341  15.869 -0.1098  0.4631 -0.1041
24326DPPC   GL130352  14.457   4.449  16.251  0.1883  0.2532 -0.0131
24326DPPC   GL230353  14.167   4.600  16.351 -0.2199  0.3149  0.1748
24326DPPC   C1A30354  14.586   4.458  16.560  0.1566  0.0396 -0.1315
24326DPPC   C2A30355  14.364   4.621  16.903 -0.2619 -0.0368 -0.0920
24326DPPC   C3A30356  14.370   4.663  17.350  0.1048  0.2297  0.1301
24326DPPC   C4A30357  14.312   4.715  17.787 -0.1156 -0.1425 -0.3569
24326DPPC   C1B30358  13.952   4.401  16.600  0.2996 -0.0028 -0.2789
24326DPPC   C2B30359  13.882   4.522  16.982  0.2247  0.1567 -0.1198
24326DPPC   C3B30360  13.893   4.544  17.493 -0.1746 -0.0362 -0.2531
24326DPPC   C4B30361  13.849   4.515  18.009  0.0719 -0.2125  0.2203
24327DPPC   NC330362  17.622   6.011  15.665  0.2397 -0.0693 -0.0678
24327DPPC   PO430363  17.889   5.913  15.908 -0.3341 -0.0592  0.3979
24327DPPC   GL130364  17.917   5.891  16.391 -0.2887  0.1248  0.3120
24327DPPC   GL230365  17.789   5.581  16.366  0.4084  0.1637  0.1825
24327DPPC   C1A30366  18.006   5.828  16.793  0.0210  0.1553  0.1031
24327DPPC   C2A30367  17.924   5.750  17.189 -0.0242 -0.0672 -0.3253
24327DPPC   C3A30368  17.953   5.671  17.645  0.2011  0.0431 -0.1618
24327DPPC   C4A30369  18.036   5.681  18.139  0.0700  0.0608 -0.2150
24327DPPC   C1B30370  17.874   5.417  16.701 -0.2086 -0.2153 -0.3240
24327DPPC   C2B30371  17.784   5.288  17.056 -0.2071 -0.0545  0.0651
24327DPPC   C3B30372  17.764   5.226  17.526 -0.1876  0.1699 -0.2054
24327DPPC   C4B30373  17.815   5.247  17.956 -0.1200  0.3136  0.1660
24328DPPC   NC330374  17.075   6.271  16.265  0.2406  0.2784  0.3140
24328DPPC   PO430375  17.120   6.638  16.222  0.3973 -0.2586  0.0730
24328DPPC   GL130376  17.400   6.696  16.588 -0.3627 -0.0865  0.0034
24328DPPC   GL230377  17.496   6.512  16.414 -0.0625 -0.0878  0.4538
24328DPPC   C1A30378  17.379   6.617  16.973  0.2180 -0.0360  0.2166
24328DPPC   C2A30379  17.278   6.514  17.360 -0.3527  0.0029  0.1923
24328DPPC   C3A30380  17.308   6.432  17.796 -0.3210 -0.0761 -0.0622
24328DPPC   C4A30381  17.355   6.483  18.268 -0.2199  0.1049 -0.3232
24328DPPC   C1B30382  17.672   6.292  16.643 -0.1339  0.0383 -0.0237
24328DPPC   C2B30383  17.614   6.124  16.972 -0.0191 -0.1509  0.1194
24328DPPC   C3B30384  17.631   6.112  17.416 -0.0998 -0.0429 -0.0880
24328DPPC   C4B30385  17.646   6.080  17.942  0.0420 -0.0291 -0.1791
24329DPPC   NC330386  19.379   3.200  15.752 -0.0863  0.0537 -0.0342
24329DPPC   PO430387  19.122   3.501  15.737  0.0675 -0.1113 -0.1022
24329DPPC   GL130388  18.918   3.554  16.120 -0.0075 -0.0233 -0.2074
24329DPPC   GL230389  19.002   3.308  16.227 -0.1792  0.1510 -0.0497
24329DPPC   C1A30390  19.042   3.705  16.425 -0.3135  0.0427  0.0402
24329DPPC   C2A30391  19.139   3.728  16.849 -0.0640 -0.0270 -0.0220
24329DPPC   C3A30392  19.146   3.717  17.312  0.1786 -0.0263 -0.0461
24329DPPC   C4A30393  19.094   3.750  17.811 -0.1159  0.1707 -0.0827
24329DPPC   C1B30394  18.860   3.313  16.538 -0.3719  0.3718  0.1334
24329DPPC   C2B30395  18.907   3.319  17.008 -0.2769 -0.0201 -0.0011
24329DPPC   C3B30396  18.932   3.304  17.489 -0.1162 -0.0747 -0.1861
24329DPPC   C4B30397  18.857   3.355  17.963 -0.3512  0.2789  0.0986
24330DPPC   NC330398  18.983   5.115  15.821 -0.0270 -0.2611  0.3871
24330DPPC   PO430399  19.251   4.814  15.863 -0.3627  0.1941 -0.1117
24330DPPC   GL130400  19.418   4.719  16.220 -0.0099  0.0085 -0.1198
24330DPPC   GL230401  19.143   4.524  16.175  0.4578  0.1750 -0.0355
24330DPPC   C1A30402  19.392   4.678  16.567 -0.1695 -0.1089  0.2508
24330DPPC   C2A30403  19.464   4.704  16.968 -0.0786 -0.2129 -0.1826
24330DPPC   C3A30404  19.459   4.754  17.460  0.1906 -0.3516  0.1161
24330DPPC   C4A30405  19.346   4.851  17.918 -0.0147 -0.0386 -0.0095
24330DPPC   C1B30406  18.940   4.626  16.502 -0.0464  0.3540 -0.2960
24330DPPC   C2B30407  18.937   4.571  16.906 -0.1304  0.0999  0.1011
24330DPPC   C3B30408  18.941   4.571  17.367  0.0582 -0.0373  0.0088
24330DPPC   C4B30409  18.950   4.626  17.789  0.3044  0.2903  0.1698
24331DPPC   NC330410  15.598   1.846  15.913 -0.0067 -0.1587  0.0105
24331DPPC   PO430411  15.912   1.786  16.175  0.0774 -0.1587 -0.0768
24331DPPC   GL130412  16.043   1.881  16.529 -0.0730  0.0208  0.1187
24331DPPC   GL230413  16.269   1.672  16.572 -0.2991  0.0612  0.1954
24331DPPC   C1A30414  16.005   1.861  16.864 -0.4204  0.0486  0.2068
24331DPPC   C2A30415  16.113   1.859  17.244  0.1100  0.0973 -0.1456
24331DPPC   C3A30416  16.141   1.824  17.726  0.3923  0.1540  0.0509
24331DPPC   C4A30417  16.056   1.854  18.221 -0.1556 -0.1233  0.2326
24331DPPC   C1B30418  16.497   1.902  16.797  0.1351  0.0945  0.2005
24331DPPC   C2B30419  16.638   1.968  17.195 -0.0552 -0.1863  0.4809
24331DPPC   C3B30420  16.619   1.975  17.635 -0.2560  0.1449  0.0123
24331DPPC   C4B30421  16.648   1.936  18.166 -0.1189  0.1023 -0.0498
24332DPPC   NC330422  20.524   5.758  15.670  0.0942  0.4307 -0.2026
24332DPPC   PO430423  20.177   5.566  15.669  0.0794 -0.1689  0.0012
24332DPPC   GL130424  20.032   5.631  16.079 -0.1542  0.1129  0.2241
24332DPPC   GL230425  19.795   5.464  16.115  0.4817  0.3675 -0.0031
24332DPPC   C1A30426  20.089   5.892  16.350  0.3285 -0.0407 -0.0163
24332DPPC   C2A30427  20.141   5.878  16.729  0.0436 -0.0603 -0.4014
24332DPPC   C3A30428  20.158   5.817  17.182 -0.3049  0.0265 -0.1221
24332DPPC   C4A30429  20.216   5.878  17.681 -0.1068 -0.0158 -0.0483
24332DPPC   C1B30430  19.807   5.466  16.522 -0.0020  0.2525  0.1215
24332DPPC   C2B30431  19.935   5.424  16.895 -0.2956  0.0692  0.2301
24332DPPC   C3B30432  20.005   5.382  17.415  0.2402 -0.1313 -0.1103
24332DPPC   C4B30433  20.055   5.362  17.898 -0.1216  0.2733 -0.1159
24333DPPC   NC330434  16.081   3.697  16.073  0.3533  0.2115  0.0228
24333DPPC   PO430435  15.783   3.807  16.238 -0.1943  0.0942 -0.0443
24333DPPC   GL130436  15.877   3.900  16.595  0.1406 -0.1315 -0.1093
24333DPPC   GL230437  15.840   4.165  16.465 -0.1277  0.2010  0.4541
24333DPPC   C1A30438  15.881   3.932  16.948 -0.0759 -0.2145 -0.1146
24333DPPC   C2A30439  15.941   4.005  17.362 -0.0215  0.1896  0.0552
24333DPPC   C3A30440  15.987   4.056  17.811  0.2540  0.0737  0.0279
24333DPPC   C4A30441  15.983   4.024  18.239 -0.2994 -0.0882  0.0436
24333DPPC   C1B30442  15.620   4.288  16.707  0.0349  0.0927 -0.0733
24333DPPC   C2B30443  15.645   4.343  17.121  0.2705  0.0965 -0.3140
24333DPPC   C3B30444  15.593   4.356  17.621 -0.0069 -0.1239 -0.1774
24333DPPC   C4B30445  15.670   4.435  18.031 -0.0226  0.0141  0.0928
24334DPPC   NC330446  16.389   1.584  16.119  0.0213  0.3088 -0.1518
24334DPPC   PO430447  16.135   1.314  16.257  0.2187 -0.2485 -0.2867
24334DPPC   GL130448  15.805   1.266  16.562  0.2102 -0.1615 -0.0079
24334DPPC   GL230449  15.899   1.432  16.660 -0.0029  0.4859  0.0341
24334DPPC   C1A30450  15.750   1.055  16.862  0.1755  0.2300 -0.0188
24334DPPC   C2A30451  15.712   0.922  17.199  0.0160  0.2330 -0.1324
24334DPPC   C3A30452  15.719   0.868  17.721 -0.1152  0.1876 -0.0651
24334DPPC   C4A30453  15.831   0.942  18.199 -0.2368  0.1445 -0.0926
24334DPPC   C1B30454  15.908   1.398  17.004  0.0375 -0.2987 -0.1729
24334DPPC   C2B30455  15.976   1.354  17.421 -0.1442 -0.2663 -0.3523
24334DPPC   C3B30456  15.968   1.408  17.912  0.0087  0.0291  0.0424
24334DPPC   C4B30457  15.870   1.433  18.398  0.2301 -0.1775  0.2494
24335DPPC   NC330458  16.339   0.177  16.193 -0.2621 -0.0085 -0.3020
24335DPPC   PO430459  16.611  -0.124  16.179  0.1212 -0.0246 -0.1913
24335DPPC   GL130460  16.781  -0.062  16.550  0.1130 -0.3084  0.1446
24335DPPC   GL230461  16.519   0.094  16.597 -0.0237  0.2313 -0.1103
24335DPPC   C1A30462  16.980   0.136  16.767 -0.2032  0.0767  0.2865
24335DPPC   C2A30463  17.011   0.264  17.136  0.1223 -0.0286 -0.0433
24335DPPC   C3A30464  16.983   0.267  17.567  0.1201  0.1020 -0.1651
24335DPPC   C4A30465  16.982   0.260  18.069  0.1169 -0.0170  0.0641
24335DPPC   C1B30466  16.518   0.138  16.951  0.1600 -0.0247 -0.1379
24335DPPC   C2B30467  16.431   0.145  17.347  0.0662  0.2563 -0.0350
24335DPPC   C3B30468  16.503   0.119  17.819 -0.1098  0.0465  0.0486
24335DPPC   C4B30469  16.454   0.288  18.301  0.1041 -0.0282  0.0308
24336DPPC   NC330470  19.823   0.972  15.805 -0.1220 -0.0494  0.1364
24336DPPC   PO430471  20.012   0.636  15.676 -0.0321  0.3546 -0.2064
24336DPPC   GL130472  19.896   0.503  16.041 -0.0439 -0.4300 -0.0077
24336DPPC   GL230473  19.649   0.520  16.126 -0.2707 -0.4297  0.0527
24336DPPC   C1A30474  20.076   0.242  16.223  0.2843  0.0813 -0.1728
24336DPPC   C2A30475  20.076   0.125  16.634  0.1101  0.0607 -0.2479
24336DPPC   C3A30476  20.044   0.067  17.141  0.5360  0.0172 -0.4917
24336DPPC   C4A30477  20.078   0.040  17.588  0.0936  0.1337  0.1086
24336DPPC   C1B30478  19.772   0.550  16.514  0.0001 -0.3077 -0.0051
24336DPPC   C2B30479  19.788   0.450  16.911  0.2686 -0.0145 -0.2986
24336DPPC   C3B30480  19.756   0.466  17.429 -0.1398  0.1303  0.0947
24336DPPC   C4B30481  19.742   0.509  17.878 -0.0088  0.1224 -0.0786
24337DPPC   NC330482  16.867   2.705  16.338  0.0170  0.3818 -0.0543
24337DPPC   PO430483  16.503   2.556  16.217 -0.3767 -0.1959 -0.0025
24337DPPC   GL130484  16.288   2.722  16.500  0.1556 -0.0250 -0.0380
24337DPPC   GL230485  16.523   2.806  16.676  0.1661  0.0575 -0.4912
24337DPPC   C1A30486  16.030   2.752  16.795  0.1745 -0.5253 -0.5051
24337DPPC   C2A30487  15.985   2.662  17.183  0.0278 -0.0883 -0.3558
24337DPPC   C3A30488  16.004   2.709  17.614  0.0847 -0.0783  0.2538
24337DPPC   C4A30489  16.020   2.768  18.084 -0.2910 -0.0325 -0.0776
24337DPPC   C1B30490  16.438   2.753  17.067 -0.2456 -0.1917 -0.2552
24337DPPC   C2B30491  16.450   2.866  17.478  0.1458 -0.0268 -0.0392
24337DPPC   C3B30492  16.509   2.868  17.907  0.1324 -0.0877 -0.0588
24337DPPC   C4B30493  16.428   2.838  18.403  0.2177  0.1107  0.1804
24338DPPC   NC330494  19.335   1.482  15.988  0.0446  0.1475 -0.5646
24338DPPC   PO430495  19.481   1.809  15.893  0.1123 -0.1261 -0.1187
24338DPPC   GL130496  19.446   2.065  16.336 -0.3613  0.2765  0.0888
24338DPPC   GL230497  19.336   1.840  16.367  0.1412  0.0084  0.1229
24338DPPC   C1A30498  19.399   2.134  16.699 -0.0711 -0.0525  0.3952
24338DPPC   C2A30499  19.478   2.157  17.082 -0.4063 -0.0023  0.0265
24338DPPC   C3A30500  19.477   2.188  17.542 -0.1893 -0.0569  0.1622
24338DPPC   C4A30501  19.388   2.197  17.985  0.0035 -0.1779 -0.1266
24338DPPC   C1B30502  19.309   1.712  16.677 -0.0236  0.2242 -0.0418
24338DPPC   C2B30503  19.320   1.619  17.066  0.4984 -0.0698  0.0939
24338DPPC   C3B30504  19.334   1.662  17.518 -0.1028 -0.1259 -0.0065
24338DPPC   C4B30505  19.378   1.638  18.063 -0.3526  0.1785  0.1774
24339DPPC   NC330506  16.211   6.156  16.058 -0.1573 -0.0218 -0.0791
24339DPPC   PO430507  15.900   6.058  15.871 -0.3076  0.1126  0.1085
24339DPPC   GL130508  15.656   5.832  16.219 -0.0813  0.2136  0.0662
24339DPPC   GL230509  15.916   6.011  16.399  0.2149  0.0960 -0.4183
24339DPPC   C1A30510  15.520   5.702  16.520  0.0982  0.1608  0.1051
24339DPPC   C2A30511  15.598   5.651  16.936  0.0463 -0.0888 -0.0189
24339DPPC   C3A30512  15.621   5.735  17.425  0.0639  0.5110  0.1134
24339DPPC   C4A30513  15.647   5.753  17.885  0.1359 -0.1733  0.1585
24339DPPC   C1B30514  15.783   6.108  16.728 -0.0772 -0.0480  0.1795
24339DPPC   C2B30515  15.805   6.117  17.121  0.0847  0.0162  0.1182
24339DPPC   C3B30516  15.823   6.184  17.608 -0.2704  0.1231  0.0246
24339DPPC   C4B30517  15.775   6.162  18.091 -0.1952 -0.1125  0.0705
24340DPPC   NC330518  14.340   0.377  15.780 -0.3065 -0.0461  0.1517
24340DPPC   PO430519  14.448   0.315  16.163  0.2806 -0.0343 -0.1327
24340DPPC   GL130520  14.462   0.546  16.523 -0.0889 -0.2214  0.4086
24340DPPC   GL230521  14.786   0.601  16.408 -0.0551 -0.0341 -0.4098
24340DPPC   C1A30522  14.371   0.628  16.888  0.2324 -0.2937 -0.0468
24340DPPC   C2A30523  14.293   0.680  17.317  0.0025 -0.2992  0.0276
24340DPPC   C3A30524  14.322   0.746  17.817  0.1083  0.2397  0.2068
24340DPPC   C4A30525  14.292   0.717  18.312  0.3489  0.1145  0.3263
24340DPPC   C1B30526  14.897   0.651  16.795 -0.0527 -0.0750  0.2684
24340DPPC   C2B30527  14.823   0.711  17.180 -0.0293  0.1117  0.0890
24340DPPC   C3B30528  14.832   0.732  17.647  0.3077  0.1129  0.3003
24340DPPC   C4B30529  14.800   0.695  18.109  0.0463 -0.3228  0.1069
24341DPPC   NC330530  14.878   1.432  16.140  0.2490 -0.0766  0.0713
24341DPPC   PO430531  15.117   1.699  16.004 -0.1512 -0.2022 -0.3163
24341DPPC   GL130532  15.220   1.797  16.354  0.1928 -0.2074 -0.0646
24341DPPC   GL230533  15.489   1.778  16.357  0.1539  0.1856 -0.0204
24341DPPC   C1A30534  15.074   1.752  16.667 -0.1775  0.0427 -0.1022
24341DPPC   C2A30535  15.099   1.674  17.049 -0.0565  0.1152  0.2338
24341DPPC   C3A30536  15.115   1.678  17.563 -0.2421  0.1244  0.1174
24341DPPC   C4A30537  15.077   1.568  18.066  0.2958  0.1574 -0.0635
24341DPPC   C1B30538  15.610   1.777  16.727  0.0523  0.1667  0.0572
24341DPPC   C2B30539  15.602   1.724  17.103  0.1397 -0.3203  0.1430
24341DPPC   C3B30540  15.651   1.688  17.589 -0.0566  0.1173  0.2304
24341DPPC   C4B30541  15.569   1.808  18.028 -0.0306 -0.2619  0.1373
24342DPPA   PO430542  19.148   2.585  15.607 -0.0778  0.0208  0.1235
24342DPPA   GL130543  19.220   2.716  16.016  0.0384 -0.3442  0.1577
24342DPPA   GL230544  19.207   2.909  16.100  0.1323  0.1623  0.1370
24342DPPA   C1A30545  19.363   2.575  16.326 -0.0527  0.1097 -0.1744
24342DPPA   C2A30546  19.472   2.557  16.712 -0.1139 -0.1079  0.0044
24342DPPA   C3A30547  19.603   2.609  17.230  0.1091  0.1580  0.0040
24342DPPA   C4A30548  19.600   2.642  17.754 -0.1736  0.0457 -0.0164
24342DPPA   C1B30549  19.141   3.002  16.473 -0.6855 -0.4128  0.2860
24342DPPA   C2B30550  19.203   2.917  16.893  0.2631  0.0504  0.0077
24342DPPA   C3B30551  19.251   2.934  17.363 -0.1680  0.0807  0.0277
24342DPPA   C4B30552  19.246   2.992  17.855 -0.2065  0.2284  0.1093
24343DPPA   PO430553  18.052   3.799  15.721 -0.1989  0.1023 -0.0443
24343DPPA   GL130554  18.216   3.723  16.105 -0.3740 -0.1977 -0.0005
24343DPPA   GL230555  18.132   3.951  16.223  0.0148 -0.1331  0.0445
24343DPPA   C1A30556  18.172   3.598  16.441 -0.2439  0.0695  0.0888
24343DPPA   C2A30557  18.110   3.622  16.838  0.2781  0.2280  0.0137
24343DPPA   C3A30558  18.138   3.567  17.362 -0.0758  0.0561  0.1178
24343DPPA   C4A30559  18.088   3.629  17.830  0.2335  0.1073 -0.1855
24343DPPA   C1B30560  18.218   4.021  16.575  0.0965  0.1729  0.1234
24343DPPA   C2B30561  18.323   4.066  16.986  0.0656 -0.0087  0.2296
24343DPPA   C3B30562  18.265   4.028  17.461 -0.0459  0.0888 -0.1542
24343DPPA   C4B30563  18.291   4.074  18.021 -0.0781  0.0457  0.3413
24344DPPA   PO430564  16.458   3.972  15.880  0.0958  0.2374  0.0695
24344DPPA   GL130565  16.489   3.860  16.325 -0.3469  0.0383 -0.3284
24344DPPA   GL230566  16.296   3.912  16.445  0.2074  0.0849  0.4569
24344DPPA   C1A30567  16.703   3.768  16.602 -0.0178 -0.0102 -0.1199
24344DPPA   C2A30568  16.754   3.672  16.986  0.0849 -0.0319 -0.1347
24344DPPA   C3A30569  16.816   3.750  17.488  0.1328 -0.0920 -0.1620
24344DPPA   C4A30570  16.740   3.789  17.958 -0.1157  0.1115  0.0258
24344DPPA   C1B30571  16.325   4.017  16.762  0.0270  0.1261 -0.1712
24344DPPA   C2B30572  16.390   4.082  17.162 -0.2158  0.0603  0.0424
24344DPPA   C3B30573  16.462   4.145  17.661  0.0709 -0.0618 -0.0638
24344DPPA   C4B30574  16.468   4.169  18.081 -0.0763 -0.1371  0.1441
24345DPPA   PO430575  15.394   5.463  15.953 -0.2472 -0.2128 -0.2871
24345DPPA   GL130576  15.426   5.290  16.325 -0.0902 -0.1523 -0.0173
24345DPPA   GL230577  15.148   5.319  16.383 -0.2498 -0.0180 -0.0637
24345DPPA   C1A30578  15.515   5.238  16.695 -0.2056 -0.1350  0.1994
24345DPPA   C2A30579  15.559   5.185  17.084 -0.1526  0.0687 -0.1714
24345DPPA   C3A30580  15.529   5.271  17.589  0.0235 -0.0374  0.1827
24345DPPA   C4A30581  15.426   5.346  18.072 -0.1155 -0.2105  0.1918
24345DPPA   C1B30582  15.150   5.528  16.711 -0.1846 -0.2630 -0.2274
24345DPPA   C2B30583  15.165   5.636  17.120  0.2974  0.0058  0.1518
24345DPPA   C3B30584  15.100   5.723  17.595 -0.0536  0.0102  0.1936
24345DPPA   C4B30585  15.071   5.664  18.082 -0.1989  0.1443  0.0923
24346DPPA   PO430586  14.272   5.534  16.191  0.0466 -0.1279  0.0011
24346DPPA   GL130587  14.300   5.407  16.564  0.0436  0.0265 -0.1276
24346DPPA   GL230588  14.488   5.584  16.622  0.2053 -0.0239 -0.4184
24346DPPA   C1A30589  14.201   5.377  16.909 -0.1375  0.2011  0.1070
24346DPPA   C2A30590  14.112   5.444  17.281 -0.0700  0.0261  0.0915
24346DPPA   C3A30591  14.083   5.486  17.779 -0.0862  0.0577  0.1077
24346DPPA   C4A30592  14.117   5.520  18.312 -0.1554  0.0631 -0.1744
24346DPPA   C1B30593  14.684   5.519  16.896  0.0569 -0.0428 -0.4184
24346DPPA   C2B30594  14.695   5.463  17.320  0.0378 -0.1788 -0.0556
24346DPPA   C3B30595  14.656   5.576  17.766  0.1200 -0.1653 -0.2662
24346DPPA   C4B30596  14.629   5.544  18.291 -0.3462 -0.1286 -0.0909
24347DPPA   PO430597  18.051   5.457  15.704  0.4142  0.2504  0.2780
24347DPPA   GL130598  18.125   5.356  16.105  0.0012 -0.4705 -0.1844
24347DPPA   GL230599  18.250   5.600  16.182  0.0914 -0.2270 -0.0697
24347DPPA   C1A30600  18.144   5.131  16.439  0.0147 -0.1864 -0.0874
24347DPPA   C2A30601  18.112   4.902  16.808  0.1442  0.3689 -0.2410
24347DPPA   C3A30602  18.066   4.865  17.280 -0.3483 -0.0066 -0.1001
24347DPPA   C4A30603  18.101   4.867  17.763  0.1371 -0.1347  0.1750
24347DPPA   C1B30604  18.288   5.526  16.543 -0.4914  0.2861 -0.1357
24347DPPA   C2B30605  18.242   5.413  16.953  0.1959 -0.0483  0.1755
24347DPPA   C3B30606  18.300   5.329  17.434  0.3014 -0.1280 -0.0918
24347DPPA   C4B30607  18.386   5.349  17.922  0.1162 -0.0887  0.0992
24348DPPA   PO430608  13.723   3.316  15.927 -0.0187 -0.3061  0.1289
24348DPPA   GL130609  13.671   3.273  16.440 -0.0479 -0.3304  0.0051
24348DPPA   GL230610  13.913   3.196  16.524 -0.0516 -0.0944  0.5441
24348DPPA   C1A30611  13.611   3.462  16.724 -0.0553 -0.1638 -0.0056
24348DPPA   C2A30612  13.499   3.658  17.025  0.1994 -0.2754 -0.0944
24348DPPA   C3A30613  13.551   3.550  17.527  0.1167  0.0846  0.0916
24348DPPA   C4A30614  13.548   3.603  17.982 -0.1363 -0.0220 -0.3757
24348DPPA   C1B30615  13.890   3.171  16.887  0.2406  0.4816  0.5418
24348DPPA   C2B30616  13.860   3.193  17.283  0.1134 -0.3276 -0.2081
24348DPPA   C3B30617  13.859   3.191  17.792 -0.0126  0.2474  0.0952
24348DPPA   C4B30618  13.852   3.186  18.281  0.2851 -0.2997  0.2690
24349DPPA   PO430619  18.164   1.940  15.887 -0.0172  0.0249  0.1288
24349DPPA   GL130620  18.469   2.072  16.165  0.2551 -0.2030 -0.1645
24349DPPA   GL230621  18.235   2.035  16.348  0.1388 -0.2833  0.0306
24349DPPA   C1A30622  18.784   2.095  16.392 -0.2068  0.1732  0.1925
24349DPPA   C2A30623  18.963   1.990  16.789  0.0347 -0.0755  0.1364
24349DPPA   C3A30624  18.991   1.986  17.273 -0.0848  0.1521  0.3758
24349DPPA   C4A30625  18.963   2.031  17.709  0.1337  0.2363 -0.0836
24349DPPA   C1B30626  18.411   1.919  16.684  0.4069  0.0625  0.0948
24349DPPA   C2B30627  18.438   2.012  17.025 -0.4266 -0.0376  0.1390
24349DPPA   C3B30628  18.496   1.982  17.519  0.0588 -0.3011 -0.0408
24349DPPA   C4B30629  18.522   1.950  17.949 -0.5517  0.1941 -0.4921
24350DPPA   PO430630  18.333   6.336  15.861  0.1079 -0.1644  0.2249
24350DPPA   GL130631  18.214   6.084  16.148  0.0315  0.2241  0.0867
24350DPPA   GL230632  18.512   5.896  16.225  0.1028  0.1699 -0.2653
24350DPPA   C1A30633  18.154   6.250  16.436  0.1078 -0.0510 -0.4380
24350DPPA   C2A30634  18.139   6.337  16.830 -0.0892  0.1784 -0.0120
24350DPPA   C3A30635  18.077   6.256  17.278 -0.3677  0.0104  0.0901
24350DPPA   C4A30636  18.087   6.132  17.759 -0.1471  0.0404  0.0953
24350DPPA   C1B30637  18.482   5.920  16.560  0.1449 -0.0432  0.0406
24350DPPA   C2B30638  18.429   5.907  16.961 -0.0443  0.1304 -0.0528
24350DPPA   C3B30639  18.465   5.879  17.439  0.1611  0.0269  0.2388
24350DPPA   C4B30640  18.408   5.833  17.892  0.0551 -0.0579  0.2876
24351DPPA   PO430641  15.367   3.993  16.051 -0.0563 -0.0219  0.2896
24351DPPA   GL130642  15.159   3.828  16.342 -0.2642 -0.1983  0.1127
24351DPPA   GL230643  15.455   3.875  16.540 -0.1117  0.2789  0.0256
24351DPPA   C1A30644  15.031   3.788  16.682  0.5004  0.0910 -0.0312
24351DPPA   C2A30645  14.937   3.826  17.055  0.1924  0.1540 -0.2410
24351DPPA   C3A30646  14.982   3.872  17.547  0.0964  0.2740 -0.2344
24351DPPA   C4A30647  14.966   3.908  18.037 -0.2318  0.0958  0.0839
24351DPPA   C1B30648  15.459   3.911  16.904  0.2179  0.0238 -0.1694
24351DPPA   C2B30649  15.422   3.921  17.289 -0.0151 -0.1417  0.2806
24351DPPA   C3B30650  15.541   3.922  17.778  0.1869  0.2014  0.0684
24351DPPA   C4B30651  15.454   3.971  18.232 -0.2374  0.1768 -0.0958
24352DPPA   PO430652  17.888   2.810  15.980 -0.0706  0.4140  0.1295
24352DPPA   GL130653  18.154   2.800  16.429 -0.0709  0.1863 -0.0137
24352DPPA   GL230654  18.354   2.716  16.251 -0.1296  0.1831 -0.1983
24352DPPA   C1A30655  18.155   2.765  16.770  0.1318  0.1490 -0.0686
24352DPPA   C2A30656  18.294   2.746  17.151 -0.0216 -0.0695  0.2997
24352DPPA   C3A30657  18.357   2.722  17.635 -0.0763 -0.0751 -0.2680
24352DPPA   C4A30658  18.413   2.746  18.134  0.1060  0.0006  0.0233
24352DPPA   C1B30659  18.443   2.530  16.543 -0.0225  0.0095  0.0395
24352DPPA   C2B30660  18.614   2.468  16.916  0.2820  0.3412 -0.0205
24352DPPA   C3B30661  18.660   2.414  17.358  0.1166 -0.2369 -0.0132
24352DPPA   C4B30662  18.706   2.442  17.863  0.0940 -0.0385 -0.1445
24353DPPA   PO430663  18.387   3.198  15.606  0.0425 -0.1691  0.0167
24353DPPA   GL130664  18.328   3.253  15.946  0.1512  0.0443  0.1683
24353DPPA   GL230665  18.093   3.284  16.114  0.2964 -0.1736 -0.1477
24353DPPA   C1A30666  18.532   3.288  16.243  0.1389  0.4266  0.2476
24353DPPA   C2A30667  18.448   3.256  16.652  0.1472 -0.2201  0.1667
24353DPPA   C3A30668  18.410   3.219  17.132  0.3267 -0.0578 -0.1275
24353DPPA   C4A30669  18.443   3.251  17.620  0.0399 -0.1411 -0.1849
24353DPPA   C1B30670  18.066   3.188  16.492 -0.1522  0.0541  0.1659
24353DPPA   C2B30671  17.932   3.112  16.868 -0.0634  0.0804  0.0299
24353DPPA   C3B30672  18.005   3.094  17.352  0.0837 -0.0951  0.1853
24353DPPA   C4B30673  18.025   3.099  17.819  0.1921 -0.0811  0.1252
24354DPPA   PO430674  15.895   6.580  16.065  0.3153 -0.1577 -0.1117
24354DPPA   GL130675  15.802   6.487  16.442 -0.0213 -0.1367 -0.1097
24354DPPA   GL230676  15.952   6.704  16.523 -0.0017 -0.0495 -0.1281
24354DPPA   C1A30677  15.609   6.479  16.787  0.1802 -0.5159  0.2021
24354DPPA   C2A30678  15.507   6.569  17.194 -0.3379 -0.2876  0.2714
24354DPPA   C3A30679  15.491   6.609  17.630 -0.0552  0.2361  0.0575
24354DPPA   C4A30680  15.469   6.633  18.113 -0.0138  0.0912 -0.0090
24354DPPA   C1B30681  16.003   6.655  16.910 -0.0599  0.4388 -0.0731
24354DPPA   C2B30682  15.968   6.608  17.335  0.0854  0.0494  0.1000
24354DPPA   C3B30683  15.978   6.655  17.834 -0.2738 -0.1764  0.0076
24354DPPA   C4B30684  15.875   6.727  18.309 -0.0610  0.1010  0.1017
24355DPPA   PO430685  19.375   0.960  16.036 -0.0672  0.1451 -0.0481
24355DPPA   GL130686  19.589   1.001  16.366  0.5267 -0.0626 -0.0437
24355DPPA   GL230687  19.847   0.949  16.286 -0.0026 -0.1171  0.2226
24355DPPA   C1A30688  19.477   0.894  16.730  0.4807 -0.0608  0.1015
24355DPPA   C2A30689  19.485   0.810  17.137  0.2691  0.0547  0.0969
24355DPPA   C3A30690  19.441   0.865  17.552  0.0199  0.1149  0.2383
24355DPPA   C4A30691  19.475   0.896  18.050  0.3148 -0.1848 -0.2020
24355DPPA   C1B30692  19.923   0.921  16.613  0.0312 -0.1334  0.0017
24355DPPA   C2B30693  19.953   0.928  17.013 -0.1913 -0.1073  0.3462
24355DPPA   C3B30694  19.923   0.962  17.482  0.0491 -0.0516  0.2734
24355DPPA   C4B30695  19.954   0.958  18.019  0.1402  0.1464 -0.2429
24356DPPA   PO430696  19.714   1.453  15.666  0.1217 -0.1487 -0.3004
24356DPPA   GL130697  19.819   1.405  16.019 -0.2982  0.2343  0.4235
24356DPPA   GL230698  19.887   1.708  16.045 -0.0523 -0.1166  0.1149
24356DPPA   C1A30699  19.776   1.387  16.359  0.0493  0.1489 -0.0549
24356DPPA   C2A30700  19.629   1.317  16.740  0.0149  0.2784  0.0918
24356DPPA   C3A30701  19.698   1.295  17.223  0.0697  0.0170  0.1289
24356DPPA   C4A30702  19.700   1.346  17.718  0.0923  0.2280  0.0461
24356DPPA   C1B30703  19.854   1.860  16.364  0.0663 -0.2431 -0.0866
24356DPPA   C2B30704  19.775   1.837  16.774  0.1303  0.1420  0.0533
24356DPPA   C3B30705  19.798   1.781  17.277  0.1108 -0.1574 -0.1887
24356DPPA   C4B30706  19.822   1.818  17.764  0.3612 -0.2359 -0.1550
24357DPPA   PO430707  15.869   3.365  15.736 -0.1908  0.3048 -0.0528
24357DPPA   GL130708  15.752   3.128  16.106 -0.2539 -0.1637 -0.1514
24357DPPA   GL230709  15.573   3.363  16.233 -0.0775 -0.0327 -0.2243
24357DPPA   C1A30710  15.708   3.046  16.491 -0.0187  0.0568  0.0562
24357DPPA   C2A30711  15.714   3.066  16.926  0.0455 -0.5576 -0.0491
24357DPPA   C3A30712  15.626   3.008  17.424  0.1772 -0.0669 -0.0678
24357DPPA   C4A30713  15.621   3.028  17.853 -0.0572  0.2803 -0.3016
24357DPPA   C1B30714  15.363   3.474  16.533  0.2443 -0.1069 -0.1267
24357DPPA   C2B30715  15.341   3.423  16.903 -0.0374 -0.1972  0.0207
24357DPPA   C3B30716  15.233   3.401  17.312 -0.2432 -0.1988  0.3058
24357DPPA   C4B30717  15.233   3.487  17.826 -0.0827  0.1328  0.1274
24358DPPA   PO430718  15.540   0.779  15.891  0.2007 -0.0185 -0.0736
24358DPPA   GL130719  15.619   0.813  16.334 -0.1205 -0.3612 -0.1285
24358DPPA   GL230720  15.907   0.889  16.385 -0.2475  0.0574 -0.1909
24358DPPA   C1A30721  15.421   0.789  16.648 -0.1935 -0.0731  0.0251
24358DPPA   C2A30722  15.286   0.910  17.005 -0.0145  0.0760  0.0633
24358DPPA   C3A30723  15.280   0.894  17.491 -0.1755 -0.2990 -0.0733
24358DPPA   C4A30724  15.295   0.817  18.004 -0.0584  0.3496  0.1333
24358DPPA   C1B30725  15.890   0.676  16.712  0.1648 -0.0532  0.1116
24358DPPA   C2B30726  16.103   0.529  17.083  0.2704 -0.0777 -0.1184
24358DPPA   C3B30727  16.104   0.423  17.536  0.1100  0.0111  0.0316
24358DPPA   C4B30728  16.092   0.553  18.028  0.1768  0.0829  0.1881
24359DPPA   PO430729  17.899   2.378  16.221 -0.0021 -0.2526  0.2474
24359DPPA   GL130730  17.882   2.303  16.640 -0.0038 -0.0260  0.2065
24359DPPA   GL230731  17.599   2.403  16.684  0.0914  0.4702 -0.1000
24359DPPA   C1A30732  18.147   2.339  16.916 -0.0052 -0.0713 -0.0469
24359DPPA   C2A30733  18.129   2.279  17.291  0.1130 -0.0211 -0.0999
24359DPPA   C3A30734  18.180   2.240  17.776 -0.0935 -0.0721 -0.1002
24359DPPA   C4A30735  18.148   2.275  18.286  0.1063 -0.2887  0.0212
24359DPPA   C1B30736  17.623   2.177  16.970  0.3146  0.1574 -0.1987
24359DPPA   C2B30737  17.595   2.191  17.350  0.0219 -0.1164  0.1502
24359DPPA   C3B30738  17.660   2.209  17.818 -0.0165  0.1751 -0.3145
24359DPPA   C4B30739  17.646   2.264  18.302  0.0292  0.2191  0.2094
24360DPPA   PO430740  17.679   5.123  16.087 -0.0678  0.0018 -0.1373
24360DPPA   GL130741  17.522   5.239  16.489  0.1002 -0.0744  0.2102
24360DPPA   GL230742  17.744   5.091  16.499 -0.0999  0.2670 -0.0987
24360DPPA   C1A30743  17.395   5.205  16.873 -0.1824  0.2425 -0.0621
24360DPPA   C2A30744  17.307   5.183  17.262  0.0353  0.1588 -0.1636
24360DPPA   C3A30745  17.267   5.137  17.773  0.1134  0.0570 -0.0499
24360DPPA   C4A30746  17.422   5.285  18.222  0.1030 -0.2336  0.0058
24360DPPA   C1B30747  17.630   4.811  16.666 -0.1696 -0.2832  0.1311
24360DPPA   C2B30748  17.548   4.779  17.077 -0.0059 -0.0596 -0.0375
24360DPPA   C3B30749  17.590   4.752  17.646 -0.3901 -0.0734 -0.2771
24360DPPA   C4B30750  17.682   4.861  18.180 -0.2063  0.2217  0.1599
24361DPPA   PO430751  18.256   4.462  16.171  0.1487 -0.0229  0.4345
24361DPPA   GL130752  18.556   4.377  16.361 -0.1616  0.1346  0.2459
24361DPPA   GL230753  18.411   4.641  16.491 -0.3838  0.0480 -0.0973
24361DPPA   C1A30754  18.655   4.163  16.674  0.0769 -0.3514 -0.0876
24361DPPA   C2A30755  18.826   4.090  17.002  0.1180 -0.0164 -0.2850
24361DPPA   C3A30756  18.834   4.056  17.496  0.2052 -0.1250  0.3262
24361DPPA   C4A30757  18.875   4.160  17.986  0.2155  0.0738  0.2452
24361DPPA   C1B30758  18.420   4.574  16.837  0.1142 -0.0311 -0.2076
24361DPPA   C2B30759  18.472   4.522  17.226  0.2199 -0.2325  0.2323
24361DPPA   C3B30760  18.494   4.487  17.763  0.3988 -0.0650 -0.0054
24361DPPA   C4B30761  18.382   4.471  18.282 -0.0722 -0.0308 -0.1446
24362DPPA   PO430762  14.312   4.014  16.182 -0.1832  0.1569 -0.0062
24362DPPA   GL130763  14.173   3.818  16.562 -0.1804  0.1365  0.0985
24362DPPA   GL230764  14.212   4.102  16.715  0.1121  0.1665 -0.0111
24362DPPA   C1A30765  14.040   3.597  16.867 -0.0794 -0.0993  0.2881
24362DPPA   C2A30766  13.958   3.715  17.242 -0.1525  0.0301  0.0993
24362DPPA   C3A30767  14.012   3.722  17.709  0.1026  0.3886  0.0593
24362DPPA   C4A30768  13.966   3.668  18.214 -0.1033 -0.2587  0.3356
24362DPPA   C1B30769  14.150   4.165  17.054 -0.5702  0.2117 -0.1578
24362DPPA   C2B30770  14.158   4.131  17.451 -0.2080  0.1687 -0.1806
24362DPPA   C3B30771  14.163   4.121  17.971  0.1930  0.0098 -0.2790
24362DPPA   C4B30772  14.133   4.232  18.498  0.0584 -0.2916  0.2178
24363DPPA   PO430773  13.527   2.462  15.943 -0.0883  0.0144  0.1450
24363DPPA   GL130774  13.323   2.386  16.410  0.0352 -0.2135  0.1669
24363DPPA   GL230775  13.519   2.545  16.418 -0.1448  0.1845 -0.4758
24363DPPA   C1A30776  13.135   2.257  16.719  0.0186  0.0339  0.0784
24363DPPA   C2A30777  13.073   2.230  17.128  0.2186  0.1144  0.2142
24363DPPA   C3A30778  12.878   2.220  17.616 -0.1600 -0.0187  0.0245
24363DPPA   C4A30779  13.032   2.187  18.052  0.0305 -0.2113  0.0761
24363DPPA   C1B30780  13.611   2.748  16.699 -0.0675  0.3458  0.0240
24363DPPA   C2B30781  13.656   2.711  17.127  0.1315  0.2163  0.0075
24363DPPA   C3B30782  13.712   2.736  17.607 -0.0976 -0.1653 -0.2975
24363DPPA   C4B30783  13.631   2.700  18.113  0.1172 -0.1612  0.0867
24364DPPA   PO430784  20.283   1.071  15.618 -0.1289  0.0209 -0.1193
24364DPPA   GL130785  20.180   1.158  16.031  0.1334 -0.1714  0.0395
24364DPPA   GL230786  20.253   0.858  16.062 -0.0966  0.0322  0.0657
24364DPPA   C1A30787  20.204   1.166  16.415  0.0228  0.1398 -0.0130
24364DPPA   C2A30788  20.388   1.064  16.792 -0.3292 -0.0464  0.2887
24364DPPA   C3A30789  20.385   1.058  17.246 -0.0138  0.2040 -0.0068
24364DPPA   C4A30790  20.463   1.034  17.752  0.2309 -0.0455  0.2464
24364DPPA   C1B30791  20.258   0.742  16.389  0.1064  0.0277  0.1442
24364DPPA   C2B30792  20.236   0.598  16.738  0.1513 -0.2021  0.1664
24364DPPA   C3B30793  20.210   0.582  17.246 -0.2163 -0.0398  0.4401
24364DPPA   C4B30794  20.224   0.586  17.710 -0.2361  0.0979 -0.2531
24365DPPA   PO430795  17.408   2.117  16.064  0.1440 -0.3939 -0.2777
24365DPPA   GL130796  17.545   2.026  16.437  0.6366  0.0699 -0.0630
24365DPPA   GL230797  17.758   1.918  16.268 -0.4987 -0.0092 -0.2240
24365DPPA   C1A30798  17.481   1.822  16.728 -0.2698  0.3907  0.3403
24365DPPA   C2A30799  17.466   1.786  17.139  0.0219  0.1569 -0.1409
24365DPPA   C3A30800  17.429   1.742  17.645  0.1290  0.2495 -0.2614
24365DPPA   C4A30801  17.525   1.779  18.118  0.0447  0.0857  0.3517
24365DPPA   C1B30802  17.989   1.871  16.649  0.4171  0.1097 -0.4535
24365DPPA   C2B30803  17.928   1.860  17.059  0.1233 -0.3263  0.0248
24365DPPA   C3B30804  17.909   1.867  17.525  0.2993  0.1654 -0.0072
24365DPPA   C4B30805  18.032   1.809  18.011 -0.0083 -0.0137 -0.0780
24366DPPA   PO430806  20.341   5.446  20.394  0.1587  0.2632  0.0886
24366DPPA   GL130807  20.320   5.526  19.990  0.2555 -0.1346 -0.0638
24366DPPA   GL230808  20.578   5.740  20.006  0.0231 -0.0922 -0.1538
24366DPPA   C1A30809  20.250   5.449  19.675  0.1651 -0.0169  0.0361
24366DPPA   C2A30810  20.097   5.480  19.300  0.1928  0.0570 -0.2082
24366DPPA   C3A30811  20.086   5.344  18.871 -0.1459  0.0507  0.1915
24366DPPA   C4A30812  20.002   5.386  18.419  0.0578  0.0819 -0.2550
24366DPPA   C1B30813  20.574   5.953  19.717  0.1495 -0.3600 -0.0070
24366DPPA   C2B30814  20.761   6.023  19.374  0.1614  0.1116 -0.0045
24366DPPA   C3B30815  20.730   6.032  18.970 -0.0949 -0.0416 -0.0799
24366DPPA   C4B30816  20.632   5.999  18.539  0.0128  0.4262  0.3333
24367W        W30817  25.627   0.908  28.884 -0.0382  0.1828  0.1580
24368W        W30818   6.660   5.417   8.609  0.0476  0.0829 -0.3872
24369W        W30819   7.818   1.328  33.235 -0.1597 -0.1688  0.0072
24370W        W30820   6.972   3.741   1.634 -0.0216 -0.0509 -0.1832
24371W        W30821  18.120   4.961  30.472 -0.1748  0.1458  0.4967
24372W        W30822  11.945   4.274  27.863  0.1803  0.1988 -0.0035
24373W        W30823  24.484   1.891  23.089 -0.0517 -0.1700 -0.0699
24374W        W30824   6.558   3.644  31.943 -0.0586 -0.1159  0.0762
24375W        W30825   8.832   4.104  19.992 -0.1179  0.1202 -0.1434
24376W        W30826  16.077   4.743  12.409 -0.0756 -0.0816  0.1789
24377W        W30827  23.738   0.333  26.395  0.1627  0.2417  0.1511
24378W        W30828  26.287   1.021   3.647 -0.4555 -0.0626 -0.0885
24379W        W30829   1.997   5.985  20.930 -0.0111  0.0740  0.0595
24380W        W30830  24.755   4.514  34.450 -0.0696 -0.0382 -0.2599
24381W        W30831   6.368   2.095   2.621  0.2563 -0.1236  0.0684
24382W        W30832   4.200   1.310  31.069 -0.2703  0.0290 -0.0025
24383W        W30833   4.024   0.423  26.790  0.1386  0.0946 -0.0903
24384W        W30834   2.835   4.719  13.862 -0.1850  0.2427  0.0039
24385W        W30835  13.702   6.098  22.447 -0.0232 -0.2562 -0.0113
24386W        W30836  26.364   6.292   9.911  0.0905  0.2470  0.3227
24387W        W30837  11.663   4.477   5.725  0.1919  0.1045  0.1069
24388W        W30838  14.941   4.999  35.879  0.1042  0.0808  0.1967
24389W        W30839  19.974   6.171   6.630  0.1520  0.1780  0.0815
24390W        W30840   4.458   3.685  11.378  0.0687 -0.2204 -0.1736
24391W        W30841   4.499   3.416  29.987  0.1759 -0.2710  0.4220
24392W        W30842  15.706   1.267   3.989 -0.3779  0.2965 -0.0730
24393W        W30843  16.820   1.721   6.652 -0.1453  0.0291 -0.1128
24394W        W30844  19.918   3.201  28.927  0.1431  0.0876 -0.0263
24395W        W30845   5.362   0.371  22.461 -0.1440 -0.1910  0.1949
24396W        W30846  15.919   3.472  12.240 -0.0276 -0.1205 -0.0243
24397W        W30847  19.948   4.456   5.571 -0.0762 -0.3543  0.3392
24398W        W30848   2.759   1.146  31.501  0.1654  0.0224 -0.0606
24399W        W30849  13.771   0.634  23.395  0.1479  0.0484 -0.0483
24400W        W30850  14.259   5.348  14.447 -0.2219 -0.0436 -0.1860
24401W        W30851  11.186   2.035   0.903 -0.1191  0.0975  0.1100
24402W        W30852  12.457   4.177   6.269  0.3962  0.1111 -0.0409
24403W        W30853  15.400   1.812  12.316  0.1785  0.2207  0.1500
24404W        W30854   5.125   2.085   4.951  0.0116 -0.0727  0.1349
24405W        W30855   5.778   3.395   0.254 -0.1824 -0.1130  0.0674
24406W        W30856  13.043   6.528  11.529 -0.0459  0.2174 -0.0230
24407W        W30857   5.545   5.080  21.896  0.0728 -0.0614  0.1009
24408W        W30858  11.088   3.971   3.735  0.0870 -0.1089 -0.0311
24409W        W30859   7.323   1.541  25.246 -0.3650  0.0165 -0.0764
24410W        W30860  12.818   0.145  12.920 -0.1415 -0.1080  0.1393
24411W        W30861  18.340   4.389  24.372  0.1268  0.1034 -0.1052
24412W        W30862   8.288   2.700   7.569 -0.0210  0.1652  0.0722
24413W        W30863  14.276   2.369  13.501  0.0160 -0.2249  0.1982
24414W        W30864  10.578   4.687  25.382 -0.1034 -0.1588 -0.0517
24415W        W30865   4.520   6.315  20.956 -0.0452  0.0749 -0.0623
24416W        W30866  19.782   1.382  30.246  0.0820  0.0127 -0.1879
24417W        W30867  18.399   4.443  33.835  0.0257 -0.2021  0.0891
24418W        W30868  22.996   3.943  32.393  0.0780 -0.1707 -0.1395
24419W        W30869  13.135   5.314   6.216  0.1386 -0.1927  0.0169
24420W        W30870  24.073   2.334  22.552 -0.0242  0.1571 -0.3112
24421W        W30871   9.130   1.319  21.880  0.1094  0.2357 -0.1379
24422W        W30872  15.772   0.822   9.240  0.1364  0.4142  0.0189
24423W        W30873   4.371   5.445  30.681  0.0806  0.3093 -0.0263
24424W        W30874   2.594   5.304  21.888 -0.1187 -0.1597  0.2025
24425W        W30875   0.721   3.089  13.357 -0.0187  0.1190 -0.0951
24426W        W30876  12.844   1.832   0.572 -0.1557  0.0068  0.0353
24427W        W30877   0.879   2.867  23.454  0.0184  0.1108  0.0189
24428W        W30878   7.411   2.432   1.119 -0.1576  0.2956 -0.1114
24429W        W30879  11.518   0.962  14.787  0.0310 -0.1940  0.0301
24430W        W30880  20.261   3.504  33.515  0.1630 -0.1220 -0.0345
24431W        W30881   0.733   2.495   7.478 -0.0247  0.2438  0.0968
24432W        W30882  18.669   4.869  13.024  0.1016 -0.2431  0.1947
24433W        W30883  25.655   6.462  32.525  0.1802  0.4506  0.0497
24434W        W30884   4.384   4.579  13.136 -0.1509 -0.1729 -0.3756
24435W        W30885   4.722   5.350   3.860 -0.4299 -0.3212 -0.2169
24436W        W30886  22.740   6.301  31.058 -0.0641 -0.0947 -0.1604
24437W        W30887  14.595   5.715  14.412  0.0803 -0.0100 -0.0812
24438W        W30888  26.377   4.043  29.927 -0.0452 -0.2540  0.0809
24439W        W30889   0.163   2.164  31.881 -0.0811  0.0598 -0.3767
24440W        W30890  25.395   0.898  22.910  0.0345  0.0932  0.1451
24441W        W30891   3.694   3.826   5.757 -0.0191 -0.1566  0.1633
24442W        W30892  12.930   5.229  35.870  0.0748 -0.1476 -0.1759
24443W        W30893  11.434   4.386  27.766  0.1184 -0.1717  0.1502
24444W        W30894  17.427   3.439   9.305 -0.2072 -0.2032 -0.1981
24445W        W30895  17.061   6.022   7.941 -0.0169  0.3713 -0.0748
24446W        W30896  20.486   1.663  31.454 -0.0167  0.1191  0.0135
24447W        W30897  18.922   1.326   9.845  0.0781  0.1451  0.0237
24448W        W30898   5.879   3.698  35.041  0.0711  0.0327  0.1036
24449W        W30899  13.493   1.648   4.247  0.3416  0.1300 -0.0951
24450W        W30900  20.656   4.264  12.953 -0.2674 -0.1065 -0.0972
24451W        W30901   8.778   5.763  25.960 -0.1174 -0.1337 -0.2269
24452W        W30902  15.615   0.948  21.419  0.0873 -0.0659 -0.3890
24453W        W30903  18.518   4.297   6.899  0.3024  0.2737  0.0163
24454W        W30904   8.550   6.017   4.602  0.1962 -0.3398  0.0630
24455W        W30905   5.183   5.463   5.075  0.2545 -0.0073 -0.0603
24456W        W30906   4.923   2.155   1.877  0.1077  0.1448  0.1188
24457W        W30907   7.547   6.017  28.609 -0.0053  0.0046 -0.2520
24458W        W30908   9.126   6.278   2.993  0.2720  0.0629  0.3204
24459W        W30909  15.354   5.892   0.020 -0.0918 -0.0081  0.2928
24460W        W30910  13.892   2.432  28.375  0.2653 -0.3837 -0.3787
24461W        W30911  23.416   1.277  33.073 -0.2848  0.0747  0.0159
24462W        W30912   8.818   4.810  12.670 -0.2176  0.0349  0.0373
24463W        W30913   7.016   0.114   2.194 -0.0700 -0.2224 -0.1426
24464W        W30914   9.982   3.269   0.023  0.4316 -0.0260 -0.2151
24465W        W30915   7.861   2.577  34.556  0.0093 -0.1181  0.2395
24466W        W30916  20.155   0.203  29.098 -0.1838  0.0191 -0.1753
24467W        W30917  12.220   6.050   1.272  0.0953  0.3254 -0.3497
24468W        W30918   3.063   0.833  31.738  0.0650  0.1289 -0.2464
24469W        W30919   1.937   4.381  25.198 -0.2020 -0.0906  0.1159
24470W        W30920  10.600   0.878   6.608  0.0865  0.2412 -0.1673
24471W        W30921  14.463   2.500  32.942  0.1040 -0.1389 -0.1087
24472W        W30922  21.744   4.251   6.297  0.0115  0.0038 -0.0259
24473W        W30923  25.973   3.147  30.901 -0.0312 -0.1608 -0.2348
24474W        W30924   6.561   6.091  32.568  0.0295  0.1021 -0.0137
24475W        W30925  23.741   4.560   5.476 -0.0784  0.2813  0.0968
24476W        W30926  13.199   3.752  11.247 -0.1295  0.1535 -0.0950
24477W        W30927   2.210   4.523  29.684 -0.1406 -0.0914  0.0363
24478W        W30928   2.945   1.534   4.581 -0.0674  0.0081 -0.2211
24479W        W30929  17.635   0.494  22.225 -0.1865  0.1472 -0.0056
24480W        W30930   1.708   2.212  26.130 -0.1740 -0.0137 -0.1360
24481W        W30931  24.952   6.418  26.020 -0.0705 -0.0468  0.1024
24482W        W30932  25.378   1.293   7.359  0.0040  0.1348 -0.1851
24483W        W30933  24.357   4.279   3.926 -0.3045  0.0118  0.1268
24484W        W30934   4.139   0.864   1.436 -0.0125 -0.0859  0.1155
24485W        W30935   2.402   3.228   4.747  0.2426 -0.0247  0.2576
24486W        W30936   0.641   3.819   0.395 -0.1050 -0.2762  0.0402
24487W        W30937   4.279   1.367  30.163 -0.1208  0.2786 -0.2575
24488W        W30938   4.467   1.627   0.409  0.0700 -0.0075 -0.2480
24489W        W30939   2.457   4.598  31.334  0.0180 -0.0787  0.0984
24490W        W30940  13.427   3.434  10.648  0.0362  0.0399  0.0552
24491W        W30941  11.517   3.433  34.116 -0.3375 -0.0492  0.0018
24492W        W30942   0.902   0.111  12.877  0.0737  0.0982 -0.2671
24493W        W30943   6.381   3.584  27.978  0.2407 -0.1436  0.0805
24494W        W30944  22.276   3.033   0.678 -0.0996 -0.1492  0.1969
24495W        W30945   1.057   0.645   5.687  0.1836  0.2823  0.2563
24496W        W30946  25.119   5.155  28.758 -0.0476  0.0674 -0.0601
24497W        W30947  20.769   0.216  34.481 -0.0351  0.2157 -0.0078
24498W        W30948  25.613   0.423  12.145 -0.0834 -0.0625 -0.2873
24499W        W30949  14.076   5.058   3.582  0.2536  0.2014 -0.0202
24500W        W30950  13.065   1.439   4.728  0.1317  0.3378 -0.1266
24501W        W30951   9.536   3.565  10.121  0.1648 -0.2002 -0.1017
24502W        W30952  15.323   3.355   2.808 -0.1056  0.1166  0.0067
24503W        W30953  11.506   3.273  28.570 -0.1988  0.1882 -0.0665
24504W        W30954  26.422   1.195   7.291 -0.0974 -0.2611 -0.2019
24505W        W30955  26.326   2.365  33.217  0.0307 -0.2628 -0.2062
24506W        W30956   5.684   3.077  34.803  0.2073  0.2554  0.0615
24507W        W30957   2.888   4.242  15.016 -0.0001 -0.0330 -0.0678
24508W        W30958  24.517   2.314   7.237  0.0129  0.0171 -0.0541
24509W        W30959   1.569   3.634   2.730 -0.0808 -0.1839 -0.0558
24510W        W30960   1.949   2.138  27.492  0.3432 -0.2361 -0.0337
24511W        W30961  24.382   4.825  26.761  0.1015 -0.0424 -0.0738
24512W        W30962   3.224   1.417  28.746  0.0457 -0.0887 -0.0121
24513W        W30963  19.096   2.162  16.103  0.1498  0.1231 -0.0310
24514W        W30964  19.106   2.556   0.396  0.0148 -0.2441  0.0987
24515W        W30965   4.470   2.377  29.140 -0.2066  0.0189  0.0297
24516W        W30966  11.250   6.564  14.551  0.1099  0.2354  0.0373
24517W        W30967  12.107   4.109   2.820  0.1401  0.1507  0.1590
24518W        W30968  11.738   6.059  33.452 -0.0743 -0.2043  0.0279
24519W        W30969   2.074   1.314  25.180  0.0159  0.2371  0.1138
24520W        W30970  23.822   1.273  30.766 -0.1174  0.1749  0.1172
24521W        W30971  11.214   2.029  25.499 -0.0338  0.2339  0.3654
24522W        W30972   1.737   5.474  35.061  0.3515 -0.1919  0.0146
24523W        W30973  16.017   6.027   8.904 -0.0771  0.1350 -0.0190
24524W        W30974  18.946   0.548  26.490 -0.0235 -0.2188 -0.0169
24525W        W30975  15.673   6.040  11.025  0.2947  0.1634 -0.0305
24526W        W30976  25.858   1.409  30.918 -0.3566  0.1964  0.2307
24527W        W30977   9.276   5.386  20.535  0.0831  0.4556 -0.0417
24528W        W30978  12.514   0.189  34.837  0.0532 -0.2538 -0.1182
24529W        W30979  19.990   2.565  32.471  0.3124 -0.1572  0.2015
24530W        W30980  21.883   2.735   7.619  0.0953 -0.2178 -0.4158
24531W        W30981   0.061   3.239  11.709  0.1701  0.2397 -0.2523
24532W        W30982  24.315   2.746  25.439 -0.2420  0.0999 -0.1542
24533W        W30983  13.170   0.236  13.924  0.2016 -0.1099 -0.0337
24534W        W30984  22.330   5.330  10.765  0.1190 -0.0235  0.0977
24535W        W30985  19.090   3.070  10.336 -0.2487  0.1368  0.2715
24536W        W30986   3.371   4.289  20.783  0.0175  0.1514 -0.1724
24537W        W30987  22.406   5.281  12.303 -0.2693  0.1756  0.1326
24538W        W30988   6.519   2.011   9.508 -0.1748 -0.1642  0.0064
24539W        W30989  16.944   1.321  32.948 -0.1187  0.1631  0.0509
24540W        W30990  21.989   5.568   5.789 -0.3696  0.0677 -0.0993
24541W        W30991  14.705   5.171  14.783 -0.1645 -0.0085 -0.1806
24542W        W30992  13.051   3.609  22.348 -0.1584  0.1762 -0.0847
24543W        W30993  17.992   0.953   3.520  0.1919 -0.0023 -0.5116
24544W        W30994  18.705   1.954  26.804 -0.2256  0.0607 -0.1678
24545W        W30995  10.460   6.499  35.746 -0.0434  0.2004  0.0214
24546W        W30996  25.227   0.895   8.348  0.1829  0.1016 -0.0268
24547W        W30997   0.411   2.784  12.649  0.0220  0.2994  0.0679
24548W        W30998   5.057   3.814   7.317 -0.2922  0.1626  0.0683
24549W        W30999   9.781   4.619   4.093 -0.0531 -0.0479 -0.0409
24550W        W31000   9.896   1.229  20.748 -0.0861  0.2290  0.0633
24551W        W31001  26.253   2.776   1.089  0.2253 -0.3757 -0.0465
24552W        W31002  17.434   5.676  13.415  0.0442 -0.0389 -0.0715
24553W        W31003  10.732   2.922  23.782  0.0453  0.3870  0.1162
24554W        W31004  10.879   6.275  26.956  0.0466 -0.0324  0.2471
24555W        W31005   3.602   3.104  13.681  0.1806  0.2679  0.1935
24556W        W31006  21.163   2.445  26.106  0.1259  0.0499  0.4029
24557W        W31007  26.373   2.078  25.816 -0.4079 -0.1529  0.0664
24558W        W31008  20.107   2.928   6.053 -0.1047 -0.2281 -0.1267
24559W        W31009   3.364   2.798  32.257  0.3273 -0.0055 -0.4834
24560W        W31010  21.450   4.934  10.544  0.1834  0.0006  0.1350
24561W        W31011   2.308   5.518  30.905  0.0496  0.0443 -0.0461
24562W        W31012  22.717   4.520  24.400  0.0929  0.4349  0.0859
24563W        W31013  14.536   4.368  13.936  0.0186  0.1277  0.2202
24564W        W31014  14.364   3.178   5.295  0.2723  0.1439 -0.0035
24565W        W31015  24.536   6.317  14.551  0.2173 -0.1764  0.1157
24566W        W31016  18.789   5.070  32.382  0.2056 -0.5731 -0.1227
24567W        W31017  21.894   1.632  23.213  0.0814  0.1042 -0.1216
24568W        W31018  21.499   5.592  24.688  0.0628  0.2058 -0.2077
24569W        W31019   4.974   5.393  26.733 -0.1787  0.0859  0.2089
24570W        W31020   9.425   5.095   7.420  0.0525 -0.1031  0.0663
24571W        W31021  25.733   3.105   8.960  0.2913  0.0234 -0.2974
24572W        W31022  12.656   5.233  31.319 -0.3086  0.0186  0.0113
24573W        W31023   2.871   3.381  23.656 -0.0756  0.0293 -0.1636
24574W        W31024   3.828   2.117  27.531 -0.0930  0.3447 -0.2924
24575W        W31025  11.323   2.873   2.060 -0.1813  0.1298  0.0539
24576W        W31026  17.034   1.007  28.222 -0.2828  0.0940 -0.0925
24577W        W31027   9.820   3.391   0.632  0.0559 -0.1881  0.3424
24578W        W31028  11.761   5.945   5.182 -0.0679 -0.0044  0.0563
24579W        W31029  17.506   2.212   0.842  0.2394  0.0551  0.1425
24580W        W31030  12.131   1.495  26.742 -0.1314 -0.1601 -0.0255
24581W        W31031   0.060   6.320  29.796 -0.0433  0.0097  0.1084
24582W        W31032   4.775   2.395  25.712  0.2293 -0.1253 -0.0665
24583W        W31033   1.859   0.558   0.467 -0.2733  0.0808 -0.0614
24584W        W31034   9.586   3.460  27.808 -0.0864 -0.3766  0.0564
24585W        W31035   0.457   2.100   8.413  0.1961 -0.1357 -0.0715
24586W        W31036  15.629   1.741  32.104  0.2975 -0.1541 -0.1655
24587W        W31037   9.621   3.458  34.711 -0.2318  0.1773  0.0103
24588W        W31038  16.148   6.223   1.266  0.1147 -0.0626 -0.3489
24589W        W31039   5.765   5.935   0.863 -0.1821 -0.1338  0.1183
24590W        W31040   5.715   2.528   0.826  0.3748  0.1277 -0.0566
24591W        W31041  17.285   4.018  22.404  0.0862 -0.1163  0.0507
24592W        W31042   2.844   3.102  23.159  0.1740 -0.1543 -0.1026
24593W        W31043  14.088   2.742   5.305 -0.0129  0.0169  0.4251
24594W        W31044   2.177   2.683  27.259  0.2051 -0.0011  0.2212
24595W        W31045  26.028   0.469  14.825 -0.3460 -0.0487 -0.2694
24596W        W31046   6.137   3.167  33.481 -0.0415 -0.3373 -0.0128
24597W        W31047  14.703   5.588  35.630 -0.3298  0.1142 -0.1814
24598W        W31048  25.280   6.405  12.578 -0.2925  0.2684  0.0128
24599W        W31049   2.539   1.321  30.902  0.0237 -0.1945 -0.2896
24600W        W31050  22.979   4.512   8.452 -0.0316  0.0211 -0.3905
24601W        W31051   7.621   4.064   5.273 -0.0276 -0.0898  0.2832
24602W        W31052   7.309   0.608  31.613  0.5537 -0.4012 -0.2098
24603W        W31053   1.101   1.085  33.285  0.0825 -0.0649  0.0610
24604W        W31054  12.888   2.844   7.426  0.0266  0.1875 -0.3948
24605W        W31055   3.947   3.128  34.097  0.1916  0.1030  0.0323
24606W        W31056   1.475   3.845   3.481 -0.0363 -0.2284  0.0387
24607W        W31057  16.682   1.289  13.521 -0.1187 -0.3584 -0.1732
24608W        W31058   5.528   4.647  10.433 -0.0298 -0.1974  0.2180
24609W        W31059  23.473   5.488  22.085  0.0175  0.2733 -0.0697
24610W        W31060  22.903   6.154  27.095  0.0331  0.3585  0.0614
24611W        W31061  10.728   4.374   9.551  0.2646 -0.1484  0.4759
24612W        W31062  12.839   6.505  35.062 -0.0834  0.1690  0.1044
24613W        W31063   9.449   4.507   7.333 -0.0713  0.1004 -0.0160
24614W        W31064  25.769   2.768  12.881  0.3054 -0.4014  0.0423
24615W        W31065  19.134   2.861  32.752  0.0688  0.0574 -0.3655
24616W        W31066   4.277   2.297  21.698  0.0768  0.0837  0.0592
24617W        W31067  15.623   1.435   9.794  0.1881 -0.3007 -0.0460
24618W        W31068  15.912   3.479  31.590 -0.0835 -0.0861  0.2172
24619W        W31069  16.122   4.012  29.904 -0.1016 -0.0318  0.3973
24620W        W31070   3.731   0.525  13.315 -0.2305 -0.2610 -0.0587
24621W        W31071  15.273   5.483  29.522  0.0403 -0.0994  0.0044
24622W        W31072  17.658   2.414  15.228  0.0587 -0.3564  0.0790
24623W        W31073   5.661   1.929  11.753  0.0612  0.2863 -0.1826
24624W        W31074  15.976   4.187  23.358  0.2410 -0.0229  0.0690
24625W        W31075  21.186   2.908   9.222 -0.0262  0.1752 -0.3421
24626W        W31076  17.330   3.602   1.552  0.2568  0.0616 -0.0854
24627W        W31077   6.664   1.892  32.441  0.0593  0.2289  0.1857
24628W        W31078  15.565   2.529  10.182 -0.1779  0.0271  0.0025
24629W        W31079   1.875   0.156   5.840 -0.2194  0.0080 -0.0689
24630W        W31080  16.416   0.488  27.605  0.0861 -0.1413 -0.0153
24631W        W31081   5.557   6.106  13.797  0.1448 -0.1477 -0.1144
24632W        W31082  13.381   2.989   8.018  0.0492  0.1082  0.1656
24633W        W31083   8.603   1.362  32.401  0.1427  0.3266 -0.1780
24634W        W31084  16.085   5.193   0.336  0.0445 -0.1003  0.0759
24635W        W31085  12.292   5.636  13.176  0.0619  0.0673  0.0644
24636W        W31086  25.340   4.683  29.583  0.1307  0.1974  0.0806
24637W        W31087  14.510   2.657  24.689  0.2380 -0.0477  0.1554
24638W        W31088  16.023   0.813   2.219  0.0284 -0.5099 -0.1934
24639W        W31089  19.736   5.699  25.871  0.1806 -0.1731  0.1187
24640W        W31090  13.303   3.809   7.639  0.2905  0.1936  0.2763
24641W        W31091   1.857   3.042  35.581  0.3493  0.2008  0.0181
24642W        W31092  25.324   2.251  21.570 -0.1706 -0.0992 -0.3508
24643W        W31093  16.005   3.375   4.017  0.1065 -0.2487 -0.0711
24644W        W31094  24.106   2.926  14.855 -0.1347  0.0162 -0.2615
24645W        W31095   0.583   4.658  13.211 -0.0167  0.1404 -0.3415
24646W        W31096  11.447   5.042  13.925 -0.0832  0.4415  0.0721
24647W        W31097  12.976   4.649   4.833  0.0158 -0.1086  0.3322
24648W        W31098  13.499   2.459  35.024 -0.1177 -0.1102 -0.2282
24649W        W31099   5.491   5.325   0.895  0.0345  0.0101  0.2232
24650W        W31100   7.241   3.937   2.672 -0.1468  0.0622 -0.2867
24651W        W31101  12.307   2.933  15.062  0.0709 -0.3842  0.1403
24652W        W31102   6.362   3.891  14.772 -0.1406  0.1996 -0.3122
24653W        W31103  22.248   0.183  29.421  0.1903  0.0874 -0.3575
24654W        W31104   4.770   3.468   1.051 -0.3049 -0.0788  0.0620
24655W        W31105   5.068   3.959  27.542  0.0410 -0.0688 -0.1149
24656W        W31106  21.401   2.470   6.341 -0.2009 -0.2775  0.2668
24657W        W31107   1.187   0.129  23.871  0.1655  0.0156  0.1877
24658W        W31108  22.407   5.531  32.864  0.0332 -0.0732 -0.1675
24659W        W31109  17.312   0.650  12.379 -0.0279  0.1503  0.0787
24660W        W31110  21.396   4.720  24.329  0.0550  0.0033 -0.1042
24661W        W31111   0.002   5.724   5.140  0.0327  0.3824 -0.0412
24662W        W31112  25.476   4.881   8.516  0.1151 -0.0828 -0.0542
24663W        W31113   1.172   5.820  12.824  0.0363  0.3001 -0.1086
24664W        W31114  17.629   3.811   8.886 -0.1298 -0.1481  0.0449
24665W        W31115  12.287   5.915   9.306 -0.0777  0.0850  0.1617
24666W        W31116   1.307   5.620  26.899 -0.1230 -0.3831  0.1410
24667W        W31117  12.949   1.311   6.522 -0.1927 -0.0228  0.0704
24668W        W31118  21.866   2.244   4.735 -0.0733  0.0147  0.1242
24669W        W31119   5.942   3.118   8.355  0.2007 -0.0106  0.0349
24670W        W31120   3.566   0.799  30.532 -0.0176 -0.5085 -0.0374
24671W        W31121  11.520   5.808  35.815 -0.0592  0.0191  0.1571
24672W        W31122   3.245   1.567  30.828  0.1672  0.0779  0.0813
24673W        W31123  14.909   5.047  34.587 -0.3446 -0.0308  0.0811
24674W        W31124  22.898   0.015  22.123  0.0072 -0.1518  0.1226
24675W        W31125  11.929   3.083  24.373  0.0089  0.0911  0.0384
24676W        W31126  25.100   0.830  31.933  0.1342  0.1743 -0.1319
24677W        W31127  21.229   2.088  34.657 -0.0914  0.2988  0.2142
24678W        W31128   1.894   1.003  30.302 -0.1541 -0.1379 -0.2479
24679W        W31129  25.455   2.065  11.613 -0.3571  0.0315 -0.2420
24680W        W31130  24.708   5.878   2.843  0.0136 -0.2052  0.1126
24681W        W31131  22.540   3.862   5.942 -0.3054  0.0119  0.0569
24682W        W31132  11.491   3.548  14.048 -0.1016 -0.0611 -0.0050
24683W        W31133  14.025   1.696  32.531  0.1407 -0.0484 -0.0028
24684W        W31134  22.823   5.340  13.302  0.1935  0.3575 -0.4325
24685W        W31135   8.887   1.991  30.032  0.0736  0.1734  0.1022
24686W        W31136   0.553   1.351  24.473  0.2410 -0.0125 -0.0492
24687W        W31137   8.371   5.039  11.748  0.0170  0.1221 -0.0417
24688W        W31138  14.830   4.133  30.699  0.1072  0.0665  0.0784
24689W        W31139  22.590   2.994  32.681  0.1715  0.0023 -0.0833
24690W        W31140  24.389   4.319   6.842 -0.0734 -0.0764 -0.0193
24691W        W31141   8.940   4.445  12.320 -0.1482  0.0244 -0.0085
24692W        W31142  15.203   2.621  11.467 -0.2717 -0.0147 -0.1434
24693W        W31143   1.748   0.243  21.154 -0.1768  0.1645 -0.3281
24694W        W31144   9.391   5.916   3.073  0.1027 -0.0319 -0.4022
24695W        W31145   3.836   1.344   3.218 -0.4330 -0.2349 -0.1398
24696W        W31146  11.285   3.903  35.431  0.5068 -0.1022  0.1009
24697W        W31147   0.127   5.204  23.719  0.0002  0.0596 -0.1592
24698W        W31148  13.977   2.665  32.914  0.1294 -0.3217 -0.0184
24699W        W31149  24.388   4.764  35.197 -0.0224  0.1467  0.0281
24700W        W31150  20.401   0.593  34.562 -0.1139 -0.0215 -0.1028
24701W        W31151   0.810   6.101  13.060 -0.1131 -0.1461 -0.2015
24702W        W31152   2.229   0.597  34.974  0.3384  0.1162 -0.2193
24703W        W31153  25.828   1.621   0.787  0.3827  0.0039 -0.1635
24704W        W31154   1.372   1.472  30.042  0.1387  0.1997  0.0918
24705W        W31155   4.421   1.313  12.429 -0.1381 -0.3316 -0.1812
24706W        W31156   9.890   6.021  31.748  0.4119 -0.0466 -0.0201
24707W        W31157   2.040   3.499  31.693 -0.1157  0.4436  0.1726
24708W        W31158   9.103   5.869  26.728 -0.0334 -0.0755 -0.0789
24709W        W31159  21.785   1.533  33.577 -0.2646  0.2728  0.1896
24710W        W31160  18.767   0.356  33.705  0.0289  0.1819  0.2319
24711W        W31161  11.502   0.692  29.456 -0.3387  0.1870 -0.2474
24712W        W31162   5.196   2.406  25.388 -0.1701 -0.1545 -0.1729
24713W        W31163  18.600   1.019  24.202 -0.0113 -0.1757  0.1383
24714W        W31164  19.912   1.518  10.511  0.0505  0.2190 -0.3182
24715W        W31165  22.063   3.316  28.300 -0.0392 -0.0555 -0.1062
24716W        W31166  10.061   5.553  13.043  0.2754 -0.0894 -0.0465
24717W        W31167  10.295   5.159   9.845  0.0221 -0.1039 -0.0217
24718W        W31168  17.181   1.341   6.160 -0.0824  0.0179  0.0927
24719W        W31169  21.394   0.696   4.598  0.0599 -0.0528 -0.0534
24720W        W31170   8.678   3.197  25.170 -0.0827  0.2002  0.0488
24721W        W31171  12.253   2.879   6.566  0.0964  0.3418 -0.2298
24722W        W31172   1.508   6.308   4.083  0.3347  0.0695 -0.2388
24723W        W31173  15.294   4.113  36.143 -0.0253 -0.2815  0.2517
24724W        W31174  19.412   3.098   5.239 -0.2036 -0.1529  0.1138
24725W        W31175  13.470   4.467   3.633  0.1306 -0.1110 -0.2173
24726W        W31176   2.625   0.770   3.838 -0.1777  0.1973 -0.0207
24727W        W31177   5.956   4.373  30.067  0.1223  0.2196 -0.0705
24728W        W31178  24.971   3.087  23.714 -0.1040  0.1378  0.0482
24729W        W31179  18.385   0.027   5.651 -0.3491  0.2948  0.0802
24730W        W31180  24.312   2.835  24.955 -0.0664 -0.1252  0.1135
24731W        W31181   3.396   1.009  33.470 -0.1312 -0.3046 -0.1717
24732W        W31182  12.487   4.931  11.376  0.0541  0.1843  0.0717
24733W        W31183  18.205   2.095  27.349 -0.2268 -0.1172  0.2363
24734W        W31184   8.398   2.833  10.601  0.1486  0.0301  0.1616
24735W        W31185  25.363   3.865  23.336  0.0758  0.3004  0.1499
24736W        W31186  12.699   6.431  29.579 -0.1590  0.0147 -0.2528
24737W        W31187  11.098   4.228  29.987 -0.3132 -0.2909 -0.0106
24738W        W31188   3.876   4.211  10.801  0.2078 -0.0594 -0.1316
24739W        W31189   8.919   1.762   4.802 -0.2723  0.1345  0.2112
24740W        W31190  13.132   1.401  31.447  0.2052 -0.0031  0.0734
24741W        W31191   4.485   3.750  22.294  0.2748 -0.3014 -0.1989
24742W        W31192  12.920   4.488  36.022 -0.4694 -0.2351  0.1699
24743W        W31193  23.386   2.237  25.038 -0.2798 -0.1184  0.1855
24744W        W31194  11.434   4.003   9.106 -0.1887 -0.1656 -0.0512
24745W        W31195  17.653   6.555  24.665  0.3327  0.0815  0.3413
24746W        W31196   4.145   1.242  20.343  0.2300 -0.2308 -0.1288
24747W        W31197  19.849   1.584   8.925  0.0535 -0.0252 -0.3136
24748W        W31198  22.102   0.523   2.099 -0.2188  0.3769 -0.0238
24749W        W31199  14.149   5.568   3.488  0.2797  0.1237  0.1583
24750W        W31200   0.247   4.434  14.500 -0.0889 -0.1163 -0.1878
24751W        W31201   1.746   3.954  31.536  0.3188  0.3337 -0.1511
24752W        W31202   0.427   5.409  21.150  0.1284 -0.0288 -0.1245
24753W        W31203  22.747   3.869  21.439 -0.0347 -0.1464 -0.0532
24754W        W31204  19.845   2.897   5.570 -0.1594  0.1511 -0.0961
24755W        W31205  26.036   0.054  26.604  0.2115 -0.4889 -0.1350
24756W        W31206  18.623   2.000  36.142 -0.1197  0.0538  0.0134
24757W        W31207   3.018   5.294  13.150 -0.2773  0.1468  0.3548
24758W        W31208  13.519   1.219  26.918  0.1096 -0.0596 -0.0982
24759W        W31209  17.535   6.577   5.151  0.0941  0.0509 -0.0217
24760W        W31210   6.624   2.054  22.051  0.2188  0.2346 -0.2179
24761W        W31211   0.137   5.837   4.607 -0.0621 -0.0332  0.0472
24762W        W31212   3.309   2.083  34.826 -0.4284 -0.2737  0.0570
24763W        W31213   1.389   2.927   9.026 -0.0922  0.0981 -0.0823
24764W        W31214  20.066   2.674  35.434 -0.3421  0.1530  0.1600
24765W        W31215   2.709   3.658  29.766 -0.0250  0.0076  0.1887
24766W        W31216   5.367   1.111  21.210  0.1611 -0.1071  0.1407
24767W        W31217  13.888   3.679  25.788  0.0317 -0.0379 -0.0514
24768W        W31218   8.513   6.363  34.819  0.2193 -0.1455  0.1708
24769W        W31219   5.262   4.756   4.212  0.2829  0.3237  0.0547
24770W        W31220  21.651   3.443   3.523 -0.1628  0.1564 -0.3254
24771W        W31221  12.678   1.425  30.212  0.0362 -0.0488 -0.2401
24772W        W31222  17.480   4.558   1.703  0.0724 -0.0508 -0.1708
24773W        W31223   8.635   5.813  35.528 -0.0597  0.1216  0.2764
24774W        W31224   3.203   2.306   1.159 -0.3175 -0.0802  0.1745
24775W        W31225   9.427   4.456  33.391 -0.2750 -0.2198 -0.1816
24776W        W31226   9.417   3.783   2.912 -0.1076  0.0427  0.0819
24777W        W31227  18.470   4.907   7.828 -0.3059  0.0708 -0.0656
24778W        W31228  17.855   1.733   2.106 -0.1656  0.0005 -0.0145
24779W        W31229  16.643   1.655  15.644  0.1857  0.1037 -0.1464
24780W        W31230   4.619   3.109   1.734  0.2906 -0.1756 -0.0296
24781W        W31231   7.481   2.181  22.635 -0.0459  0.2440 -0.1698
24782W        W31232  22.161   0.243   5.825 -0.0773 -0.0374 -0.0633
24783W        W31233  12.591   4.427  26.894 -0.0361  0.0227  0.2891
24784W        W31234   5.712   1.202  30.163  0.4336  0.2301  0.2802
24785W        W31235  20.532   2.487  34.452 -0.0755 -0.1216  0.1299
24786W        W31236   5.791   3.805  22.195 -0.0767 -0.1051  0.0867
24787W        W31237   2.044   5.028   6.220 -0.0111 -0.0369 -0.0931
24788W        W31238  23.490   5.721  24.364  0.1335  0.1795 -0.1505
24789W        W31239   1.028   3.751  23.323  0.1139  0.0803 -0.0806
24790W        W31240   0.553   2.907   6.369 -0.1059  0.0116  0.3470
24791W        W31241  10.606   0.390   6.857 -0.2502 -0.1944 -0.0821
24792W        W31242  25.446   6.231  32.117  0.1740 -0.0310  0.2112
24793W        W31243  11.928   1.685  25.980  0.0113  0.5747  0.1413
24794W        W31244  26.045   4.989  10.915  0.1597 -0.0105 -0.0982
24795W        W31245  16.752   4.057  20.979  0.4977  0.1620  0.1215
24796W        W31246  17.161   5.667  10.067 -0.2494  0.1056  0.1984
24797W        W31247  23.958   2.973   7.315  0.2031  0.0579  0.1878
24798W        W31248  15.566   0.712  29.480  0.3051  0.1406  0.3068
24799W        W31249  21.082   4.319  28.647 -0.2429  0.0267  0.1121
24800W        W31250  11.308   3.611   7.524 -0.1205 -0.1603 -0.0034
24801W        W31251   1.716   2.372  28.050 -0.0595  0.0652  0.0259
24802W        W31252  18.520   5.858  32.456 -0.1483 -0.0147  0.2724
24803W        W31253  15.108   0.430   8.232  0.3017 -0.0742 -0.1025
24804W        W31254   7.819   3.179  22.592  0.0719  0.0920  0.0330
24805W        W31255  15.834   1.515   0.036 -0.1545 -0.0083  0.2037
24806W        W31256  16.313   0.687   5.869 -0.1356  0.0595 -0.0986
24807W        W31257  14.663   0.796   0.991 -0.2307 -0.1189 -0.1233
24808W        W31258   5.895   2.587  12.820  0.0642 -0.1687 -0.2224
24809W        W31259   6.244   2.522  30.929 -0.0295  0.1928  0.1566
24810W        W31260  12.698   4.911  34.309 -0.1784 -0.0057  0.0241
24811W        W31261  19.649   4.626  35.199  0.0407  0.0559  0.3334
24812W        W31262  14.653   4.683  11.497  0.1068 -0.0419  0.0011
24813W        W31263   3.865   6.037  24.425  0.0606  0.0868 -0.1696
24814W        W31264   7.231   3.038  27.541 -0.1035  0.2155 -0.0555
24815W        W31265  17.851   3.975  12.244 -0.2371  0.0292  0.0556
24816W        W31266   6.670   1.449  14.861  0.4460  0.0321  0.0837
24817W        W31267  20.408   2.716  20.756 -0.0673 -0.0007  0.2122
24818W        W31268   0.348   4.136   4.891 -0.1147  0.0296  0.1597
24819W        W31269  16.315   3.333  11.924 -0.1252  0.3647  0.1419
24820W        W31270  14.665   4.033   6.926  0.0308 -0.0910  0.0943
24821W        W31271  22.803   5.864   2.436  0.0034 -0.0739  0.1032
24822W        W31272  18.624   0.018  30.885 -0.0132 -0.0766 -0.0004
24823W        W31273   4.493   0.936   7.605  0.0236  0.1431 -0.1233
24824W        W31274   9.077   4.935   9.156 -0.1036  0.2901  0.2028
24825W        W31275  14.380   0.227  13.077  0.2068  0.0239  0.0462
24826W        W31276  19.782   3.466  28.545  0.2529  0.1438 -0.0380
24827W        W31277  16.448   2.968  28.656  0.0551 -0.0198  0.1981
24828W        W31278  16.894   4.567  31.187 -0.0513 -0.1784  0.1684
24829W        W31279  18.634   5.089   2.361  0.0597  0.2269  0.3135
24830W        W31280  19.342   2.311   5.964 -0.3876 -0.2399 -0.1297
24831W        W31281   8.705   0.484  20.442  0.2066 -0.2178  0.2726
24832W        W31282   4.372   5.878   9.503  0.1124  0.0080 -0.0802
24833W        W31283   5.290   2.266  12.415  0.2066  0.0583  0.1038
24834W        W31284  15.530   2.628  21.269 -0.2402 -0.0202 -0.0717
24835W        W31285  22.912   4.672  30.837 -0.0443 -0.0501  0.0339
24836W        W31286  21.299   4.341  33.461 -0.1937 -0.0027 -0.0065
24837W        W31287  20.464   6.543  26.712 -0.3045  0.2055 -0.0015
24838W        W31288   8.249   5.858  31.884 -0.1018 -0.0101  0.2895
24839W        W31289   3.096   5.623   9.803 -0.1447  0.1826 -0.0285
24840W        W31290  12.273   0.877  30.665  0.2004 -0.0917 -0.0521
24841W        W31291  15.494   2.491  32.807  0.2724 -0.0565 -0.0570
24842W        W31292  17.300   2.314   4.526 -0.1905 -0.0530  0.1383
24843W        W31293  19.123   4.433  33.466 -0.1469 -0.0460 -0.1494
24844W        W31294  11.868   3.115  23.864 -0.0382  0.0703  0.1830
24845W        W31295   1.727   5.787   0.326 -0.0853 -0.3236  0.0215
24846W        W31296  16.480   2.248  32.262 -0.2475 -0.0975 -0.0174
24847W        W31297  15.859   2.811  27.617  0.1803 -0.2676 -0.1412
24848W        W31298  10.344   6.100  34.464  0.2437 -0.0790 -0.3853
24849W        W31299  25.648   1.548   6.541  0.2556  0.1097  0.3583
24850W        W31300  23.111   2.906   3.422 -0.1088 -0.3232  0.0673
24851W        W31301   1.954   6.087   3.923 -0.4324 -0.2691  0.1252
24852W        W31302  25.032   1.434  24.364 -0.0065  0.0899  0.0044
24853W        W31303  18.852   5.043  29.420  0.0327  0.1186 -0.2643
24854W        W31304  19.579   3.913   5.669 -0.1065  0.1220 -0.1553
24855W        W31305  13.873   4.939  27.227  0.3411  0.0015 -0.1557
24856W        W31306  25.643   1.399  31.558 -0.0344  0.5685  0.0436
24857W        W31307   7.809   5.682  33.077  0.1793 -0.1518  0.0796
24858W        W31308  25.630   0.997   6.510 -0.1409  0.1939  0.0621
24859W        W31309   0.633   4.319  13.605 -0.0294 -0.1936  0.2965
24860W        W31310   7.427   1.774   2.372 -0.1113  0.1422  0.0786
24861W        W31311   0.121   1.157  33.395  0.0560 -0.1998 -0.0637
24862W        W31312  21.352   3.653   7.840 -0.1181  0.2057  0.0589
24863W        W31313   0.671   4.529  26.633 -0.1837  0.0796  0.0791
24864W        W31314  26.151   3.397  23.472  0.1237 -0.2946  0.2900
24865W        W31315  22.476   1.884  15.458 -0.0085 -0.2506  0.0173
24866W        W31316  16.885   6.500  23.546  0.0714 -0.0606 -0.0414
24867W        W31317  11.222   6.142  27.372 -0.4334 -0.0169  0.2346
24868W        W31318   5.658   2.575  12.389  0.2940 -0.2478  0.0711
24869W        W31319  11.381   5.199  25.894  0.3460  0.2212  0.0918
24870W        W31320  22.688   1.759  32.803  0.1985  0.1263  0.1489
24871W        W31321   9.959   0.085  36.110  0.0092  0.1755  0.0461
24872W        W31322  13.220   2.284  27.129  0.2375  0.0199 -0.2111
24873W        W31323   7.163   0.513  21.870 -0.0549  0.3153  0.1222
24874W        W31324  20.789   5.374   0.297 -0.0959  0.0117 -0.2847
24875W        W31325   6.152   0.670  12.844 -0.1642  0.1997  0.0953
24876W        W31326   0.613   3.891  27.160  0.0329  0.0645 -0.1959
24877W        W31327  24.645   5.711   0.312 -0.0351  0.0096 -0.0857
24878W        W31328  21.779   0.416  12.021  0.2553  0.0465 -0.1751
24879W        W31329   1.569   1.669  33.749  0.0677 -0.1393 -0.2195
24880W        W31330  22.600   3.168  14.987  0.2199  0.0176 -0.0358
24881W        W31331  11.980   4.138   4.344 -0.2328  0.1006  0.1600
24882W        W31332  20.167   6.078  32.459 -0.1279  0.0051  0.0618
24883W        W31333  10.378   4.822  21.844 -0.0732  0.3008  0.0391
24884W        W31334  23.113   4.916  36.107  0.0157 -0.0516  0.0276
24885W        W31335  24.845   3.932  26.684 -0.0787 -0.3289  0.3243
24886W        W31336  23.424   2.882  25.695 -0.1690  0.1483 -0.0866
24887W        W31337  14.930   5.937  35.279  0.1437 -0.1848  0.0714
24888W        W31338  20.391   5.377  29.484  0.1462 -0.2002  0.1529
24889W        W31339  12.328   6.331  13.690  0.5714 -0.0435 -0.2255
24890W        W31340   6.308   0.600  28.367 -0.1339  0.1668 -0.0315
24891W        W31341  11.814   0.422  23.128 -0.1034  0.0540 -0.4295
24892W        W31342  19.619   3.192  12.973 -0.0115 -0.0388 -0.4856
24893W        W31343   0.491   0.271   2.192  0.1290 -0.1415  0.0654
24894W        W31344   9.050   3.172  33.085  0.0446  0.1926  0.1349
24895W        W31345  11.636   1.160   6.482  0.1187  0.2695 -0.1178
24896W        W31346  21.698   4.565   8.031 -0.2617  0.1136 -0.0249
24897W        W31347  24.360   0.605   8.085 -0.0593  0.3266  0.2051
24898W        W31348  23.898   0.461   5.644 -0.0929 -0.2347 -0.0401
24899W        W31349   4.360   0.502  31.779  0.0748  0.1213  0.0353
24900W        W31350  15.249   0.079   9.480 -0.0189  0.1943 -0.0132
24901W        W31351   2.357   6.462  22.438  0.4830 -0.2060 -0.3880
24902W        W31352   6.555   0.128  22.688  0.0395 -0.0674 -0.1209
24903W        W31353   8.588   3.949  12.473  0.3341 -0.0383  0.1969
24904W        W31354   1.971   6.023  12.024  0.2325  0.0438 -0.0561
24905W        W31355  12.352   6.554  12.265 -0.2264 -0.0150 -0.0618
24906W        W31356  22.119   5.984  15.459  0.0376 -0.1663 -0.3048
24907W        W31357   6.850   3.336  30.683 -0.0308  0.2795  0.2175
24908W        W31358   5.744   1.092  24.678 -0.0295  0.1128 -0.0902
24909W        W31359   1.132   0.343  29.397 -0.1051  0.0277  0.3827
24910W        W31360  14.192   4.588   3.413  0.2052 -0.0977  0.0082
24911W        W31361  21.387   1.689   1.737  0.0577 -0.0889 -0.0022
24912W        W31362   6.858   4.506  28.495  0.1049 -0.2934 -0.0154
24913W        W31363   0.197   3.216   8.017  0.2051 -0.1114 -0.3209
24914W        W31364  15.140   5.109   9.396 -0.1769 -0.0847  0.0640
24915W        W31365   7.539   3.872   9.045  0.0390  0.0959 -0.1218
24916W        W31366  10.105   4.334   4.790  0.1713  0.3081 -0.1850
24917W        W31367  25.116   1.264  30.486 -0.0745  0.2545 -0.1084
24918W        W31368  14.636   6.059  12.136  0.0215  0.0382 -0.1163
24919W        W31369  20.952   3.611   3.277  0.3144 -0.2316  0.3968
24920W        W31370  21.667   1.393  27.566 -0.0995  0.2477  0.1082
24921W        W31371  18.869   5.648  35.947 -0.0254  0.0149 -0.1696
24922W        W31372   5.494   3.913   6.630  0.2907  0.0817  0.0008
24923W        W31373   5.449   3.189  23.244  0.0709  0.3587  0.1788
24924W        W31374  21.920   3.231  23.674 -0.2428 -0.0087 -0.2518
24925W        W31375  19.839   1.402  27.729  0.2399  0.1559 -0.0936
24926W        W31376  18.158   1.113  29.600 -0.4406 -0.0065  0.1183
24927W        W31377   7.721   2.006   5.586  0.0466 -0.3613  0.1754
24928W        W31378  18.309   6.093   6.384  0.0348 -0.0776 -0.0982
24929W        W31379   7.406   1.484  28.653  0.1889  0.1070 -0.0233
24930W        W31380  23.705   1.255  24.047  0.3311 -0.0963  0.2505
24931W        W31381  20.238   0.099  22.002  0.0036  0.3222 -0.0643
24932W        W31382  24.817   4.749  15.615 -0.0983 -0.3855  0.1971
24933W        W31383   3.574   0.592   0.785 -0.3972 -0.1537  0.0530
24934W        W31384  21.189   5.674   6.352 -0.0650 -0.0904  0.5453
24935W        W31385   9.296   4.169  22.950  0.0727 -0.0006 -0.0578
24936W        W31386  11.666   5.802  22.182  0.0778 -0.0490 -0.0119
24937W        W31387   8.121   0.503  32.890 -0.0746 -0.3592  0.1989
24938W        W31388  21.010   5.253  30.521 -0.1845  0.0622 -0.0819
24939W        W31389  23.552   4.129  12.270  0.0466  0.0628 -0.0108
24940W        W31390  11.710   6.569  28.016  0.1797 -0.1924 -0.1953
24941W        W31391   1.992   5.590  27.451  0.0300  0.2149  0.1308
24942W        W31392   7.230   0.624   6.219  0.2399 -0.1925  0.0595
24943W        W31393  23.883   4.065  29.287  0.1843 -0.1499  0.0968
24944W        W31394   5.756   0.348  23.750  0.0476 -0.0846 -0.0663
24945W        W31395  10.126   1.765  35.720  0.3483 -0.0899  0.0919
24946W        W31396   2.040   1.829  11.086 -0.0110 -0.0679 -0.1727
24947W        W31397  12.790   5.959   7.457  0.2320  0.2076  0.2150
24948W        W31398  17.205   2.747  35.303  0.0984 -0.1915 -0.0746
24949W        W31399  14.537   5.181  26.344 -0.3312  0.0477 -0.0584
24950W        W31400  18.726   6.201  27.004  0.0052  0.1734 -0.0898
24951W        W31401  23.879   0.946  25.481  0.0136 -0.0210  0.0284
24952W        W31402  26.265   1.013  22.536  0.0839  0.0385  0.1730
24953W        W31403  11.117   3.411  22.630 -0.1203 -0.1569  0.0135
24954W        W31404   1.280   1.444  15.113  0.0332  0.1016  0.0406
24955W        W31405   8.366   5.483  12.635 -0.1031  0.0661  0.0067
24956W        W31406   0.298   0.556  11.980 -0.0322 -0.3683 -0.0524
24957W        W31407  16.769   4.788  23.111 -0.2304  0.1198  0.1043
24958W        W31408   9.932   5.017   7.734 -0.2606 -0.2939  0.2229
24959W        W31409   0.850   5.342   7.116  0.2690 -0.0071  0.1236
24960W        W31410  25.410   3.385   3.489 -0.1126 -0.0277 -0.0529
24961W        W31411   5.140   6.191  23.830  0.2918 -0.2025  0.0723
24962W        W31412  24.122   5.161  11.089 -0.0603  0.0942 -0.0982
24963W        W31413  19.651   1.393   3.233  0.0387  0.0940  0.0434
24964W        W31414  26.388   5.944  13.046 -0.0133 -0.2079 -0.0087
24965W        W31415  13.387   3.057   3.752  0.1133  0.0821 -0.2787
24966W        W31416   6.448   3.189   9.456 -0.0090 -0.1616 -0.0021
24967W        W31417  15.269   4.716  32.251  0.3105  0.1477 -0.0759
24968W        W31418   1.176   3.948  27.231 -0.2944  0.2567  0.1178
24969W        W31419  23.673   0.009  22.792  0.0356  0.2163 -0.1918
24970W        W31420   0.871   1.068  10.331  0.1050 -0.0217 -0.1374
24971W        W31421   6.938   2.693  34.199 -0.0612  0.0623 -0.2073
24972W        W31422  19.224   1.497  14.902 -0.0967  0.3280 -0.2113
24973W        W31423   2.940   6.262  27.533  0.0020  0.1201  0.0305
24974W        W31424  18.834   6.525  25.189 -0.1610  0.0124  0.0122
24975W        W31425   4.890   6.165   8.674  0.0228 -0.0876 -0.0492
24976W        W31426  14.251   0.833  32.806  0.0880  0.0304 -0.1039
24977W        W31427  17.217   2.934   3.159  0.0330 -0.1191 -0.2049
24978W        W31428  24.573   0.285   0.663  0.0978 -0.0135 -0.1669
24979W        W31429  14.909   3.795   8.794 -0.1452  0.0674  0.2023
24980W        W31430  25.197   6.239  32.582 -0.1449 -0.1218 -0.3683
24981W        W31431  11.039   2.234  34.973  0.1795  0.2820 -0.2557
24982W        W31432  16.604   3.751  10.893 -0.0729  0.1027 -0.0398
24983W        W31433   0.556   2.122  13.510  0.0764 -0.1463 -0.0727
24984W        W31434   2.685   5.311   1.840  0.1037  0.2333  0.0515
24985W        W31435   2.393   4.652  13.651 -0.1548  0.2480  0.1943
24986W        W31436  23.590   1.018   7.784 -0.2505  0.2075  0.2584
24987W        W31437   6.997   2.319  27.580  0.0117 -0.1632 -0.2548
24988W        W31438   2.174   1.069  30.723  0.0130  0.1056  0.0883
24989W        W31439   8.208   0.697  14.488  0.0707  0.2064  0.2396
24990W        W31440   7.051   1.220  26.283  0.2225  0.1399 -0.1443
24991W        W31441  16.871   0.930  15.283  0.1873 -0.3111  0.0583
24992W        W31442  18.612   6.120  30.193  0.1225 -0.3029 -0.0075
24993W        W31443   7.844   0.305   7.921  0.0397 -0.1661  0.2644
24994W        W31444  16.624   5.989  30.263 -0.0434 -0.0594  0.0638
24995W        W31445  11.414   3.720  32.852 -0.1332 -0.0817  0.0470
24996W        W31446   3.848   4.032   0.786 -0.1409 -0.1879  0.0824
24997W        W31447   6.996   1.556  33.102  0.0675 -0.0787 -0.0687
24998W        W31448  16.883   5.693  14.159  0.3733 -0.2628 -0.0970
24999W        W31449  17.750   2.816   3.178 -0.4353 -0.0903  0.0905
25000W        W31450   3.521   0.222   9.885 -0.5085  0.4434  0.1376
25001W        W31451  18.326   0.788  12.986  0.3658 -0.1087  0.0385
25002W        W31452   0.769   6.499  13.753 -0.3031 -0.2289 -0.0631
25003W        W31453   4.200   2.757  20.716 -0.1932  0.1184  0.1368
25004W        W31454   7.032   0.537   7.052 -0.0380 -0.0939  0.3627
25005W        W31455  10.547   3.978   9.215  0.1658 -0.0584 -0.4077
25006W        W31456  20.816   3.234  29.371 -0.0266  0.1358  0.1216
25007W        W31457  20.156   1.369  25.925 -0.0888  0.0322  0.1450
25008W        W31458   4.508   0.336   6.781 -0.0646  0.1862  0.0633
25009W        W31459  10.022   4.179  14.825 -0.0679 -0.3912  0.0589
25010W        W31460  12.509   5.453   3.105 -0.1069 -0.0403 -0.1071
25011W        W31461   2.226   5.810  14.935 -0.1659  0.1058 -0.3617
25012W        W31462   1.333   0.901   4.289 -0.1456  0.2957  0.3775
25013W        W31463  10.456   1.562  34.408 -0.3590  0.0824  0.1876
25014W        W31464  17.780   6.551   3.447  0.3089 -0.1145 -0.6178
25015W        W31465  14.134   3.126   2.157  0.2223  0.1727 -0.1448
25016W        W31466  16.928   6.390   0.603 -0.0064 -0.1026 -0.2664
25017W        W31467  24.019   2.024  29.262  0.1147 -0.1180 -0.0831
25018W        W31468  11.977   4.538   8.314 -0.1007  0.0210 -0.0489
25019W        W31469  11.653   3.358  34.653  0.2364  0.0180  0.3035
25020W        W31470   0.373   3.289  26.233 -0.1028  0.1674  0.0636
25021W        W31471   1.542   4.242   1.803  0.0453  0.0985 -0.1440
25022W        W31472  23.858   0.220  34.400  0.0341 -0.1569 -0.2584
25023W        W31473   6.336   3.084  22.166  0.1519  0.1755 -0.0929
25024W        W31474   3.926   3.843  34.687  0.0258 -0.3325  0.0703
25025W        W31475   9.428   1.035   8.625 -0.2690  0.1805  0.2017
25026W        W31476  26.413   1.476   1.015 -0.2811  0.0932  0.0889
25027W        W31477  20.240   5.431   2.939 -0.1147  0.1335  0.2049
25028W        W31478  14.977   4.248  31.854 -0.1847 -0.2039  0.0428
25029W        W31479   9.486   3.363   2.602  0.2162  0.0005  0.0128
25030W        W31480  23.652   6.550  34.779 -0.1211 -0.1426 -0.0621
25031W        W31481   0.877   1.830   9.327 -0.0644 -0.0721 -0.1010
25032W        W31482  16.358   0.986  30.532  0.0196 -0.2541  0.2242
25033W        W31483  20.091   4.967   8.673 -0.2118 -0.0614 -0.0580
25034W        W31484  25.344   4.709   0.495 -0.2195 -0.2810 -0.4174
25035W        W31485  20.154   4.184  29.499  0.1242 -0.0996  0.1656
25036W        W31486  15.070   4.887  21.535  0.0142 -0.0507 -0.1770
25037W        W31487  10.755   3.964  22.352 -0.0700  0.1630  0.0220
25038W        W31488  16.528   5.466  29.116 -0.0953  0.0443 -0.2188
25039W        W31489  12.165   1.951  22.982 -0.0916 -0.3215  0.3788
25040W        W31490  12.916   3.994   8.707 -0.3051  0.0492 -0.1859
25041W        W31491  12.234   3.718  31.603  0.2829 -0.0766 -0.1508
25042W        W31492  18.633   1.661  35.777  0.2824 -0.1167 -0.0598
25043W        W31493   1.581   1.308  12.688  0.1730 -0.0308  0.0367
25044W        W31494  11.355   0.656  30.227  0.1862 -0.3244  0.0738
25045W        W31495   0.623   4.831   2.223 -0.1992  0.2325 -0.3433
25046W        W31496  21.909   3.939  15.040  0.0213  0.0460  0.1504
25047W        W31497   9.510   1.139  13.497  0.0957  0.1358  0.1706
25048W        W31498  14.183   4.878  24.878 -0.3064  0.0699 -0.0294
25049W        W31499  17.729   4.312  22.298  0.1520  0.0651  0.0853
25050W        W31500   8.839   4.042  33.732  0.0551  0.2874 -0.0339
25051W        W31501  21.851   3.054  33.869  0.1322 -0.2495 -0.2722
25052W        W31502   5.386   3.442  26.450  0.4215 -0.1152  0.0807
25053W        W31503   7.598   2.376   4.734 -0.2096 -0.3538  0.0152
25054W        W31504   8.741   2.877  29.871 -0.0109 -0.1137 -0.2211
25055W        W31505   6.016   3.688  24.739  0.3709  0.2734 -0.5514
25056W        W31506  25.706   6.386  36.094  0.4030 -0.1787 -0.1406
25057W        W31507   6.449   0.214  28.128  0.1319 -0.2484  0.1502
25058W        W31508  25.214   1.471   1.419  0.1111  0.0799  0.0281
25059W        W31509   6.438   6.101   2.081 -0.0356  0.0875  0.1358
25060W        W31510  16.813   1.502  22.109 -0.1004  0.0757 -0.0808
25061W        W31511  25.055   2.092   7.195  0.0092  0.0487 -0.0814
25062W        W31512   9.828   3.883  26.595 -0.0636 -0.0737  0.3137
25063W        W31513   4.104   4.582  25.264 -0.0865 -0.0651 -0.3064
25064W        W31514  11.297   1.801  27.670  0.2344 -0.0846  0.2965
25065W        W31515   3.126   4.280  24.349 -0.1705 -0.1116 -0.0753
25066W        W31516  26.041   1.270  23.297 -0.0253  0.4318  0.2131
25067W        W31517   0.678   1.528   0.518 -0.0920 -0.2276  0.2449
25068W        W31518  24.891   3.648  21.108 -0.1269 -0.2208 -0.0444
25069W        W31519  11.628   4.890  35.263  0.0194 -0.1532  0.1947
25070W        W31520  17.800   4.825   3.600 -0.3782  0.0956  0.0065
25071W        W31521  26.112   4.792   3.154  0.1772 -0.0771 -0.0411
25072W        W31522  11.704   0.983   2.114 -0.3552  0.2008  0.1399
25073W        W31523   8.898   1.097   0.853 -0.3883 -0.0480 -0.2123
25074W        W31524  11.448   4.370  35.179 -0.1579  0.0291 -0.0027
25075W        W31525   4.888   5.678  21.916 -0.0573  0.2534 -0.3089
25076W        W31526  23.317   1.976   6.956  0.1652  0.1086  0.1920
25077W        W31527   0.941   0.113   2.055 -0.1388 -0.0252  0.1454
25078W        W31528  16.775   1.182  31.559 -0.3671 -0.0964 -0.1759
25079W        W31529  20.348   3.793  30.495 -0.0018 -0.0524  0.0238
25080W        W31530  10.949   0.252  24.466 -0.0903 -0.2947  0.3471
25081W        W31531  15.498   3.355  11.164  0.0252  0.0693 -0.0622
25082W        W31532  13.523   0.203  15.456 -0.0401  0.2205 -0.2100
25083W        W31533  15.062   0.070   5.509 -0.1061 -0.0946  0.1039
25084W        W31534  12.161   2.026  27.382  0.0594 -0.0033 -0.1594
25085W        W31535  10.791   4.609   1.483 -0.0025  0.4241  0.1311
25086W        W31536  16.548   1.818   0.015 -0.0389  0.0500 -0.0657
25087W        W31537   6.342   3.660  34.722  0.1994  0.2814 -0.4636
25088W        W31538   8.596   1.715   2.619  0.1695  0.6574  0.4119
25089W        W31539  12.457   3.475  12.464  0.2486  0.2243 -0.1836
25090W        W31540  23.380   3.985  29.338 -0.0720  0.3316  0.0640
25091W        W31541  19.409   5.965   2.117  0.0716 -0.0632 -0.1632
25092W        W31542   3.513   1.167  27.596 -0.0658  0.0648  0.2702
25093W        W31543   1.591   2.059  31.644 -0.1255 -0.0525 -0.2002
25094W        W31544  18.786   5.215   0.697 -0.1292 -0.1846 -0.1506
25095W        W31545   4.206   5.125  24.544 -0.0641  0.3775 -0.0670
25096W        W31546   4.378   4.832   3.173 -0.0175  0.3348 -0.1903
25097W        W31547   6.523   5.037   2.342  0.4013 -0.5500 -0.0944
25098W        W31548  23.869   1.368   2.815  0.2761  0.0854 -0.2380
25099W        W31549  18.821   3.976   7.083 -0.2075 -0.0158 -0.1866
25100W        W31550   9.358   6.111  31.780  0.1927  0.0029  0.0912
25101W        W31551  25.518   5.525   1.379 -0.1435 -0.1213 -0.2497
25102W        W31552  16.383   1.759   3.450 -0.0382 -0.1109  0.2239
25103W        W31553   9.086   4.853   5.089  0.0888 -0.0475 -0.0977
25104W        W31554  10.824   4.403  26.657  0.2690  0.0355 -0.0784
25105W        W31555  13.143   3.646   5.030 -0.4013 -0.1936  0.0228
25106W        W31556  14.182   0.639   6.232 -0.2058 -0.1519  0.3146
25107W        W31557  20.553   4.215  11.452 -0.0912 -0.2093  0.1250
25108W        W31558  15.365   2.873   9.489  0.3337 -0.1576 -0.2069
25109W        W31559  13.327   6.032   7.368  0.1333 -0.2258 -0.0371
25110W        W31560   9.369   5.367  10.048  0.1755  0.0490 -0.0947
25111W        W31561   5.955   1.509   6.971 -0.3381  0.0077 -0.0584
25112W        W31562  14.691   5.469  28.275  0.1087  0.1463  0.0959
25113W        W31563  12.826   3.684  28.305 -0.1496  0.0084  0.0142
25114W        W31564  26.091   5.744  29.845 -0.1827 -0.1168 -0.0284
25115W        W31565  26.338   2.360  30.678 -0.0286 -0.2040 -0.2476
25116W        W31566  18.634   3.750  14.339  0.1736 -0.1827 -0.1310
25117W        W31567  15.245   0.727  27.508 -0.1459  0.0790  0.0161
25118W        W31568   4.593   1.490  26.895 -0.3263  0.0542 -0.3525
25119W        W31569  20.939   0.089  20.155 -0.0965 -0.0879  0.0532
25120W        W31570  25.063   1.504  31.369  0.4527 -0.1243 -0.1820
25121W        W31571   1.584   5.481  24.403  0.3532 -0.2358 -0.0798
25122W        W31572  19.178   5.670  10.572  0.0842 -0.0285 -0.3997
25123W        W31573  22.605   4.435  28.024 -0.2108  0.0065 -0.2295
25124W        W31574  17.694   1.583  35.254 -0.1328 -0.0230  0.2290
25125W        W31575   7.560   2.379   9.236  0.4497  0.0821  0.0915
25126W        W31576  24.676   5.010  31.191  0.0831  0.0250  0.1915
25127W        W31577   5.122   1.065  35.989  0.1030 -0.1331  0.1464
25128W        W31578  11.695   4.186  27.399 -0.2214 -0.0606 -0.0998
25129W        W31579  17.403   3.962  34.505  0.0007 -0.0030  0.3807
25130W        W31580  22.605   6.005  24.666 -0.0431  0.2727 -0.1645
25131W        W31581  19.632   2.327   0.194  0.1372  0.1251  0.4080
25132W        W31582  16.755   4.515  24.555 -0.1352 -0.1812 -0.0382
25133W        W31583  23.587   0.828  23.307 -0.0998 -0.2383  0.3769
25134W        W31584  13.489   1.477  14.210  0.3783  0.0286  0.1252
25135W        W31585  10.564   2.239  34.702  0.0179 -0.2068 -0.0043
25136W        W31586  11.154   2.792  32.462 -0.0204 -0.0479 -0.0684
25137W        W31587   1.878   4.005   2.616  0.0859 -0.1086  0.3124
25138W        W31588   3.788   3.915  21.381 -0.1836 -0.2133  0.0230
25139W        W31589   8.243   5.946  33.342 -0.0443 -0.0362 -0.0349
25140W        W31590  10.395   3.180  13.834 -0.1454  0.0327 -0.1147
25141W        W31591  25.974   3.072  31.443  0.0536  0.0748 -0.4412
25142W        W31592  15.347   1.461  31.392  0.0336  0.2976 -0.0680
25143W        W31593   8.657   3.314  21.697  0.3364  0.2028 -0.1986
25144W        W31594  12.589   1.762  28.938  0.0841 -0.0023  0.2659
25145W        W31595  12.354   3.077  35.282 -0.0069 -0.1013 -0.2229
25146W        W31596  25.233   3.626  26.724 -0.3387  0.1231  0.0666
25147W        W31597   8.066   4.907   8.328 -0.1557  0.0607  0.1082
25148W        W31598  18.578   1.103  10.246  0.1626  0.0609 -0.2164
25149W        W31599   5.034   1.014  22.700  0.0497 -0.1488  0.0718
25150W        W31600  26.086   3.264  11.333  0.0960 -0.0224  0.0091
25151W        W31601  11.815   3.250   6.618  0.1836 -0.2423 -0.1122
25152W        W31602   9.937   2.924  31.224 -0.1177  0.2022  0.0872
25153W        W31603  13.893   4.770   0.739 -0.1338  0.0371  0.0014
25154W        W31604  18.657   3.675   5.844  0.0535 -0.2084 -0.1689
25155W        W31605  21.190   2.720   1.512 -0.1335 -0.1170 -0.1952
25156W        W31606  19.590   4.718   6.360  0.1508  0.2177 -0.0028
25157W        W31607   2.955   4.311  23.363 -0.1471  0.2540 -0.0207
25158W        W31608  21.127   5.788  33.961 -0.0449  0.1568 -0.1158
25159W        W31609  23.194   1.970  11.741  0.0192 -0.0316  0.0533
25160W        W31610  14.372   4.006  10.816 -0.0325  0.1873 -0.0763
25161W        W31611  11.941   2.849  27.930  0.1778  0.0575  0.0114
25162W        W31612   9.854   3.963   5.587  0.0749  0.0944 -0.1350
25163W        W31613  12.004   2.636  24.652  0.2974  0.2776  0.3746
25164W        W31614   4.143   1.563   8.142 -0.1584  0.2571 -0.0368
25165W        W31615   8.110   3.850   0.571  0.0136  0.0449 -0.0115
25166W        W31616  25.268   0.897   7.854 -0.1026  0.4778 -0.1715
25167W        W31617  13.042   1.955  13.233 -0.3906  0.0014  0.1358
25168W        W31618   2.849   1.876   7.403  0.3320 -0.1280  0.0355
25169W        W31619   0.925   3.803  27.663  0.1542  0.0035 -0.1686
25170W        W31620  23.701   1.408   1.690  0.1080  0.6516 -0.0298
25171W        W31621  21.162   3.533  24.293 -0.3131 -0.0652 -0.3259
25172W        W31622   9.067   5.879  11.422 -0.0251 -0.0922  0.1551
25173W        W31623   5.676   1.860   9.267  0.0750  0.1827  0.0835
25174W        W31624   1.306   1.032   9.956  0.1347  0.0588 -0.0110
25175W        W31625  20.374   2.023   8.337  0.1512  0.2290 -0.0214
25176W        W31626  21.682   2.445  35.151 -0.2023  0.2316  0.1922
25177W        W31627  10.605   5.785   3.792  0.2019  0.1476  0.0721
25178W        W31628  25.488   2.947  27.288  0.0268 -0.0518  0.0372
25179W        W31629   0.862   0.895  24.844 -0.0966 -0.1006 -0.0847
25180W        W31630   9.438   4.307  12.162 -0.3937  0.2554 -0.0803
25181W        W31631  18.620   0.547  31.437 -0.0798  0.0174 -0.3363
25182W        W31632  17.821   0.996  25.067  0.0054 -0.2961  0.2733
25183W        W31633  10.475   4.575   7.284 -0.0462  0.3070  0.0096
25184W        W31634   9.699   2.543  35.024  0.0397 -0.0115  0.1871
25185W        W31635   1.301   4.698  34.275  0.2823 -0.0446 -0.0955
25186W        W31636  19.344   6.595   0.437 -0.0775 -0.1327 -0.2491
25187W        W31637  18.563   5.748  26.846  0.0349  0.2571  0.0553
25188W        W31638  10.706   5.299  14.528  0.0208 -0.1458 -0.0418
25189W        W31639  17.636   1.172  12.579 -0.0289  0.2956  0.0366
25190W        W31640   9.049   2.830  25.178 -0.1154  0.0828  0.0879
25191W        W31641   1.079   3.807  13.481 -0.0738 -0.1189  0.0826
25192W        W31642  24.947   0.361  20.751 -0.0854 -0.0464  0.0006
25193W        W31643   0.831   0.568   9.474 -0.0016 -0.0537 -0.1364
25194W        W31644   6.307   5.145   3.817  0.2243  0.2803  0.1862
25195W        W31645  25.678   6.243  26.811  0.2711  0.1516 -0.0272
25196W        W31646   3.384   2.025  24.862 -0.0196 -0.0870 -0.3318
25197W        W31647  10.326   2.018   4.500 -0.0382 -0.3112  0.5434
25198W        W31648  24.256   2.160   4.286 -0.0203 -0.2322  0.0797
25199W        W31649   7.710   4.447  15.595  0.1398 -0.1079 -0.2124
25200W        W31650  10.458   0.750  35.695  0.1425  0.2415 -0.1464
25201W        W31651   0.848   5.371  29.947  0.1450 -0.0297  0.2295
25202W        W31652   4.615   4.251  30.228  0.1595 -0.0661  0.3366
25203W        W31653   5.911   3.657   8.918 -0.2549 -0.0974  0.0369
25204W        W31654  15.999   0.765   4.786 -0.0905 -0.0338 -0.0707
25205W        W31655  18.687   0.166   3.316 -0.0744  0.0272  0.2705
25206W        W31656  25.133   2.824  24.281  0.0630 -0.0468 -0.1194
25207W        W31657   2.471   5.413   8.656 -0.0316  0.0760  0.2300
25208W        W31658   8.920   5.337  23.354  0.1207  0.0549 -0.1258
25209W        W31659  23.584   4.456  13.977  0.1565 -0.1718  0.1809
25210W        W31660  21.704   6.385  21.929  0.3449  0.0443 -0.1436
25211W        W31661  18.311   4.944  27.424 -0.3122 -0.2781  0.0885
25212W        W31662   2.941   0.426   6.436 -0.0838  0.0597 -0.1448
25213W        W31663  24.592   6.458  30.451  0.1267  0.3005 -0.4197
25214W        W31664  23.806   3.260   8.067 -0.0457 -0.1085 -0.2768
25215W        W31665  13.883   0.444  32.818 -0.0352 -0.2036 -0.1241
25216W        W31666  11.132   2.943  29.805  0.1356  0.1452  0.1670
25217W        W31667  20.443   1.791  20.757 -0.1686 -0.0772  0.3944
25218W        W31668  11.735   2.174  12.291 -0.0447 -0.1978 -0.2660
25219W        W31669  22.285   2.574   4.681  0.1253  0.1753  0.3156
25220W        W31670  11.841   0.491  24.254 -0.0988 -0.0446  0.2816
25221W        W31671  21.356   2.747   7.644 -0.2013  0.1185 -0.1075
25222W        W31672   6.313   3.223  31.687  0.0536 -0.0347 -0.2163
25223W        W31673  25.610   0.919  11.524 -0.1418 -0.0182  0.0630
25224W        W31674   0.092   3.551   4.165 -0.0145  0.1061 -0.1079
25225W        W31675  11.925   3.060  23.168  0.2262  0.1142  0.0610
25226W        W31676  21.857   4.010   9.800  0.0057 -0.2703  0.1112
25227W        W31677  24.486   2.682  22.526  0.1046 -0.2211  0.1039
25228W        W31678  10.983   4.736   9.887 -0.1440 -0.0559 -0.2452
25229W        W31679  17.153   4.482   0.134 -0.4346  0.3440  0.1757
25230W        W31680  18.720   1.651  35.235 -0.0247  0.0328 -0.1014
25231W        W31681   4.161   4.852  24.095 -0.0645 -0.1638 -0.2271
25232W        W31682  17.837   5.646  10.612 -0.0302  0.1382  0.1392
25233W        W31683   2.606   4.141  29.778  0.0347  0.0162 -0.1577
25234W        W31684  19.124   0.151   5.057  0.0435 -0.1013 -0.0361
25235W        W31685   8.044   4.380   8.408 -0.0364 -0.1431  0.3531
25236W        W31686  22.961   0.380   7.608  0.1369 -0.2828 -0.4104
25237W        W31687   6.686   2.302  11.207 -0.0561 -0.2541  0.0675
25238W        W31688   2.359   3.096   2.184  0.0808  0.0138 -0.1871
25239W        W31689  24.305   5.724  36.036  0.1541  0.1751 -0.2535
25240W        W31690   5.154   5.327  15.035 -0.2075  0.0217  0.0472
25241W        W31691  16.497   2.049   9.339 -0.1654 -0.1950 -0.0626
25242W        W31692  15.758   0.272  34.003  0.1236  0.1645 -0.1204
25243W        W31693  14.505   2.738   5.567  0.1425  0.2666 -0.2072
25244W        W31694  13.218   4.144  23.368 -0.1417 -0.1729  0.2110
25245W        W31695  11.052   4.304   1.069 -0.1143  0.4129 -0.0333
25246W        W31696  22.211   4.804   4.008  0.1516  0.0321 -0.1846
25247W        W31697  11.190   2.851   4.978 -0.3730  0.1710  0.1165
25248W        W31698  21.987   5.186  28.149 -0.1026 -0.1777 -0.0697
25249W        W31699  11.026   0.137   8.899  0.1047 -0.0608 -0.0595
25250W        W31700  23.861   4.240   1.270  0.3754 -0.0257  0.0186
25251W        W31701  19.445   3.743  31.005 -0.1541  0.2496  0.4904
25252W        W31702  21.703   2.877  33.020 -0.0318 -0.0956 -0.0301
25253W        W31703  20.725   4.824   2.457 -0.1917 -0.0735  0.3376
25254W        W31704  22.752   0.459   8.449  0.0669  0.0634  0.0292
25255W        W31705  16.618   6.594  25.557 -0.1968  0.1142  0.0356
25256W        W31706   1.719   3.338   8.946 -0.0363 -0.0103 -0.0860
25257W        W31707  25.758   0.206  10.591  0.0660  0.1372 -0.1651
25258W        W31708  19.475   2.291  22.213 -0.0393  0.0272 -0.2239
25259W        W31709  20.832   6.032   1.090  0.1924  0.0117  0.0518
25260W        W31710  22.115   1.265  11.894 -0.1302 -0.1660  0.1110
25261W        W31711  11.861   3.159  13.075 -0.3089 -0.1864  0.0688
25262W        W31712  18.507   2.694  25.140  0.1464  0.0925 -0.1110
25263W        W31713  22.036   4.342  32.454 -0.0855  0.2848  0.1563
25264W        W31714  15.336   4.344   9.996  0.2030 -0.0520  0.0181
25265W        W31715   5.064   0.759  33.471 -0.2000 -0.1130 -0.2705
25266W        W31716  13.118   1.974   4.456  0.0735  0.0783 -0.0986
25267W        W31717   2.760   2.893  23.742 -0.0944 -0.1840  0.0813
25268W        W31718  26.007   0.872  30.615 -0.1382  0.1916  0.2020
25269W        W31719  17.628   5.407  34.835 -0.1171  0.0309 -0.0602
25270W        W31720  20.639   3.453   1.450 -0.2442  0.2193  0.0217
25271W        W31721  14.047   6.093   3.398 -0.2581  0.0023  0.1885
25272W        W31722  15.615   6.395  13.688 -0.0732 -0.0039  0.2034
25273W        W31723  23.533   0.234   8.355 -0.2658 -0.3139  0.2195
25274W        W31724  21.693   1.291   9.987 -0.1681  0.2014  0.1977
25275W        W31725   6.230   2.004  11.828 -0.1702  0.0087 -0.0418
25276W        W31726  26.162   4.394  12.930  0.0103 -0.2444 -0.1523
25277W        W31727   5.564   1.287   4.102 -0.3321 -0.2301 -0.1041
25278W        W31728   8.219   1.261  22.034 -0.2650  0.0270 -0.1121
25279W        W31729  12.969   5.119   8.771 -0.0654 -0.0767 -0.1801
25280W        W31730   1.770   0.707  29.080  0.0313  0.1605  0.1152
25281W        W31731  17.090   5.219  16.053  0.0434  0.1863 -0.1307
25282W        W31732  24.750   6.375   6.430 -0.3008 -0.1095  0.5715
25283W        W31733  16.797   3.092  25.011  0.1105 -0.1889 -0.3491
25284W        W31734   9.594   1.092  23.862  0.0237 -0.0845 -0.1946
25285W        W31735   6.645   5.600   4.819  0.2217 -0.0435  0.0142
25286W        W31736  13.500   4.272  28.913 -0.5301 -0.1045 -0.0533
25287W        W31737   0.652   4.247   0.693  0.0890  0.1588 -0.1302
25288W        W31738  12.478   5.683  11.289  0.0212  0.5031  0.0339
25289W        W31739   6.458   6.539  29.061 -0.1057 -0.0086  0.1045
25290W        W31740  24.476   5.892  13.524  0.1989 -0.2704  0.1029
25291W        W31741  24.828   2.498   2.340 -0.1281 -0.0042 -0.1134
25292W        W31742  22.877   3.128  27.884  0.2726 -0.0885 -0.0625
25293W        W31743   8.610   0.594   3.631  0.0660 -0.1560 -0.1120
25294W        W31744  22.731   6.087  26.457 -0.0794 -0.0302  0.2536
25295W        W31745  25.556   1.989  33.551  0.0480 -0.0970  0.1295
25296W        W31746  15.485   0.054   6.268  0.0622 -0.1018  0.0859
25297W        W31747  26.423   5.542  29.431  0.0942  0.3920  0.1838
25298W        W31748   3.257   3.640   9.580 -0.0325 -0.0487  0.2981
25299W        W31749   8.746   3.599  32.322  0.2355  0.0183 -0.0581
25300W        W31750   9.936   1.213  28.899 -0.4192 -0.1026 -0.2146
25301W        W31751  26.039   2.234  34.693 -0.1915  0.1216  0.1000
25302W        W31752  19.251   3.478   5.598  0.1286 -0.0501  0.0383
25303W        W31753  20.742   2.414  12.176  0.0658 -0.3032  0.1477
25304W        W31754  21.120   3.902  29.509  0.0201 -0.0551  0.0462
25305W        W31755  16.902   6.465   4.665 -0.1859  0.0469 -0.2433
25306W        W31756  15.791   2.318  29.997  0.0377 -0.3252 -0.0279
25307W        W31757   3.308   3.049  29.233 -0.2371  0.1664 -0.2535
25308W        W31758   5.165   0.988  31.499  0.0788 -0.3040  0.1456
25309W        W31759   2.164   3.802  11.682 -0.1987 -0.1395  0.1962
25310W        W31760  11.698   0.363  27.541  0.0282 -0.0870  0.0235
25311W        W31761  13.947   1.652  11.242  0.1904  0.0419 -0.0220
25312W        W31762   7.730   4.757   4.804  0.1081 -0.0530 -0.0474
25313W        W31763   4.761   0.882   2.956 -0.2311 -0.0957 -0.1789
25314W        W31764   4.938   1.912  21.735 -0.2558  0.0205  0.1356
25315W        W31765  21.128   6.099   2.153 -0.0337  0.2932 -0.0134
25316W        W31766  22.168   5.325  33.614  0.2839  0.0007 -0.2390
25317W        W31767  26.014   1.218  32.701 -0.0203  0.0379  0.3189
25318W        W31768  14.206   0.564  34.244 -0.0668 -0.0280 -0.0232
25319W        W31769   1.738   3.126   9.839  0.0077  0.3228 -0.0842
25320W        W31770  25.224   3.251   6.240 -0.0349  0.1352  0.0886
25321W        W31771   1.693   5.126  13.331 -0.0562  0.3136 -0.1137
25322W        W31772   4.649   0.061   5.380 -0.0694  0.2118  0.1200
25323W        W31773  26.099   3.396  15.416  0.1916  0.2192  0.0918
25324W        W31774  25.412   2.821   6.039 -0.1530 -0.1011 -0.2876
25325W        W31775   6.917   5.829  11.788 -0.2651 -0.1866  0.0193
25326W        W31776  23.736   1.426  22.537 -0.1957 -0.1546 -0.1339
25327W        W31777   4.940   0.703  28.083 -0.0207 -0.2205 -0.2278
25328W        W31778  18.831   0.833  22.804 -0.2684 -0.1857 -0.0980
25329W        W31779  24.494   0.518   1.248  0.2280 -0.0389 -0.1963
25330W        W31780   1.379   0.785  30.137  0.1794 -0.1664 -0.0184
25331W        W31781  16.463   2.571  31.218  0.0058  0.2362 -0.1426
25332W        W31782  15.359   2.555  25.523  0.0195 -0.1570 -0.2419
25333W        W31783   8.997   0.092  31.141 -0.0172 -0.0105  0.3983
25334W        W31784   5.692   5.148  27.714  0.2063 -0.0771 -0.1493
25335W        W31785  10.612   2.938  31.607  0.3153 -0.4017 -0.3994
25336W        W31786   5.332   2.326  20.597 -0.0314  0.0830 -0.0147
25337W        W31787  15.516   0.703  30.081  0.0263  0.1982 -0.1922
25338W        W31788  15.377   2.941  32.603  0.4497 -0.0286 -0.0757
25339W        W31789  20.269   6.084   2.512  0.3514 -0.0014  0.0073
25340W        W31790  24.470   1.597  26.560 -0.2457 -0.1886  0.2297
25341W        W31791  25.067   6.065  33.032 -0.1476 -0.0027 -0.2388
25342W        W31792  10.437   4.110  12.098  0.3291 -0.3343  0.2116
25343W        W31793  17.289   4.854   8.868  0.0561  0.2883 -0.1117
25344W        W31794   0.583   3.404  15.018  0.0786 -0.0689  0.2087
25345W        W31795  17.565   0.952  30.538 -0.0044  0.0286 -0.0285
25346W        W31796  10.159   0.272  20.444  0.2333 -0.0358 -0.2421
25347W        W31797  17.338   2.160  23.616 -0.0460 -0.0136 -0.1576
25348W        W31798  11.974   1.170  12.228  0.0009  0.1529  0.1308
25349W        W31799  21.330   2.229   0.181 -0.0018 -0.1329  0.0356
25350W        W31800  16.845   4.500   6.337  0.1896 -0.2800  0.0667
25351W        W31801   8.100   0.599  35.032  0.0436  0.0485 -0.1114
25352W        W31802  17.692   2.173  25.418 -0.0813  0.1339 -0.0136
25353W        W31803   8.947   3.269   6.240 -0.1640 -0.0689  0.0737
25354W        W31804  15.775   2.491  13.004  0.1404  0.4501  0.2144
25355W        W31805  15.335   5.933  24.928 -0.0725 -0.0797 -0.1371
25356W        W31806   2.998   5.073  33.920 -0.1616 -0.2433  0.1034
25357W        W31807   8.416   1.577   3.535 -0.0396 -0.0984 -0.1909
25358W        W31808   9.850   6.286   3.056 -0.0070 -0.1382  0.3888
25359W        W31809   3.620   4.936   0.328 -0.1761 -0.1072 -0.2343
25360W        W31810  15.963   3.855  10.270  0.0635  0.0769 -0.0350
25361W        W31811   2.262   5.585  21.150 -0.2828 -0.0420 -0.0012
25362W        W31812  12.706   3.494  10.309 -0.0287 -0.0727  0.0723
25363W        W31813  16.603   5.941   2.861  0.0035  0.1861 -0.1571
25364W        W31814   6.366   3.141   3.153 -0.0502  0.0053  0.0314
25365W        W31815   4.677   6.275   9.458 -0.1557  0.1027 -0.1848
25366W        W31816  24.410   3.963  21.917 -0.0597  0.2999 -0.4576
25367W        W31817  16.794   5.278  23.404  0.4602  0.1582 -0.1173
25368W        W31818   6.401   0.760   7.277 -0.0507 -0.1296 -0.0424
25369W        W31819  16.573   4.071   6.296 -0.1619  0.1372  0.0444
25370W        W31820  15.099   0.425  10.629 -0.2158 -0.0561 -0.2987
25371W        W31821   0.204   2.459  30.174  0.1169 -0.1203  0.0261
25372W        W31822  22.575   6.514  32.694  0.0209 -0.2463 -0.1263
25373W        W31823  23.981   6.362  29.747 -0.0742 -0.4222 -0.0259
25374W        W31824  10.867   2.889  22.344 -0.4485  0.0859  0.1151
25375W        W31825  13.284   1.435  25.910  0.0822 -0.2164  0.3587
25376W        W31826   6.641   4.760  28.809 -0.2513 -0.1175  0.0305
25377W        W31827   5.732   1.095   9.523  0.1602 -0.0964 -0.0302
25378W        W31828  18.875   6.571  35.708  0.1327 -0.0072  0.0051
25379W        W31829  11.625   1.909  22.948 -0.0897 -0.0871 -0.5725
25380W        W31830  23.534   1.021  10.520  0.4357 -0.1734  0.0113
25381W        W31831  24.327   5.194  24.592  0.2749  0.1672 -0.1946
25382W        W31832  25.788   0.333  35.976  0.0097  0.1092 -0.2315
25383W        W31833   7.206   3.922  32.889  0.1444 -0.1095 -0.2577
25384W        W31834  22.857   4.948  32.339  0.1448  0.2700  0.3125
25385W        W31835  13.435   3.828   2.695 -0.2521 -0.0317 -0.1212
25386W        W31836   2.921   2.966   2.092 -0.1985 -0.1334  0.1666
25387W        W31837  21.627   4.075  14.083 -0.1358  0.0361 -0.1871
25388W        W31838   0.278   3.029  14.111  0.4388 -0.0287  0.2573
25389W        W31839  20.069   2.702   0.151  0.1035 -0.0331 -0.0758
25390W        W31840  23.818   4.321   7.514 -0.0066 -0.3227  0.1061
25391W        W31841   0.467   1.214   6.338 -0.0642 -0.0129 -0.0401
25392W        W31842  16.157   3.356   5.833  0.2372  0.1074 -0.1589
25393W        W31843  15.206   1.294   9.984 -0.2378 -0.1348 -0.0580
25394W        W31844  21.434   0.008   9.699  0.1448 -0.0524  0.2343
25395W        W31845  14.934   3.400   6.203 -0.2120 -0.0459 -0.2329
25396W        W31846  21.014   2.637   5.997  0.0521 -0.0068 -0.3321
25397W        W31847  19.884   0.446  29.489  0.3022  0.3230 -0.2051
25398W        W31848  15.602   1.007  13.504 -0.0402  0.0429 -0.1476
25399W        W31849  16.332   1.468  28.685  0.0329  0.0398  0.0965
25400W        W31850  13.674   0.289   2.054 -0.5386  0.2921 -0.1383
25401W        W31851  15.482   3.053   0.980 -0.0770 -0.0716  0.1131
25402W        W31852  21.479   5.276  10.188  0.1136 -0.0278  0.0106
25403W        W31853  23.694   4.411  14.872  0.1276  0.0076  0.1143
25404W        W31854   4.886   4.086  35.514  0.1167  0.0732  0.0216
25405W        W31855   2.309   2.453  25.522 -0.2139 -0.0194  0.0642
25406W        W31856  11.587   5.051  32.842 -0.4542  0.1984  0.1128
25407W        W31857  10.114   1.910   3.416  0.2417  0.1247 -0.2563
25408W        W31858   2.121   5.051  14.371 -0.0536  0.0091 -0.0167
25409W        W31859   8.591   0.150  32.998  0.0015 -0.2151  0.1278
25410W        W31860  20.876   6.579  14.175  0.2741 -0.0006  0.3455
25411W        W31861  23.500   4.542   8.377 -0.0002 -0.2497 -0.0213
25412W        W31862  11.311   0.162  33.405 -0.1936 -0.0381  0.2482
25413W        W31863  26.320   6.096   3.918  0.1396  0.0473 -0.1488
25414W        W31864   7.677   6.250  29.484  0.0743  0.2270  0.0221
25415W        W31865   9.186   5.483   2.951  0.2261 -0.3982  0.0916
25416W        W31866  19.692   4.434   4.364 -0.4456 -0.0515  0.0174
25417W        W31867  13.707   1.795  22.977  0.0470 -0.1996  0.1731
25418W        W31868  14.974   3.959  27.561 -0.1645  0.1093  0.0062
25419W        W31869  24.108   5.974   8.164  0.0778  0.0667  0.2661
25420W        W31870   5.450   2.227  26.295  0.0593 -0.0450  0.2548
25421W        W31871  26.163   2.358  31.920 -0.1782 -0.3710 -0.1401
25422W        W31872  12.475   3.491  33.421  0.2689  0.2415 -0.0850
25423W        W31873  25.340   3.482   8.676  0.0977  0.2553 -0.1409
25424W        W31874   6.924   6.384  34.639  0.0399  0.1132 -0.2617
25425W        W31875   1.473   1.192  11.485  0.2663 -0.2314  0.1422
25426W        W31876   6.074   4.559  25.840  0.0301  0.0490 -0.1536
25427W        W31877   0.827   5.775  11.924 -0.0485 -0.2926 -0.1896
25428W        W31878   7.305   5.432  29.242  0.0155 -0.1424  0.0076
25429W        W31879  15.907   1.644  33.891  0.2335  0.4098  0.0075
25430W        W31880  15.105   0.821  23.026  0.1377 -0.2282 -0.3822
25431W        W31881   9.475   0.686   5.286 -0.1099 -0.4632 -0.1408
25432W        W31882  21.305   5.395  12.008  0.2812 -0.1609  0.1633
25433W        W31883  12.662   5.122   4.133 -0.0561  0.0248 -0.1651
25434W        W31884  10.270   5.887   0.330 -0.4328  0.0142 -0.1467
25435W        W31885  20.154   6.254   9.470  0.0737  0.1091  0.0078
25436W        W31886   1.436   6.296   0.388  0.0244  0.2266  0.0470
25437W        W31887  13.659   6.357   4.764 -0.0065  0.0707 -0.1925
25438W        W31888  11.856   0.812   7.139  0.0180 -0.0648  0.0494
25439W        W31889   7.924   0.262  30.069  0.0612  0.0729  0.2032
25440W        W31890   7.755   1.120  14.156 -0.2502  0.2155  0.0042
25441W        W31891   6.061   6.018   3.832  0.0384 -0.2625 -0.1457
25442W        W31892  17.178   3.411  25.208 -0.0358  0.2194 -0.0622
25443W        W31893  17.841   1.005  11.064  0.0709  0.0586  0.0076
25444W        W31894   2.466   3.649   4.962 -0.3167 -0.1048 -0.0254
25445W        W31895  16.611   1.936   9.842  0.1013  0.0477  0.3858
25446W        W31896  12.426   3.055  34.277  0.0093 -0.0421  0.1234
25447W        W31897  15.821   4.051  22.835  0.3112 -0.0750 -0.1316
25448W        W31898  24.347   1.320   0.598 -0.2902  0.0315 -0.2603
25449W        W31899  11.539   0.056   3.139  0.0876  0.1332 -0.2007
25450W        W31900   6.845   2.101   2.732  0.1600  0.1288 -0.1455
25451W        W31901   7.228   6.554   9.580  0.1697  0.0571  0.0639
25452W        W31902  22.359   1.897   1.469 -0.1910  0.0944 -0.1504
25453W        W31903  15.390   2.787  15.342  0.3235  0.0413 -0.3229
25454W        W31904   3.018   5.012   3.322 -0.1819 -0.1180 -0.1110
25455W        W31905   1.761   6.398  20.678  0.0058 -0.1534  0.1839
25456W        W31906  15.788   3.365  14.745 -0.0192  0.1809  0.2656
25457W        W31907  10.890   4.961  10.655 -0.1405  0.0973 -0.2250
25458W        W31908   9.930   2.716  23.401 -0.0633 -0.0245  0.0093
25459W        W31909  14.547   1.036  12.901 -0.0304 -0.3138  0.2467
25460W        W31910  15.889   5.947   5.765 -0.0223 -0.1798 -0.2093
25461W        W31911  17.147   0.450   6.390 -0.1730  0.1653 -0.2781
25462W        W31912  25.220   2.379  23.251  0.0295 -0.1905 -0.1082
25463W        W31913  17.274   0.663  29.157 -0.0317  0.0269  0.2637
25464W        W31914   7.008   2.581  22.687 -0.3878 -0.1410 -0.0316
25465W        W31915  19.450   0.538  10.425 -0.1133  0.0829  0.0168
25466W        W31916   2.840   4.901  24.429 -0.1315 -0.2141  0.3394
25467W        W31917   1.931   3.671  13.311 -0.2445  0.0986 -0.0335
25468W        W31918  15.104   0.853  14.954  0.0796  0.0369  0.3140
25469W        W31919   3.652   0.743  32.592  0.3791 -0.2153  0.0772
25470W        W31920  18.521   1.628  34.635  0.1981 -0.0189 -0.1033
25471W        W31921  12.871   3.424  22.801  0.1404  0.2506 -0.2671
25472W        W31922  24.786   4.888   4.438  0.1043 -0.1130 -0.0412
25473W        W31923   4.259   5.659   6.759  0.1675  0.2014 -0.3654
25474W        W31924   8.180   3.028  14.695  0.1459 -0.1214 -0.1524
25475W        W31925  25.301   4.354   0.863  0.2151 -0.4319 -0.1128
25476W        W31926  19.106   3.068  13.094  0.0568 -0.1649  0.2192
25477W        W31927  19.896   6.034  12.774  0.1074  0.0940  0.4515
25478W        W31928   8.298   3.797  35.875 -0.3652 -0.0148  0.1472
25479W        W31929   2.269   3.571   0.237 -0.1037 -0.0728 -0.2042
25480W        W31930  23.089   1.757   8.716  0.2287 -0.0927 -0.0087
25481W        W31931  15.295   0.572  11.859 -0.3490 -0.0412 -0.1188
25482W        W31932  13.428   6.059   0.082  0.0094  0.0936 -0.2378
25483W        W31933   8.644   0.726  31.515  0.2189  0.0513  0.0408
25484W        W31934  25.476   4.004  20.606 -0.3950 -0.0682  0.0965
25485W        W31935   7.198   5.900  31.271 -0.0816  0.0469  0.1698
25486W        W31936  23.320   4.221   1.071  0.0381  0.2669  0.0909
25487W        W31937  15.304   2.476  25.998 -0.1069 -0.3709 -0.1875
25488W        W31938   4.723   6.585  12.095  0.1505 -0.0645 -0.0049
25489W        W31939  25.781   5.120   2.419 -0.1781  0.0264 -0.2331
25490W        W31940  15.464   0.868   9.779 -0.0955  0.0761 -0.1363
25491W        W31941   0.435   0.592   8.265 -0.2324  0.2891  0.0587
25492W        W31942   3.012   0.780   6.816  0.0046 -0.1361 -0.1095
25493W        W31943   6.757   0.324  22.139  0.0697 -0.0950 -0.0602
25494W        W31944  15.027   5.697  14.172 -0.3526  0.4448 -0.0783
25495W        W31945  24.475   4.022  30.222 -0.2454 -0.0746  0.0937
25496W        W31946  18.902   6.457  11.925 -0.0447 -0.2825  0.2666
25497W        W31947  19.192   5.480   7.394 -0.2656 -0.4300  0.0289
25498W        W31948  23.202   2.246  15.026 -0.0116 -0.0089  0.0242
25499W        W31949   2.644   4.052   3.206  0.3128 -0.0671 -0.1121
25500W        W31950   3.317   1.416   2.548 -0.1354 -0.1487 -0.2144
25501W        W31951  23.506   6.063  15.391 -0.2264  0.0015  0.1533
25502W        W31952  14.256   2.425  35.701 -0.0544 -0.0732  0.2101
25503W        W31953  12.383   4.465   0.296  0.0585 -0.1037  0.1595
25504W        W31954  11.641   2.154  32.078  0.0877 -0.3204 -0.1888
25505W        W31955   7.886   0.959  26.492 -0.5077 -0.1070 -0.0301
25506W        W31956  14.392   5.082  10.142 -0.1509 -0.1815  0.0900
25507W        W31957   4.202   5.634  14.981  0.5264  0.0715  0.0053
25508W        W31958   2.962   3.831   5.012 -0.1353  0.0524  0.1061
25509W        W31959  19.809   0.181  24.850 -0.2728 -0.0590 -0.2637
25510W        W31960  26.274   0.444  35.774  0.0442 -0.4398  0.0627
25511W        W31961  10.289   5.312  13.442 -0.2183  0.0060 -0.1596
25512W        W31962  14.439   2.814   2.984 -0.0461 -0.0226 -0.1295
25513W        W31963   2.686   3.902  13.071  0.0827  0.2939 -0.1142
25514W        W31964  17.572   5.285   0.388  0.3432 -0.0612 -0.1047
25515W        W31965   2.498   2.968  28.537  0.0477  0.0156 -0.2069
25516W        W31966  21.521   2.632   4.044 -0.3511 -0.0422  0.1048
25517W        W31967  18.770   2.924  27.382  0.1730  0.0328  0.0586
25518W        W31968  10.879   1.567  31.247 -0.0017 -0.0679 -0.2179
25519W        W31969   4.308   5.284  35.182  0.2333  0.3086  0.0469
25520W        W31970   9.673   1.305  15.338 -0.0140 -0.3115  0.0308
25521W        W31971  23.085   1.187  10.274 -0.2962 -0.0978  0.2153
25522W        W31972  13.902   5.853  25.441  0.0918 -0.3421 -0.0512
25523W        W31973  17.959   3.269   2.701 -0.5537  0.2310  0.1105
25524W        W31974  11.444   0.698   5.448 -0.0931 -0.0615  0.0687
25525W        W31975  10.062   4.033  23.022 -0.2923  0.0470 -0.0676
25526W        W31976  11.650   5.814   2.556  0.0297  0.0670 -0.1737
25527W        W31977  18.445   3.644  26.936  0.0836  0.0164 -0.0783
25528W        W31978  14.704   6.397   6.830  0.0444 -0.0984 -0.3327
25529W        W31979  11.151   3.549  34.592  0.0767 -0.2792 -0.3860
25530W        W31980  14.044   3.699   8.244 -0.3020 -0.0345  0.1628
25531W        W31981  18.828   5.493   7.933  0.0343  0.0591 -0.0204
25532W        W31982   0.792   2.718   3.946  0.2861  0.0254 -0.1224
25533W        W31983  13.940   3.130  30.450  0.1362 -0.0147  0.0703
25534W        W31984   1.879   4.657  13.514  0.0111  0.1842 -0.1805
25535W        W31985   3.845   1.006  30.153 -0.1368 -0.0393 -0.2157
25536W        W31986  25.853   1.030  10.755  0.1160  0.0213  0.0512
25537W        W31987  13.248   4.766  24.596  0.1314 -0.1334 -0.2809
25538W        W31988  24.508   5.711  11.644 -0.0856 -0.0061  0.1613
25539W        W31989  13.610   5.077  26.236  0.2658  0.1654  0.0333
25540W        W31990  23.764   2.026  11.772 -0.1307 -0.1025 -0.0360
25541W        W31991  25.968   6.027  14.025  0.2282 -0.0648  0.1666
25542W        W31992   6.974   6.176  26.923 -0.0870  0.2214  0.0652
25543W        W31993   8.016   1.211  22.516  0.1234  0.2040 -0.1811
25544W        W31994  11.325   1.564   5.730 -0.0594  0.2396 -0.0188
25545W        W31995  16.252   2.106  23.608  0.0288  0.0631  0.1645
25546W        W31996  20.836   3.422  21.190 -0.0844 -0.1412 -0.1622
25547W        W31997  19.849   2.550   4.198  0.0117  0.0386 -0.1166
25548W        W31998   6.026   0.194  24.599  0.2212 -0.0921  0.1467
25549W        W31999   8.010   2.788  29.331  0.2102 -0.3926  0.1699
25550W        W32000  17.861   6.441   7.323  0.1910  0.1207  0.0140
25551W        W32001  13.714   3.026   9.919 -0.2081  0.0467  0.1319
25552W        W32002  14.248   0.328  11.805 -0.1276  0.0862 -0.1761
25553W        W32003  25.675   2.991   2.265  0.4854 -0.0997 -0.4606
25554W        W32004  16.094   3.035  31.346 -0.0149  0.1643  0.1083
25555W        W32005  20.808   5.533  32.202  0.2583 -0.0069  0.0698
25556W        W32006  18.206   2.051  31.920 -0.3792 -0.0726 -0.1767
25557W        W32007  21.677   5.292  34.683  0.1070  0.1164 -0.2677
25558W        W32008  20.919   5.122  28.990  0.2641  0.2139 -0.0205
25559W        W32009   2.055   2.142  14.170  0.0450 -0.1518  0.1632
25560W        W32010   4.863   4.511   9.054 -0.1271 -0.0402  0.2713
25561W        W32011   1.657   1.705   5.833  0.4458 -0.1187 -0.1262
25562W        W32012   5.717   6.354  27.374  0.2575  0.2274  0.0056
25563W        W32013  14.538   6.255  21.993 -0.2381 -0.4265  0.1344
25564W        W32014  15.952   2.040  29.144 -0.0233  0.2086 -0.1702
25565W        W32015  12.930   1.125  22.644  0.0615 -0.0379 -0.2246
25566W        W32016  16.777   1.868  25.314 -0.0908  0.2088 -0.2119
25567W        W32017  16.346   3.398   0.575 -0.3670 -0.0435 -0.5808
25568W        W32018  15.830   0.299  24.511 -0.0187  0.3490  0.1091
25569W        W32019  12.375   5.119   2.692  0.2935  0.3914 -0.0841
25570W        W32020  17.862   2.928  27.595  0.2491 -0.1035 -0.0794
25571W        W32021   4.140   2.444  21.233 -0.0411  0.2876 -0.2615
25572W        W32022  19.209   2.487  10.335 -0.2213  0.1164 -0.0375
25573W        W32023   2.382   0.525  26.245  0.3777  0.0776  0.0213
25574W        W32024  20.871   0.233  26.512 -0.2259  0.1796 -0.0588
25575W        W32025   7.992   3.237  11.183 -0.0785  0.0525 -0.3105
25576W        W32026  19.706   2.126  20.397 -0.2771 -0.0853 -0.3836
25577W        W32027   5.745   2.009  12.218  0.0659 -0.0519  0.0542
25578W        W32028  22.878   0.545  35.031  0.1277 -0.0796  0.2305
25579W        W32029   7.981   2.437   4.450  0.2806 -0.1848 -0.3136
25580W        W32030  17.270   3.328  11.738  0.2164 -0.0728 -0.3181
25581W        W32031  15.535   3.999   6.148  0.0670 -0.0925 -0.0165
25582W        W32032  15.515   1.278   9.305  0.0396 -0.1714  0.0506
25583W        W32033  17.282   5.136  25.927 -0.0101 -0.0477  0.0464
25584W        W32034   2.470   0.772  15.527  0.0231  0.0045 -0.0937
25585W        W32035   4.695   0.024  29.339  0.0767  0.1080  0.0863
25586W        W32036  23.990   2.444  28.219  0.3233  0.0289  0.1684
25587W        W32037  22.773   3.788  32.793 -0.1880  0.0733 -0.2020
25588W        W32038  17.654   4.398  12.123  0.1233  0.0462 -0.0686
25589W        W32039  22.182   1.041  27.054 -0.0182  0.1258 -0.1726
25590W        W32040  16.977   2.083  23.275 -0.0916  0.1090 -0.1243
25591W        W32041  21.284   1.165   6.561  0.1663 -0.0007 -0.0333
25592W        W32042  25.105   4.906  24.154  0.0715 -0.0255 -0.0325
25593W        W32043  21.600   0.966  21.343 -0.0996 -0.0555 -0.1861
25594W        W32044   3.497   1.923   0.936 -0.1619  0.0271  0.0436
25595W        W32045  17.381   5.285  35.293 -0.2992  0.0643 -0.2509
25596W        W32046  11.358   0.189  29.383 -0.1277  0.0967  0.1878
25597W        W32047  14.409   5.639   9.737  0.3228 -0.1801  0.1211
25598W        W32048  24.713   4.328  14.739 -0.0492  0.1380 -0.0134
25599W        W32049  11.069   1.106   6.743  0.2156  0.0262 -0.0673
25600W        W32050  21.122   5.273  21.391 -0.3019  0.3258  0.1520
25601W        W32051  17.050   5.541  20.547 -0.1068 -0.5037 -0.0483
25602W        W32052   8.755   3.937   1.077 -0.2395  0.0032 -0.2391
25603W        W32053  12.965   4.726  33.848  0.1597 -0.0511 -0.0208
25604W        W32054   6.237   1.246  29.044 -0.2235 -0.3512  0.2311
25605W        W32055   4.078   5.020  26.818  0.0690 -0.2658 -0.0395
25606W        W32056  22.790   4.490   9.012 -0.0838 -0.0553  0.0417
25607W        W32057   4.911   0.731  24.958  0.0194 -0.2158 -0.1748
25608W        W32058  24.984   1.008  29.668  0.0082  0.0013  0.2177
25609W        W32059  22.171   0.606  34.189  0.2533  0.0871  0.5049
25610W        W32060  18.414   5.840  22.496  0.1001  0.0000  0.0170
25611W        W32061   4.848   3.405  30.759 -0.1096 -0.1690  0.1562
25612W        W32062  20.201   5.535  24.161 -0.0431 -0.3296  0.1763
25613W        W32063  22.587   3.401  23.646 -0.1993 -0.1452  0.0682
25614W        W32064  22.739   2.440   9.854 -0.2954  0.2305  0.1749
25615W        W32065  10.926   2.634  11.136  0.0789  0.0611 -0.0580
25616W        W32066   2.641   5.132  14.299  0.3235  0.1202  0.5252
25617W        W32067   2.841   2.992  14.146 -0.2574 -0.3046  0.0186
25618W        W32068   0.809   5.804  32.961  0.1272 -0.0587 -0.3865
25619W        W32069  18.642   5.291  14.458 -0.0815 -0.1383 -0.4930
25620W        W32070  24.985   2.274  13.689  0.0085 -0.0560  0.2161
25621W        W32071  23.518   3.901  34.969  0.0686  0.2991  0.1646
25622W        W32072  14.334   0.278   3.652  0.0125  0.1770 -0.0178
25623W        W32073  12.089   1.465  32.416  0.2874 -0.0504 -0.3016
25624W        W32074   5.674   4.493   3.985  0.1722 -0.1237  0.0409
25625W        W32075  17.149   0.658   1.145 -0.2059 -0.0324  0.0185
25626W        W32076  16.709   2.546  28.170 -0.2247 -0.3515 -0.0820
25627W        W32077  14.124   3.323   1.213  0.0592  0.0129 -0.1001
25628W        W32078  15.087   6.244  31.467 -0.3028 -0.2737  0.0577
25629W        W32079  13.304   0.996   5.192 -0.0470  0.0284  0.3712
25630W        W32080  20.461   3.158  31.265 -0.0552  0.4148  0.1384
25631W        W32081  22.579   6.203  34.045  0.3000 -0.1581 -0.1135
25632W        W32082  15.336   3.775  15.444 -0.2127 -0.2158  0.0718
25633W        W32083  19.440   0.661  31.849 -0.0236 -0.0329 -0.0909
25634W        W32084   5.357   2.785   1.493 -0.0505  0.1207 -0.1314
25635W        W32085  14.079   3.952  27.500  0.0913 -0.1904  0.1243
25636W        W32086   9.318   1.715   6.276  0.1327  0.3113  0.1344
25637W        W32087  15.706   4.114  34.351 -0.2119  0.2885  0.0779
25638W        W32088   4.829   3.925   3.955  0.0458  0.1473  0.1589
25639W        W32089  12.832   4.446   2.897  0.0732  0.0540  0.1181
25640W        W32090  25.348   0.729  28.035  0.4910 -0.0928  0.2776
25641W        W32091  20.201   5.655  20.919 -0.0520 -0.0113  0.1640
25642W        W32092   1.180   5.529  10.396 -0.1148 -0.1802  0.1884
25643W        W32093  19.047   4.161  25.149 -0.1566 -0.1701  0.0771
25644W        W32094  18.016   1.060   7.438  0.2464  0.1572  0.1647
25645W        W32095  21.479   6.433  33.167 -0.1101 -0.0108 -0.0769
25646W        W32096   2.858   0.146  29.625 -0.0314  0.1561 -0.0361
25647W        W32097  17.953   2.490  27.730  0.1100  0.2927 -0.1748
25648W        W32098   5.955   0.389  31.698  0.0273  0.4758  0.0942
25649W        W32099  11.227   0.148  30.348  0.1693  0.2075 -0.0264
25650W        W32100  23.036   4.821  15.275 -0.1038  0.2221 -0.1009
25651W        W32101  15.414   1.854  11.776  0.2368  0.2486 -0.2738
25652W        W32102   3.082   3.829   3.125 -0.4271  0.0964 -0.3123
25653W        W32103  17.278   4.762  24.010  0.2607 -0.1221  0.2410
25654W        W32104   1.509   3.633   0.862 -0.1555  0.1115 -0.0698
25655W        W32105  24.625   2.093  15.995  0.0890 -0.0047 -0.0393
25656W        W32106  12.224   5.700  33.072 -0.1090 -0.1860 -0.0587
25657W        W32107  24.076   4.988  30.792  0.1167  0.1603  0.0025
25658W        W32108   4.205   2.987  34.586 -0.1271  0.0864  0.4278
25659W        W32109  16.552   2.551  23.544  0.0905  0.1133 -0.0745
25660W        W32110  24.330   4.585  28.765  0.4603  0.0200 -0.1544
25661W        W32111  19.507   0.039  10.651 -0.0379 -0.1335 -0.0090
25662W        W32112   3.586   3.198   0.087 -0.0645  0.0412 -0.2958
25663W        W32113  23.441   1.047  24.846 -0.0208 -0.1895 -0.1035
25664W        W32114  19.742   4.292  31.871 -0.0873  0.1962 -0.0662
25665W        W32115  18.306   0.195  32.215  0.0680  0.1653 -0.0638
25666W        W32116  13.251   2.826  25.355  0.1009 -0.1785  0.1085
25667W        W32117  16.247   3.817  12.065 -0.0202  0.1825  0.1405
25668W        W32118  19.773   4.881  12.144  0.1151  0.1734 -0.1249
25669W        W32119   0.338   4.532   5.495  0.1175  0.1192 -0.1955
25670W        W32120  11.882   2.692  10.616 -0.1443 -0.1923 -0.0826
25671W        W32121   9.668   2.686   7.767 -0.3097 -0.2975 -0.0266
25672W        W32122  20.212   2.544   3.384 -0.0038 -0.0888 -0.2447
25673W        W32123  25.528   2.996  30.235 -0.1151  0.1066  0.2063
25674W        W32124  25.919   5.774  30.359  0.0261  0.0168 -0.0108
25675W        W32125  10.508   2.378  29.004 -0.1651  0.1298 -0.2224
25676W        W32126   7.897   2.705  35.118 -0.2596  0.0604 -0.1098
25677W        W32127   9.683   2.632  22.890  0.0578  0.1569  0.2114
25678W        W32128  14.879   2.677   2.145  0.0645  0.0364  0.0282
25679W        W32129   7.612   3.125  24.020 -0.1623 -0.0795 -0.2058
25680W        W32130   3.038   0.582  35.531  0.2323  0.1916  0.2659
25681W        W32131  24.760   6.342  23.699 -0.0979  0.2678 -0.2306
25682W        W32132   9.398   4.946  24.407 -0.0312 -0.0140 -0.2888
25683W        W32133  11.221   4.893  11.577  0.0383 -0.3527 -0.1374
25684W        W32134   3.179   4.601  25.153  0.3385  0.4092  0.0019
25685W        W32135   3.811   4.970  28.054  0.1992 -0.1094  0.1155
25686W        W32136  19.845   2.512  24.682  0.2240  0.0385 -0.0329
25687W        W32137  20.358   2.587   4.337 -0.0784 -0.2291  0.0052
25688W        W32138   5.582   0.710  27.103  0.0799 -0.1241  0.0263
25689W        W32139   9.189   4.705  35.448 -0.2335  0.0080 -0.1385
25690W        W32140  23.045   6.028  31.329 -0.1953 -0.1063 -0.0554
25691W        W32141  15.295   6.295  23.051 -0.0730  0.2323  0.0157
25692W        W32142  20.027   3.344  27.901  0.1206  0.0745  0.0562
25693W        W32143  13.790   5.037  34.743  0.0648 -0.0331 -0.0277
25694W        W32144   1.046   3.668   4.236 -0.1330 -0.2584 -0.2253
25695W        W32145   4.164   1.428  33.179  0.1085  0.1053  0.1999
25696W        W32146   9.658   6.340   5.578  0.0726 -0.1032 -0.0046
25697W        W32147  24.279   6.370   3.606  0.0688 -0.0383  0.0755
25698W        W32148  11.375   6.206  28.183  0.3482 -0.2685 -0.0214
25699W        W32149  20.051   5.830  10.896 -0.2338 -0.1361  0.0341
25700W        W32150   5.835   4.552  29.465 -0.0925 -0.2277  0.0357
25701W        W32151  11.691   0.621   0.238  0.0939 -0.1165  0.2740
25702W        W32152   4.479   2.537   3.556 -0.1053 -0.1980 -0.0097
25703W        W32153   2.487   4.066   5.659 -0.1847 -0.1129  0.0306
25704W        W32154   9.188   2.364   2.449  0.1671  0.0480  0.3379
25705W        W32155  22.849   0.549  27.382  0.1189 -0.0854  0.0321
25706W        W32156   0.867   4.586  23.159 -0.1748  0.0867 -0.1233
25707W        W32157  19.270   2.063   4.177  0.1631  0.2965 -0.0359
25708W        W32158   4.823   0.042  29.923 -0.1227  0.0181 -0.0782
25709W        W32159   5.109   0.524  25.368 -0.0949  0.0406  0.0772
25710W        W32160  11.874   4.375  10.095  0.0118  0.0806  0.0116
25711W        W32161  20.157   2.463   8.606 -0.0982  0.0886  0.0209
25712W        W32162  19.468   3.558  34.489 -0.5072  0.1967 -0.5289
25713W        W32163  10.091   2.787   7.987  0.2464 -0.2501  0.0518
25714W        W32164   0.581   5.883  14.942 -0.0385 -0.0159  0.1064
25715W        W32165  11.006   3.348  32.502  0.1199 -0.1889 -0.0233
25716W        W32166   4.749   2.785  27.398  0.2693  0.2362 -0.0251
25717W        W32167  20.554   2.367  25.099 -0.1234 -0.2200 -0.1805
25718W        W32168  24.906   2.906   2.623 -0.0999 -0.2797  0.0876
25719W        W32169  11.321   5.974  25.189 -0.2757 -0.2176 -0.1283
25720W        W32170  15.086   0.115  24.086 -0.0236  0.0374 -0.2622
25721W        W32171  17.400   2.426  30.386  0.2333  0.0839 -0.0001
25722W        W32172   8.984   1.365  12.250  0.1589 -0.0329 -0.0857
25723W        W32173  23.575   3.149  32.250 -0.1199  0.1416  0.2226
25724W        W32174  12.258   5.077  13.910  0.1713 -0.1099 -0.1765
25725W        W32175  21.345   4.556  12.816 -0.0060 -0.0867 -0.0091
25726W        W32176  15.992   3.448  29.733 -0.0025  0.2545  0.0768
25727W        W32177   2.235   5.843   0.329  0.0545  0.0717  0.2292
25728W        W32178   9.472   1.439  12.124  0.0181  0.1470  0.2584
25729W        W32179  22.988   4.128  10.530 -0.0414 -0.6018  0.1895
25730W        W32180   2.322   1.978   5.099  0.0729  0.0187  0.0941
25731W        W32181  19.375   4.871   4.328  0.3922  0.0158  0.0883
25732W        W32182   1.459   4.539  25.034 -0.1474 -0.0164 -0.1550
25733W        W32183  18.160   5.739  12.166  0.0023  0.0200  0.3299
25734W        W32184   7.867   5.778  24.100 -0.0404  0.4340  0.1615
25735W        W32185  23.811   4.677  30.046  0.2659 -0.0291  0.0248
25736W        W32186  22.721   5.220  15.258  0.0270 -0.4644 -0.2959
25737W        W32187  25.733   1.937  21.789  0.0214 -0.0095 -0.2655
25738W        W32188  11.546   1.746   3.082  0.1252  0.3944 -0.1836
25739W        W32189   9.674   5.876   2.102 -0.1361  0.1203 -0.0150
25740W        W32190  11.820   3.649  29.993 -0.0235 -0.0195  0.0192
25741W        W32191   4.910   3.605  26.713  0.4256 -0.1351  0.0693
25742W        W32192  19.085   1.150  14.104 -0.1541  0.0641  0.0971
25743W        W32193   0.395   2.429   0.582  0.0275  0.1103 -0.0438
25744W        W32194   4.298   3.654  33.491 -0.0682  0.1487  0.0959
25745W        W32195  24.209   4.564   1.083  0.1270  0.1629 -0.0215
25746W        W32196  10.585   5.692  23.336  0.0347 -0.0251  0.1333
25747W        W32197   3.813   2.526  10.305 -0.0892 -0.1169 -0.0134
25748W        W32198   9.636   1.022  30.484  0.0401 -0.1422  0.1216
25749W        W32199  20.833   5.013  32.936 -0.1909  0.2666 -0.0774
25750W        W32200  21.326   6.233  21.516  0.0358  0.1621 -0.1899
25751W        W32201  19.040   1.335  12.876 -0.2568  0.0453  0.1077
25752W        W32202  12.466   4.435   5.104  0.0146  0.0848  0.0025
25753W        W32203   2.327   2.448  27.761  0.0597  0.1861 -0.2028
25754W        W32204  21.489   2.985  13.057 -0.1394  0.0303  0.0778
25755W        W32205  14.292   1.653   3.600  0.0236  0.2382 -0.1369
25756W        W32206   7.874   1.339   6.685 -0.2207  0.3146  0.1495
25757W        W32207  26.316   0.968  30.128  0.2238 -0.0983  0.0484
25758W        W32208  23.315   2.658  33.560  0.0651 -0.0879 -0.0847
25759W        W32209  22.451   4.475  20.765 -0.2030 -0.1569  0.3735
25760W        W32210  18.227   5.733   0.899  0.1278  0.0629 -0.0891
25761W        W32211   4.044   6.050  35.706 -0.0887 -0.0497 -0.2820
25762W        W32212  18.175   0.056   4.507 -0.1999 -0.0687  0.1117
25763W        W32213  24.736   0.165   5.102  0.1734 -0.3256  0.1613
25764W        W32214   7.032   4.673  27.142  0.0819 -0.0767 -0.1683
25765W        W32215  17.774   0.313   7.215 -0.2672 -0.1589 -0.0688
25766W        W32216  10.614   2.535  11.728 -0.0714  0.1496 -0.1694
25767W        W32217   8.605   0.769   1.254  0.0874  0.3790 -0.2080
25768W        W32218  22.856   3.528  10.516 -0.1569 -0.0429  0.1056
25769W        W32219  23.032   5.311  34.946 -0.0275 -0.0543 -0.0487
25770W        W32220  17.734   2.907  24.719  0.0890 -0.2228 -0.0583
25771W        W32221  21.946   1.803  25.353  0.0943  0.0234  0.0200
25772W        W32222  24.481   0.419   0.151  0.2252  0.1535 -0.0923
25773W        W32223   2.999   3.640  30.132 -0.2019 -0.0684  0.0289
25774W        W32224  17.458   1.739  29.335  0.2122  0.2343 -0.2516
25775W        W32225  16.836   1.661   9.511 -0.1620  0.2027  0.0699
25776W        W32226   3.586   3.586  31.813  0.0627  0.0418  0.2148
25777W        W32227  24.424   3.621   1.392 -0.0866 -0.2001 -0.0836
25778W        W32228   9.962   0.517  32.941 -0.0703 -0.1232 -0.0276
25779W        W32229   5.818   4.606  30.965  0.1435  0.0620 -0.0627
25780W        W32230  11.733   5.073   6.812 -0.1929  0.2479 -0.0863
25781W        W32231  24.876   0.615  24.914  0.0323  0.2089  0.0966
25782W        W32232  21.629   6.109  29.750 -0.0525 -0.0213  0.2147
25783W        W32233   3.916   2.679  32.728  0.1840 -0.5266 -0.1844
25784W        W32234   1.371   3.007  36.045  0.2157  0.2152 -0.2580
25785W        W32235   2.691   2.786   4.190 -0.0941  0.1878 -0.0300
25786W        W32236  11.453   2.667   3.451 -0.2158 -0.0114 -0.1589
25787W        W32237   2.508   6.463  31.904 -0.3624  0.2336  0.1576
25788W        W32238  11.460   4.471  13.011 -0.1603 -0.3175 -0.1171
25789W        W32239  26.047   1.370   0.450 -0.1702 -0.1711 -0.0036
25790W        W32240  10.323   3.181  24.120  0.0811  0.1621 -0.0481
25791W        W32241  21.165   5.884   4.396 -0.0075  0.1933 -0.0767
25792W        W32242  13.390   1.101  35.525 -0.2460  0.2283  0.0872
25793W        W32243  17.933   4.224   1.775 -0.0274  0.0280 -0.2268
25794W        W32244   0.862   2.400   2.353 -0.3107 -0.0108  0.0744
25795W        W32245   2.845   3.109  20.893  0.2902  0.2129  0.1315
25796W        W32246   3.009   1.671   3.225 -0.1649 -0.1362  0.1331
25797W        W32247  21.201   3.187  34.749  0.1321  0.0100  0.1991
25798W        W32248   1.914   1.352   8.398  0.0221  0.0966 -0.2189
25799W        W32249  22.156   2.402  28.860 -0.0275 -0.1952  0.0125
25800W        W32250  11.162   1.691  22.036 -0.2763 -0.0086 -0.3075
25801W        W32251  17.701   5.531   7.227 -0.0859 -0.1099 -0.0201
25802W        W32252  25.611   6.536  14.105  0.0457  0.4054 -0.2386
25803W        W32253  21.466   1.723  11.812  0.1421 -0.2324  0.0278
25804W        W32254   3.679   6.313  23.026 -0.0035 -0.0376  0.3302
25805W        W32255  10.291   5.854  22.297  0.1215  0.3227  0.0344
25806W        W32256   3.801   5.560  10.263  0.2825  0.0490  0.0946
25807W        W32257   8.311   1.406  21.486  0.3413  0.0683 -0.0906
25808W        W32258   4.485   4.264  25.583 -0.3240  0.0292 -0.0466
25809W        W32259  15.559   0.194  10.792  0.1702 -0.0567 -0.0751
25810W        W32260  12.428   2.993   5.081 -0.2402  0.1497 -0.1129
25811W        W32261  24.673   5.884  12.531 -0.0617  0.1354  0.0596
25812W        W32262  15.785   4.731   6.742 -0.1273 -0.1038  0.0821
25813W        W32263  17.722   1.002   4.613  0.3199  0.3553 -0.0810
25814W        W32264  17.361   4.459   7.646 -0.0070  0.0661  0.3096
25815W        W32265  19.584   6.280  30.018 -0.1478 -0.1212  0.1586
25816W        W32266  17.414   1.197   7.975 -0.0004 -0.4481 -0.0691
25817W        W32267   6.023   4.602  12.922  0.1329  0.2030  0.0796
25818W        W32268  13.037   3.545   8.397  0.2416 -0.0455 -0.1403
25819W        W32269  22.701   2.159  14.994  0.0010  0.2092  0.0816
25820W        W32270  24.786   6.353  14.069  0.0935  0.1380  0.4693
25821W        W32271  26.421   5.714  12.172 -0.2008 -0.2829  0.0551
25822W        W32272   7.927   4.673   0.225  0.1204 -0.0759  0.0795
25823W        W32273  12.106   3.333   3.267  0.1182 -0.0104  0.0309
25824W        W32274  22.923   1.963  26.775 -0.1486  0.0465  0.0039
25825W        W32275   3.760   2.134  22.976  0.2394  0.2929  0.0164
25826W        W32276  20.013   0.006   2.573 -0.4136 -0.1921  0.1086
25827W        W32277  15.702   2.375  14.097  0.1284 -0.0839 -0.2248
25828W        W32278  15.590   0.530  28.014 -0.0197 -0.1363 -0.0089
25829W        W32279  14.797   5.702   3.533 -0.0259 -0.3188 -0.1482
25830W        W32280   0.124   0.428   3.244  0.1050 -0.1491 -0.2834
25831W        W32281   6.365   3.950   0.091 -0.1603  0.2034  0.1505
25832W        W32282  21.761   6.299   7.710  0.0539  0.1342  0.3037
25833W        W32283  25.983   2.270  12.378  0.1998 -0.3518 -0.0064
25834W        W32284   6.845   3.788  27.107  0.0601  0.1253 -0.3233
25835W        W32285   4.136   5.789  11.702 -0.1346  0.2031  0.3431
25836W        W32286  23.499   4.089  10.453 -0.0843 -0.1155 -0.3570
25837W        W32287   4.354   6.276  34.132  0.1568  0.1604 -0.2476
25838W        W32288   9.534   5.480  22.699  0.3502  0.2495  0.1943
25839W        W32289  17.505   3.337   6.781  0.0282  0.1850  0.0261
25840W        W32290   0.250   4.843  24.558  0.0656  0.1857 -0.2294
25841W        W32291  10.152   4.041  23.529  0.2343 -0.3390 -0.1108
25842W        W32292   4.874   0.516  10.239 -0.4805  0.1134 -0.1923
25843W        W32293  17.598   0.174  32.180  0.2474 -0.0880 -0.0631
25844W        W32294  16.823   0.360  13.575 -0.1226 -0.1602 -0.1877
25845W        W32295  19.547   0.534  14.724  0.0643 -0.1221  0.1864
25846W        W32296  13.731   1.446  34.218  0.1451  0.1746 -0.1840
25847W        W32297   3.151   1.332  31.738 -0.2405  0.2308  0.1387
25848W        W32298  17.454   5.248  32.132 -0.3485  0.0154 -0.1100
25849W        W32299  23.607   3.485   1.448 -0.1784  0.1483  0.0509
25850W        W32300  17.013   6.362  14.892 -0.2634  0.0733  0.2842
25851W        W32301   7.093   3.095   6.061  0.0696 -0.0539 -0.2030
25852W        W32302   8.648   3.166  10.154  0.0461  0.4070  0.2741
25853W        W32303  21.346   6.519  10.343 -0.0095  0.0903 -0.1032
25854W        W32304   4.988   6.120  33.211  0.3239  0.0710  0.1419
25855W        W32305   7.348   0.877  13.451  0.1759  0.1158  0.1743
25856W        W32306  24.915   4.744   0.796  0.0310 -0.1078 -0.1090
25857W        W32307   1.535   0.375  35.194  0.2402 -0.2521  0.1262
25858W        W32308  18.454   5.237   6.751  0.1256 -0.0701 -0.4356
25859W        W32309  25.271   4.473   3.822 -0.0341 -0.0610  0.0250
25860W        W32310   2.303   4.403  21.223  0.0222  0.3462 -0.2165
25861W        W32311  11.853   2.570  28.473  0.0670 -0.1279 -0.0149
25862W        W32312  14.306   1.675  21.591  0.0999 -0.1682 -0.1529
25863W        W32313   9.095   6.449   8.988 -0.1367 -0.0034 -0.1923
25864W        W32314  14.743   0.063  28.328  0.0339  0.2807 -0.1243
25865W        W32315   5.962   4.825   6.435  0.1666 -0.0289  0.0242
25866W        W32316   3.827   1.966  11.267 -0.0223 -0.0149  0.0116
25867W        W32317  22.983   0.643   3.643  0.0073  0.0784  0.2130
25868W        W32318  22.050   1.122  33.267  0.1791  0.1762 -0.2401
25869W        W32319  14.219   5.191  11.128  0.0161 -0.1784 -0.1841
25870W        W32320   6.707   6.561  28.508  0.1531  0.1758 -0.0668
25871W        W32321  19.889   1.580   4.852  0.0676 -0.2150 -0.2328
25872W        W32322  20.764   5.246  35.607 -0.1632  0.0986  0.2214
25873W        W32323  24.214   3.102   7.785  0.1750 -0.0976  0.0463
25874W        W32324  25.946   4.484  10.668  0.1506 -0.2585 -0.1644
25875W        W32325   9.768   1.130   9.545 -0.1904  0.3490  0.1678
25876W        W32326  12.703   2.078  33.096 -0.0439  0.0229 -0.2135
25877W        W32327   8.082   1.577  14.241  0.0541 -0.0714  0.1654
25878W        W32328  25.858   5.489  30.780 -0.2471  0.0263 -0.1753
25879W        W32329  15.816   4.910   5.353  0.3124  0.0052 -0.2620
25880W        W32330  21.663   3.900  28.061  0.1191 -0.2099 -0.0814
25881W        W32331  14.151   3.021  15.892  0.0484 -0.0297 -0.1502
25882W        W32332  19.220   5.400  27.952 -0.0724  0.1309 -0.2046
25883W        W32333  22.337   5.670  34.106 -0.2103  0.0302  0.2735
25884W        W32334   6.128   0.797  15.376 -0.1074  0.1452  0.0197
25885W        W32335  15.221   5.161  14.026 -0.0892 -0.3204 -0.0288
25886W        W32336  19.189   0.841  21.754  0.1108  0.3394 -0.1617
25887W        W32337   1.828   5.306  21.779 -0.1283 -0.3854 -0.0545
25888W        W32338  25.770   2.096  29.887 -0.3982 -0.1872 -0.0194
25889W        W32339  26.140   0.368   8.314 -0.0697 -0.0919  0.0186
25890W        W32340   9.228   3.616  28.174  0.2400  0.0021  0.2732
25891W        W32341  18.783   3.350   5.438  0.0082  0.0575  0.2036
25892W        W32342   6.156   2.798  23.040  0.0124  0.1731  0.2842
25893W        W32343  21.387   2.833  12.419 -0.1001 -0.0967  0.2576
25894W        W32344   6.896   4.791  33.307  0.3716  0.1165 -0.0829
25895W        W32345  13.572   6.477  10.342  0.1231 -0.2758  0.0618
25896W        W32346  11.084   3.019   9.484 -0.1869  0.1028  0.2526
25897W        W32347  18.605   5.394   2.004  0.1311  0.0674  0.2367
25898W        W32348   7.026   5.485   5.271 -0.0241 -0.0745  0.5018
25899W        W32349  24.526   6.312  21.448  0.2110  0.0878 -0.1415
25900W        W32350  15.411   1.530   7.140 -0.4569 -0.2727  0.0098
25901W        W32351   2.909   0.231  32.001  0.2063  0.0595  0.1043
25902W        W32352   9.315   2.410   1.522 -0.1329 -0.0172  0.2759
25903W        W32353  10.615   6.284  21.498 -0.0896 -0.0296 -0.0363
25904W        W32354   8.662   6.181   7.613 -0.0360 -0.0487  0.0227
25905W        W32355   1.684   5.832  27.825 -0.0714 -0.1939  0.2410
25906W        W32356  22.957   3.023  10.676  0.0443 -0.1004 -0.0062
25907W        W32357   4.035   3.415   0.070  0.2634  0.1709  0.1423
25908W        W32358  23.385   2.401  23.594 -0.1612 -0.1596  0.2778
25909W        W32359  15.043   4.054  27.067  0.1511  0.0285 -0.1586
25910W        W32360  14.237   4.829  33.430  0.0547  0.0750 -0.2201
25911W        W32361  26.160   5.718  34.681 -0.0851 -0.2340  0.1463
25912W        W32362  25.600   5.549  33.624  0.0575 -0.1585  0.2469
25913W        W32363  11.028   2.406  27.980  0.0603 -0.0302  0.1081
25914W        W32364  21.619   5.872   5.669  0.0621  0.0622  0.5269
25915W        W32365  16.035   4.826  35.488  0.1399 -0.2386  0.0636
25916W        W32366   4.882   4.821  15.449 -0.2433 -0.0389 -0.0315
25917W        W32367  23.494   5.953  11.685 -0.0212 -0.2041 -0.3569
25918W        W32368   2.773   3.622   5.421  0.0484 -0.1488  0.0258
25919W        W32369   2.914   4.980   2.106  0.0992  0.0346 -0.1067
25920W        W32370  22.436   1.838  21.781 -0.2093 -0.0975 -0.1617
25921W        W32371   0.672   1.125  31.408 -0.0911 -0.0898  0.1504
25922W        W32372  12.953   0.086   8.122 -0.0553 -0.1632 -0.0313
25923W        W32373   4.058   3.015   6.076  0.2829 -0.4068 -0.2220
25924W        W32374   8.386   3.414  11.601  0.1437 -0.0444  0.0357
25925W        W32375  16.485   5.824  35.226 -0.4480  0.1918  0.0654
25926W        W32376  10.955   4.979   5.454 -0.0575  0.0369  0.2208
25927W        W32377   7.664   2.564  21.076 -0.0806 -0.2516  0.2008
25928W        W32378  10.172   5.727   5.353 -0.0263  0.2018 -0.1559
25929W        W32379  17.332   0.164   4.688 -0.2649 -0.0261  0.3370
25930W        W32380  16.573   3.803  28.024 -0.0716  0.1298 -0.1524
25931W        W32381  14.908   2.345   8.171 -0.2186 -0.1631  0.1763
25932W        W32382  13.989   3.990   2.286  0.1249  0.0903  0.0081
25933W        W32383  14.365   2.234  28.227 -0.3810 -0.1230  0.3229
25934W        W32384   1.941   3.754   1.053  0.1223  0.2616  0.1463
25935W        W32385   7.495   0.116  13.691  0.1254  0.2757 -0.1554
25936W        W32386  14.113   1.809  31.616  0.1866  0.1228 -0.2799
25937W        W32387  15.132   5.484   1.910  0.0669  0.2204  0.1829
25938W        W32388  12.272   5.130  33.642 -0.3007  0.1075  0.4914
25939W        W32389  17.027   5.610  32.256  0.0418 -0.4634  0.0019
25940W        W32390   5.491   0.128   9.194 -0.0679  0.2840  0.0259
25941W        W32391  12.894   0.751   0.548 -0.2045 -0.0190 -0.1149
25942W        W32392  22.781   6.301  25.521 -0.4030  0.3278  0.0701
25943W        W32393   8.159   0.939  20.312  0.0063 -0.0236  0.1594
25944W        W32394  18.329   6.338   2.265  0.0318 -0.0826  0.2348
25945W        W32395   0.178   4.430   0.885 -0.1833  0.1486  0.1175
25946W        W32396  14.927   2.622   8.624 -0.2801 -0.3033  0.2959
25947W        W32397  11.147   6.079   6.512  0.2035  0.0980 -0.2020
25948W        W32398  14.371   3.183  25.016  0.0506 -0.1135 -0.0313
25949W        W32399  10.780   2.340   1.503 -0.1213  0.0901 -0.1438
25950W        W32400   8.031   5.437   0.698  0.0353 -0.0285  0.0379
25951W        W32401  21.633   5.782  27.358  0.0681  0.0844  0.3246
25952W        W32402  18.580   3.865   6.556  0.0404 -0.1448 -0.2048
25953W        W32403   6.126   1.617  14.628 -0.0651  0.3027  0.3291
25954W        W32404  24.524   1.514  22.791  0.0146  0.1807  0.0548
25955W        W32405   7.659   5.988  21.192  0.1964  0.0397 -0.5100
25956W        W32406   8.100   6.259   8.787  0.0283 -0.2509 -0.0744
25957W        W32407   6.981   0.849   0.795  0.0835 -0.0332 -0.1688
25958W        W32408   0.363   4.844  13.673  0.0495  0.0281  0.1475
25959W        W32409  24.886   0.626  14.729  0.3139  0.0216  0.1755
25960W        W32410   9.638   0.202  34.306 -0.0115 -0.2573  0.1879
25961W        W32411  10.711   1.987   4.125 -0.1913 -0.1561  0.0224
25962W        W32412  11.605   6.179  36.146 -0.2177  0.1550  0.1683
25963W        W32413   5.735   4.614  27.744 -0.1229  0.2076  0.1407
25964W        W32414   9.578   6.016  25.901  0.3637  0.1023 -0.4173
25965W        W32415  17.664   4.517  15.254 -0.2229  0.0067 -0.0817
25966W        W32416   2.953   4.699  26.070  0.0832  0.0159  0.1038
25967W        W32417  16.142   4.367  13.313  0.2123  0.2738 -0.0946
25968W        W32418   2.244   1.207  31.513  0.4393 -0.1004 -0.0444
25969W        W32419  11.034   2.479  10.672 -0.1330  0.1484 -0.0021
25970W        W32420   8.858   3.033  26.030  0.0251 -0.1679  0.1019
25971W        W32421   2.264   3.341  29.935  0.0613 -0.0774 -0.0262
25972W        W32422   3.647   0.895  31.767 -0.1033 -0.1954 -0.2977
25973W        W32423   6.744   5.839   1.105  0.1119  0.1275  0.0486
25974W        W32424   7.743   6.056  22.686  0.0826 -0.1464 -0.1121
25975W        W32425   8.480   6.510  27.493  0.1420  0.1512  0.0030
25976W        W32426  16.160   5.897  25.368 -0.1123  0.1011  0.2561
25977W        W32427  24.036   3.759   2.155  0.0184  0.0249 -0.1056
25978W        W32428  10.959   0.158  20.595  0.1372  0.2063 -0.2716
25979W        W32429  24.998   5.286  32.640  0.1352 -0.0102 -0.0911
25980W        W32430  19.327   1.213  26.581  0.0755 -0.0855 -0.1633
25981W        W32431  14.783   3.514  13.730 -0.1623 -0.3144 -0.1764
25982W        W32432   4.515   1.824  31.922  0.0092  0.0628  0.0581
25983W        W32433  11.805   0.621   3.271 -0.1236  0.0169  0.3152
25984W        W32434  16.014   4.127  11.638 -0.0826 -0.2174 -0.0426
25985W        W32435  24.097   3.305   9.450 -0.2837 -0.0195 -0.0966
25986W        W32436  14.848   1.623  21.595  0.1632 -0.0366  0.3349
25987W        W32437   7.046   4.052   4.020  0.1021 -0.0110  0.0740
25988W        W32438  11.757   0.651  35.589  0.3122 -0.2494  0.1730
25989W        W32439   3.058   0.309  32.827 -0.1825  0.1327  0.2578
25990W        W32440   5.928   4.766  32.712 -0.1578 -0.0763  0.0647
25991W        W32441   5.831   4.893   8.461 -0.0897 -0.1010 -0.1730
25992W        W32442  10.077   0.646  22.998 -0.2473 -0.1835 -0.3584
25993W        W32443  15.677   3.409  32.594  0.1552 -0.1003  0.0937
25994W        W32444  11.390   4.584  27.270 -0.2017 -0.1176  0.2054
25995W        W32445   2.733   5.304  22.354 -0.0526 -0.5031 -0.1950
25996W        W32446  22.138   0.737   1.211 -0.2450 -0.2780 -0.3476
25997W        W32447  20.362   5.080   2.038  0.1694 -0.0023  0.0621
25998W        W32448  15.370   6.408   5.130  0.2490 -0.1550  0.0121
25999W        W32449  17.361   4.034   5.949 -0.1703  0.1068  0.4849
26000W        W32450  20.014   4.263  25.258  0.5987  0.2564 -0.1210
26001W        W32451  15.596   5.150  29.235  0.0363  0.1753  0.1627
26002W        W32452   2.596   1.295  25.796  0.0162  0.1586  0.2027
26003W        W32453  23.992   0.779   2.904 -0.0084  0.0438 -0.1266
26004W        W32454  13.232   3.405  14.797  0.1792  0.0899 -0.2527
26005W        W32455   2.449   0.588   2.890 -0.0229 -0.0332 -0.2504
26006W        W32456  22.661   0.040  27.995  0.3148  0.0816  0.1476
26007W        W32457  20.342   4.507  26.744  0.0494  0.4205 -0.2200
26008W        W32458  17.054   2.776   2.646  0.0251 -0.1380  0.2722
26009W        W32459   7.180   1.810  29.805  0.0917  0.0686 -0.0762
26010W        W32460   7.101   2.108   8.970 -0.1464 -0.3347 -0.2287
26011W        W32461   4.616   3.087  10.152  0.1165 -0.0179 -0.1445
26012W        W32462   7.391   1.669  29.132 -0.0023 -0.0608  0.0907
26013W        W32463   3.902   3.132  11.662  0.1824 -0.1003  0.2955
26014W        W32464  23.438   6.103  23.840  0.3151 -0.0117  0.0865
26015W        W32465  19.106   1.548  13.327  0.2096  0.0884  0.0425
26016W        W32466  16.042   2.577  11.895  0.1172  0.1356 -0.1473
26017W        W32467  18.999   2.390  11.886  0.3825 -0.0098 -0.1021
26018W        W32468  26.283   2.790   5.217 -0.0670 -0.3429  0.2007
26019W        W32469  11.956   1.471   1.354  0.0822 -0.1576 -0.0663
26020W        W32470   3.136   1.103  13.915  0.0434  0.0389  0.0790
26021W        W32471   3.298   0.614  22.654  0.1902 -0.0311  0.1824
26022W        W32472   7.828   2.998   5.640  0.1240 -0.0967 -0.3245
26023W        W32473  15.469   5.614   8.004  0.0457  0.1937  0.2887
26024W        W32474  11.843   1.534   2.531  0.1330  0.1241 -0.0718
26025W        W32475   1.602   4.680  15.778  0.3006  0.1196 -0.1396
26026W        W32476  14.475   0.270   1.673 -0.0420  0.1194  0.1219
26027W        W32477   2.160   0.411   1.260  0.0198  0.0563 -0.0360
26028W        W32478  10.705   2.146   9.984  0.1832  0.2357  0.0653
26029W        W32479   8.458   4.557  36.080  0.0908  0.0096 -0.1104
26030W        W32480  16.325   6.128  13.903  0.1551  0.0478 -0.0555
26031W        W32481  20.954   5.300   8.892  0.0542 -0.1751  0.0080
26032W        W32482  19.206   5.481  30.725  0.0439  0.1869 -0.1125
26033W        W32483   3.673   5.257  25.317 -0.1506 -0.0248 -0.1150
26034W        W32484  23.581   1.999   7.755 -0.1836  0.2572  0.0697
26035W        W32485  13.038   4.883   5.631  0.1352  0.2123  0.0072
26036W        W32486  25.668   5.751  34.881  0.2005 -0.0637  0.3730
26037W        W32487   4.762   2.789  14.585 -0.0014 -0.0211 -0.1226
26038W        W32488  13.127   5.972   2.154  0.1365  0.0452  0.1415
26039W        W32489  10.444   6.000   4.950 -0.2736 -0.0190 -0.0529
26040W        W32490   0.185   2.935  24.090  0.1809 -0.1476 -0.2605
26041W        W32491  21.840   6.420   9.435  0.2036 -0.0282  0.0640
26042W        W32492   4.767   2.975  25.892 -0.1200 -0.0378  0.1200
26043W        W32493  12.251   4.611   8.787 -0.0549 -0.1214 -0.2850
26044W        W32494  24.302   3.821   0.829  0.0446  0.2402 -0.2499
26045W        W32495  21.811   0.619  13.862  0.1389  0.0467 -0.2785
26046W        W32496  24.059   6.036   8.650 -0.0822 -0.2086  0.2764
26047W        W32497  25.882   3.620  13.426 -0.0255  0.0856  0.0957
26048W        W32498  22.131   2.944  12.857  0.0299 -0.0255 -0.3646
26049W        W32499  23.691   4.350  35.021 -0.0325 -0.0164 -0.1741
26050W        W32500   4.740   0.976  25.370 -0.0064  0.1083  0.0032
26051W        W32501  21.755   5.323  23.177 -0.0871 -0.2216  0.0346
26052W        W32502  11.589   0.716   8.776  0.0247 -0.2327 -0.0231
26053W        W32503  22.265   3.862  31.237 -0.2215  0.0954 -0.3069
26054W        W32504   4.172   4.289  34.917  0.3351  0.0228 -0.0231
26055W        W32505   8.094   0.609   0.468 -0.2068  0.2412  0.1892
26056W        W32506  23.133   0.548   0.343 -0.3377  0.0160 -0.1176
26057W        W32507   7.382   6.198  27.224 -0.0926 -0.1447  0.1377
26058W        W32508  23.129   0.783   4.106  0.1534 -0.0030  0.2728
26059W        W32509  18.007   0.525  10.944 -0.0671  0.0992 -0.1341
26060W        W32510  20.744   6.471  30.943 -0.0219  0.1852 -0.1371
26061W        W32511   0.327   5.130   9.265 -0.0895 -0.1957  0.2522
26062W        W32512   5.027   2.714  19.951 -0.0164  0.2874 -0.0237
26063W        W32513   0.365   2.609  10.426 -0.1965 -0.2092  0.1516
26064W        W32514   6.164   0.789   0.633 -0.0232 -0.1460 -0.1857
26065W        W32515   4.858   4.116  32.827  0.1256 -0.0128 -0.0010
26066W        W32516  14.705   0.125  26.549  0.2404 -0.0296  0.4964
26067W        W32517   8.802   2.533   5.810  0.0238  0.1658 -0.5254
26068W        W32518  10.449   5.419  35.015 -0.1861 -0.0397  0.1571
26069W        W32519   8.668   6.315  20.916 -0.2776  0.2281  0.2163
26070W        W32520   9.595   2.554  12.637  0.1390 -0.2106  0.0317
26071W        W32521  25.210   3.429  31.610  0.0986  0.1325 -0.1716
26072W        W32522  24.827   3.852  23.348 -0.0724  0.0884  0.1177
26073W        W32523  10.683   6.271  27.439  0.1760  0.0486 -0.1088
26074W        W32524   1.087   0.506   2.365 -0.0983  0.1984  0.1307
26075W        W32525  20.769   1.574  33.630 -0.1841  0.2753 -0.1077
26076W        W32526   9.452   1.575   4.343  0.1936 -0.2782 -0.2678
26077W        W32527  13.763   2.607   1.843 -0.1757 -0.2822 -0.0891
26078W        W32528   0.883   1.616  14.865  0.0707  0.2439 -0.0198
26079W        W32529  10.800   1.445  29.283  0.3134 -0.1087  0.2677
26080W        W32530  17.476   3.713  25.587 -0.2270 -0.0238  0.0339
26081W        W32531  16.500   1.261  32.733  0.1835 -0.0382  0.1357
26082W        W32532  20.636   3.767  20.900  0.0746  0.3838 -0.1291
26083W        W32533  15.388   5.616  28.965  0.0944  0.5320 -0.1298
26084W        W32534  24.291   5.405  20.990 -0.1323  0.0193 -0.2808
26085W        W32535   3.860   1.080   8.084  0.0842 -0.1783 -0.1007
26086W        W32536   5.397   0.219   7.118  0.0714 -0.1313 -0.2431
26087W        W32537  23.978   5.987  11.671 -0.3556  0.1199 -0.1974
26088W        W32538  13.257   4.431  10.770  0.1433  0.0009  0.0983
26089W        W32539   5.562   5.471   9.855  0.0845  0.2848 -0.4190
26090W        W32540   2.031   4.098   8.358 -0.1463 -0.0770  0.0667
26091W        W32541  20.236   1.520   1.778  0.0657  0.1141  0.2397
26092W        W32542   5.857   3.267  29.207  0.0279 -0.1720 -0.2131
26093W        W32543  14.364   1.936  33.929 -0.1530 -0.0213  0.3231
26094W        W32544  24.232   6.038   2.045  0.0176 -0.0599 -0.0848
26095W        W32545   1.674   4.084   7.587 -0.1456  0.0746 -0.2864
26096W        W32546  22.921   5.698   9.496 -0.0070 -0.2633 -0.0027
26097W        W32547  13.132   5.044  26.410 -0.1822  0.0503  0.2698
26098W        W32548   9.803   5.088  14.100  0.1446 -0.0773  0.0691
26099W        W32549   1.382   5.259  30.903 -0.0194  0.0333  0.0135
26100W        W32550  14.354   3.942   0.891 -0.1804 -0.0133 -0.0168
26101W        W32551  15.716   2.911  31.676 -0.0856  0.2954  0.2094
26102W        W32552  21.750   5.663  23.741 -0.0863  0.0803 -0.0114
26103W        W32553   0.682   6.596  29.144  0.0771 -0.0017  0.0365
26104W        W32554   0.545   0.503  29.114  0.0339 -0.0305  0.0321
26105W        W32555  12.111   4.349   3.379  0.0947  0.1117  0.0733
26106W        W32556   3.451   1.554  24.703  0.2054 -0.0018 -0.1558
26107W        W32557  11.365   5.051   9.133 -0.1877 -0.2038 -0.0137
26108W        W32558   4.339   5.242  32.373  0.1136  0.0854 -0.0236
26109W        W32559  10.371   1.832   2.184  0.4517 -0.0307 -0.1142
26110W        W32560  20.970   6.392  13.500 -0.0442 -0.2024  0.0075
26111W        W32561  16.719   4.784   6.773 -0.0913 -0.2059  0.0224
26112W        W32562  21.700   3.262   0.668  0.0064 -0.0107 -0.2359
26113W        W32563  11.880   0.586   9.729 -0.0016  0.2664 -0.2927
26114W        W32564  21.701   1.721  29.222  0.1488  0.0092 -0.1701
26115W        W32565   1.056   4.927  33.861 -0.0882 -0.3374 -0.1324
26116W        W32566  17.920   5.568  33.007  0.3144  0.2872  0.0987
26117W        W32567  16.437   5.361  35.420 -0.4185 -0.1310 -0.1650
26118W        W32568   0.250   4.468   0.401  0.1168  0.2776 -0.2630
26119W        W32569  24.517   2.754  14.155  0.0381  0.0639 -0.1397
26120W        W32570   9.157   2.572  10.110  0.1273  0.0966 -0.0889
26121W        W32571  18.521   1.096  15.333 -0.2807  0.2455 -0.1955
26122W        W32572  25.648   1.656  11.789  0.4768 -0.0532 -0.4008
26123W        W32573  12.447   4.679  33.793 -0.1702  0.2045 -0.1257
26124W        W32574  10.699   3.225  12.450 -0.1372  0.1853  0.0153
26125W        W32575   7.867   5.240   8.614  0.0124  0.1921  0.2411
26126W        W32576  23.312   0.375   3.921  0.1429 -0.0591 -0.2669
26127W        W32577  25.694   0.281   7.945 -0.3519  0.3693 -0.1365
26128W        W32578   2.780   0.623  24.503 -0.0201  0.4161 -0.0155
26129W        W32579   7.240   3.868   6.213 -0.2248  0.0359  0.0097
26130W        W32580   3.752   1.720  34.451  0.1168 -0.1020  0.3564
26131W        W32581   2.988   1.024  12.817 -0.0715  0.1524 -0.2928
26132W        W32582   0.048   5.019  28.840 -0.1648 -0.0170  0.0460
26133W        W32583   2.784   1.179   9.418 -0.0876 -0.0701 -0.1014
26134W        W32584   3.698   4.533  15.434  0.1369 -0.1990 -0.1120
26135W        W32585   3.028   5.496   2.266  0.2327 -0.0889 -0.2288
26136W        W32586  19.071   1.054  30.118  0.0195 -0.1179  0.1393
26137W        W32587  11.818   3.655  23.264  0.0286  0.0475  0.0172
26138W        W32588  22.784   5.400   4.782 -0.0081  0.1702 -0.2318
26139W        W32589  17.020   6.544   2.626  0.0289 -0.1801 -0.0494
26140W        W32590  14.561   0.977  30.530 -0.3756  0.0551 -0.2090
26141W        W32591   1.974   5.203  24.095 -0.0699  0.0304  0.0944
26142W        W32592  20.690   0.000   8.178  0.1613  0.1647  0.0890
26143W        W32593  23.605   2.515  21.770 -0.1138  0.0999  0.2591
26144W        W32594   7.762   0.969  34.788 -0.1074  0.1240  0.1971
26145W        W32595  25.027   3.715  24.601 -0.3442 -0.1537 -0.0397
26146W        W32596  18.174   5.394  30.203  0.0990  0.3713  0.3879
26147W        W32597   8.613   6.151  33.613 -0.0592 -0.1102  0.0607
26148W        W32598  18.246   2.570  33.305 -0.2713  0.1331 -0.0603
26149W        W32599  11.542   1.690   0.047  0.0985 -0.1350  0.1318
26150W        W32600   4.105   6.478   9.053 -0.0528  0.0895 -0.0983
26151W        W32601  14.035   2.684  12.779 -0.0310  0.2366  0.2518
26152W        W32602   3.182   4.670  29.144 -0.3123  0.1980  0.1313
26153W        W32603  20.724   3.201  30.740 -0.2217  0.1417 -0.0432
26154W        W32604  25.542   4.444   8.270  0.3644  0.1343  0.0100
26155W        W32605  12.345   5.399  24.360  0.2234  0.0656 -0.0841
26156W        W32606  11.184   4.573  12.191  0.1117 -0.0784 -0.1548
26157W        W32607  19.872   0.186   8.420 -0.1488 -0.0209 -0.0206
26158W        W32608  19.040   0.804  32.162 -0.1153  0.0532  0.2245
26159W        W32609   0.688   4.797  29.734 -0.1104 -0.2156  0.0026
26160W        W32610  24.032   0.702  20.877  0.1678 -0.0853 -0.1869
26161W        W32611  15.249   5.786  28.423  0.2892 -0.3189 -0.0160
26162W        W32612   0.688   3.915   6.251 -0.4047  0.2120 -0.0306
26163W        W32613  15.245   1.267   0.511 -0.0368 -0.1365 -0.1042
26164W        W32614  11.836   3.630   8.270 -0.3868 -0.1962 -0.0207
26165W        W32615  23.204   3.248  26.364 -0.4750  0.2984 -0.1006
26166W        W32616   1.247   5.643   0.404 -0.1051 -0.0646  0.3439
26167W        W32617   9.472   1.947   2.508 -0.0448  0.2815 -0.0636
26168W        W32618  17.360   2.562  23.302 -0.0606 -0.0275  0.1371
26169W        W32619  12.457   4.345  27.772 -0.2263 -0.1183 -0.1052
26170W        W32620   8.007   0.543  33.867  0.1247  0.3595  0.2961
26171W        W32621  17.076   1.015  33.411 -0.0233  0.2739 -0.0449
26172W        W32622   8.027   4.943  13.612 -0.1399  0.0729  0.2443
26173W        W32623   2.384   3.501  21.327 -0.2675 -0.3957 -0.3323
26174W        W32624   9.484   1.890   8.963 -0.0425  0.1099  0.2490
26175W        W32625  22.193   2.171  11.564 -0.2777 -0.1471  0.1347
26176W        W32626  19.088   2.579  34.108 -0.1239  0.2268  0.0232
26177W        W32627  21.066   2.384  30.908  0.3819  0.0387 -0.0714
26178W        W32628  23.288   0.103  24.573 -0.0427 -0.1507  0.0324
26179W        W32629   6.175   5.240  35.916  0.2998 -0.1864  0.1034
26180W        W32630  16.224   6.293  21.912 -0.0488 -0.2688 -0.1907
26181W        W32631   8.809   0.100   4.711 -0.0927 -0.0645  0.1252
26182W        W32632  17.529   1.812   5.353 -0.1333  0.1807  0.0734
26183W        W32633  18.198   0.398  31.775  0.1561 -0.0121 -0.1139
26184W        W32634   6.843   0.219  29.222  0.0511 -0.1643 -0.1207
26185W        W32635   3.318   2.987  26.422  0.1349 -0.2082 -0.2882
26186W        W32636  20.196   0.175  33.473 -0.2274  0.0278 -0.2502
26187W        W32637   0.139   0.058   8.195 -0.1143 -0.1309  0.2055
26188W        W32638  24.421   5.377   6.428 -0.0562 -0.3231 -0.3194
26189W        W32639  26.230   5.174   5.729 -0.4622  0.3758 -0.1530
26190W        W32640  23.144   2.973  30.944 -0.1515 -0.1631 -0.0615
26191W        W32641  16.171   4.135   7.967  0.0100  0.0729 -0.0819
26192W        W32642   5.987   6.494  30.796 -0.0707  0.0053 -0.0588
26193W        W32643  25.953   0.595  25.150  0.1163 -0.2372  0.0978
26194W        W32644   1.245   0.685  27.229 -0.1100 -0.1065  0.2590
26195W        W32645  23.294   2.672   6.022 -0.0220 -0.0605 -0.1091
26196W        W32646  13.970   0.846   8.817 -0.0900 -0.0455 -0.0485
26197W        W32647   8.397   2.947   0.170  0.0243  0.0514  0.1087
26198W        W32648  23.904   3.622  20.481 -0.2299 -0.3790 -0.3226
26199W        W32649   8.787   3.213  12.839 -0.2833 -0.1057  0.0326
26200W        W32650  20.857   2.704  12.964  0.0876 -0.0593  0.0524
26201W        W32651  13.594   1.799  25.074 -0.0340  0.1140 -0.1006
26202W        W32652  22.792   3.305   3.501  0.1396  0.0573  0.0669
26203W        W32653  17.264   0.870  23.644  0.2082  0.4027  0.0997
26204W        W32654   0.707   4.001   4.556 -0.1197  0.1037 -0.2847
26205W        W32655   4.585   0.971  21.891  0.0008  0.1016  0.1259
26206W        W32656  19.787   6.368  35.310 -0.3459  0.3541  0.0488
26207W        W32657   5.171   3.189  22.790 -0.0168  0.0318 -0.2897
26208W        W32658  23.945   5.871  34.951 -0.0273 -0.0002 -0.0904
26209W        W32659   5.568   2.994   0.036  0.0770  0.2293  0.0403
26210W        W32660  21.281   6.525  32.104  0.1974 -0.1006 -0.2907
26211W        W32661   6.828   0.529  28.799 -0.2573  0.1079 -0.2411
26212W        W32662  18.067   4.577  20.850  0.0294 -0.0054  0.0298
26213W        W32663   3.436   0.411   9.069  0.0824  0.1009  0.0169
26214W        W32664  21.547   0.827  24.485  0.2179 -0.1166  0.2938
26215W        W32665  12.918   2.517   4.492 -0.3136 -0.1753  0.3359
26216W        W32666  16.194   1.236  21.995 -0.3190  0.3279  0.0552
26217W        W32667   4.611   4.334   3.736  0.0836  0.3223  0.2449
26218W        W32668  23.508   2.666   5.266 -0.0374 -0.1839  0.0427
26219W        W32669   8.657   1.578  21.943  0.1166 -0.1742  0.1786
26220W        W32670  19.562   5.218  24.390 -0.1365 -0.0166  0.1094
26221W        W32671  11.819   0.609  15.006  0.3376  0.0757 -0.2605
26222W        W32672  17.685   2.963   7.620  0.1902  0.2373 -0.1296
26223W        W32673  13.179   0.898   0.953  0.1295  0.3217  0.0826
26224W        W32674  24.700   0.511  34.465  0.0603  0.0355  0.1263
26225W        W32675   1.588   0.736   0.871  0.0289 -0.0083 -0.1999
26226W        W32676  15.539   5.676   8.891  0.1229 -0.0825  0.1463
26227W        W32677  17.362   1.608   5.738 -0.0898  0.0795  0.1562
26228W        W32678   2.639   0.398   0.963 -0.2282  0.0827 -0.1263
26229W        W32679  15.776   3.505  25.279 -0.1768 -0.2186  0.0700
26230W        W32680  17.049   0.309  30.436 -0.1654 -0.0430  0.4650
26231W        W32681   6.654   0.129   4.694  0.0201 -0.0845  0.1538
26232W        W32682  10.333   0.510   5.373 -0.0287 -0.1033  0.3153
26233W        W32683  16.405   2.522   8.528 -0.2164 -0.2242 -0.3640
26234W        W32684   0.919   4.061  12.965 -0.1120  0.0262  0.0862
26235W        W32685  17.795   2.861  13.524 -0.2624  0.2167  0.2516
26236W        W32686   9.897   1.642   8.820 -0.1049  0.0673  0.0567
26237W        W32687   4.157   1.144   9.075 -0.1989  0.0175 -0.0722
26238W        W32688  18.686   6.110  34.733  0.1041  0.3067 -0.1848
26239W        W32689  15.984   5.300   3.281  0.1059  0.0443 -0.0028
26240W        W32690  17.422   6.532   9.858  0.4389  0.1000 -0.0897
26241W        W32691  24.626   0.578  21.790  0.0045  0.1025  0.0053
26242W        W32692  13.455   3.702   8.183 -0.4144 -0.0400 -0.1976
26243W        W32693   2.063   0.273  20.757  0.1996  0.0135 -0.1352
26244W        W32694  12.932   5.082  22.492  0.2295 -0.1970  0.0041
26245W        W32695  10.251   3.748  21.538  0.2148  0.1053 -0.0472
26246W        W32696   0.517   0.002  14.654  0.1244 -0.2953  0.2271
26247W        W32697  13.244   4.665  15.659  0.1901  0.1312 -0.1769
26248W        W32698  22.931   4.080  29.075 -0.1061 -0.0022 -0.0931
26249W        W32699  20.254   2.765  24.838  0.1545  0.1923 -0.1627
26250W        W32700  14.418   2.802  29.576  0.1902 -0.3017 -0.1176
26251W        W32701   1.486   6.251   5.413 -0.1875 -0.0665 -0.0842
26252W        W32702   6.251   1.377  22.978  0.0834 -0.0942 -0.0807
26253W        W32703   1.002   5.358   9.008  0.1096  0.0017  0.0811
26254W        W32704   9.072   0.661   3.507 -0.2714  0.1133  0.0810
26255W        W32705  16.410   5.071  22.328 -0.1236 -0.3910 -0.1256
26256W        W32706   6.712   4.325  34.629  0.0885 -0.0676  0.1607
26257W        W32707  15.122   1.322   1.592  0.1591  0.3609  0.1081
26258W        W32708  12.499   1.771  22.604  0.1007  0.0101  0.0543
26259W        W32709   1.541   1.713  11.256  0.0455  0.1754 -0.1357
26260W        W32710   6.912   2.794  21.307  0.1713 -0.0716  0.0033
26261W        W32711  20.427   3.460   4.713 -0.0040 -0.2432 -0.1578
26262W        W32712  20.181   4.936   0.721 -0.1573  0.1516 -0.1489
26263W        W32713  19.992   1.288  33.817 -0.1756 -0.0543 -0.2332
26264W        W32714  12.051   2.092  34.064 -0.0063 -0.2123  0.1153
26265W        W32715   3.090   1.612  24.373  0.1491 -0.0225  0.2257
26266W        W32716  16.123   0.966  15.101 -0.0742 -0.2201 -0.0081
26267W        W32717   1.607   5.762  21.154 -0.0670  0.0963  0.2590
26268W        W32718   7.285   1.133  32.768  0.0650 -0.1178 -0.1866
26269W        W32719   7.410   0.743   1.637 -0.0887 -0.0338 -0.0230
26270W        W32720  12.004   2.996  33.382 -0.1524  0.3503 -0.2805
26271W        W32721  14.034   6.400  34.735  0.2414 -0.0586  0.1432
26272W        W32722   1.094   6.550   6.751  0.0050  0.0594 -0.2543
26273W        W32723   9.055   1.057  29.054 -0.0268 -0.0282 -0.3895
26274W        W32724   2.657   4.425  29.376 -0.0514 -0.1475  0.2686
26275W        W32725   5.273   3.915  25.631  0.2779 -0.1657  0.1666
26276W        W32726  17.120   4.719  26.159 -0.1836 -0.2096 -0.0546
26277W        W32727  22.079   5.599   6.983  0.0231  0.1923  0.2029
26278W        W32728  14.591   1.080  11.918  0.0374 -0.0120 -0.1492
26279W        W32729  13.554   4.554  20.689  0.2043  0.1195  0.0427
26280W        W32730   4.329   3.790  34.954 -0.1673  0.1914 -0.0046
26281W        W32731  13.693   2.375   1.287 -0.0790 -0.1062 -0.0163
26282W        W32732  11.656   2.213  28.744 -0.0167 -0.1234 -0.1155
26283W        W32733  15.076   1.923   4.108 -0.0105 -0.2392  0.2285
26284W        W32734  14.045   1.788   5.815 -0.0229  0.1615  0.0098
26285W        W32735  10.530   0.888  14.660 -0.0136  0.0693 -0.2659
26286W        W32736   8.084   5.570   7.678  0.4054 -0.2791 -0.1990
26287W        W32737  25.802   2.055  20.589  0.0686 -0.0108 -0.2682
26288W        W32738  17.082   0.543  32.720 -0.0198  0.0338  0.1333
26289W        W32739  14.477   0.732   8.823 -0.1787  0.1184  0.0936
26290W        W32740   4.881   2.810   9.836 -0.0060  0.2919  0.1328
26291W        W32741  11.746   5.245  10.907  0.2128  0.0672  0.1427
26292W        W32742  10.250   5.452  29.963  0.2810  0.2586  0.1691
26293W        W32743   9.954   2.430  28.865  0.1089  0.0721  0.1418
26294W        W32744  10.656   5.013  27.848  0.1393 -0.0486 -0.0418
26295W        W32745   9.261   3.832  26.728  0.0562  0.3117 -0.2518
26296W        W32746  23.457   1.791  10.845 -0.2710  0.2609  0.1798
26297W        W32747  14.083   2.315   1.599  0.0140 -0.1218 -0.1028
26298W        W32748  19.905   4.940  12.854 -0.2306 -0.0155  0.0956
26299W        W32749  11.819   4.889  14.808 -0.0404 -0.2040 -0.3391
26300W        W32750   2.873   3.341  28.371 -0.1334 -0.2001 -0.2473
26301W        W32751  15.315   0.252   4.265 -0.1886  0.2499  0.1747
26302W        W32752   9.246   0.946  19.835  0.1297 -0.0563  0.1576
26303W        W32753   6.542   0.672  24.101 -0.0763  0.0814  0.1706
26304W        W32754  24.150   3.860  11.476  0.2663  0.0978 -0.0253
26305W        W32755  21.074   5.619  31.498  0.3663 -0.1860  0.0120
26306W        W32756  21.948   5.907   5.246  0.3996 -0.0968  0.0460
26307W        W32757  13.004   0.510  11.949  0.0986 -0.1425 -0.2133
26308W        W32758  14.594   4.573   0.965 -0.1683 -0.1966 -0.0855
26309W        W32759  20.592   5.574  26.259 -0.1377 -0.0045 -0.0432
26310W        W32760   5.455   0.322  24.152  0.1686  0.2991 -0.0256
26311W        W32761   3.676   5.734  14.929  0.1115 -0.1984  0.2761
26312W        W32762   8.853   2.590  21.102  0.1116  0.0002  0.0150
26313W        W32763  21.500   3.151  32.647  0.3277 -0.4176  0.0497
26314W        W32764   6.777   3.565  12.765  0.4658  0.2512 -0.0624
26315W        W32765  25.297   0.560  11.282 -0.1475 -0.0287  0.2802
26316W        W32766   8.674   2.002  34.130 -0.0244  0.3074  0.0118
26317W        W32767  17.095   2.305  34.575 -0.0011 -0.1181 -0.1216
26318W        W32768  13.910   1.564  27.133  0.0418 -0.1784  0.0096
26319W        W32769  13.927   4.097  32.964  0.0995  0.0083 -0.0666
26320W        W32770   1.139   1.451  24.403  0.0488 -0.0690 -0.1609
26321W        W32771  22.573   2.541  32.894  0.0287 -0.1875 -0.0295
26322W        W32772  17.772   5.567   6.766  0.1780  0.2103  0.2775
26323W        W32773  16.601   1.061  28.589 -0.1075  0.1659 -0.0140
26324W        W32774  20.548   0.293  21.571 -0.2011  0.3339 -0.2299
26325W        W32775  23.831   1.983  27.966 -0.2797  0.0305  0.0109
26326W        W32776  22.830   5.758  12.301 -0.2005 -0.0819  0.0338
26327W        W32777  10.438   5.231  24.003  0.0377 -0.3247  0.2608
26328W        W32778  12.405   5.318   5.019  0.1840  0.1141 -0.4118
26329W        W32779  25.753   1.006  12.076  0.5242  0.0566 -0.0637
26330W        W32780  19.880   2.775  12.848  0.0789  0.0930 -0.3858
26331W        W32781  16.686   5.781  34.144 -0.1541  0.0109 -0.2131
26332W        W32782   2.977   3.006  25.767  0.0272 -0.0640 -0.3720
26333W        W32783  23.652   3.207  21.173 -0.2429 -0.2008 -0.0972
26334W        W32784  15.802   2.492  35.386 -0.0503  0.1077  0.2368
26335W        W32785   0.721   4.961   8.910 -0.2181 -0.1858  0.4008
26336W        W32786   7.822   3.735   3.582 -0.2442  0.0511  0.1082
26337W        W32787   9.160   5.050  32.677 -0.1404  0.0075  0.1316
26338W        W32788   6.623   6.240   8.876 -0.1871 -0.1120  0.2934
26339W        W32789  18.568   2.411   2.781 -0.0582 -0.1219  0.2402
26340W        W32790  14.132   0.568  22.503 -0.2949  0.1156 -0.1903
26341W        W32791  23.804   4.213   9.050  0.0640 -0.0471 -0.0255
26342W        W32792   1.362   3.462   0.349  0.1229 -0.1332 -0.0035
26343W        W32793  16.776   4.085   9.117 -0.0205 -0.0370  0.1340
26344W        W32794  25.894   6.391  20.726 -0.0331 -0.2050  0.3178
26345W        W32795  11.053   5.251  22.108 -0.1337  0.1695 -0.4123
26346W        W32796   1.958   1.240  28.157 -0.0106 -0.1762 -0.0117
26347W        W32797  19.311   3.935  29.488 -0.0961 -0.1945 -0.1291
26348W        W32798   9.157   0.622  22.613 -0.0713  0.0767  0.3498
26349W        W32799   1.321   2.838   5.119 -0.1236  0.0617 -0.2359
26350W        W32800  16.745   2.135  23.799 -0.0475  0.1555 -0.0564
26351W        W32801   1.621   3.662   4.632 -0.0489  0.0742  0.2714
26352W        W32802  20.243   2.515   6.361  0.1296 -0.0118 -0.0798
26353W        W32803  14.533   2.203  33.559  0.0200 -0.0751  0.3080
26354W        W32804  13.244   4.757   6.803  0.0177  0.0508 -0.1073
26355W        W32805  23.384   1.696   4.336 -0.0635 -0.0164 -0.0968
26356W        W32806  25.620   5.660  29.997  0.0282 -0.0360  0.2538
26357W        W32807   7.213   3.477  13.106  0.1570 -0.2092 -0.5766
26358W        W32808  25.226   3.665  25.469 -0.0510 -0.0140 -0.3860
26359W        W32809  20.227   3.286   5.678 -0.2238 -0.0969  0.1262
26360W        W32810   7.493   4.386  30.178 -0.0898 -0.3168  0.1193
26361W        W32811  17.888   4.029  34.676 -0.3002 -0.1688 -0.1678
26362W        W32812   8.948   1.919  24.989 -0.1202  0.1159 -0.0918
26363W        W32813   1.003   0.219  33.279  0.0651 -0.1218 -0.1334
26364W        W32814  12.919   1.447   9.324  0.0925  0.2971  0.1705
26365W        W32815  14.064   4.463  20.611 -0.0505  0.3116 -0.1877
26366W        W32816  18.419   0.570  22.911  0.1867  0.0163 -0.4749
26367W        W32817  12.798   1.556  20.436 -0.0129 -0.0643 -0.1703
26368W        W32818  13.929   3.282   4.306 -0.0069  0.2312 -0.2227
26369W        W32819  14.261   2.424   4.032 -0.2277  0.0157  0.0094
26370W        W32820  11.335   2.135  30.134  0.0073 -0.1026 -0.0623
26371W        W32821   0.917   0.659   1.497 -0.3593 -0.2396 -0.1542
26372W        W32822   1.123   5.622  22.672  0.1594 -0.0655  0.0847
26373W        W32823  13.543   5.913   5.716 -0.0813 -0.4140  0.0384
26374W        W32824  20.869   5.753  11.960 -0.1778  0.1261 -0.2477
26375W        W32825   7.739   4.705   1.376  0.1938  0.1666 -0.1126
26376W        W32826  24.391   6.211  25.194  0.2785  0.0839  0.0073
26377W        W32827   4.418   4.336  22.815  0.0503  0.0585 -0.0894
26378W        W32828  24.395   4.353   5.974  0.0882 -0.0387  0.1481
26379W        W32829  15.371   0.896  33.402  0.1628 -0.0087 -0.1394
26380W        W32830  11.827   3.618  13.228  0.1423  0.2387 -0.0152
26381W        W32831   4.376   2.838  13.206 -0.0241 -0.0234  0.2653
26382W        W32832   7.091   5.618  26.982  0.0160  0.1762 -0.0237
26383W        W32833   0.538   3.395   9.453  0.2177  0.1299  0.0458
26384W        W32834   2.076   2.961  11.879  0.0059 -0.1134  0.1339
26385W        W32835  13.491   1.378  30.938  0.1709  0.0405  0.0060
26386W        W32836   5.098   2.609   8.065 -0.0497 -0.0760 -0.0465
26387W        W32837   5.424   1.594  32.216  0.1164  0.3259  0.1761
26388W        W32838  12.581   2.820  21.637  0.2065 -0.2418 -0.2389
26389W        W32839   3.361   6.523  35.141 -0.0233 -0.1641 -0.1396
26390W        W32840  12.621   6.041  13.154  0.1024  0.0899  0.2151
26391W        W32841   4.719   2.325  23.862  0.1012  0.0755 -0.0444
26392W        W32842  10.349   6.362  27.023  0.0346  0.3370  0.1139
26393W        W32843  15.436   2.020  30.133 -0.1634  0.0572 -0.1635
26394W        W32844   9.954   0.669  35.537 -0.1113 -0.2962 -0.0052
26395W        W32845   9.131   2.160   9.294  0.1169  0.1063  0.0936
26396W        W32846  20.514   4.989   9.235  0.0556 -0.2993 -0.1301
26397W        W32847  20.339   3.282  25.010 -0.1662  0.0736 -0.1783
26398W        W32848   9.730   4.472   7.781 -0.0011 -0.2003 -0.0036
26399W        W32849   2.857   4.330  22.561  0.3364 -0.1292  0.0486
26400W        W32850  24.263   5.810   5.682 -0.0806 -0.1262 -0.0848
26401W        W32851  17.659   4.711   7.304 -0.0310 -0.3828 -0.2299
26402W        W32852  14.415   5.056  29.821  0.0120 -0.1747  0.0072
26403W        W32853   0.177   3.530  21.374  0.2626  0.1439 -0.4349
26404W        W32854   3.924   6.309  26.328 -0.0958  0.1108  0.3998
26405W        W32855  17.777   5.514  21.666  0.0191 -0.1572  0.2760
26406W        W32856  16.258   5.532   5.820 -0.1313 -0.0728 -0.1079
26407W        W32857  12.486   2.683   7.125  0.0393 -0.0792  0.1189
26408W        W32858  23.188   2.264  34.259  0.1786  0.0251  0.1088
26409W        W32859  17.822   3.469  25.290  0.0359 -0.0093  0.4361
26410W        W32860   5.706   0.107  22.790 -0.3775 -0.3207 -0.0204
26411W        W32861   0.975   4.782  28.415 -0.0496  0.0368  0.0061
26412W        W32862  11.628   2.392  25.555  0.1449  0.2228  0.2684
26413W        W32863   4.442   0.491   9.940  0.0613 -0.1889 -0.3388
26414W        W32864   0.145   2.750  11.841 -0.2040 -0.1177  0.1522
26415W        W32865  21.952   0.111  21.494  0.1042  0.0728  0.0547
26416W        W32866  12.802   2.024   6.851 -0.0703  0.0394 -0.0567
26417W        W32867  19.032   4.982   1.297  0.0463 -0.1789  0.1698
26418W        W32868  11.977   5.403  22.386 -0.3152  0.3568  0.2421
26419W        W32869  10.798   3.875  34.394 -0.0161 -0.2165  0.0981
26420W        W32870  16.130   5.861  10.953 -0.1475 -0.0272 -0.0122
26421W        W32871   3.209   6.131   1.562 -0.0630 -0.1471 -0.3476
26422W        W32872  13.425   0.971  13.453  0.1127  0.0193 -0.0881
26423W        W32873  20.617   4.288  34.014  0.1005 -0.2483 -0.0194
26424W        W32874   0.079   6.159  31.068  0.0219 -0.1170 -0.2279
26425W        W32875  20.043   4.061  21.398  0.0542  0.0024 -0.1260
26426W        W32876  26.283   2.487  24.360  0.0423 -0.4231  0.1102
26427W        W32877  16.810   2.380  12.174 -0.1061  0.3250  0.0607
26428W        W32878  19.945   0.599  33.409 -0.0466 -0.3119 -0.3784
26429W        W32879  20.015   3.270  11.918 -0.0773  0.3873 -0.0161
26430W        W32880  10.333   0.854  24.004  0.0483 -0.0738  0.0144
26431W        W32881  25.470   5.843   8.222  0.0268 -0.1997 -0.0377
26432W        W32882   9.226   3.879   6.828  0.3174  0.0548 -0.2161
26433W        W32883  13.260   5.415  15.018 -0.2267 -0.2648 -0.0300
26434W        W32884  24.945   3.846   9.800 -0.3148  0.1318  0.1847
26435W        W32885  21.971   5.673  31.980  0.1140 -0.0208 -0.1926
26436W        W32886   5.705   2.939   3.943 -0.1174 -0.1049 -0.2211
26437W        W32887  18.553   4.345   4.104 -0.2620  0.0283 -0.3153
26438W        W32888  16.609   2.326  13.564  0.1925 -0.1725 -0.1545
26439W        W32889  12.005   1.008  14.488  0.1594 -0.0832  0.0040
26440W        W32890  21.440   0.405  10.206 -0.4122  0.1656 -0.0243
26441W        W32891  24.701   5.811  33.849 -0.1622  0.1069  0.0164
26442W        W32892  26.189   5.756   7.469 -0.1987  0.0354  0.0301
26443W        W32893  11.729   0.003  31.164 -0.3158  0.0754  0.0994
26444W        W32894   2.930   5.660  15.363  0.1608  0.1405  0.0549
26445W        W32895   9.648   2.391   5.228  0.1385  0.2526 -0.0643
26446W        W32896   2.180   4.446   5.417 -0.2189 -0.1303 -0.0228
26447W        W32897   2.926   4.701  22.949 -0.1415  0.1435  0.1238
26448W        W32898  17.592   2.398   6.945 -0.1057  0.0165 -0.1696
26449W        W32899   2.680   5.955  15.029 -0.0138 -0.0862  0.2621
26450W        W32900  11.040   1.605  15.114  0.0976 -0.1598 -0.0472
26451W        W32901  16.324   6.554  32.948  0.0083 -0.1592  0.1826
26452W        W32902  25.382   3.684   7.568  0.0133  0.0701 -0.0722
26453W        W32903   2.815   5.740  12.698  0.2215 -0.2104  0.0806
26454W        W32904  23.412   1.210  22.856  0.3643 -0.0119  0.0921
26455W        W32905   2.092   3.705  15.179 -0.0554  0.1690  0.0396
26456W        W32906  24.946   6.170  27.412  0.0430  0.2631 -0.4103
26457W        W32907   2.694   6.507  36.058  0.1641  0.0964 -0.1084
26458W        W32908   6.065   2.574  33.135 -0.1921  0.0042 -0.0755
26459W        W32909  12.243   3.613   7.797  0.2520 -0.1385  0.0599
26460W        W32910  18.474   2.337   8.949  0.3646  0.0490 -0.0436
26461W        W32911   8.459   2.043   4.593  0.2159  0.0752  0.1853
26462W        W32912   4.742   3.470  20.901  0.3046 -0.0140 -0.0406
26463W        W32913  26.057   0.205  27.599  0.1242  0.1814 -0.1151
26464W        W32914  11.102   3.031  30.729  0.0146 -0.0351 -0.3576
26465W        W32915   0.707   1.505   6.712  0.2066 -0.0928 -0.2261
26466W        W32916   8.751   6.100   2.328 -0.0768 -0.1108 -0.0931
26467W        W32917  10.880   2.026  13.853  0.0320  0.0434  0.0913
26468W        W32918   5.615   3.336  35.222 -0.3073  0.2361 -0.1549
26469W        W32919  19.282   2.393  32.622 -0.0257 -0.0376  0.1815
26470W        W32920  17.430   3.423  14.908  0.3357 -0.2060 -0.3375
26471W        W32921   7.782   5.561   6.658  0.3430 -0.1833 -0.0049
26472W        W32922  21.219   4.928   1.628  0.0265 -0.1914 -0.1190
26473W        W32923   7.945   4.379   7.212 -0.1468 -0.0467 -0.0836
26474W        W32924   3.081   6.022  14.517  0.1884 -0.0031 -0.0214
26475W        W32925  20.675   2.064   9.662 -0.1642 -0.0188 -0.1375
26476W        W32926   7.789   0.970   0.415 -0.1660 -0.0673  0.0403
26477W        W32927   5.719   0.825  25.278 -0.1760 -0.1515 -0.3838
26478W        W32928  20.529   5.596  22.923 -0.2162  0.1280 -0.1380
26479W        W32929   6.458   0.103  30.893 -0.0124 -0.1749 -0.0342
26480W        W32930  25.459   4.453  25.837  0.0706 -0.2056  0.0470
26481W        W32931   6.453   1.859  30.409  0.1180 -0.0178  0.4381
26482W        W32932  12.919   4.296  15.553  0.1415  0.1190 -0.1163
26483W        W32933   0.201   4.001  29.501 -0.0805  0.0812 -0.1127
26484W        W32934  23.082   4.124   8.785  0.0501 -0.1134  0.1190
26485W        W32935   2.429   3.841  14.209 -0.2937 -0.1273 -0.4721
26486W        W32936   1.950   4.431   8.806 -0.0058 -0.2825  0.0264
26487W        W32937  22.472   3.151   9.678  0.1633  0.1317  0.1142
26488W        W32938  11.314   3.323  30.105  0.0134  0.1776 -0.0081
26489W        W32939   0.405   3.616  11.496 -0.1469  0.1465 -0.0606
26490W        W32940   4.881   1.116  24.682  0.2296 -0.2689 -0.1702
26491W        W32941   5.100   2.898   4.826  0.0141 -0.1859  0.0329
26492W        W32942   9.347   2.832  14.272  0.0403  0.3101  0.1495
26493W        W32943   8.482   4.281  28.591  0.2262 -0.4359 -0.0431
26494W        W32944  10.032   4.422  12.318 -0.1435 -0.1765 -0.0276
26495W        W32945  14.518   0.279   6.013 -0.1045  0.0911  0.1252
26496W        W32946   4.337   2.922  29.061 -0.4725  0.3183 -0.3295
26497W        W32947   4.153   5.394  23.156 -0.3480 -0.3272  0.1688
26498W        W32948  12.162   4.166   2.342 -0.1116 -0.0442 -0.1061
26499W        W32949   0.156   2.108  14.299 -0.2955 -0.0145  0.2548
26500W        W32950  22.488   2.509   5.838  0.4184 -0.0055  0.0645
26501W        W32951   6.535   2.839  31.425  0.0476 -0.0894  0.1859
26502W        W32952  24.349   1.096  11.848  0.0500 -0.1581 -0.0995
26503W        W32953   5.124   6.119   4.136  0.0308  0.2732  0.1086
26504W        W32954   6.717   1.973  24.936  0.0200  0.0283  0.0528
26505W        W32955  10.249   3.260  11.544 -0.0408 -0.1295  0.0994
26506W        W32956   6.862   3.553   7.818  0.2743 -0.0478  0.2250
26507W        W32957  12.203   2.910  22.132  0.2613  0.0132  0.0098
26508W        W32958  24.654   5.904  30.942  0.1166  0.0243  0.1624
26509W        W32959   4.915   5.498  28.996 -0.0808  0.1685 -0.1202
26510W        W32960  20.772   5.149  34.014 -0.3083  0.0021 -0.0985
26511W        W32961   8.157   5.493  13.075 -0.1556  0.5512 -0.2099
26512W        W32962  15.077   4.916   7.212  0.1434 -0.0390 -0.0877
26513W        W32963   1.627   0.966  22.415  0.1702  0.0454  0.0399
26514W        W32964  23.932   1.438  26.520 -0.3264 -0.0251 -0.0457
26515W        W32965   0.550   4.323  26.124 -0.0863  0.2456  0.0276
26516W        W32966   9.276   5.072  21.407 -0.1576 -0.0033 -0.0286
26517W        W32967  22.069   2.370  26.695 -0.0442 -0.0239 -0.0262
26518W        W32968   6.617   1.216  13.970  0.1874 -0.3530  0.1235
26519W        W32969  17.605   5.774  22.051 -0.1561 -0.1404 -0.0914
26520W        W32970   0.517   6.450   3.926 -0.0268  0.0830 -0.1554
26521W        W32971   3.722   4.883  33.183 -0.1039  0.2207 -0.0351
26522W        W32972   4.453   4.025   1.588  0.2642 -0.0135  0.0490
26523W        W32973   3.610   0.283  32.500  0.4846 -0.0832 -0.0810
26524W        W32974   0.366   3.578  12.017 -0.2326  0.1335  0.2161
26525W        W32975   7.331   6.157  25.564  0.1437  0.0875  0.1209
26526W        W32976  20.150   0.199  13.990  0.0669 -0.0012 -0.1930
26527W        W32977  10.265   0.702  20.226 -0.0374  0.0580  0.0150
26528W        W32978  24.221   1.505   0.105 -0.4254  0.3154  0.1403
26529W        W32979  23.527   3.721  23.279 -0.1493 -0.0431  0.2396
26530W        W32980  19.779   2.216  20.943  0.1224 -0.0705 -0.4091
26531W        W32981   0.869   1.616  24.042 -0.1712  0.4967  0.1431
26532W        W32982  12.499   3.859  25.816  0.0302 -0.0558  0.1310
26533W        W32983   4.448   0.956  13.142  0.1535  0.1502 -0.3273
26534W        W32984  14.245   1.268  29.624 -0.2219 -0.0472 -0.2197
26535W        W32985  21.531   0.456  24.004 -0.0996  0.1467 -0.2987
26536W        W32986  16.072   5.432  33.076 -0.1138 -0.2295  0.0699
26537W        W32987  25.776   6.359  10.946  0.4249 -0.2208  0.3201
26538W        W32988   2.530   0.971  30.372 -0.3285 -0.0207  0.1058
26539W        W32989  11.949   3.865  27.068  0.0456 -0.1224  0.0592
26540W        W32990   2.067   4.744  33.040 -0.0582 -0.1908 -0.0741
26541W        W32991   4.543   3.589   4.262  0.1012 -0.1303  0.2544
26542W        W32992  12.467   2.153  34.763 -0.0570 -0.1226 -0.2016
26543W        W32993  25.808   1.321  20.597  0.2914 -0.1395 -0.1840
26544W        W32994  18.336   4.012   4.592  0.2992  0.1177  0.1929
26545W        W32995   9.008   4.570  22.976  0.0015  0.1598  0.0147
26546W        W32996   6.391   5.688  28.918 -0.0022 -0.0665  0.3608
26547W        W32997   4.836   2.262  20.772 -0.0962  0.1614 -0.0836
26548W        W32998  17.072   0.347   2.339 -0.1961  0.2331  0.1139
26549W        W32999   5.908   0.214   1.418 -0.2016 -0.0346  0.3064
26550W        W33000   9.792   2.845  10.590 -0.0806 -0.1855 -0.0036
26551W        W33001   2.327   5.990  31.128 -0.0967 -0.0670 -0.2768
26552W        W33002   1.068   1.808  36.132  0.2952 -0.0591  0.1686
26553W        W33003  16.082   3.764   7.288  0.0901  0.0073 -0.3252
26554W        W33004   3.213   2.453  33.214 -0.4124  0.0911  0.1037
26555W        W33005  25.304   1.707   8.399 -0.0379 -0.1962  0.4262
26556W        W33006  17.809   5.148  28.023  0.0835  0.0899  0.0120
26557W        W33007  17.549   3.980  27.454 -0.1503 -0.2706 -0.0834
26558W        W33008   2.679   0.487  11.675  0.0524  0.0445  0.0143
26559W        W33009   4.016   0.882   0.964  0.0721  0.0910  0.4723
26560W        W33010   4.455   5.573  12.325 -0.0370 -0.2167 -0.0399
26561W        W33011   7.827   2.498  14.398 -0.0904  0.1946  0.2050
26562W        W33012  23.712   3.562  11.638 -0.2957  0.2920 -0.0042
26563W        W33013  16.847   4.393   3.555  0.0359 -0.2082 -0.1716
26564W        W33014  17.203   3.824   6.810  0.0455 -0.5003 -0.2183
26565W        W33015  24.780   2.783   0.914 -0.2408 -0.0254  0.2056
26566W        W33016   1.530   1.702  28.931  0.2227  0.0577 -0.1890
26567W        W33017  24.855   5.174  21.882 -0.0764  0.1487  0.1076
26568W        W33018  11.465   0.782   6.179 -0.0736 -0.3748 -0.1833
26569W        W33019  13.136   3.711  32.976 -0.0548 -0.0950 -0.2655
26570W        W33020   3.110   4.012   6.924 -0.1820 -0.0016  0.0221
26571W        W33021  12.291   2.758  21.207  0.0743 -0.0154 -0.0112
26572W        W33022  24.022   2.852  34.241 -0.3017  0.1889  0.1693
26573W        W33023   7.382   6.189   2.483  0.1584  0.0748  0.0699
26574W        W33024  16.469   5.406  12.297  0.1325 -0.0175  0.0795
26575W        W33025   5.886   0.316   2.774  0.0722 -0.0003  0.0931
26576W        W33026   5.079   0.219  27.916  0.0069  0.0451 -0.0171
26577W        W33027  14.189   2.961  11.770 -0.1148  0.0205  0.4957
26578W        W33028  21.373   4.257  24.107  0.0098  0.1722  0.6166
26579W        W33029  11.967   0.384   6.878  0.0679  0.0906  0.0930
26580W        W33030  15.783   5.502   7.029 -0.0231 -0.2545 -0.0103
26581W        W33031   2.581   1.527  10.464 -0.3492  0.0664 -0.0292
26582W        W33032  20.287   3.910  23.794 -0.0160 -0.1025  0.1251
26583W        W33033  16.707   2.318  30.436 -0.1593  0.1776  0.0279
26584W        W33034  15.861   4.720  31.020 -0.2172  0.2319 -0.1051
26585W        W33035  17.006   4.376  32.176 -0.0999 -0.3481 -0.0685
26586W        W33036  18.402   5.903  23.932 -0.2428 -0.0609 -0.0609
26587W        W33037   9.831   4.097  14.282 -0.1712  0.1388 -0.0869
26588W        W33038   0.001   2.597  13.510 -0.3235  0.0278 -0.0950
26589W        W33039   5.477   3.676  26.032 -0.0740  0.1685  0.1909
26590W        W33040  23.262   4.735  27.482 -0.3533 -0.2698 -0.1370
26591W        W33041   8.889   5.054   0.556  0.3335  0.4384 -0.1356
26592W        W33042  24.407   0.171   9.075  0.1698  0.3956 -0.3801
26593W        W33043   5.516   2.536  27.564 -0.0044  0.0649 -0.0348
26594W        W33044  25.415   2.685  10.046  0.0629 -0.0402 -0.1709
26595W        W33045   7.147   4.069  29.987 -0.0769  0.0438  0.3437
26596W        W33046   7.592   2.266  24.017 -0.0755  0.1089  0.0009
26597W        W33047  23.202   0.001   7.350 -0.2549 -0.2059 -0.3003
26598W        W33048  14.527   6.008   2.578 -0.0384 -0.2462 -0.0640
26599W        W33049   7.299   6.348   2.038 -0.0941 -0.2045 -0.1332
26600W        W33050   3.382   0.066  25.500 -0.2014  0.4001  0.0880
26601W        W33051   5.400   3.737   9.991  0.2588  0.2573  0.1022
26602W        W33052  24.796   0.172   7.389 -0.1264 -0.1355  0.2378
26603W        W33053  13.299   5.083  32.509  0.2054 -0.1886 -0.0927
26604W        W33054   8.002   3.987  14.143  0.2281  0.0785 -0.0175
26605W        W33055   5.872   1.476  20.741  0.0552 -0.4237 -0.0665
26606W        W33056  16.899   3.252  21.722  0.1284  0.0135  0.1089
26607W        W33057  23.138   1.640   4.747  0.1925 -0.2596  0.0079
26608W        W33058  20.349   3.541  28.978 -0.3440 -0.4183  0.1346
26609W        W33059  18.998   4.506  32.958 -0.0038 -0.1883  0.1670
26610W        W33060   3.471   1.536  28.031  0.1965 -0.0436 -0.1782
26611W        W33061  12.639   0.077  13.650 -0.0441 -0.1252  0.1671
26612W        W33062  21.818   2.751   0.756  0.5358 -0.0862  0.4480
26613W        W33063  22.300   5.718  32.375 -0.2108 -0.1941 -0.0275
26614W        W33064   8.941   2.912   8.734 -0.0803  0.1278 -0.0203
26615W        W33065   1.843   4.883  25.010 -0.3574 -0.2375  0.1444
26616W        W33066  18.733   2.290  15.800 -0.1150  0.1491 -0.2730
26617W        W33067   9.138   3.448  34.710  0.0814  0.0785  0.0066
26618W        W33068   8.855   5.110   2.896  0.0242  0.1945  0.4754
26619W        W33069  21.944   5.563  27.793  0.2288  0.2500  0.1565
26620W        W33070  11.617   5.277  31.238  0.1759 -0.0688  0.0300
26621W        W33071  21.039   1.353  33.262  0.0830  0.0127  0.0601
26622W        W33072  14.559   4.360  31.551  0.2007  0.3700 -0.0241
26623W        W33073   3.122   6.351  30.805 -0.2868 -0.0832  0.0189
26624W        W33074  12.417   1.660  11.551  0.0775  0.1148 -0.3182
26625W        W33075  16.161   3.165  31.842 -0.0162  0.0638 -0.0722
26626W        W33076  12.149   1.232   2.297 -0.5199 -0.1499 -0.1950
26627W        W33077   5.462   2.405   4.745  0.2984 -0.1040 -0.1497
26628W        W33078   6.160   3.845   2.378  0.0072  0.3312  0.2370
26629W        W33079  18.276   3.667   5.532  0.2546  0.2490 -0.2154
26630W        W33080   7.498   1.088  25.001  0.1051  0.0914  0.0724
26631W        W33081  14.831   4.446  26.317 -0.2656  0.3258  0.1227
26632W        W33082  21.090   1.020  30.253 -0.0546 -0.0369 -0.0215
26633W        W33083  16.506   1.731  29.349  0.0755 -0.3027 -0.1899
26634W        W33084  20.085   4.000  11.378 -0.2643 -0.1238 -0.0927
26635W        W33085  23.347   1.558   2.037  0.0704  0.2816 -0.2571
26636W        W33086   8.862   0.267  32.500  0.1313  0.3542  0.0481
26637W        W33087  25.203   4.757  29.119 -0.0008 -0.2412 -0.2143
26638W        W33088   2.629   3.091   7.652  0.0656  0.0794 -0.0146
26639W        W33089   6.028   1.747  13.557 -0.0614  0.1793  0.0004
26640W        W33090   4.609   0.680   3.398  0.2061  0.4348 -0.2479
26641W        W33091  10.297   3.475  23.165  0.1532 -0.1029 -0.0359
26642W        W33092  24.629   2.867  21.942  0.1116  0.3744 -0.0683
26643W        W33093   0.520   0.669  10.244  0.0686 -0.1137 -0.0963
26644W        W33094  16.602   1.487  24.991 -0.1908  0.2751  0.2293
26645W        W33095   0.130   1.162  32.761  0.1405  0.0503 -0.1064
26646W        W33096  14.698   0.215  23.793 -0.0961 -0.1005 -0.0407
26647W        W33097   2.992   3.392  25.380  0.1058 -0.1614 -0.3205
26648W        W33098  18.665   0.963   4.304  0.0121 -0.0770 -0.0897
26649W        W33099   2.523   1.813  20.939 -0.1036 -0.2569 -0.0925
26650W        W33100  25.829   2.614  23.719 -0.4679 -0.2116 -0.1002
26651W        W33101  19.524   0.224  26.436  0.2042 -0.4108  0.0678
26652W        W33102  15.979   6.102   9.629 -0.0618  0.1637 -0.0493
26653W        W33103  24.054   4.228  30.455  0.3639 -0.2266 -0.0204
26654W        W33104   0.737   4.829  25.456 -0.1690 -0.1040 -0.0528
26655W        W33105  24.181   5.316  34.895  0.0001 -0.0505  0.1348
26656W        W33106   3.501   3.533  30.559 -0.1297 -0.0414  0.2751
26657W        W33107  20.190   3.205  28.430 -0.2858 -0.0661  0.0764
26658W        W33108  20.787   0.809  13.464 -0.2462  0.1517 -0.0493
26659W        W33109  10.423   5.062   0.318  0.4497 -0.1457 -0.3516
26660W        W33110   2.513   4.276  27.139  0.4089 -0.0741  0.3663
26661W        W33111  14.120   0.297   5.155  0.0954  0.1809  0.0500
26662W        W33112  16.437   4.354   3.112  0.1299  0.2444  0.1988
26663W        W33113   4.418   2.304  13.397 -0.0492 -0.0194  0.0866
26664W        W33114  25.189   0.612  23.853  0.3153 -0.1190  0.1745
26665W        W33115  11.398   2.583  11.375 -0.2276 -0.1049  0.0123
26666W        W33116  21.215   6.588   5.336  0.2144 -0.0731 -0.0255
26667W        W33117   3.504   0.182  22.341 -0.2410  0.1809 -0.0022
26668W        W33118  18.762   3.650  32.886  0.2172 -0.3015 -0.3488
26669W        W33119   5.184   2.947  27.648 -0.0217 -0.2518 -0.0011
26670W        W33120  24.725   0.363  23.768  0.0148  0.1246 -0.1905
26671W        W33121  25.326   0.652   0.809 -0.1161  0.0083  0.1876
26672W        W33122  10.526   2.407   3.270 -0.0025 -0.0527  0.0654
26673W        W33123  19.943   1.243  14.864 -0.2493 -0.2629 -0.1502
26674W        W33124  11.131   1.137  33.493 -0.0230 -0.0802  0.0525
26675W        W33125   6.525   0.225  12.788 -0.0315 -0.0603 -0.0836
26676W        W33126   6.943   5.660  14.437  0.1624 -0.0876 -0.1409
26677W        W33127  16.549   6.411  15.339 -0.3408  0.1560 -0.2743
26678W        W33128  15.370   2.609  31.903 -0.1341 -0.0935 -0.2226
26679W        W33129   2.304   0.051  30.498  0.1200  0.0335  0.1466
26680W        W33130  12.898   4.797  14.626  0.1572 -0.5273 -0.3263
26681W        W33131  15.356   5.953   1.643 -0.1248 -0.1768  0.0906
26682W        W33132   1.440   2.916  29.675  0.3835 -0.1255 -0.0691
26683W        W33133   3.772   5.303  11.042 -0.0543 -0.3979 -0.2407
26684W        W33134  13.795   2.722  30.135  0.2259 -0.1590 -0.1721
26685W        W33135  16.919   5.155  32.355 -0.2569 -0.1560  0.1127
26686W        W33136   8.428   4.499  35.221  0.1049  0.1919  0.0826
26687W        W33137   1.160   1.110  29.673  0.1331  0.4730  0.2143
26688W        W33138  25.366   0.040  29.798  0.2151 -0.2145 -0.2628
26689W        W33139  19.626   0.362  36.112  0.1844 -0.0603 -0.2135
26690W        W33140  19.648   2.719  27.196  0.0834 -0.0592 -0.0328
26691W        W33141  24.045   4.736  33.786  0.0603  0.0330  0.1564
26692W        W33142  24.867   4.809  35.870  0.0001 -0.1201  0.2417
26693W        W33143  16.792   6.042  23.962 -0.3018  0.1199 -0.0430
26694W        W33144  16.754   0.311  26.463 -0.2666  0.2358  0.2302
26695W        W33145   4.788   4.684  26.005  0.0037  0.3361  0.1193
26696W        W33146  18.942   2.734   2.323 -0.0199 -0.0085 -0.1311
26697W        W33147   8.755   1.199  32.840 -0.4079  0.2779 -0.1073
26698W        W33148  11.151   2.853  27.183  0.0501 -0.1750  0.0566
26699W        W33149   7.346   3.389   3.464  0.1345  0.5321 -0.0420
26700W        W33150  19.528   1.083  34.874 -0.2674 -0.3110  0.2416
26701W        W33151  13.103   1.491   6.024 -0.0035 -0.0917  0.3971
26702W        W33152   5.289   4.377   5.284 -0.0843  0.3480  0.0297
26703W        W33153  10.973   6.086  26.514  0.0303 -0.2539  0.0226
26704W        W33154  20.093   2.803   7.291  0.0551 -0.1762  0.0480
26705W        W33155   4.828   1.846  34.896  0.0430  0.2509 -0.3557
26706W        W33156   5.495   0.843   0.180 -0.3836 -0.1689 -0.0953
26707W        W33157  23.039   3.904  14.315  0.1292  0.0502  0.2651
26708W        W33158   0.131   4.270  25.522 -0.1308 -0.0491  0.1328
26709W        W33159   4.244   3.596  33.967 -0.2369  0.2628  0.2992
26710W        W33160  23.265   5.480   4.911 -0.0725 -0.0012  0.3069
26711W        W33161  22.244   1.918  10.497 -0.0518 -0.1856  0.0053
26712W        W33162  22.511   5.073  26.211 -0.1052 -0.0765  0.1054
26713W        W33163  11.313   3.398   9.759  0.2174  0.1854  0.2852
26714W        W33164  13.283   4.772   2.941 -0.2291  0.2188 -0.0536
26715W        W33165   9.649   1.285  25.045 -0.1661 -0.2242 -0.2349
26716W        W33166  12.294   2.346   8.008 -0.0527 -0.1297  0.1259
26717W        W33167   4.460   2.481  22.477 -0.0763  0.0976  0.3062
26718W        W33168  22.013   0.019  24.160  0.0499 -0.2284 -0.1656
26719W        W33169   5.480   0.007   5.949 -0.4243 -0.1932  0.0038
26720W        W33170   8.978   0.816   5.345 -0.1056  0.1937 -0.2785
26721W        W33171  16.607   5.482  27.466 -0.1313  0.3796 -0.0046
26722W        W33172   2.160   4.699   4.000 -0.0818 -0.0829  0.3257
26723W        W33173  16.285   2.450  21.762 -0.1976  0.0671  0.1122
26724W        W33174  17.107   1.246   9.341  0.2575  0.0306  0.0407
26725W        W33175  15.308   2.939  30.594 -0.4556  0.1313 -0.1753
26726W        W33176  12.099   0.398  31.146 -0.1577 -0.1030  0.0096
26727W        W33177   8.790   2.027  22.232  0.3082 -0.0962 -0.2049
26728W        W33178  13.439   2.327  13.322  0.0056 -0.2225  0.2096
26729W        W33179   6.411   5.490  33.765 -0.1021  0.0363 -0.0898
26730W        W33180  15.165   3.456  10.211  0.0252 -0.1010  0.0804
26731W        W33181   8.578   5.643  23.565  0.3221 -0.1699 -0.0755
26732W        W33182  11.201   3.644   1.641 -0.0606 -0.1656 -0.3489
26733W        W33183  18.532   5.374   6.222 -0.0145  0.1019  0.0348
26734W        W33184   8.010   0.077  27.686  0.0524 -0.1070 -0.2903
26735W        W33185  14.928   2.482   7.059  0.1458 -0.0270 -0.0940
26736W        W33186  15.662   4.904  32.523 -0.1249 -0.0411 -0.0826
26737W        W33187  25.860   2.365  14.341  0.0005 -0.2064 -0.2418
26738W        W33188   5.320   4.971  11.259  0.6356  0.1261  0.2092
26739W        W33189   5.123   5.284   4.238  0.1837  0.0303  0.1297
26740W        W33190   0.861   3.699  26.764 -0.0413  0.0962 -0.0079
26741W        W33191  18.413   2.602   0.184  0.3209  0.2093 -0.0085
26742W        W33192  16.258   3.604   3.631 -0.0008  0.0320 -0.2881
26743W        W33193  10.114   5.143   9.363  0.0712  0.2179  0.1321
26744W        W33194  16.655   4.529  26.749 -0.0210  0.1770 -0.2011
26745W        W33195   6.331   2.340  31.406 -0.1893 -0.1609 -0.2811
26746W        W33196  20.413   5.193  20.838 -0.0513 -0.0474  0.1698
26747W        W33197   2.362   6.092  10.329 -0.1112 -0.0314 -0.3059
26748W        W33198   6.614   6.353  30.121  0.1066  0.0071  0.0950
26749W        W33199  23.329   5.755  27.348 -0.2138 -0.0986 -0.3027
26750W        W33200   3.808   0.335  29.363  0.1541  0.0767  0.0383
26751W        W33201  13.684   1.967   0.237  0.0195  0.1827 -0.0865
26752W        W33202   1.770   2.603  25.590  0.0149 -0.0234  0.0644
26753W        W33203  17.011   2.722  27.764  0.2692 -0.0690 -0.1268
26754W        W33204   6.309   4.637  15.121 -0.0055  0.1808  0.3420
26755W        W33205  13.473   0.576  29.304  0.0611 -0.0700  0.0730
26756W        W33206  14.628   3.793  13.318  0.4211  0.2731  0.5500
26757W        W33207  23.245   2.706  14.697 -0.2850 -0.2082  0.2009
26758W        W33208  20.868   6.465  13.050  0.4275  0.2075 -0.1225
26759W        W33209  22.266   3.653  32.930  0.1139 -0.2390  0.1600
26760W        W33210  13.901   3.213  35.003 -0.2307 -0.0131 -0.0634
26761W        W33211  24.211   5.668  34.022  0.2724 -0.2524 -0.1384
26762W        W33212  16.190   4.215  12.317 -0.1716  0.0072  0.2503
26763W        W33213   0.091   0.309  11.540  0.1029 -0.3619 -0.2576
26764W        W33214  16.038   1.838   6.708 -0.2026  0.0103 -0.0710
26765W        W33215  20.605   2.363  27.246 -0.0868  0.1256 -0.0820
26766W        W33216   5.375   4.722  26.785  0.0530 -0.0190 -0.2052
26767W        W33217  26.230   1.929  22.661  0.1372 -0.2361  0.1471
26768W        W33218  20.194   4.691  34.829  0.0655 -0.1825 -0.2918
26769W        W33219   9.881   6.473  26.770 -0.4137 -0.0191  0.1176
26770W        W33220  19.159   4.543  23.050  0.0245 -0.1253 -0.1935
26771W        W33221  15.606   0.441  31.798 -0.2389  0.2590  0.1956
26772W        W33222  21.028   5.435  27.279  0.2570 -0.1459  0.0817
26773W        W33223  25.837   2.524   2.550 -0.0364  0.1907  0.1098
26774W        W33224   5.134   4.904  32.342  0.2844  0.2408  0.1298
26775W        W33225  14.522   4.146  27.308  0.0013 -0.0127  0.0770
26776W        W33226  24.250   1.877  35.956 -0.0370 -0.2651 -0.1363
26777W        W33227   3.604   1.319  14.458 -0.0893 -0.1814 -0.2057
26778W        W33228  22.418   4.647  21.728 -0.0339  0.0043  0.2337
26779W        W33229  24.746   5.715   3.968 -0.5670  0.1707 -0.4021
26780W        W33230  24.139   4.127   6.451  0.0349  0.2699  0.1640
26781W        W33231   8.635   2.391   2.254  0.3214  0.1042  0.3307
26782W        W33232   9.318   0.613  30.337  0.1325  0.2549  0.0433
26783W        W33233  24.706   3.956  33.957 -0.2680  0.4203 -0.0893
26784W        W33234   7.937   5.671  31.500 -0.1438 -0.2584  0.1130
26785W        W33235  14.365   2.006  11.266  0.0901  0.0821 -0.0614
26786W        W33236  15.684   6.147   7.558  0.0496 -0.0578 -0.2221
26787W        W33237   1.416   5.642   6.579  0.2275 -0.0325 -0.0877
26788W        W33238   8.336   1.670  11.655 -0.0256  0.0601 -0.0199
26789W        W33239   4.803   1.911  35.446  0.0625 -0.2640  0.1074
26790W        W33240  13.894   3.411  28.982  0.0689  0.0752 -0.1832
26791W        W33241   1.783   1.377  21.836  0.0291 -0.1734 -0.2515
26792W        W33242  15.404   3.265  15.546 -0.1607 -0.5357 -0.1630
26793W        W33243  14.869   0.261  35.995 -0.2615 -0.4943  0.0054
26794W        W33244  18.411   3.478   2.816  0.0212  0.1116 -0.2262
26795W        W33245  19.394   3.218  14.224  0.1315 -0.0538  0.2206
26796W        W33246   4.397   4.308  26.926  0.0942 -0.2237 -0.0013
26797W        W33247  17.168   0.447  14.552  0.3256 -0.3457 -0.1408
26798W        W33248   5.250   0.981   1.496 -0.0342 -0.2231 -0.1242
26799W        W33249  17.832   2.715  34.212  0.1270  0.0938  0.1951
26800W        W33250  22.261   2.416  13.585 -0.2178  0.1121 -0.0683
26801W        W33251   3.056   2.198   9.445  0.1919 -0.2476  0.1149
26802W        W33252  26.175   1.205   9.956  0.1509 -0.1629  0.2675
26803W        W33253   1.224   4.259  25.954  0.1603  0.1084  0.0238
26804W        W33254  21.590   2.773  24.874  0.0682 -0.1464  0.1112
26805W        W33255  14.445   1.982  11.926 -0.1268 -0.0447 -0.1428
26806W        W33256   7.088   4.151   9.365 -0.2137  0.0392  0.2174
26807W        W33257  11.845   4.620  21.193 -0.3560  0.0723  0.1404
26808W        W33258  20.354   3.692   6.571  0.4948 -0.2612  0.0829
26809W        W33259   6.541   5.922  24.509 -0.2192  0.0364 -0.0480
26810W        W33260  22.403   1.944  11.081  0.0323  0.0161 -0.0366
26811W        W33261   8.806   6.356  22.686 -0.2473  0.0167 -0.1201
26812W        W33262   6.940   0.387   9.417 -0.0391 -0.1773 -0.2249
26813W        W33263  23.665   1.533  23.613  0.0006 -0.2255  0.2544
26814W        W33264  26.258   3.163  22.513 -0.2161  0.1203 -0.1408
26815W        W33265   4.369   4.382   2.943  0.0754 -0.0362 -0.1660
26816W        W33266   1.305   1.240   7.622 -0.0156 -0.0362  0.0305
26817W        W33267  23.842   2.207  32.970 -0.0983 -0.0222 -0.2452
26818W        W33268   1.644   0.948  12.289  0.0421  0.1309 -0.2598
26819W        W33269   6.564   4.635  23.525 -0.1396 -0.0258 -0.0349
26820W        W33270   1.596   6.218   3.564  0.1379 -0.1353 -0.0988
26821W        W33271  22.036   6.041  31.594  0.0089 -0.1423  0.1659
26822W        W33272  19.483   5.588  35.787  0.0346  0.0296  0.3568
26823W        W33273  19.455   1.388  10.618  0.1162 -0.4239  0.0442
26824W        W33274   9.367   0.468   2.477 -0.1694 -0.2644  0.2000
26825W        W33275   8.863   1.064  35.561  0.2621 -0.2205  0.2398
26826W        W33276   1.150   2.482  30.752  0.1894  0.0666 -0.1327
26827W        W33277  15.948   0.152  32.299  0.0538 -0.1414 -0.0441
26828W        W33278  18.701   2.698  34.332  0.0920 -0.1983  0.2142
26829W        W33279  25.820   4.721   1.104 -0.0834  0.2524 -0.1769
26830W        W33280   9.179   6.317  33.773 -0.3071 -0.0865 -0.2575
26831W        W33281   1.842   4.937  13.954  0.4779  0.1800  0.0165
26832W        W33282  13.728   2.265  28.808  0.1831  0.0799 -0.1079
26833W        W33283   2.949   1.223   2.247  0.1684  0.0171  0.0475
26834W        W33284   6.413   0.179  20.409 -0.1019 -0.1942 -0.0557
26835W        W33285  17.234   1.465  33.678 -0.0943 -0.1546  0.2797
26836W        W33286  15.486   0.885  28.516 -0.1900  0.2202 -0.3013
26837W        W33287   7.513   1.775   3.996  0.0883  0.1894  0.2000
26838W        W33288  24.946   0.697   1.473 -0.0707 -0.0320  0.1943
26839W        W33289   0.980   6.277  23.777  0.0744 -0.0245  0.0408
26840W        W33290  15.422   4.337   7.908 -0.0649  0.0004  0.0876
26841W        W33291   0.449   4.009  26.592 -0.2470  0.1356 -0.0071
26842W        W33292  19.457   4.000  23.655 -0.0871 -0.0934  0.0333
26843W        W33293  13.946   3.099  27.878  0.1550 -0.1652  0.1685
26844W        W33294   2.073   2.306  10.888  0.2458  0.0636 -0.1715
26845W        W33295  18.566   3.120   7.903 -0.2385 -0.0259 -0.0093
26846W        W33296  23.992   2.354  26.606 -0.0146 -0.1361  0.0272
26847W        W33297  10.215   6.422  30.857 -0.1281 -0.3208  0.1814
26848W        W33298  18.478   2.239   2.247  0.0162 -0.2040 -0.5049
26849W        W33299  16.722   0.794  25.666  0.0365 -0.0397 -0.0272
26850W        W33300   6.093   3.431  22.439  0.0816 -0.2361 -0.0996
26851W        W33301  24.871   4.528  23.950 -0.1127 -0.0154  0.1182
26852W        W33302   9.075   0.204  22.930  0.0279  0.1559 -0.3009
26853W        W33303  12.901   2.605  24.568  0.0030  0.2230 -0.0054
26854W        W33304   4.142   5.116  12.307  0.0951  0.0177 -0.0818
26855W        W33305  15.821   6.103   4.546 -0.0543  0.1418  0.2386
26856W        W33306  11.622   3.126   8.268  0.2382 -0.0883 -0.0481
26857W        W33307  10.788   3.483  23.233 -0.1140 -0.3404  0.0819
26858W        W33308   1.478   4.881   4.178 -0.0478  0.0504  0.2213
26859W        W33309  25.312   1.727   5.813 -0.1540  0.1991 -0.0910
26860W        W33310  18.534   0.101  23.363  0.0053  0.2256  0.0621
26861W        W33311  22.137   6.186  34.953  0.0779  0.1537 -0.0784
26862W        W33312  21.635   5.245  13.418  0.2878 -0.0584 -0.0087
26863W        W33313   3.555   0.416  10.971  0.0313  0.1894  0.1116
26864W        W33314   8.801   3.552   6.987  0.0723 -0.1404  0.1062
26865W        W33315  25.853   0.450  27.008  0.0574  0.1951  0.1605
26866W        W33316   2.992   2.233   4.778 -0.0302  0.3363  0.2466
26867W        W33317  18.788   0.151  25.602  0.1863  0.0992  0.2411
26868W        W33318  16.535   2.463   6.032 -0.0210  0.1945  0.1597
26869W        W33319  24.050   5.661  14.814  0.2327  0.0313 -0.1262
26870W        W33320   1.995   3.754  35.867  0.4606 -0.4323 -0.0787
26871W        W33321   6.888   1.275  23.733  0.1241 -0.0159 -0.2829
26872W        W33322   4.235   3.836   8.058 -0.1347 -0.2631  0.4193
26873W        W33323   6.160   1.177  22.051 -0.0337 -0.1770  0.0942
26874W        W33324   9.858   0.010   7.029 -0.2228  0.3769 -0.1487
26875W        W33325  21.744   5.714  15.239  0.1150 -0.1625 -0.1650
26876W        W33326  26.347   4.001   4.674  0.2449 -0.0806 -0.1507
26877W        W33327   3.912   2.236  34.182 -0.1594  0.2476  0.0843
26878W        W33328   7.763   5.471   3.114 -0.1674 -0.0299  0.0787
26879W        W33329   0.818   1.741  34.116  0.3404  0.1953 -0.0868
26880W        W33330   2.856   4.967  21.651  0.0365  0.1916  0.1081
26881W        W33331  25.185   0.785  22.391 -0.0842 -0.3172 -0.0770
26882W        W33332  13.989   2.436   6.923  0.5430  0.1708 -0.1307
26883W        W33333  16.958   4.654   4.123  0.0084 -0.1052 -0.0981
26884W        W33334   5.426   1.214  31.144 -0.1191 -0.0528 -0.2384
26885W        W33335  21.933   0.985  34.404  0.2230  0.2309  0.3475
26886W        W33336   2.134   1.466  24.691  0.2734 -0.1361  0.0102
26887W        W33337  17.039   5.907   5.037  0.1074  0.1631  0.0336
26888W        W33338  18.897   5.535  29.200  0.0006  0.0092  0.0473
26889W        W33339  20.852   0.702   0.373  0.0433 -0.1232  0.2446
26890W        W33340   9.767   0.443  10.193  0.0808  0.1666 -0.1352
26891W        W33341   3.814   1.629  28.966 -0.1213 -0.0373  0.0425
26892W        W33342  16.303   5.750  21.827  0.0007 -0.1187 -0.2911
26893W        W33343  22.103   4.918  21.483  0.1911 -0.1600 -0.3538
26894W        W33344  17.369   5.667   0.685  0.0082  0.1898 -0.1767
26895W        W33345   2.485   6.184  27.708 -0.1625 -0.1386 -0.0986
26896W        W33346  16.189   1.759  13.024  0.2153 -0.0954  0.3419
26897W        W33347  19.505   3.902  22.801  0.0360  0.5405  0.0620
26898W        W33348   8.806   1.186  11.203 -0.0548  0.0110  0.0416
26899W        W33349  22.239   5.069  34.054 -0.0099  0.0766 -0.0326
26900W        W33350  17.182   5.843  34.310 -0.0947 -0.0738 -0.1691
26901W        W33351  22.971   6.006  28.550 -0.0330  0.0299  0.0504
26902W        W33352  24.687   4.731   9.590 -0.0549 -0.1146 -0.3243
26903W        W33353  11.942   3.434   2.388 -0.3518 -0.2522  0.1816
26904W        W33354  21.634   2.043  31.967 -0.0294  0.1804  0.0498
26905W        W33355   2.861   0.784   9.742 -0.2982  0.3028 -0.1443
26906W        W33356  14.208   6.142   8.058  0.3081  0.0305 -0.1752
26907W        W33357  16.783   3.133   2.441  0.0894  0.1681  0.2725
26908W        W33358  17.688   2.208  29.987  0.0157  0.0159 -0.2085
26909W        W33359   4.050   5.957  31.696 -0.3389 -0.0008 -0.1084
26910W        W33360  13.923   5.164  22.666 -0.1300 -0.3834  0.1942
26911W        W33361  20.667   4.570  23.220 -0.0870 -0.1954  0.0050
26912W        W33362  16.267   1.454  30.530 -0.0030  0.1613 -0.2528
26913W        W33363  13.880   4.288   0.255  0.0215  0.1735  0.0281
26914W        W33364   1.033   4.610  10.534 -0.0083 -0.0345 -0.0608
26915W        W33365  24.567   3.703   3.010 -0.1823  0.1929 -0.3356
26916W        W33366   8.586   0.363  14.503  0.0821  0.2171  0.0856
26917W        W33367   4.878   5.862   5.142 -0.2233  0.2309 -0.1170
26918W        W33368  15.544   0.259  29.760  0.0326 -0.1887 -0.1788
26919W        W33369  19.202   0.875  12.831 -0.0487 -0.1846  0.0122
26920W        W33370  11.729   4.937   1.783 -0.0588  0.0386  0.1370
26921W        W33371  10.007   4.508   3.006 -0.1143  0.1366  0.0597
26922W        W33372  12.775   1.025  13.846 -0.3914 -0.4258  0.1914
26923W        W33373   5.133   3.593   4.353 -0.0365  0.1495  0.0939
26924W        W33374  11.889   4.458   5.282 -0.3031 -0.0128  0.2589
26925W        W33375  18.565   4.323  22.523 -0.1467 -0.2388  0.1613
26926W        W33376  20.967   6.532   7.196  0.2536 -0.3773  0.2352
26927W        W33377   9.689   0.300  11.955 -0.1041  0.0359  0.0420
26928W        W33378  17.853   1.991  23.562  0.0086 -0.2581  0.2017
26929W        W33379  21.713   0.849   0.959  0.0294  0.0083  0.2022
26930W        W33380   1.007   2.506   4.320 -0.2530 -0.3855 -0.0554
26931W        W33381  18.125   4.749  15.238  0.4653  0.0341  0.2193
26932W        W33382   5.531   0.212   5.449 -0.2469 -0.1847 -0.5667
26933W        W33383  11.415   1.687  29.926  0.0203 -0.2198 -0.1566
26934W        W33384  15.032   6.263  29.276  0.2960  0.6163  0.2254
26935W        W33385  17.989   1.645   9.823  0.1115 -0.0566  0.1965
26936W        W33386  22.798   5.346  14.406  0.0341 -0.1343 -0.2371
26937W        W33387  24.414   2.523  25.887 -0.0436 -0.2008  0.1640
26938W        W33388  16.320   0.775  32.754  0.0607  0.2893 -0.2586
26939W        W33389   7.012   3.964  12.609  0.3479  0.0852 -0.1973
26940W        W33390   2.345   6.553  11.080 -0.3512  0.1679 -0.0875
26941W        W33391  21.114   1.573  12.092 -0.0040 -0.1168  0.0083
26942W        W33392   0.041   4.577   6.476  0.2385  0.0644 -0.2421
26943W        W33393  16.064   1.517   6.199 -0.1377 -0.1315  0.3172
26944W        W33394  16.355   5.383   7.898  0.0166  0.0177 -0.3396
26945W        W33395   8.766   5.279  23.932  0.4595  0.0224  0.1670
26946W        W33396  11.015   5.299  35.294 -0.1268 -0.4984  0.3159
26947W        W33397   0.012   5.384  28.506  0.0614 -0.0642  0.0121
26948W        W33398   2.976   0.300  33.728  0.0599  0.1814  0.0133
26949W        W33399  25.795   4.529   0.592 -0.2161  0.0693 -0.3580
26950W        W33400   2.812   3.046  20.328  0.2034 -0.0535 -0.0519
26951W        W33401  20.914   5.268  11.620 -0.1711  0.1387 -0.0173
26952W        W33402   5.927   2.940  20.125  0.0551 -0.0381  0.2883
26953W        W33403  16.578   2.589  10.912  0.3078 -0.0286 -0.1565
26954W        W33404  26.207   3.904  35.743 -0.0648  0.4368 -0.1824
26955W        W33405  16.489   4.821  14.574 -0.1701 -0.1499 -0.0318
26956W        W33406  20.879   1.206   6.924  0.2154 -0.0854 -0.1934
26957W        W33407   2.555   1.491  12.638  0.4057  0.1408 -0.1673
26958W        W33408  15.994   0.860   1.672 -0.3459  0.2545 -0.0976
26959W        W33409  13.969   1.403  24.449 -0.0130 -0.1428 -0.0459
26960W        W33410  25.182   4.374   3.354 -0.0704 -0.0216 -0.0304
26961W        W33411  11.133   2.301  13.208  0.0646  0.1346  0.1029
26962W        W33412   3.537   3.971   2.979 -0.1044  0.0366  0.0120
26963W        W33413   6.917   3.182  22.682 -0.3840  0.1420 -0.0695
26964W        W33414  20.911   1.047  12.349 -0.2650 -0.3421  0.1739
26965W        W33415  17.280   3.739   4.984  0.0979  0.0899 -0.2740
26966W        W33416  18.584   1.328  21.748 -0.1747 -0.0561  0.1981
26967W        W33417  21.127   3.742  24.714 -0.1839 -0.2190 -0.0770
26968W        W33418  21.227   2.548  21.257  0.0510 -0.0471 -0.2132
26969W        W33419   6.343   1.523   7.788 -0.3492 -0.0619  0.0264
26970W        W33420   4.566   0.454  23.699 -0.1046 -0.0533  0.2745
26971W        W33421  23.433   0.322  25.914  0.0093  0.2929  0.1740
26972W        W33422  24.683   5.208  14.944 -0.1583  0.0431 -0.0790
26973W        W33423  21.346   3.246   4.597 -0.2867  0.0599 -0.2689
26974W        W33424   8.199   1.222  34.297 -0.2330  0.0077 -0.0573
26975W        W33425  20.525   2.321  34.890 -0.0718  0.1188  0.0773
26976W        W33426   0.571   0.194  23.903 -0.3583  0.0186  0.1265
26977W        W33427  11.446   5.520   3.433 -0.1277  0.4046  0.1329
26978W        W33428   7.910   5.189  21.851  0.3763 -0.0387  0.1525
26979W        W33429  24.020   4.829  15.469 -0.0838  0.1134  0.0454
26980W        W33430   3.836   4.180  29.148  0.0406  0.0594 -0.1694
26981W        W33431  11.943   3.473  21.515  0.1143 -0.0848  0.0777
26982W        W33432  17.408   3.541  26.523  0.0077 -0.0963  0.3394
26983W        W33433   5.541   3.839  11.290 -0.1935 -0.2525  0.1291
26984W        W33434   1.520   3.365  20.854  0.2722  0.1589  0.0643
26985W        W33435   7.129   5.893   1.504 -0.0295  0.0282  0.0041
26986W        W33436  26.114   5.294  29.131  0.1628  0.0252  0.0548
26987W        W33437   4.992   5.936  20.989  0.2140  0.0832 -0.2478
26988W        W33438  20.159   1.123  14.410  0.2238  0.0184 -0.0181
26989W        W33439  12.812   6.607  14.628 -0.0362  0.0655  0.1096
26990W        W33440   2.625   0.782   2.172  0.0999  0.0182  0.0690
26991W        W33441  23.213   0.944   3.251 -0.0038  0.0255 -0.2413
26992W        W33442  24.206   3.982   7.535 -0.0776 -0.1152 -0.1509
26993W        W33443  14.169   4.424  14.402  0.2430  0.2154 -0.0674
26994W        W33444   3.810   4.122  31.932 -0.4064 -0.1908 -0.0561
26995W        W33445   1.813   1.735  26.301 -0.1361 -0.1542  0.2439
26996W        W33446  11.079   6.233   4.364 -0.0426  0.2049 -0.2439
26997W        W33447  22.693   0.179   6.846  0.2511 -0.0708  0.1788
26998W        W33448  10.050   5.039  28.005 -0.2269  0.3410 -0.1541
26999W        W33449  20.707   6.217  25.077  0.1532  0.0816 -0.0563
27000W        W33450   6.227   3.269  29.882 -0.1773 -0.2547 -0.2742
27001W        W33451   5.336   1.594   8.148  0.1204  0.1018  0.0248
27002W        W33452  21.119   0.134   1.712 -0.0361 -0.0493 -0.2680
27003W        W33453   6.226   1.922   2.136  0.0092  0.0452 -0.0557
27004W        W33454  16.325   6.071   5.478 -0.0437  0.0814  0.0604
27005W        W33455   9.657   3.941  27.864 -0.0330 -0.0759 -0.0530
27006W        W33456   8.704   4.954  35.326  0.2874 -0.1883  0.1443
27007W        W33457   9.216   5.202  35.296 -0.1060  0.1942 -0.0130
27008W        W33458  10.712   1.392   9.313  0.0221 -0.1314 -0.0577
27009W        W33459  11.702   6.322  29.535  0.0578 -0.0298 -0.0467
27010W        W33460  23.485   5.383  22.647  0.0432  0.1598  0.2958
27011W        W33461  18.041   3.320  33.915  0.0032  0.3381 -0.2799
27012W        W33462  13.208   2.787  13.514 -0.0656 -0.2483  0.0125
27013W        W33463  19.337   0.527  13.543 -0.0760  0.1374 -0.1900
27014W        W33464  23.359   6.300  10.947 -0.4322 -0.1093  0.1724
27015W        W33465   5.801   0.859   8.964  0.0492  0.1857  0.0042
27016W        W33466  15.820   1.984  23.209 -0.2749 -0.1920  0.4299
27017W        W33467   1.881   5.113  10.754  0.2483  0.0877 -0.0058
27018W        W33468  23.233   5.225  25.901  0.2109 -0.2923  0.1955
27019W        W33469  18.637   3.682  23.798  0.1711 -0.1245  0.0646
27020W        W33470  22.941   5.667  15.179  0.0324  0.1041 -0.1277
27021W        W33471  11.279   4.558   0.554 -0.0418 -0.0296  0.0352
27022W        W33472   1.040   4.682  36.123 -0.0379 -0.0376 -0.1664
27023W        W33473  12.542   1.619  12.250  0.2336  0.1308  0.0182
27024W        W33474   3.167   2.663   8.068  0.2997  0.1737  0.2590
27025W        W33475   0.289   0.476  14.626 -0.1628 -0.0911 -0.1788
27026W        W33476  12.956   6.212  14.151  0.2063  0.0990 -0.0508
27027W        W33477   7.489   1.048  35.665  0.1882 -0.0606  0.0217
27028W        W33478   3.076   0.324  11.346  0.1490  0.1232 -0.1649
27029W        W33479   2.771   2.072  33.883  0.0542  0.1236 -0.0233
27030W        W33480  20.448   3.208  35.227  0.1223  0.1944 -0.1200
27031W        W33481  18.314   5.502  32.713 -0.1593 -0.0926 -0.0786
27032W        W33482   3.401   5.121  34.186  0.1633 -0.0519 -0.1835
27033W        W33483  11.205   3.694  15.320  0.1753 -0.0529 -0.0624
27034W        W33484   2.964   1.680   4.101  0.1005  0.2282  0.2086
27035W        W33485  14.863   3.942  10.975 -0.1947  0.1733  0.1665
27036W        W33486  21.055   4.478  27.070 -0.0088 -0.0530 -0.3176
27037W        W33487  15.007   6.151   7.194  0.2982 -0.1516 -0.2135
27038W        W33488  18.031   4.318   2.742  0.8117  0.2662 -0.0636
27039W        W33489   6.909   3.284  27.236 -0.2678  0.1416  0.1365
27040W        W33490  23.105   5.795   7.034 -0.0562  0.0655 -0.0637
27041W        W33491   7.383   0.337  31.220 -0.0309  0.3339  0.1231
27042W        W33492  17.981   1.660  27.309 -0.0675  0.0293 -0.5095
27043W        W33493  13.964   0.838   5.253  0.3594 -0.0617 -0.2451
27044W        W33494  13.995   5.175  10.590  0.1839 -0.2516  0.1602
27045W        W33495   5.071   2.530   9.480 -0.3500 -0.0083 -0.1426
27046W        W33496  12.023   3.436   1.469 -0.1564  0.0816  0.1311
27047W        W33497   2.937   1.441  31.154 -0.2346 -0.1106  0.0699
27048W        W33498  22.589   6.161  30.500 -0.0763 -0.2334 -0.0126
27049W        W33499   5.249   0.818  24.520  0.1387  0.2727  0.3520
27050W        W33500  23.790   5.538   9.870 -0.1491  0.2471  0.0539
27051W        W33501  14.945   5.999  21.176  0.1266 -0.1768 -0.0827
27052W        W33502   1.927   4.659  12.406  0.2763  0.1619 -0.1262
27053W        W33503  13.817   2.701  25.435 -0.0197  0.0020  0.2374
27054W        W33504  19.960   4.871  25.930  0.0354  0.1694  0.2468
27055W        W33505   2.830   3.925  29.301 -0.1955  0.1327 -0.2478
27056W        W33506   1.652   6.357  11.857 -0.0454 -0.1947 -0.0303
27057W        W33507  11.546   4.506   4.876  0.0958  0.0939  0.3373
27058W        W33508   1.954   0.168  32.642  0.1592 -0.1553 -0.1321
27059W        W33509  23.186   3.866  24.157 -0.0387 -0.2408  0.3563
27060W        W33510   5.800   0.895  27.640 -0.0683 -0.0974  0.1597
27061W        W33511   8.590   6.203   7.048 -0.2746 -0.0118  0.2375
27062W        W33512   9.356   2.134  10.033 -0.0880 -0.1082  0.0274
27063W        W33513   8.461   5.866   9.442  0.3526  0.3492 -0.2718
27064W        W33514  26.408   4.783  33.831 -0.2526  0.3128  0.0354
27065W        W33515   4.673   6.294   4.358  0.5436  0.2366 -0.1108
27066W        W33516   8.423   4.041  25.862 -0.0381 -0.2452 -0.0847
27067W        W33517   5.796   4.868  29.852  0.0838 -0.1757 -0.2245
27068W        W33518   5.398   6.299   0.696  0.1631 -0.0857  0.0452
27069W        W33519   3.280   1.652  20.939 -0.0124  0.0288  0.1301
27070W        W33520  18.977   5.747   4.791 -0.0336 -0.1657 -0.1179
27071W        W33521  18.976   4.326   7.484  0.0618  0.0743 -0.1581
27072W        W33522   3.497   2.845  12.562 -0.0414 -0.0526  0.0167
27073W        W33523   4.011   5.617  23.535  0.2219  0.0653 -0.2922
27074W        W33524   5.493   1.450  11.950  0.0095  0.0581 -0.1431
27075W        W33525  16.745   0.817   8.280 -0.0892 -0.0167  0.1675
27076W        W33526   2.395   6.233   9.768 -0.3035  0.0634 -0.1097
27077W        W33527   3.865   5.041  22.924  0.1645 -0.1849 -0.4511
27078W        W33528  24.498   3.917  33.234 -0.0460  0.0538 -0.1393
27079W        W33529  25.607   1.564   2.661  0.1516  0.0454 -0.0401
27080W        W33530  17.983   1.545  22.722  0.3822  0.1363 -0.0153
27081W        W33531   0.619   3.381  23.321  0.1107 -0.0860  0.1415
27082W        W33532  20.110   4.295   7.603 -0.1461  0.0496 -0.3625
27083W        W33533  18.035   0.480  22.510 -0.0473  0.1170  0.2016
27084W        W33534  21.725   0.186   2.269 -0.1120  0.0872 -0.2335
27085W        W33535  13.273   5.944   7.849  0.0677  0.2787 -0.1766
27086W        W33536  17.120   1.158   8.388 -0.2389  0.1973 -0.3341
27087W        W33537  15.689   5.041   4.063  0.2088  0.2779 -0.0060
27088W        W33538   9.631   1.553  10.692 -0.0960  0.1178 -0.1400
27089W        W33539   4.211   3.531  21.456 -0.2525 -0.0077  0.0269
27090W        W33540   4.567   2.696  12.217  0.1733  0.0228  0.0161
27091W        W33541   3.288   0.713  25.788 -0.1331  0.0286 -0.2489
27092W        W33542   3.154   4.271  34.741 -0.0295 -0.3694  0.0756
27093W        W33543   9.242   2.547  12.253  0.0450 -0.1708 -0.2368
27094W        W33544   2.118   2.090   3.574  0.2413  0.0645 -0.1086
27095W        W33545   5.132   3.528  10.954 -0.2380 -0.1478 -0.2468
27096W        W33546  18.980   4.614  13.557 -0.1459 -0.0397  0.0993
27097W        W33547  22.582   3.994  33.194  0.2689  0.3668  0.0345
27098W        W33548  23.006   3.643  26.079 -0.2161 -0.0424  0.0009
27099W        W33549  16.194   1.240   7.098  0.1814 -0.0594  0.0739
27100W        W33550   9.094   3.761  25.513  0.1232 -0.3667 -0.2205
27101W        W33551  12.979   3.427  31.289 -0.3034 -0.0358  0.0746
27102W        W33552   3.454   4.348  12.905  0.0890  0.0217  0.1202
27103W        W33553   3.677   2.017  32.140 -0.0106  0.3046 -0.1068
27104W        W33554   6.351   6.000  11.721  0.1125  0.2203  0.2204
27105W        W33555   7.630   2.778   8.266  0.0547 -0.2746 -0.2174
27106W        W33556   0.691   0.029  22.443 -0.2319 -0.3228  0.2174
27107W        W33557  20.803   3.600  35.342 -0.0605 -0.1251  0.0047
27108W        W33558  19.505   1.501  13.054  0.0585  0.2744  0.1187
27109W        W33559   9.003   0.519  32.064  0.1007 -0.0946 -0.0488
27110W        W33560  26.178   0.255   0.772 -0.2189 -0.2290 -0.0172
27111W        W33561  14.202   6.368   7.570 -0.2199  0.2696  0.1201
27112W        W33562   0.208   6.440   4.956  0.1667 -0.3093  0.1694
27113W        W33563   0.555   3.139  21.393  0.1119  0.2068 -0.1362
27114W        W33564  11.502   5.323  34.963  0.3441 -0.0649  0.1229
27115W        W33565  15.553   6.150  31.574 -0.0459 -0.0832 -0.1810
27116W        W33566   1.653   5.522  34.578  0.1361 -0.0495 -0.0242
27117W        W33567   1.104   4.037  34.099  0.0249 -0.0594  0.1121
27118W        W33568   7.516   3.585   1.056  0.1585  0.1573 -0.1769
27119W        W33569  10.345   5.932  21.797 -0.0235  0.0085  0.0989
27120W        W33570   3.840   0.268  31.259  0.0577 -0.1634 -0.3952
27121W        W33571  17.950   4.029  20.696  0.1201 -0.0351  0.0055
27122W        W33572   0.252   4.243  27.090  0.1033 -0.1681  0.1254
27123W        W33573   5.208   5.780   7.737  0.2170 -0.2144  0.0911
27124W        W33574   3.641   3.139   8.671  0.0784 -0.0669  0.1321
27125W        W33575  11.029   6.226  11.227  0.1584  0.2960  0.1441
27126W        W33576   6.747   0.773  33.479 -0.0837  0.0026  0.0613
27127W        W33577   4.177   2.743  32.174 -0.0380  0.2244 -0.0782
27128W        W33578   7.675   3.270  24.491  0.0416  0.0072  0.2268
27129W        W33579  12.863   3.057   5.449 -0.1743 -0.0976  0.2007
27130W        W33580   1.388   3.704  35.793 -0.5508 -0.0976  0.1597
27131W        W33581  17.011   5.646  27.285 -0.1280  0.2470  0.1536
27132W        W33582  18.392   0.555   3.580 -0.2084 -0.1135  0.1352
27133W        W33583   5.073   4.454  23.556 -0.1122 -0.2172  0.1555
27134W        W33584  26.133   0.763   6.005 -0.1643 -0.3127  0.0798
27135W        W33585  23.721   1.311  33.452 -0.0682  0.1479 -0.0428
27136W        W33586  10.489   5.716  11.811 -0.0448 -0.1084  0.1197
27137W        W33587   6.670   1.829  29.626 -0.0783  0.1108 -0.1811
27138W        W33588   8.516   4.249  12.079 -0.0146  0.1441 -0.0023
27139W        W33589  24.701   5.408   0.732 -0.0728 -0.0901  0.1478
27140W        W33590  11.127   6.194  30.403  0.1212  0.0091  0.3275
27141W        W33591  10.471   0.681   3.864 -0.0276  0.1418 -0.1796
27142W        W33592  26.055   3.773  33.672 -0.0282  0.1299 -0.0271
27143W        W33593   2.008   1.384   3.125 -0.1795 -0.3409  0.1182
27144W        W33594   2.587   5.674  34.464  0.2180 -0.3385 -0.0877
27145W        W33595  13.315   3.578   0.727  0.1139 -0.1627 -0.2524
27146W        W33596  20.958   1.371  23.292  0.0000 -0.0238  0.0732
27147W        W33597   0.167   3.041  21.044 -0.0083 -0.0540  0.2221
27148W        W33598  13.992   5.132  23.948  0.0128 -0.1114  0.0467
27149W        W33599  26.370   4.439  36.046 -0.3278 -0.1860  0.0535
27150W        W33600   1.658   2.645  34.480 -0.0865  0.0049  0.1690
27151W        W33601  24.996   1.734  15.289  0.0066 -0.1481  0.1216
27152W        W33602   5.985   2.625   8.564  0.1950  0.1773  0.4572
27153W        W33603   8.537   4.726   9.190  0.0240  0.4097  0.1573
27154W        W33604   9.805   1.170  21.472 -0.0904  0.0328 -0.0409
27155W        W33605  18.636   2.168  33.392  0.2165  0.0895  0.1113
27156W        W33606  16.116   1.392  25.168 -0.2018  0.2723  0.2263
27157W        W33607   3.117   6.382  12.188  0.2985  0.3592 -0.1214
27158W        W33608  26.095   4.618  34.248  0.1122  0.2145 -0.0594
27159W        W33609   3.489   0.994  26.290 -0.0209 -0.0524 -0.1708
27160W        W33610  22.470   5.241   7.076 -0.0686 -0.0522 -0.3925
27161W        W33611  11.695   5.037  22.229 -0.2176 -0.3082  0.0297
27162W        W33612  18.428   2.287  27.906 -0.1471 -0.3938 -0.2346
27163W        W33613   6.118   6.489  10.954  0.1820 -0.0037 -0.2026
27164W        W33614  13.815   5.442   1.655  0.0768 -0.2440 -0.0998
27165W        W33615   8.899   0.499   6.658 -0.2090 -0.1657 -0.0933
27166W        W33616  20.441   6.478  30.076 -0.3015  0.2517  0.0043
27167W        W33617  12.926   3.490  33.557 -0.1595 -0.0782  0.1158
27168W        W33618  21.177   5.341  30.065  0.2260 -0.2876 -0.2205
27169W        W33619   5.518   5.928  24.645  0.0109 -0.0549  0.4301
27170W        W33620   3.988   6.217   9.533 -0.0346  0.1156  0.1723
27171W        W33621  17.324   2.984  13.504 -0.1136  0.2268 -0.0729
27172W        W33622  18.064   0.278  15.370 -0.1677 -0.0149 -0.3542
27173W        W33623  16.361   5.226   3.571  0.1432  0.1076  0.0658
27174W        W33624  13.174   3.874   7.161  0.2445 -0.3667 -0.0882
27175W        W33625  20.090   1.738  34.010  0.2012 -0.4160  0.1802
27176W        W33626   6.561   4.152   3.900  0.3951 -0.0087 -0.3313
27177W        W33627   2.440   0.684  27.428 -0.1783 -0.0380 -0.1977
27178W        W33628  13.060   1.071  30.060  0.2354  0.3775  0.1623
27179W        W33629  21.125   2.968  15.221 -0.0682 -0.0566  0.2356
27180W        W33630   9.461   2.890  11.878 -0.0517 -0.1641  0.0798
27181W        W33631  23.513   6.149   5.540 -0.0272  0.1390  0.0026
27182W        W33632   5.766   5.753  13.475  0.0345 -0.0237 -0.0926
27183W        W33633  12.272   1.549   5.837  0.2006  0.0669  0.3006
27184W        W33634  26.221   5.398   1.092  0.3214  0.2693 -0.0258
27185W        W33635  16.070   1.045   8.900 -0.0239 -0.1859 -0.1441
27186W        W33636  21.513   3.160  30.084 -0.0532 -0.0417  0.2749
27187W        W33637   0.566   5.240   0.769  0.2172  0.0210 -0.1878
27188W        W33638  16.200   2.756   1.607 -0.3119 -0.0278 -0.1212
27189W        W33639  17.966   2.328  31.479  0.0419 -0.0045  0.0610
27190W        W33640   6.610   3.142   2.717  0.1160  0.1712  0.1038
27191W        W33641   3.595   6.192  23.586 -0.0618 -0.2476  0.3495
27192W        W33642  14.686   3.734  29.446 -0.1805 -0.0728 -0.1006
27193W        W33643  10.854   0.178  29.713  0.0290 -0.0879  0.2047
27194W        W33644  11.913   2.251  34.521  0.1321  0.0104 -0.0722
27195W        W33645  24.248   6.198  26.189 -0.0064 -0.0074  0.1793
27196W        W33646   8.639   4.742  12.116 -0.0983  0.0577 -0.1554
27197W        W33647  19.465   1.472  23.836  0.1069  0.2002 -0.4322
27198W        W33648  21.744   2.787  26.566  0.0778 -0.0166  0.0727
27199W        W33649   7.187   2.427  26.674 -0.2111  0.0517  0.2386
27200W        W33650  24.443   2.037  15.112  0.2818  0.1357  0.0831
27201W        W33651  18.255   6.598   3.013  0.2593 -0.0124 -0.1817
27202W        W33652  22.683   0.620  31.071 -0.1235  0.1716 -0.1804
27203W        W33653  26.294   3.124   4.047  0.2021  0.1686 -0.3732
27204W        W33654  26.185   0.038  34.543  0.3369 -0.3355 -0.0099
27205W        W33655   2.100   1.690  13.932  0.1601 -0.1321 -0.1673
27206W        W33656   1.883   1.242  21.006 -0.3216  0.0298  0.0394
27207W        W33657   7.509   0.035  35.548 -0.1564  0.1112 -0.0766
27208W        W33658  23.268   6.534   5.319  0.4996  0.2954  0.1233
27209W        W33659  25.517   5.952   3.476  0.0154 -0.2181 -0.2294
27210W        W33660   0.102   2.241   4.435 -0.3650  0.1102 -0.0424
27211W        W33661  11.512   1.523  35.126  0.1673 -0.2301  0.2097
27212W        W33662   2.606   2.579   3.050  0.2011  0.1106 -0.1161
27213W        W33663  15.265   3.862   3.031  0.0315 -0.0514 -0.0696
27214W        W33664  24.422   1.176  23.104 -0.0353 -0.3519  0.2903
27215W        W33665  11.977   0.162  34.011 -0.1691 -0.2293  0.0570
27216W        W33666  13.995   3.152   6.250 -0.2965 -0.0529  0.3791
27217W        W33667   5.937   1.019  29.750  0.0844  0.0074  0.1292
27218W        W33668   5.317   1.145  34.982  0.0851  0.1816 -0.1638
27219W        W33669  14.131   3.741  14.762 -0.2525 -0.0912  0.1552
27220W        W33670  10.649   3.984  26.829 -0.0018 -0.2052 -0.0191
27221W        W33671  14.155   2.081  25.959 -0.1829  0.1767  0.1886
27222W        W33672   5.371   3.289  28.004 -0.1349  0.2101 -0.0237
27223W        W33673  22.688   2.063   2.315 -0.0374 -0.3331  0.2748
27224W        W33674  20.365   5.517  23.429  0.1776  0.0559 -0.0859
27225W        W33675  23.133   2.022  28.838  0.4946 -0.2638  0.0019
27226W        W33676  25.367   5.364  23.779 -0.2238  0.1461  0.0594
27227W        W33677   9.916   4.789  10.621 -0.0711 -0.1208  0.1316
27228W        W33678  12.499   4.810   7.883  0.1637  0.0310 -0.0304
27229W        W33679   0.351   6.083   4.232 -0.1867 -0.1829  0.2141
27230W        W33680  22.963   4.768   9.402  0.0614 -0.2372 -0.0494
27231W        W33681   2.741   5.500  33.858  0.3271 -0.0820  0.3663
27232W        W33682  25.184   4.450  35.654  0.1160 -0.0700 -0.0309
27233W        W33683  10.002   1.140  23.011  0.0766 -0.0352 -0.0006
27234W        W33684  18.721   0.651  34.554  0.2002  0.0581 -0.1240
27235W        W33685  20.525   4.662   6.833  0.1515  0.0239  0.1559
27236W        W33686  13.452   0.409  27.625 -0.0135 -0.0959 -0.1252
27237W        W33687  24.643   2.256  25.379 -0.2225  0.0143  0.0161
27238W        W33688  25.970   5.196   3.472  0.0215  0.1457  0.1313
27239W        W33689   4.703   6.456  14.045  0.1217 -0.1507  0.3118
27240W        W33690  20.192   3.804   7.545  0.0324  0.2875 -0.1401
27241W        W33691   9.726   3.817   6.921  0.1207  0.0867  0.0429
27242W        W33692  10.588   0.123  28.799  0.2376 -0.2031 -0.1198
27243W        W33693   4.152   5.712  27.973  0.0167 -0.0205 -0.0848
27244W        W33694  18.350   1.844   5.504  0.1674 -0.1133 -0.1913
27245W        W33695  17.487   5.282   5.287  0.0875 -0.0120 -0.2293
27246W        W33696   6.132   0.156   2.372 -0.1579  0.0475 -0.1896
27247W        W33697   6.312   1.687   3.443 -0.1741 -0.0081  0.2274
27248W        W33698   1.515   0.406   4.154  0.0878 -0.1124  0.0430
27249W        W33699  13.184   0.892   9.180 -0.0570  0.1765  0.1316
27250W        W33700  18.830   5.386  11.829 -0.1356  0.2647 -0.0620
27251W        W33701   8.595   5.697  21.601  0.2285 -0.0780 -0.1891
27252W        W33702   7.073   5.249   8.428 -0.2007 -0.1856  0.0453
27253W        W33703  24.196   6.510  30.732  0.0873 -0.2875  0.1070
27254W        W33704   2.182   4.206   7.875  0.1746 -0.0407  0.1459
27255W        W33705  14.249   6.101  15.529  0.2903  0.0890  0.0761
27256W        W33706   7.271   1.096   1.339  0.3150  0.3624 -0.0177
27257W        W33707  23.213   5.174  31.570  0.1040 -0.2916  0.2146
27258W        W33708   2.447   2.168  22.664 -0.1153 -0.0183  0.1938
27259W        W33709   2.592   2.400  23.631 -0.0447 -0.0654  0.2129
27260W        W33710   7.939   3.177  32.420 -0.0510  0.2033  0.1497
27261W        W33711   7.756   0.026   9.713 -0.2231 -0.0662 -0.2725
27262W        W33712  10.172   3.539  32.975 -0.0259 -0.0325  0.0610
27263W        W33713  21.191   2.023   5.451 -0.0375  0.0146 -0.0509
27264W        W33714   3.390   6.441  21.518 -0.3817 -0.1602  0.2225
27265W        W33715   5.581   3.536  13.373 -0.1841  0.0194 -0.0797
27266W        W33716  24.882   2.628   8.799 -0.2144 -0.0298 -0.0185
27267W        W33717   5.433   0.346  10.131 -0.2870  0.1604  0.1733
27268W        W33718   9.954   5.486  26.798  0.0366  0.1751  0.2431
27269W        W33719   0.838   4.026   5.692  0.1072 -0.0204 -0.0785
27270W        W33720  23.587   1.336  21.211 -0.3078 -0.1892  0.0111
27271W        W33721  11.250   1.955  14.226 -0.2562 -0.0481  0.0140
27272W        W33722  12.205   0.990  35.555 -0.1548  0.1417 -0.1126
27273W        W33723  26.368   6.458  31.429  0.0192 -0.0824  0.3879
27274W        W33724   4.261   4.972   1.990  0.0925  0.1530 -0.0309
27275W        W33725  17.762   1.439  29.836 -0.0908 -0.2002 -0.0432
27276W        W33726  26.163   3.413  31.936  0.0917 -0.0600 -0.0188
27277W        W33727  22.032   0.088  15.139  0.1906  0.1734  0.0054
27278W        W33728   6.672   3.068  33.529  0.2131  0.0821  0.0191
27279W        W33729  21.547   4.979  14.447 -0.1342 -0.1827  0.1250
27280W        W33730   6.358   5.734  24.966  0.0383 -0.1184  0.0971
27281W        W33731  23.404   5.539   9.312 -0.1273  0.0361 -0.0219
27282W        W33732  25.307   1.970  24.169 -0.0926 -0.0382 -0.2288
27283W        W33733  22.007   2.171   3.467 -0.1540 -0.1212  0.0136
27284W        W33734  20.937   0.720  32.018 -0.0419 -0.0544 -0.3284
27285W        W33735  16.153   5.354  10.309  0.1209  0.0020 -0.0366
27286W        W33736   5.931   4.860  23.324 -0.0584  0.0091  0.3333
27287W        W33737   5.025   2.699  21.771  0.0755  0.3099 -0.0652
27288W        W33738  11.899   3.288  15.042 -0.0065 -0.0294  0.2554
27289W        W33739  19.675   1.262   9.344 -0.0035  0.1943  0.2750
27290W        W33740  25.778   6.270   3.861  0.1940  0.0096  0.0864
27291W        W33741  22.823   4.309  32.063 -0.1398 -0.0427 -0.0666
27292W        W33742  24.301   2.386   6.711 -0.4557 -0.0763  0.0278
27293W        W33743   2.761   3.802  25.241 -0.0298 -0.0790  0.2431
27294W        W33744  22.107   5.672  28.567  0.2347  0.1080 -0.0856
27295W        W33745   1.503   6.433   1.058  0.2376 -0.0154  0.0476
27296W        W33746  19.076   0.571  22.454  0.0107  0.0927 -0.1448
27297W        W33747  13.740   5.205  28.719  0.2164  0.1577  0.3299
27298W        W33748  13.189   3.223  12.978  0.2128  0.3177 -0.0230
27299W        W33749   5.943   1.741  21.358 -0.0120  0.1515  0.0357
27300W        W33750   9.402   3.420  34.233  0.2427 -0.5539  0.0110
27301W        W33751   7.484   0.183   1.884  0.0375  0.1523 -0.2122
27302W        W33752  26.261   1.462   7.800 -0.4480  0.0726  0.0329
27303W        W33753  11.238   4.012  32.104  0.1450 -0.0689 -0.0821
27304W        W33754   4.286   3.524   6.093  0.0356 -0.1851 -0.0351
27305W        W33755  16.629   6.170  27.902 -0.0037  0.2232  0.3438
27306W        W33756  22.153   4.543  27.037 -0.3024  0.0258 -0.0041
27307W        W33757  24.323   4.337  27.939  0.0446 -0.0926  0.0476
27308W        W33758   8.344   5.402  35.639 -0.1468  0.3280 -0.0995
27309W        W33759   2.013   1.991  13.024 -0.1714 -0.0624  0.0042
27310W        W33760  13.425   3.370  26.007 -0.1081  0.2046  0.0188
27311W        W33761   7.666   2.880  27.283 -0.0374 -0.1658 -0.0547
27312W        W33762  22.363   4.829  15.235 -0.1912 -0.1651  0.0870
27313W        W33763  13.313   1.452  24.791 -0.3251 -0.0767  0.0144
27314W        W33764  25.320   5.453  30.901 -0.1964  0.1365 -0.0469
27315W        W33765  14.000   0.037  10.025  0.5187  0.1632 -0.0527
27316W        W33766   4.982   3.319  29.681 -0.0533 -0.1539 -0.0371
27317W        W33767   6.968   4.309  33.657 -0.0064 -0.0114 -0.1513
27318W        W33768  17.859   0.862  14.090  0.1004 -0.2041  0.0704
27319W        W33769   4.252   2.602   6.995  0.0638  0.1966  0.0469
27320W        W33770   4.809   0.423  11.873 -0.1297 -0.0592  0.1056
27321W        W33771   0.296   1.267  35.263  0.0548  0.1646  0.1008
27322W        W33772  12.708   4.247   9.153  0.1301  0.2678 -0.0806
27323W        W33773  22.063   6.451  27.468  0.1506 -0.2114  0.1824
27324W        W33774   5.593   3.028   0.565 -0.1342 -0.0430 -0.0909
27325W        W33775   8.926   5.613   1.497 -0.1052  0.0418 -0.0692
27326W        W33776  12.300   0.677  11.382 -0.2516 -0.2447  0.0982
27327W        W33777   7.623   5.323  13.135  0.0838 -0.2230  0.0235
27328W        W33778  18.684   4.362   4.673 -0.0819  0.4013 -0.0536
27329W        W33779  11.140   6.573   8.445 -0.2884  0.0271  0.1302
27330W        W33780   4.847   1.585   9.336  0.0558 -0.1086  0.1012
27331W        W33781  24.303   4.304  35.850  0.1234  0.0666  0.1384
27332W        W33782  19.897   0.270  32.991 -0.1011 -0.2968 -0.0228
27333W        W33783  25.936   2.656  28.506 -0.0406  0.0586  0.0701
27334W        W33784  23.728   3.881  32.483  0.2232 -0.0994  0.0556
27335W        W33785  13.878   5.532  31.924  0.2385 -0.1801  0.1496
27336W        W33786  15.908   2.855  32.814  0.0679 -0.2939 -0.1615
27337W        W33787   2.283   1.999  26.199  0.0252  0.0973 -0.0387
27338W        W33788  24.561   5.541  10.539 -0.1623  0.0715  0.2849
27339W        W33789   3.476   6.452  30.446  0.0846  0.4725  0.0080
27340W        W33790   4.934   1.580   0.141 -0.0491  0.1020  0.0959
27341W        W33791   0.494   4.782  33.812  0.1592 -0.4274 -0.1941
27342W        W33792   9.907   4.638   9.167  0.1718  0.0229  0.0299
27343W        W33793   3.877   3.175  23.287  0.0315 -0.2421  0.2199
27344W        W33794   2.127   0.027  26.315 -0.3422  0.1998  0.0830
27345W        W33795   8.900   6.009  32.723  0.1932  0.2332  0.5083
27346W        W33796  23.404   5.098   5.307 -0.1527  0.2769 -0.1017
27347W        W33797  20.739   4.774  34.693 -0.0501  0.0059  0.2436
27348W        W33798  13.304   5.765  29.590  0.0086  0.1710  0.1454
27349W        W33799  20.409   1.906   7.122 -0.3038  0.2790 -0.0836
27350W        W33800   6.667   1.064  34.427  0.1123 -0.1628 -0.0997
27351W        W33801  13.666   0.931  10.166  0.1194 -0.1035  0.1112
27352W        W33802  16.377   4.650  24.255 -0.1358  0.1013 -0.2628
27353W        W33803   7.627   5.780  22.153 -0.3033  0.0953  0.2211
27354W        W33804   4.437   5.847  30.403 -0.2881  0.1164  0.0022
27355W        W33805  14.790   0.322  14.821 -0.0729  0.0854 -0.1542
27356W        W33806   9.469   2.140  20.739 -0.1047 -0.0148  0.0412
27357W        W33807   6.214   3.699   6.104 -0.2250 -0.0565 -0.0071
27358W        W33808  17.079   1.312  28.836  0.2547  0.0094  0.7063
27359W        W33809  21.133   5.775   4.959 -0.2708  0.2061  0.0471
27360W        W33810   9.572   0.486  35.984  0.0466  0.2364  0.1593
27361W        W33811  22.244   0.790   8.902  0.0689 -0.2035 -0.2803
27362W        W33812  17.059   1.138  32.065 -0.1280 -0.0041 -0.1364
27363W        W33813  18.793   1.269  35.527  0.0531 -0.1292 -0.0169
27364W        W33814   7.513   1.323  14.608 -0.2015  0.1970 -0.3404
27365W        W33815  12.372   6.083  21.203  0.0502 -0.1437 -0.1901
27366W        W33816  10.646   1.350  32.147 -0.4446 -0.1634 -0.0855
27367W        W33817  24.456   1.602  33.120  0.1688  0.0098  0.1771
27368W        W33818  22.245   3.648  22.817  0.2252  0.0683  0.0185
27369W        W33819  26.157   0.076  29.237 -0.2051 -0.0148 -0.1388
27370W        W33820  16.063   1.555  33.213  0.1775  0.0009  0.0716
27371W        W33821  22.228   2.765  12.074  0.2137  0.0543 -0.0856
27372W        W33822  20.508   3.803   2.923 -0.0886 -0.1704  0.1761
27373W        W33823   2.742   4.829  32.195  0.3148  0.0861  0.1195
27374W        W33824  20.638   3.870  28.158 -0.0847  0.0608  0.0998
27375W        W33825   4.255   3.434  27.665  0.1289 -0.2595 -0.3741
27376W        W33826  10.181   1.277   9.089 -0.1726  0.1176  0.3503
27377W        W33827  11.127   1.095  15.149 -0.0759  0.0252  0.1630
27378W        W33828  20.231   6.270  31.887  0.0962 -0.3671 -0.2022
27379W        W33829  14.908   2.095  34.718  0.0110 -0.0240 -0.0303
27380W        W33830   2.382   5.139  33.784 -0.0195  0.0755  0.3800
27381W        W33831  17.510   1.421  22.495 -0.0621  0.1056  0.2212
27382W        W33832   0.326   2.455  23.925 -0.1951 -0.0541 -0.1486
27383W        W33833   5.602   2.680  24.642 -0.1294  0.1450 -0.1870
27384W        W33834  14.278   3.469  34.294  0.1114 -0.1049  0.2616
27385W        W33835   4.141   5.601  22.251 -0.1117 -0.3957 -0.1434
27386W        W33836  11.222   4.671  24.671 -0.0034  0.1616  0.2768
27387W        W33837   6.922   4.590   1.146  0.2838 -0.1548 -0.0536
27388W        W33838  16.619   3.952  29.302  0.0070  0.3096  0.0029
27389W        W33839  25.881   2.254  14.890  0.4255 -0.0011  0.0604
27390W        W33840  19.696   3.850   8.847  0.2774  0.0884  0.4052
27391W        W33841  18.882   0.796  11.894  0.0756 -0.1584 -0.0168
27392W        W33842  21.577   3.350   6.440  0.0972 -0.0116  0.0333
27393W        W33843  10.790   0.518   5.564  0.2398  0.1928  0.1682
27394W        W33844  10.656   2.957  11.451  0.2324  0.0199  0.0166
27395W        W33845  11.549   3.228  12.111  0.2394  0.1086  0.0245
27396W        W33846   2.746   4.186  30.371  0.3711  0.2823  0.0868
27397W        W33847  17.384   3.438  28.324 -0.1053  0.2056 -0.1274
27398W        W33848  12.748   5.503  29.519 -0.1621 -0.1118  0.1508
27399W        W33849  25.653   3.963  20.132  0.0418  0.0966  0.0001
27400W        W33850  16.761   3.623  20.356  0.1397 -0.1614 -0.2592
27401W        W33851  10.604   6.233  33.705  0.1366  0.1918  0.2657
27402W        W33852  19.984   0.672  13.443 -0.2902 -0.0306 -0.1148
27403W        W33853   1.946   1.527  35.940 -0.0401  0.0859 -0.0585
27404W        W33854   0.552   3.924  28.534 -0.0540  0.1310  0.2355
27405W        W33855  13.136   2.204  33.431  0.2710 -0.1585  0.3296
27406W        W33856  25.851   5.442  23.605  0.1743  0.1640  0.2479
27407W        W33857   0.490   4.080  21.675  0.1505  0.1280 -0.0658
27408W        W33858  21.874   3.551  24.496  0.0692 -0.1708  0.0193
27409W        W33859  11.073   4.822  14.823 -0.2362 -0.0845 -0.2270
27410W        W33860  17.294   3.010  27.453  0.1654 -0.1516 -0.0957
27411W        W33861  10.946   3.281  11.776  0.1747  0.2237  0.0306
27412W        W33862  13.907   5.911  27.121  0.0171 -0.2796 -0.3535
27413W        W33863   8.004   4.246  29.282 -0.1201  0.0037  0.2139
27414W        W33864  22.594   6.597  13.332  0.1300  0.0037  0.2088
27415W        W33865   3.148   5.198  14.444 -0.0060 -0.0346  0.0565
27416W        W33866  10.403   4.773   9.501  0.2460  0.1134 -0.1852
27417W        W33867  21.250   3.851  35.683  0.0991 -0.0927  0.0687
27418W        W33868  13.653   4.106  12.407 -0.0097  0.1196  0.1315
27419W        W33869  20.582   2.875   6.522 -0.0382  0.1487  0.0597
27420W        W33870   7.687   0.688  29.197  0.1244  0.2493  0.1009
27421W        W33871  11.426   1.923   6.988 -0.0921  0.1277  0.2558
27422W        W33872  18.635   4.806  24.336 -0.1632  0.3077  0.0333
27423W        W33873  12.612   6.244  10.596 -0.2539  0.1374  0.0457
27424W        W33874   9.751   6.019  12.646 -0.2547  0.0462 -0.2896
27425W        W33875   5.775   1.415  10.454 -0.0925  0.0121  0.0107
27426W        W33876  14.029   4.979  35.680  0.2801 -0.2131 -0.3054
27427W        W33877   7.861   2.091  34.195  0.0249  0.0992  0.2951
27428W        W33878   4.432   3.865   0.909  0.1903  0.0160  0.0177
27429W        W33879  16.827   3.986   7.227 -0.0732  0.2497 -0.2382
27430W        W33880  19.711   2.809   2.127  0.1824  0.1357  0.0663
27431W        W33881   3.696   2.813  35.398 -0.1447 -0.4540  0.0829
27432W        W33882  26.270   6.230   7.227 -0.2046 -0.1689 -0.0938
27433W        W33883  11.484   3.624  26.867  0.2250  0.1652 -0.1057
27434W        W33884   7.478   2.256   4.184 -0.2960 -0.0336  0.0819
27435W        W33885  24.040   4.800   0.462 -0.2470 -0.0427 -0.0192
27436W        W33886  23.023   2.109  10.095 -0.1532 -0.0632 -0.0219
27437W        W33887   0.611   2.055  34.883  0.1437  0.0798  0.2535
27438W        W33888  20.775   4.020   0.142  0.1170 -0.0639 -0.0879
27439W        W33889  14.437   5.342  23.324  0.0772  0.3704  0.0063
27440W        W33890  18.906   2.196  11.410  0.2872  0.3597  0.2555
27441W        W33891   2.077   6.402  30.854 -0.1817  0.2112  0.1574
27442W        W33892  22.530   4.928  11.230  0.3981 -0.2467  0.1111
27443W        W33893  11.855   2.183   5.005  0.0481  0.4300 -0.0085
27444W        W33894   6.349   6.419  35.424  0.1059  0.1392 -0.0067
27445W        W33895  10.595   2.240  27.375 -0.0076 -0.0993 -0.2458
27446W        W33896   3.372   2.905  34.984  0.0500 -0.1910 -0.1425
27447W        W33897  22.244   2.719   9.533 -0.0403  0.0660 -0.2707
27448W        W33898  18.681   3.163   4.687  0.0718  0.0975 -0.1029
27449W        W33899   2.575   4.738   1.704  0.2033  0.3937  0.1517
27450W        W33900   5.709   6.281  23.828  0.0108 -0.0574  0.0821
27451W        W33901  15.340   0.332  25.037  0.0789 -0.2648  0.2552
27452W        W33902  14.549   6.185  27.804 -0.0368 -0.1668  0.0777
27453W        W33903   5.758   4.800  21.523 -0.0418  0.0147  0.1576
27454W        W33904   6.606   0.482  30.455 -0.2544 -0.1221 -0.0582
27455W        W33905  15.624   5.241  33.418 -0.0008 -0.0589  0.3928
27456W        W33906   8.762   1.105  31.952  0.2499  0.1250  0.1635
27457W        W33907  24.707   5.275   9.604 -0.2250  0.2869  0.1084
27458W        W33908   1.897   5.245   2.104  0.2520 -0.0416 -0.0666
27459W        W33909   2.164   4.973   3.389  0.2218  0.0941  0.2300
27460W        W33910  19.920   3.416  31.103  0.0536 -0.0300 -0.0333
27461W        W33911  15.069   0.197  14.401  0.2368  0.1108 -0.1700
27462W        W33912   6.385   0.941   8.993 -0.0675 -0.1579  0.3035
27463W        W33913  16.805   6.186   1.278 -0.0834  0.1075  0.1924
27464W        W33914   3.438   5.330  31.825 -0.1606 -0.0571 -0.1318
27465W        W33915  16.031   0.025  33.417  0.0842  0.2632 -0.0542
27466W        W33916   9.579   5.054  29.908 -0.0319 -0.2365 -0.0580
27467W        W33917   6.796   1.138   0.416 -0.1522 -0.1960 -0.2383
27468W        W33918  23.621   2.356  15.272 -0.1251 -0.3850 -0.1304
27469W        W33919   0.346   0.388  20.990  0.1174 -0.0830 -0.0481
27470W        W33920   9.404   0.882  35.573 -0.0638 -0.1065 -0.2253
27471W        W33921   6.677   0.006   9.819 -0.1262 -0.1702  0.2644
27472W        W33922  22.396   1.706   4.038  0.0876 -0.2233  0.1391
27473W        W33923  17.932   5.526   1.423 -0.2729 -0.3362 -0.0472
27474W        W33924  13.191   3.294  26.727  0.0458  0.2327 -0.0300
27475W        W33925   4.361   5.259  31.835  0.0904  0.0299  0.0745
27476W        W33926   1.235   1.956  15.068 -0.0869 -0.1752 -0.2184
27477W        W33927   4.678   4.614   7.863  0.1240  0.0666  0.0173
27478W        W33928  14.420   2.629   6.921  0.1083  0.0174 -0.2965
27479W        W33929   5.699   3.490   1.883  0.3234  0.0096  0.0064
27480W        W33930  25.443   4.602  32.590  0.0548 -0.1276 -0.1587
27481W        W33931  22.243   4.110  13.891  0.1322 -0.1916 -0.0169
27482W        W33932   7.457   0.573   5.408  0.2162 -0.1824  0.3246
27483W        W33933   0.105   0.452   1.412  0.0160  0.0289  0.1166
27484W        W33934  20.941   4.341  28.147  0.0937  0.0454 -0.0160
27485W        W33935  24.628   4.494  10.578  0.1835 -0.0040 -0.2539
27486W        W33936  25.382   5.446  11.438 -0.0911 -0.1032  0.0132
27487W        W33937  12.168   3.456  22.045 -0.0178 -0.0790 -0.3849
27488W        W33938   9.761   1.192   4.171  0.0743 -0.0446  0.1877
27489W        W33939   9.088   3.364  11.355 -0.0421  0.3331 -0.1795
27490W        W33940   0.492   4.686  27.587  0.3644 -0.0999 -0.0175
27491W        W33941  24.355   4.779   3.151  0.3790  0.0475  0.2574
27492W        W33942  25.003   0.904  21.518  0.1821  0.2129  0.0454
27493W        W33943   4.950   0.124   9.349 -0.0541  0.1461  0.3827
27494W        W33944   2.302   2.700   8.648 -0.2383  0.0152 -0.1432
27495W        W33945  24.943   1.347  28.643  0.0646 -0.0107  0.0318
27496W        W33946  24.269   2.228  12.477  0.1924  0.4143 -0.1463
27497W        W33947   8.872   4.672   0.255  0.3062  0.2019 -0.0385
27498W        W33948  14.986   6.533  26.924 -0.0747  0.2393  0.0727
27499W        W33949   5.845   1.215  32.450 -0.1677 -0.1781 -0.2234
27500W        W33950  19.406   1.583   7.606 -0.3741  0.2408 -0.0340
27501W        W33951   7.050   3.520  34.390 -0.1287 -0.1298  0.1222
27502W        W33952  18.173   3.912  23.641 -0.0513  0.1031  0.0304
27503W        W33953  21.943   3.479  25.654 -0.1904  0.1276 -0.2498
27504W        W33954  13.074   3.092   0.920 -0.0251  0.1049  0.0339
27505W        W33955  25.444   4.637  24.603 -0.2851 -0.2015  0.0565
27506W        W33956  25.587   3.189  35.440  0.0022 -0.3123 -0.3586
27507W        W33957  10.669   1.657  10.793  0.3332 -0.1901 -0.1776
27508W        W33958  19.347   1.503  30.054 -0.0618  0.5014 -0.0002
27509W        W33959  16.552   3.503   8.236 -0.1258 -0.2666 -0.0334
27510W        W33960   9.939   1.937  32.913  0.1957  0.1875  0.2127
27511W        W33961   7.639   2.422   3.144  0.0137  0.1802 -0.1390
27512W        W33962  14.331   2.579   4.526  0.0504  0.0535 -0.3227
27513W        W33963  20.444   5.379   8.930  0.1331 -0.1381 -0.0525
27514W        W33964  16.296   4.890   3.025  0.3128 -0.1841  0.1196
27515W        W33965   4.041   4.259  22.513  0.0769 -0.0841  0.2434
27516W        W33966   6.568   4.222  15.081  0.1458 -0.0341  0.1548
27517W        W33967   3.927   0.848  34.416 -0.0096 -0.4837  0.1046
27518W        W33968  24.137   4.104  28.845  0.0218  0.2805 -0.0451
27519W        W33969   9.727   2.058  24.250  0.2135 -0.0832 -0.4263
27520W        W33970  20.395   4.633  28.230 -0.1512  0.2088  0.0761
27521W        W33971  18.961   4.932   4.802 -0.1209  0.0945  0.2515
27522W        W33972  12.113   5.575   2.752 -0.0606  0.1652  0.4933
27523W        W33973  24.774   5.542   9.040 -0.2341 -0.0888 -0.1337
27524W        W33974  25.706   4.488  14.916 -0.0135 -0.3953  0.0239
27525W        W33975   0.874   5.847  14.010 -0.2697  0.0446  0.0933
27526W        W33976  17.319   5.787   7.569  0.2440 -0.0619  0.0619
27527W        W33977   6.504   4.806   4.636 -0.2947  0.0808 -0.1796
27528W        W33978  10.207   3.022   5.386 -0.0269 -0.2482  0.2914
27529W        W33979  14.206   2.831  22.301  0.1335 -0.0551  0.0712
27530W        W33980   2.766   1.604  28.441  0.2070  0.0631  0.2581
27531W        W33981   3.555   5.240  25.793 -0.1936 -0.0309  0.1405
27532W        W33982   7.118   3.007  13.841  0.0348 -0.1073 -0.1644
27533W        W33983   0.851   0.073  32.275  0.0281 -0.1960 -0.1921
27534W        W33984  25.251   0.230  26.137 -0.0746  0.1942 -0.0884
27535W        W33985   2.493   6.232  33.072  0.0323 -0.2057 -0.2118
27536W        W33986   3.761   5.215  11.756 -0.0515  0.4367 -0.2268
27537W        W33987   8.249   6.512  10.919 -0.3918 -0.2065 -0.2359
27538W        W33988   0.149   4.849  34.284 -0.2368  0.0132  0.1008
27539W        W33989   2.050   4.803   2.010  0.1663 -0.1587 -0.2163
27540W        W33990   2.713   6.036   5.449  0.0923  0.1570  0.2563
27541W        W33991  21.341   0.602  31.092  0.2217 -0.3180  0.1527
27542W        W33992  15.117   3.283  32.993  0.1972 -0.0425  0.5339
27543W        W33993   9.683   2.229   0.457 -0.2164 -0.0729  0.1715
27544W        W33994   7.822   1.815  29.903  0.0044  0.1978 -0.0963
27545W        W33995   6.565   4.223  31.205 -0.1138  0.2355 -0.2350
27546W        W33996  17.793   5.582  24.514 -0.0117 -0.0021 -0.0965
27547W        W33997  22.359   1.459  21.114  0.2401 -0.3352 -0.4832
27548W        W33998  22.198   6.222  21.745 -0.0741  0.0433  0.0612
27549W        W33999   6.265   5.533   8.093 -0.2191  0.1281  0.0813
27550W        W34000  20.182   2.750  10.418  0.1625  0.0135  0.1997
27551W        W34001  11.103   5.593   7.921  0.0177 -0.0279  0.0237
27552W        W34002  25.275   5.377   6.650 -0.0807  0.0224  0.1860
27553W        W34003   7.231   4.264  13.751 -0.0513  0.0959 -0.1492
27554W        W34004  19.865   5.246  34.736 -0.1520  0.0892 -0.1043
27555W        W34005  19.521   4.059  11.097  0.2712 -0.4260 -0.1939
27556W        W34006  19.099   0.695  33.109 -0.1749  0.0820  0.1345
27557W        W34007  24.787   1.781   0.082  0.1676  0.4844  0.0017
27558W        W34008  12.560   1.217  31.271 -0.1061  0.1123 -0.0708
27559W        W34009   8.734   1.426   2.142  0.1107 -0.0520 -0.3574
27560W        W34010   2.986   4.290  12.066  0.0444  0.3879  0.3594
27561W        W34011  13.960   5.138  23.449 -0.0793 -0.1804 -0.2530
27562W        W34012   8.258   0.659  10.694  0.2536 -0.0704  0.1158
27563W        W34013  24.196   3.317  11.504 -0.3043  0.0474  0.2106
27564W        W34014   2.997   0.310  24.016  0.0208 -0.0403  0.0211
27565W        W34015   9.387   2.166   1.961 -0.1038  0.1994  0.0339
27566W        W34016   5.064   3.640  29.337  0.0273  0.2403 -0.0987
27567W        W34017   4.939   3.485  23.187  0.0872 -0.0464  0.1264
27568W        W34018   2.119   6.518  35.806  0.0393 -0.3856 -0.3690
27569W        W34019   9.312   3.571  24.441 -0.0091 -0.1561 -0.0464
27570W        W34020  24.209   4.401  33.372  0.0113  0.0499  0.0059
27571W        W34021   8.248   5.174  33.866 -0.0656  0.0495 -0.1276
27572W        W34022  12.882   4.324   9.964  0.1703 -0.0333  0.2977
27573W        W34023  17.554   4.086   1.432 -0.0997 -0.2344 -0.0136
27574W        W34024   5.970   3.777  27.717 -0.0099 -0.2640 -0.1929
27575W        W34025  13.321   4.098   0.893  0.2090  0.0490 -0.0503
27576W        W34026   2.333   4.695  25.018 -0.0599  0.1429  0.1058
27577W        W34027  20.441   6.133  30.611  0.2357  0.1262 -0.1666
27578W        W34028  25.705   5.118  25.800  0.0379 -0.3055  0.0226
27579W        W34029  26.020   3.912   3.316  0.0397 -0.2661  0.1902
27580W        W34030  23.288   4.850  25.505 -0.0817 -0.1521  0.0836
27581W        W34031  18.713   1.292  34.926 -0.0928  0.0176  0.2001
27582W        W34032  15.779   6.483  22.122 -0.0125 -0.0390  0.0383
27583W        W34033  24.758   3.247   6.557 -0.3954  0.2701  0.1538
27584W        W34034  16.739   6.393  11.432  0.1374 -0.1210 -0.1741
27585W        W34035  16.413   3.465  32.116  0.3194 -0.0708  0.1848
27586W        W34036   9.746   2.663  33.917  0.1157 -0.0570 -0.1776
27587W        W34037  22.594   1.754  32.051 -0.0911  0.0417  0.2247
27588W        W34038   7.080   0.946  15.420 -0.3237 -0.3245  0.0714
27589W        W34039  22.004   2.453  25.822 -0.1002 -0.0924 -0.1813
27590W        W34040  18.145   5.950  28.259 -0.1848  0.2885  0.1618
27591W        W34041  12.663   5.918  29.713  0.0932 -0.0264  0.1859
27592W        W34042  16.235   6.375  16.460 -0.0703  0.2034  0.0680
27593W        W34043   1.445   5.142   9.953  0.1552 -0.2373  0.1706
27594W        W34044   9.270   5.967  13.474 -0.0029  0.0154  0.0494
27595W        W34045  10.821   4.453  33.615  0.1594  0.1968 -0.0254
27596W        W34046  17.479   3.229  25.812 -0.1676 -0.0742  0.1862
27597W        W34047  19.995   1.760   6.107  0.0822  0.0674  0.1259
27598W        W34048   7.505   2.793  14.123  0.1150 -0.1603  0.1580
27599W        W34049  10.481   0.955   9.372 -0.0107 -0.2704  0.0712
27600W        W34050   8.080   1.403  10.088 -0.0371  0.1322  0.0314
27601W        W34051  19.257   3.077   2.373 -0.1187 -0.1090  0.3767
27602W        W34052  19.191   5.356  25.936  0.1448 -0.4797 -0.0978
27603W        W34053  13.747   5.680  28.149  0.1529  0.0147  0.4475
27604W        W34054  23.024   4.424  25.716 -0.4744 -0.1227 -0.4542
27605W        W34055  15.361   3.536  27.350  0.4093 -0.2564  0.0583
27606W        W34056  23.676   3.845  27.393  0.0042 -0.1504 -0.0001
27607W        W34057  23.234   6.501  31.921 -0.1698 -0.2140 -0.1137
27608W        W34058   5.129   4.407  26.454  0.0364  0.1296  0.1114
27609W        W34059  23.090   0.062  11.249  0.1614 -0.1225 -0.2028
27610W        W34060  16.492   3.803   1.081 -0.0274 -0.0146  0.0745
27611W        W34061  20.187   5.378  31.398  0.2007  0.1281  0.3141
27612W        W34062  12.611   4.790  10.041  0.0423 -0.1579  0.0813
27613W        W34063   1.419   4.379   2.365  0.1278  0.3655 -0.1235
27614W        W34064   2.951   1.414   5.068  0.1154 -0.1344  0.1496
27615W        W34065   2.310   1.630  28.246 -0.1627 -0.0528  0.2720
27616W        W34066  21.126   0.702  11.033 -0.0528 -0.0206 -0.0022
27617W        W34067  22.528   2.766  25.771 -0.0257  0.0496 -0.0953
27618W        W34068  20.158   1.591   7.485 -0.0168  0.3396 -0.0278
27619W        W34069  17.062   0.374  25.467  0.1096  0.1918 -0.1600
27620W        W34070   1.857   5.189  28.574  0.1123 -0.1533  0.4898
27621W        W34071   3.636   4.338  22.230  0.1796  0.0923 -0.1299
27622W        W34072   5.722   6.301   2.123  0.0983 -0.0127  0.3053
27623W        W34073   3.671   3.020  34.535 -0.3234  0.1964 -0.1419
27624W        W34074   5.924   5.051  21.086  0.1538 -0.2723 -0.1432
27625W        W34075  12.203   1.040  29.972  0.0069 -0.0478 -0.1562
27626W        W34076   6.211   5.439  13.095  0.3146  0.1201 -0.0860
27627W        W34077  19.822   5.131  11.664 -0.0257  0.3471 -0.1480
27628W        W34078   1.504   3.865  32.948 -0.3646 -0.3109  0.2017
27629W        W34079  15.295   4.245  26.544 -0.2169  0.3685 -0.0397
27630W        W34080  25.573   1.051   8.657  0.3801  0.2055  0.1453
27631W        W34081   3.448   2.348  35.214 -0.0149 -0.3474 -0.1495
27632W        W34082  13.593   2.065  15.587  0.1636 -0.0964 -0.0980
27633W        W34083  16.887   1.985  21.110 -0.0145 -0.4170  0.1630
27634W        W34084   3.166   0.179   4.154  0.1290 -0.2055  0.0957
27635W        W34085   6.000   5.535   0.621  0.0070 -0.0504  0.2922
27636W        W34086  24.213   0.705  15.238  0.1688 -0.0840 -0.1673
27637W        W34087  22.009   1.862   2.314  0.4101 -0.1647 -0.2578
27638W        W34088   4.597   3.606  28.943 -0.0372 -0.0274 -0.0215
27639W        W34089  10.915   2.262  20.928  0.2442 -0.0208  0.4160
27640W        W34090  14.603   5.471  21.396  0.0843 -0.1239  0.0916
27641W        W34091  16.905   2.239   0.057 -0.0146  0.0038 -0.1486
27642W        W34092  17.208   2.529  33.446  0.2867 -0.0030  0.0994
27643W        W34093  25.718   3.421  29.546 -0.0015  0.2275  0.1234
27644W        W34094  24.412   5.235  35.393 -0.0393  0.1665  0.2415
27645W        W34095  19.713   1.948  12.928  0.1990  0.0416  0.0844
27646W        W34096  20.647   2.135  23.171  0.0113  0.1329 -0.1462
27647W        W34097  17.742   0.209  11.674  0.3139 -0.3500 -0.0324
27648W        W34098   3.630   2.961  28.314 -0.0417  0.1432  0.0466
27649W        W34099   5.304   5.443  22.841 -0.2446  0.0777 -0.0458
27650W        W34100   4.559   6.369  26.565  0.1355  0.0287  0.1578
27651W        W34101  10.032   2.549   0.662 -0.1834  0.1531 -0.2113
27652W        W34102  18.251   3.245  13.204 -0.1334 -0.0508 -0.0461
27653W        W34103  25.789   1.221  24.228  0.0130 -0.0597  0.0812
27654W        W34104  15.631   5.171  29.781  0.0174  0.0283  0.1101
27655W        W34105  19.249   0.038  21.701 -0.1029  0.0972  0.0406
27656W        W34106  14.623   1.888  27.745  0.0205  0.2483 -0.1992
27657W        W34107   1.349   1.328  28.660 -0.0174  0.1817 -0.1983
27658W        W34108   6.666   6.429  10.846 -0.0306 -0.2010 -0.0051
27659W        W34109  13.622   3.860  21.794  0.0294 -0.4650  0.1006
27660W        W34110   2.778   5.707   8.438  0.0746  0.0226  0.1771
27661W        W34111   7.886   2.885  36.001 -0.2010 -0.2564 -0.0231
27662W        W34112  12.593   6.257   4.769  0.0277  0.1721 -0.0029
27663W        W34113  18.614   0.535   7.529 -0.1704  0.2582  0.0511
27664W        W34114  21.963   5.780  29.955  0.1851 -0.2984  0.1060
27665W        W34115  22.984   2.051  14.133  0.1716  0.0965 -0.0782
27666W        W34116  13.993   2.243  29.666 -0.0930  0.1829  0.0497
27667W        W34117  16.532   3.199  30.580  0.0280  0.4353 -0.2284
27668W        W34118   2.972   2.301  30.142  0.0445 -0.1951 -0.1050
27669W        W34119  19.175   4.711  28.948 -0.1571  0.0762 -0.1302
27670W        W34120   9.538   4.512  27.009  0.1483  0.1521  0.3082
27671W        W34121  14.266   5.634   6.850 -0.1441 -0.1720 -0.0912
27672W        W34122   0.461   1.657   2.546  0.3123  0.2467  0.2122
27673W        W34123  17.804   3.198  10.240  0.1983 -0.0217  0.0638
27674W        W34124  16.905   2.127   1.987 -0.1805  0.0057  0.1783
27675W        W34125   0.525   0.987   9.394 -0.2271  0.1257  0.1369
27676W        W34126  15.701   4.947  34.077 -0.2941  0.1785 -0.1793
27677W        W34127   0.343   6.196   0.811  0.0463 -0.1011  0.2794
27678W        W34128  21.640   4.345   3.710 -0.2755  0.0283 -0.1356
27679W        W34129  16.655   6.227  21.458  0.1844  0.2331  0.0085
27680W        W34130  22.585   1.773   6.580  0.2270  0.0423  0.2840
27681W        W34131   7.630   2.357  11.335  0.3933 -0.2609  0.2005
27682W        W34132  24.298   5.388   9.271 -0.0759 -0.0254  0.0933
27683W        W34133   2.618   1.498   1.229  0.2445  0.2379 -0.0882
27684W        W34134   6.185   0.227  32.534  0.3433  0.1654 -0.1261
27685W        W34135   8.606   0.599  21.478  0.1364 -0.3147  0.0043
27686W        W34136  25.407   0.037  28.777  0.0555 -0.0582 -0.2717
27687W        W34137  14.792   5.042  11.169 -0.1817  0.1512 -0.1048
27688W        W34138   0.704   0.686  21.200  0.1228 -0.0427 -0.0305
27689W        W34139   3.075   0.495  10.851 -0.0735  0.1844  0.1721
27690W        W34140   5.205   0.847   4.281 -0.0926 -0.2095  0.0841
27691W        W34141   3.179   5.010  10.001  0.1200 -0.0430 -0.0552
27692W        W34142  18.579   2.460  30.263 -0.0589  0.0925  0.2231
27693W        W34143  18.171   0.631  35.260 -0.0146 -0.1261  0.0538
27694W        W34144  24.545   0.400  10.713  0.2494 -0.1880 -0.1207
27695W        W34145  10.015   6.331   1.074 -0.0347 -0.1539 -0.0158
27696W        W34146   7.147   0.543  25.990  0.0496  0.0933 -0.2050
27697W        W34147  10.150   0.728  26.108  0.0721  0.2056  0.1466
27698W        W34148  14.145   0.419  33.661  0.1584  0.4056 -0.1110
27699W        W34149  11.916   3.692  23.785 -0.2309  0.0188 -0.0375
27700W        W34150  11.881   2.551  22.236  0.1992 -0.1305 -0.1199
27701W        W34151  24.109   1.804   3.980  0.0674 -0.2603  0.2292
27702W        W34152  21.345   5.336   0.266 -0.1743  0.1147  0.3067
27703W        W34153   7.189   4.213   3.156 -0.1350 -0.0074  0.2829
27704W        W34154   7.108   4.015  27.505  0.1815 -0.4252  0.0789
27705W        W34155  22.058   5.018  26.840 -0.1866  0.1097 -0.1437
27706W        W34156  25.258   2.687  14.652  0.2577  0.3413 -0.1538
27707W        W34157  20.279   3.027  11.584  0.1205 -0.0110 -0.0391
27708W        W34158   7.468   1.364   9.463  0.0916  0.0034 -0.0930
27709W        W34159  11.315   0.208  24.842  0.2233 -0.4784  0.2007
27710W        W34160  12.722   0.617  22.519  0.3071 -0.0776  0.2131
27711W        W34161   9.204   5.392  31.339 -0.1633  0.0098  0.1333
27712W        W34162   6.269   6.340  24.399 -0.2297 -0.1634  0.1526
27713W        W34163  10.262   0.688  23.461 -0.2414  0.0474 -0.1732
27714W        W34164  10.104   2.246  22.203 -0.1218  0.2220  0.0380
27715W        W34165  15.207   2.110  31.228  0.1454 -0.1840 -0.1096
27716W        W34166  13.585   4.410   5.461  0.1826  0.3255 -0.4834
27717W        W34167  11.848   0.877  33.916  0.2803 -0.0925  0.1948
27718W        W34168   8.298   1.503   8.499  0.1963  0.3735 -0.2275
27719W        W34169   7.811   4.838   9.713 -0.0798  0.1554  0.1838
27720W        W34170  12.318   1.686  13.124  0.0034  0.2214  0.3525
27721W        W34171  22.790   4.943  21.249 -0.0878  0.2927 -0.3774
27722W        W34172  24.137   5.711  24.820 -0.2590 -0.0083  0.3439
27723W        W34173  10.695   4.616  32.604 -0.3261  0.1931 -0.1074
27724W        W34174  24.182   0.958  16.052 -0.4602  0.5176  0.1412
27725W        W34175   1.468   5.131  31.909 -0.3054  0.1421  0.0420
27726W        W34176  24.213   0.175  27.212  0.4621  0.4312 -0.0589
27727W        W34177  11.780   0.579  22.157 -0.0994 -0.1484 -0.0757
27728W        W34178   6.251   5.874  33.526 -0.2093 -0.1064  0.2136
27729W        W34179   3.073   6.146  35.273 -0.1094  0.1952  0.0871
27730W        W34180   4.816   2.444   9.000 -0.1715  0.0226 -0.0200
27731W        W34181  25.690   6.045  29.647  0.0083  0.0628  0.2974
27732W        W34182  23.299   3.284  23.244  0.0445  0.0065 -0.1109
27733W        W34183   0.072   4.035  28.706 -0.1857  0.1569 -0.1684
27734W        W34184  20.710   3.155   8.921 -0.0352  0.0028  0.1548
27735W        W34185  12.168   2.246  10.810 -0.1531 -0.0070  0.0493
27736W        W34186  16.459   0.666  24.330  0.0315  0.1324  0.3092
27737W        W34187   1.557   4.972  33.956 -0.3498 -0.2048  0.1369
27738W        W34188  21.278   3.901  35.189  0.2620  0.1010 -0.1382
27739W        W34189  14.579   1.675  15.151 -0.0743  0.2198  0.1467
27740W        W34190  13.061   0.904  31.242  0.3484 -0.1437  0.0916
27741W        W34191  21.147   3.619  33.207 -0.1237 -0.2098 -0.0814
27742W        W34192  11.275   3.004   0.499 -0.1586 -0.1394 -0.1133
27743W        W34193  25.759   5.790   5.592 -0.1949  0.2538  0.3212
27744W        W34194  23.034   1.281  33.898 -0.0089  0.0049  0.1183
27745W        W34195  20.996   0.968   4.314 -0.0918  0.0604 -0.0433
27746W        W34196  13.083   2.551  33.770 -0.0927 -0.3249  0.1750
27747W        W34197   0.411   6.488  25.709  0.1871 -0.0160 -0.0935
27748W        W34198  18.285   5.755  34.700 -0.0886  0.0975  0.1258
27749W        W34199   5.234   1.064   7.036  0.0256  0.2913  0.1293
27750W        W34200   2.310   5.522  11.981  0.4986  0.1509 -0.0584
27751W        W34201  10.371   4.604  28.043  0.1220  0.1232 -0.1376
27752W        W34202   4.326   1.929  32.877 -0.4232 -0.0624 -0.1389
27753W        W34203  18.959   2.156   3.710  0.0150 -0.2678 -0.1786
27754W        W34204   0.080   2.614  28.561 -0.0425  0.2712  0.0695
27755W        W34205  14.513   5.620  28.807  0.0004  0.0106 -0.0204
27756W        W34206   2.586   2.818   1.761 -0.0420 -0.2102  0.1263
27757W        W34207  20.758   3.452  34.771 -0.1872  0.1606  0.1543
27758W        W34208  17.140   4.403  10.575  0.0544 -0.0333  0.1304
27759W        W34209  25.831   0.778  14.400 -0.0830  0.1685 -0.1725
27760W        W34210   8.566   0.473   2.399  0.2329 -0.1387 -0.0435
27761W        W34211  14.633   6.157  33.272 -0.2259 -0.0770  0.0246
27762W        W34212  21.074   4.522  35.012 -0.3193  0.2648 -0.3022
27763W        W34213   3.486   0.306  29.749 -0.1539 -0.0541 -0.1017
27764W        W34214  11.139   1.233  32.061  0.0778  0.1118  0.0468
27765W        W34215   1.669   0.447   3.635 -0.1934 -0.1237 -0.0795
27766W        W34216   4.501   4.012   2.667  0.0388 -0.0802  0.5382
27767W        W34217   2.907   3.040  34.791  0.2149  0.1811  0.2133
27768W        W34218   2.121   1.708  22.427  0.1054 -0.0552  0.2047
27769W        W34219  25.272   0.550  24.607 -0.0570  0.2336  0.1702
27770W        W34220  23.033   5.094  26.938  0.2285  0.0821 -0.0360
27771W        W34221  21.902   2.794  13.314 -0.1579 -0.0003  0.0089
27772W        W34222  14.083   2.668   8.643  0.0787 -0.1871 -0.0060
27773W        W34223  22.583   1.154   8.217 -0.2369  0.0407 -0.1940
27774W        W34224   9.029   2.487  22.944  0.0450  0.1457 -0.2342
27775W        W34225   2.021   6.177  27.062 -0.1685 -0.4649 -0.1131
27776W        W34226   7.280   2.907  29.001 -0.0081  0.2587  0.0855
27777W        W34227  21.225   3.377  27.074 -0.1213 -0.0500 -0.0807
27778W        W34228  21.324   6.049  33.624 -0.1014 -0.2048 -0.0644
27779W        W34229   0.376   4.567   6.964  0.2315  0.2720 -0.1050
27780W        W34230   7.235   6.420   1.549 -0.1020  0.1192 -0.1132
27781W        W34231  20.323   2.055  15.147  0.2364 -0.0396  0.0506
27782W        W34232  20.143   5.559  28.720  0.0320  0.0950 -0.0275
27783W        W34233   6.748   1.383   8.890 -0.1094  0.1011 -0.0846
27784W        W34234   3.199   4.309   2.848  0.0234 -0.3225  0.0611
27785W        W34235  11.885   5.078  33.275 -0.3399 -0.0930 -0.4049
27786W        W34236   8.861   6.151  10.016 -0.0994 -0.2206  0.0907
27787W        W34237   1.548   0.392  34.714 -0.1368 -0.1015  0.2198
27788W        W34238  10.200   6.166  26.517 -0.1217  0.2270  0.0173
27789W        W34239   7.336   3.660  25.503  0.0229 -0.0782 -0.0159
27790W        W34240  23.817   0.461  33.953  0.1520 -0.0961  0.0231
27791W        W34241  18.523   2.573   1.196  0.0701 -0.3504 -0.1752
27792W        W34242  20.155   1.182  30.541  0.0007 -0.0259  0.4175
27793W        W34243   3.142   5.769   0.842 -0.1141  0.4005 -0.1228
27794W        W34244   2.143   0.578   6.041  0.1514  0.2124  0.2835
27795W        W34245  12.859   4.346   0.317  0.1860 -0.0183 -0.1231
27796W        W34246   8.755   3.769  26.742  0.0191  0.1067  0.0259
27797W        W34247   8.519   3.342  35.023  0.1931 -0.0061  0.1788
27798W        W34248  13.559   4.246  22.953  0.1885  0.0444  0.3023
27799W        W34249   2.660   4.237   9.184  0.0100 -0.2858  0.0434
27800W        W34250  21.609   6.586  30.629 -0.3147  0.3043 -0.3216
27801W        W34251  14.526   4.776  15.107  0.1834 -0.0142 -0.0132
27802W        W34252  22.516   4.082  11.306  0.0173  0.2512 -0.5192
27803W        W34253  21.748   4.367  23.187  0.0612 -0.0351  0.0916
27804W        W34254  16.311   4.330   0.736  0.1487  0.1551  0.1153
27805W        W34255  25.168   5.473  14.278 -0.0441 -0.1537 -0.1953
27806W        W34256   1.410   0.670   2.033  0.2101  0.2722  0.0776
27807W        W34257  21.641   5.165  32.518  0.1001  0.1812 -0.1478
27808W        W34258  19.404   0.845   4.659  0.3397 -0.1735  0.2021
27809W        W34259   8.824   2.665   2.658 -0.0161 -0.1640  0.0153
27810W        W34260  18.332   3.620  23.211 -0.2603 -0.0443 -0.0224
27811W        W34261  16.198   1.231  32.194 -0.1211  0.0502  0.1634
27812W        W34262   8.616   1.246  25.986  0.0036  0.0441  0.0229
27813W        W34263   2.075   0.637  11.894 -0.1706  0.0917 -0.1939
27814W        W34264  15.371   4.926   6.484  0.2123  0.0006 -0.1355
27815W        W34265  13.458   6.202  13.296  0.2832  0.1876  0.2134
27816W        W34266   3.420   0.659   4.959  0.2937 -0.1849  0.0742
27817W        W34267  22.489   0.241  26.112 -0.0438  0.0365  0.3238
27818W        W34268   0.952   1.131  32.776 -0.0989 -0.0192  0.0172
27819W        W34269  19.264   4.209  35.062  0.0133  0.2107  0.2193
27820W        W34270   8.806   0.161  12.030 -0.1079  0.2379 -0.3143
27821W        W34271  15.748   6.294  34.738  0.0911 -0.1730  0.0681
27822W        W34272  18.460   4.065  35.450  0.0965  0.0777  0.0363
27823W        W34273  14.582   5.503   0.716  0.0730  0.0297 -0.1561
27824W        W34274  16.466   4.896   1.562  0.0379  0.0769  0.0133
27825W        W34275  23.320   5.745   3.709  0.1510 -0.0752 -0.1544
27826W        W34276  16.426   6.496  14.332  0.1177 -0.0534  0.4740
27827W        W34277  22.690   4.461  15.062 -0.2041  0.1203 -0.1251
27828W        W34278   2.369   0.860  25.413 -0.1060 -0.3748  0.2026
27829W        W34279  19.335   0.055  30.231 -0.2496 -0.0529  0.2062
27830W        W34280  14.964   6.528  27.836 -0.0001  0.3969 -0.1851
27831W        W34281   8.369   1.703  28.670 -0.0144  0.2503  0.1562
27832W        W34282  24.946   4.651  31.501 -0.3064 -0.1404 -0.1475
27833W        W34283  22.809   4.622  30.363  0.3175  0.0147  0.1612
27834W        W34284   8.547   4.905   8.465 -0.0930  0.0876 -0.1981
27835W        W34285  23.568   2.444   6.866 -0.3568 -0.2452 -0.0767
27836W        W34286  10.834   4.018  10.454  0.1856 -0.1940  0.1158
27837W        W34287   2.689   5.842   8.912  0.0770 -0.1282  0.3048
27838W        W34288  17.558   6.136   3.674  0.0376  0.0518 -0.2692
27839W        W34289   3.740   6.330  32.403 -0.2582  0.0864 -0.0760
27840W        W34290  24.300   5.601   4.421 -0.1666  0.3427 -0.0300
27841W        W34291  23.065   4.430  14.094 -0.0194  0.0748 -0.0086
27842W        W34292   5.736   1.269   3.192 -0.0173 -0.0432  0.1313
27843W        W34293  10.085   5.875   7.999 -0.0736  0.3105  0.1043
27844W        W34294  22.839   1.663  31.284 -0.1267  0.2071 -0.1121
27845W        W34295   7.120   5.808  28.402 -0.1719 -0.1671 -0.0041
27846W        W34296   4.684   1.364  10.505  0.1938 -0.1001 -0.2122
27847W        W34297   0.655   6.307   6.143  0.1032  0.1869  0.1867
27848W        W34298   2.009   5.274   8.799  0.3600 -0.1438  0.4684
27849W        W34299   3.244   0.579  14.981  0.0208  0.0142 -0.1164
27850W        W34300   6.347   6.014  10.862 -0.1471 -0.0369 -0.0339
27851W        W34301  21.039   5.455  10.049 -0.1001 -0.1431  0.2311
27852W        W34302   1.264   6.311  12.907  0.0046  0.0709 -0.0100
27853W        W34303   4.847   2.759   1.356  0.0351 -0.0897 -0.0738
27854W        W34304   2.435   2.290  35.567 -0.1145 -0.0503  0.1120
27855W        W34305   6.665   1.496  22.257 -0.1834  0.0483  0.1079
27856W        W34306  20.326   0.400  14.910  0.0036 -0.2065  0.1792
27857W        W34307  17.869   3.588  23.448 -0.0439  0.4398  0.0263
27858W        W34308   0.238   0.847  12.472  0.0451 -0.5819 -0.3693
27859W        W34309   5.272   0.596   2.174 -0.0578 -0.1823  0.2841
27860W        W34310  10.800   3.726   1.952  0.0257 -0.1597  0.0142
27861W        W34311   7.137   3.518  22.413 -0.2155 -0.2304  0.0843
27862W        W34312  12.125   2.852  30.133 -0.0109  0.2574  0.0503
27863W        W34313  13.144   1.462  30.426  0.0399  0.0397 -0.1656
27864W        W34314   7.940   4.674   7.596 -0.1347 -0.1013 -0.0748
27865W        W34315  22.658   3.816   1.770 -0.2031 -0.1894 -0.2448
27866W        W34316   5.329   6.531  31.429 -0.0149  0.1741 -0.3262
27867W        W34317   1.083   5.072  11.312  0.2327 -0.1945  0.1923
27868W        W34318  23.075   1.915  21.892 -0.0827  0.0608 -0.0479
27869W        W34319   5.205   1.023  28.767  0.1301 -0.0639 -0.2463
27870W        W34320  12.593   2.504  15.913 -0.0111 -0.0413  0.3184
27871W        W34321  17.371   6.237  23.326  0.0577 -0.1510 -0.0381
27872W        W34322   1.387   4.437   8.828 -0.0062  0.3459 -0.2220
27873W        W34323   8.659   5.576   2.297  0.0577 -0.2126 -0.0649
27874W        W34324  12.718   5.987  14.593 -0.0773  0.0188 -0.1788
27875W        W34325  15.734   4.209  34.822 -0.0031  0.1346 -0.2942
27876W        W34326   2.070   0.944  34.218  0.2263  0.3396 -0.2172
27877W        W34327  17.167   0.282  15.713  0.1012  0.1634 -0.3094
27878W        W34328  22.460   1.900  28.090  0.0802  0.1011 -0.0744
27879W        W34329  14.725   0.624  32.728  0.1734 -0.0567 -0.1933
27880W        W34330  25.530   1.563  13.566 -0.0784 -0.0722  0.3205
27881W        W34331  15.861   4.875  28.911  0.0528 -0.1296 -0.0598
27882W        W34332  13.474   1.887  11.493  0.0102 -0.1544  0.0774
27883W        W34333  16.412   4.830  36.088 -0.3600 -0.0854 -0.4097
27884W        W34334  14.021   3.156   3.787 -0.1637  0.1060  0.0833
27885W        W34335   2.049   2.055  25.750  0.0297  0.0130  0.0436
27886W        W34336  12.518   4.478  11.552 -0.1145 -0.1571  0.0300
27887W        W34337   2.543   0.032  30.041 -0.0590  0.3844  0.3026
27888W        W34338  24.529   5.277  25.044 -0.1449  0.0417  0.1292
27889W        W34339  22.535   4.409   4.469 -0.2669  0.2287 -0.3719
27890W        W34340  17.497   4.689  12.495 -0.0673  0.2012  0.1590
27891W        W34341   3.692   6.004  15.637  0.0210  0.1502  0.0346
27892W        W34342  21.483   0.022  25.625  0.1023  0.3213 -0.1415
27893W        W34343  20.104   5.361   8.398  0.0472  0.1842  0.0934
27894W        W34344  14.671   1.511   7.646 -0.1839 -0.0835  0.0091
27895W        W34345  15.564   4.922   1.178  0.0114 -0.0620  0.1298
27896W        W34346  20.032   0.922  25.907 -0.0819 -0.0641 -0.2945
27897W        W34347  13.716   1.382   9.793 -0.0148  0.1493 -0.2345
27898W        W34348   7.586   4.032  34.469 -0.1210 -0.0831 -0.1403
27899W        W34349  21.396   3.942  10.249  0.0284 -0.1536  0.1048
27900W        W34350  21.473   1.509  29.646  0.0606 -0.0674 -0.0678
27901W        W34351  13.070   2.390  15.713  0.2523  0.0303 -0.1297
27902W        W34352   4.033   4.932   6.940 -0.0407  0.2726 -0.0550
27903W        W34353   6.950   0.108  31.672  0.0755  0.3338  0.1067
27904W        W34354   8.087   0.889  20.822 -0.0599  0.2167  0.1807
27905W        W34355  24.823   5.350  23.962  0.0322  0.0389  0.1907
27906W        W34356   0.890   3.079  14.670  0.2776  0.4333 -0.2945
27907W        W34357   4.874   0.097   7.191 -0.4169 -0.4192  0.0660
27908W        W34358  25.194   6.257  29.382  0.1061  0.2173 -0.0398
27909W        W34359  17.434   1.597   1.191  0.0883  0.2009 -0.0687
27910W        W34360   7.513   3.008  30.898  0.0049 -0.0087 -0.1268
27911W        W34361  20.458   4.571  29.358  0.0852 -0.0844 -0.0812
27912W        W34362  15.880   5.262  31.762  0.0523  0.0629  0.2675
27913W        W34363   6.923   1.899  25.943 -0.1639 -0.3953  0.1271
27914W        W34364  25.729   1.884  29.428 -0.1318  0.2275 -0.1064
27915W        W34365  12.604   4.784  20.853 -0.0025 -0.0900  0.1834
27916W        W34366   5.505   0.306  30.806 -0.1152  0.0082  0.3115
27917W        W34367   0.913   0.835  29.334  0.0291 -0.0684  0.3213
27918W        W34368  16.748   0.312  11.481 -0.1035  0.0453 -0.0347
27919W        W34369   5.160   4.027  15.063 -0.2495 -0.0782 -0.0695
27920W        W34370  19.050   1.153   4.572  0.1307  0.3847  0.0475
27921W        W34371   1.723   6.322  32.601 -0.0617  0.0561 -0.1201
27922W        W34372   4.250   0.277  25.137 -0.0582 -0.3477  0.0681
27923W        W34373   1.798   0.147   5.374  0.0072  0.0444  0.0102
27924W        W34374  20.385   4.660  12.818  0.1142 -0.2527  0.1084
27925W        W34375   3.180   0.076  24.528 -0.1655  0.1659  0.3835
27926W        W34376  21.685   1.024  23.957  0.0305  0.2426 -0.1141
27927W        W34377  19.419   2.428  35.566 -0.0013 -0.2741 -0.2405
27928W        W34378  12.958   3.111  34.494  0.1159  0.0648  0.0712
27929W        W34379   8.028   3.787   1.131 -0.0716  0.2233  0.1620
27930W        W34380   2.952   4.700  15.458 -0.1047 -0.0321 -0.0754
27931W        W34381   1.053   6.477  29.439  0.2288 -0.0025 -0.0295
27932W        W34382   0.332   0.754  11.366  0.0710  0.0997  0.1283
27933W        W34383  14.267   0.532  32.432 -0.1557 -0.0049  0.4140
27934W        W34384   7.489   3.973  33.913  0.0881 -0.1306 -0.1404
27935W        W34385  13.557   0.634  10.506  0.1119  0.0296  0.1802
27936W        W34386  24.563   6.446  31.328  0.0643  0.2586 -0.3119
27937W        W34387   4.999   3.417  13.687 -0.3088  0.1657  0.0671
27938W        W34388  13.580   2.142  29.295  0.3206 -0.0437  0.0496
27939W        W34389   7.438   1.303  13.715 -0.1832  0.0295 -0.0335
27940W        W34390  25.740   0.628  11.100  0.0350 -0.2909  0.0264
27941W        W34391  20.328   4.467  14.882  0.1896 -0.1662 -0.1776
27942W        W34392  22.298   4.601  32.877 -0.4234  0.0884  0.1966
27943W        W34393   0.688   0.850  12.175 -0.0455  0.0385 -0.0404
27944W        W34394   3.907   2.174  12.645 -0.1108  0.1212 -0.0048
27945W        W34395  17.481   1.060  31.030 -0.1428 -0.0062  0.0400
27946W        W34396  21.269   5.544  13.205 -0.1886  0.2100  0.2441
27947W        W34397   6.652   5.560  27.772  0.0903 -0.2687 -0.0417
27948W        W34398  12.026   3.458  10.894  0.1528  0.1374  0.2910
27949W        W34399  10.422   1.092  11.028  0.0696  0.1303 -0.0144
27950W        W34400   1.666   3.780   1.463  0.1997  0.2338 -0.2073
27951W        W34401   8.156   1.271   5.716  0.1679 -0.0575  0.0551
27952W        W34402  17.894   5.877   8.111 -0.2910  0.0549  0.1384
27953W        W34403  26.233   2.454   7.754 -0.0088  0.2631  0.2277
27954W        W34404  24.239   3.810  30.627 -0.0867  0.1106 -0.0211
27955W        W34405   7.412   5.644  23.832 -0.0541  0.0785  0.2080
27956W        W34406   6.339   4.609  29.437  0.1538  0.1732 -0.1108
27957W        W34407  10.345   2.886  21.024 -0.0042 -0.2841  0.4524
27958W        W34408   0.796   5.920  31.660 -0.1819  0.4179  0.2391
27959W        W34409  16.345   4.621  33.022 -0.4117  0.0321  0.1714
27960W        W34410   8.149   5.500  23.214 -0.1983 -0.2405  0.0884
27961W        W34411  17.079   2.108  13.694 -0.0345 -0.2948  0.0024
27962W        W34412   3.656   1.654   9.419 -0.1212  0.0125 -0.0378
27963W        W34413  19.375   1.273   2.756 -0.0954  0.1138  0.0138
27964W        W34414  14.106   3.420  22.686 -0.4981 -0.1019  0.2888
27965W        W34415   3.386   2.255  14.588 -0.2734  0.1628  0.0420
27966W        W34416   9.223   5.689  26.214  0.2340  0.2020 -0.0670
27967W        W34417  15.794   5.317   5.630 -0.1160 -0.0225 -0.0504
27968W        W34418  18.080   0.025  25.008 -0.0504 -0.2879  0.3685
27969W        W34419   5.615   0.377  25.468  0.0537  0.3563  0.3397
27970W        W34420  18.405   5.544  36.050 -0.0290  0.4071 -0.2587
27971W        W34421   5.887   1.597  28.890  0.3507 -0.0557 -0.1322
27972W        W34422   3.803   3.417  21.169  0.2222 -0.1893  0.1836
27973W        W34423   1.114   0.793  30.828 -0.2891  0.1403  0.0507
27974W        W34424  21.602   5.160  24.929  0.0485 -0.1321 -0.1489
27975W        W34425  19.875   3.256   5.217 -0.0570  0.3250 -0.3004
27976W        W34426   5.963   3.253   7.438  0.0715  0.1855  0.1453
27977W        W34427   1.180   0.990   3.779 -0.2820 -0.1929 -0.2446
27978W        W34428   9.153   0.374   9.138  0.3339  0.1704  0.0177
27979W        W34429   8.537   6.597  23.023 -0.0086 -0.0295 -0.0508
27980W        W34430  14.908   4.247   0.267 -0.0562 -0.0174 -0.0093
27981W        W34431  10.424   3.019  26.705 -0.2540  0.0869  0.1706
27982W        W34432   2.157   1.719  27.226 -0.1371  0.0379  0.2693
27983W        W34433  21.526   1.433  13.005  0.0071 -0.0600  0.1762
27984W        W34434  25.336   6.532  21.602  0.0389 -0.2954 -0.0650
27985W        W34435   4.059   2.001   7.797 -0.1794 -0.3418  0.0636
27986W        W34436  23.852   2.234  32.425 -0.1931  0.0999  0.0300
27987W        W34437   9.315   3.296   9.442 -0.0650  0.2239 -0.1673
27988W        W34438  23.346   5.661  23.029 -0.1460  0.0184  0.2430
27989W        W34439   5.560   4.157  10.558 -0.1738 -0.0774 -0.0396
27990W        W34440   1.010   3.157  11.428 -0.2166 -0.1371  0.3189
27991W        W34441  11.482   4.713  23.572 -0.1335 -0.3244  0.4354
27992W        W34442  25.284   1.780  11.284 -0.2191 -0.1704 -0.0591
27993W        W34443  12.820   6.093  10.071 -0.1552  0.3624  0.1244
27994W        W34444  18.585   6.014  33.868 -0.2153 -0.0466  0.2330
27995W        W34445   4.355   4.824  29.526 -0.6437  0.4156  0.0263
27996W        W34446  12.873   2.664  11.566 -0.1908 -0.2010  0.0165
27997W        W34447  20.839   5.683  22.029  0.0443  0.0453  0.2973
27998W        W34448  15.309   2.918  11.934 -0.0686  0.0496  0.0513
27999W        W34449  22.781   6.329   5.186 -0.2184 -0.2868 -0.3280
28000W        W34450   5.733   2.739   5.096  0.1307  0.2965  0.1043
28001W        W34451  15.420   5.048  11.051  0.1243 -0.1178 -0.0799
28002W        W34452   1.219   3.252  25.210  0.0878 -0.2061 -0.0028
28003W        W34453  22.705   1.695  28.458 -0.0672  0.0138  0.0846
28004W        W34454  21.677   4.014  28.847  0.2845  0.0512 -0.2252
28005W        W34455  19.573   2.061  35.901  0.0720  0.1983 -0.1462
28006W        W34456   8.434   3.863  21.945 -0.0490  0.2929  0.2364
28007W        W34457  18.411   4.965   5.523  0.0402 -0.1177 -0.0899
28008W        W34458   2.406   2.857  30.029  0.3923  0.1412 -0.1147
28009W        W34459  23.106   2.180   0.310  0.0195  0.1085  0.1099
28010W        W34460   8.730   5.567  13.271  0.1504  0.2211 -0.2822
28011W        W34461  10.347   4.322  13.424 -0.1229  0.2522 -0.0846
28012W        W34462   0.576   5.052  23.747  0.0476 -0.2161  0.3191
28013W        W34463  19.609   2.887  34.242  0.1933  0.2845  0.1504
28014W        W34464  14.878   5.404  33.625  0.0622  0.1110 -0.2658
28015W        W34465  22.741   3.695  35.623 -0.1163  0.0139  0.5401
28016W        W34466   6.362   1.024   0.152  0.3774  0.1220  0.0471
28017W        W34467  25.801   0.135  24.736 -0.1399  0.3220  0.0280
28018W        W34468   5.010   4.065  31.930  0.0466 -0.1399 -0.0278
28019W        W34469  11.837   0.931  23.037 -0.1244  0.0710 -0.0453
28020W        W34470   3.363   5.346  11.487  0.0204 -0.1432 -0.0766
28021W        W34471   9.053   1.227  27.772  0.0529 -0.2615  0.0211
28022W        W34472   2.962   5.311  31.967  0.0473 -0.1228 -0.1426
28023W        W34473   8.407   3.480  34.208 -0.2093 -0.0480 -0.4114
28024W        W34474  17.124   0.056  35.975 -0.1685  0.0921  0.1062
28025W        W34475  17.619   1.616  21.641 -0.0242 -0.2133 -0.0982
28026W        W34476   5.676   1.384  25.130 -0.1821  0.0706 -0.0849
28027W        W34477  18.673   2.789  30.810  0.1273  0.1435 -0.0188
28028W        W34478  25.225   5.961  35.038  0.1371 -0.0316 -0.0261
28029W        W34479   4.596   4.767  14.602 -0.0480  0.0072 -0.0913
28030W        W34480  16.142   1.802  10.636  0.0029 -0.0598 -0.0479
28031W        W34481   6.651   4.318  12.305  0.3732  0.0647  0.1124
28032W        W34482  21.049   2.468  15.446 -0.1063  0.0134  0.1426
28033W        W34483   2.610   1.097  29.551 -0.0247  0.1315 -0.0048
28034W        W34484  17.003   1.696  33.314 -0.2674  0.0708 -0.1066
28035W        W34485   8.959   5.417  11.306  0.2654  0.0829  0.0973
28036W        W34486   3.941   4.455  13.383 -0.0033  0.0001  0.0695
28037W        W34487   9.374   5.465   1.074 -0.2223 -0.1740  0.1356
28038W        W34488  22.400   0.667  30.064  0.1527  0.0910 -0.0358
28039W        W34489  13.052   3.217   6.097  0.3187  0.0676 -0.2004
28040W        W34490  25.547   1.069   2.547 -0.1633  0.1069 -0.1723
28041W        W34491  23.008   1.506  14.192 -0.1449 -0.1683  0.2147
28042W        W34492  14.752   3.189  24.598  0.0179 -0.1717 -0.2142
28043W        W34493   3.427   0.578  14.106  0.1743 -0.3148 -0.0562
28044W        W34494   8.779   4.686  25.212 -0.2092  0.0451 -0.1437
28045W        W34495  16.356   2.188  12.061 -0.0004 -0.0047  0.1026
28046W        W34496  11.480   2.791  14.218 -0.0532  0.0544 -0.0990
28047W        W34497   8.092   0.549  27.523 -0.0312  0.1121  0.0979
28048W        W34498   7.160   0.922  35.259 -0.2737  0.0776 -0.1739
28049W        W34499  11.940   5.474   5.791  0.3243  0.3531 -0.0854
28050W        W34500  24.680   0.497  30.463 -0.1771 -0.0286  0.0129
28051W        W34501  12.201   2.084  26.241 -0.0648 -0.0568 -0.2297
28052W        W34502  21.504   4.850  23.251 -0.0291  0.0900 -0.2256
28053W        W34503  14.267   1.099  14.714  0.1300  0.0113  0.0046
28054W        W34504  21.505   1.733   5.741  0.3874  0.0410 -0.1949
28055W        W34505   4.369   2.581  28.668  0.0048 -0.0027 -0.3939
28056W        W34506  20.028   0.431  34.883 -0.0013  0.1072  0.0840
28057W        W34507   3.839   1.102   1.949  0.2638  0.0925  0.1206
28058W        W34508   0.859   4.076  21.274  0.1085  0.1953 -0.1754
28059W        W34509   7.955   5.159   2.800 -0.0785 -0.1192  0.1109
28060W        W34510  11.409   1.688  33.467 -0.1317  0.1571  0.2713
28061W        W34511  26.231   1.715  23.141 -0.0439  0.0101 -0.0523
28062W        W34512  10.794   1.826  12.544 -0.1790 -0.0178 -0.0943
28063W        W34513   8.630   2.857  25.536  0.0481  0.0602  0.0049
28064W        W34514  18.658   2.723  11.246  0.1293  0.0967  0.0261
28065W        W34515  25.311   5.483  21.023  0.0189 -0.1829  0.1263
28066W        W34516   7.627   3.742   9.544 -0.2770  0.1998 -0.1634
28067W        W34517  18.293   5.828  29.933 -0.0486  0.0294 -0.0216
28068W        W34518   1.404   0.198  27.427  0.0806 -0.2732  0.0023
28069W        W34519  25.446   4.139   9.546  0.1405 -0.0325  0.2084
28070W        W34520  21.621   6.119  15.487  0.1391 -0.0099  0.1899
28071W        W34521   0.556   4.723  10.643  0.1552  0.1006 -0.2747
28072W        W34522  23.134   3.150  21.065  0.4675 -0.1163 -0.3929
28073W        W34523  24.221   6.224  11.323 -0.1914 -0.2666  0.2303
28074W        W34524  15.512   3.034  21.699 -0.3747  0.1193  0.1972
28075W        W34525  21.497   3.011  31.556  0.1620 -0.1124 -0.2105
28076W        W34526   9.381   2.635  29.054 -0.1252  0.1751 -0.1496
28077W        W34527   9.480   5.007  14.807  0.1062  0.0080 -0.1943
28078W        W34528  24.481   2.740  33.905 -0.1594  0.1000  0.0205
28079W        W34529  24.433   0.696   7.567 -0.0421  0.0379  0.2243
28080W        W34530  16.359   5.239  26.441  0.0427  0.0848 -0.2468
28081W        W34531  15.295   2.703   7.352  0.2645 -0.0820  0.3707
28082W        W34532  16.952   0.730  31.717  0.0207 -0.1308  0.1231
28083W        W34533  19.496   4.038  22.297  0.0031 -0.0871 -0.0059
28084W        W34534   8.021   2.466  11.910 -0.1638 -0.4152 -0.0248
28085W        W34535   9.151   5.349   7.104 -0.2258 -0.0325  0.3349
28086W        W34536  25.680   6.594   3.488 -0.0158  0.0300 -0.0774
28087W        W34537   6.107   1.006  23.342 -0.2667  0.1757  0.3284
28088W        W34538   6.864   5.026  21.436 -0.0939  0.0582 -0.3863
28089W        W34539   2.030   2.865   1.802 -0.0922  0.0137 -0.0607
28090W        W34540  21.248   5.955  34.470  0.1297  0.3419  0.0536
28091W        W34541  22.589   5.136  11.686 -0.1425  0.1140 -0.0829
28092W        W34542  24.233   5.933  27.187 -0.0006  0.0663 -0.1447
28093W        W34543  17.529   5.221   1.629 -0.0024  0.1975  0.4044
28094W        W34544   8.005   4.570  24.567  0.0900 -0.1650  0.1373
28095W        W34545   2.497   5.557   6.216 -0.2392  0.0891 -0.1118
28096W        W34546  23.924   0.930   8.776  0.0019 -0.2059  0.1747
28097W        W34547  25.887   1.614   5.440  0.1060 -0.1730  0.0066
28098W        W34548   7.750   2.145  21.712 -0.0444  0.0909  0.0705
28099W        W34549  15.933   0.295   6.660 -0.0445 -0.1294  0.1563
28100W        W34550  20.834   6.013   6.521 -0.0686  0.4135  0.2156
28101W        W34551   7.414   3.410   2.899  0.0292 -0.0228  0.0068
28102W        W34552  11.737   1.670  33.853  0.0728  0.0799  0.0117
28103W        W34553  24.256   0.047  23.709 -0.3103  0.0527 -0.1438
28104W        W34554   1.794   5.355   0.797 -0.0633 -0.2540  0.0934
28105W        W34555  10.605   1.260   5.961 -0.0802  0.0969 -0.2072
28106W        W34556  20.264   4.728   4.318  0.0013  0.0361  0.2006
28107W        W34557   3.040   0.014  11.780 -0.2981 -0.1533  0.0338
28108W        W34558  25.853   5.707  24.496 -0.1152 -0.2043 -0.2992
28109W        W34559   8.203   0.936   6.483  0.0690 -0.1872 -0.0602
28110W        W34560  15.268   4.210  12.125 -0.0573  0.1542 -0.1025
28111W        W34561  18.282   4.091  14.079 -0.3040  0.0902  0.1705
28112W        W34562  12.695   0.797  35.514  0.2002 -0.1197  0.2139
28113W        W34563   0.659   2.073  15.115  0.2443 -0.0526  0.0186
28114W        W34564  16.362   5.010  10.829  0.1880 -0.0954 -0.2162
28115W        W34565  22.735   0.652  15.161  0.1138  0.2777 -0.0905
28116W        W34566  24.195   1.880  30.986 -0.2266 -0.1114 -0.1688
28117W        W34567  16.603   4.878  34.120 -0.0029 -0.0357 -0.0902
28118W        W34568   8.539   0.605  34.743 -0.2887  0.0150 -0.1336
28119W        W34569  13.026   5.600  32.451  0.0602  0.0688 -0.0749
28120W        W34570  25.250   4.499  20.562 -0.0106  0.1178 -0.2778
28121W        W34571  15.456   6.489  21.791  0.1123 -0.0421  0.1129
28122W        W34572   3.745   3.846  25.403  0.2345  0.1994  0.1535
28123W        W34573  11.971   0.019  28.538 -0.0665  0.4462  0.0215
28124W        W34574   0.386   4.413  32.029 -0.0433  0.1375 -0.2849
28125W        W34575   0.744   1.865  24.436 -0.2617 -0.0480 -0.3317
28126W        W34576   4.566   6.299  15.441  0.0078  0.0654  0.3729
28127W        W34577  21.319   4.476  26.595  0.1511  0.3177  0.0856
28128W        W34578   5.148   1.670  25.944 -0.5074 -0.0164 -0.0804
28129W        W34579  11.599   1.159  27.234 -0.1731 -0.2054  0.1603
28130W        W34580  16.139   3.190   1.845  0.2053 -0.0891  0.0967
28131W        W34581  17.866   3.802  12.766  0.0363  0.1281 -0.1659
28132W        W34582  21.981   1.377   3.451 -0.1720  0.1473 -0.1904
28133W        W34583  10.168   4.646  33.978 -0.0453  0.0125 -0.1257
28134W        W34584  18.630   2.821  26.417 -0.0493 -0.1620  0.2322
28135W        W34585  14.044   1.952   3.996 -0.1051  0.2780 -0.3588
28136W        W34586   3.192   5.744  14.938 -0.2128  0.0318  0.1770
28137W        W34587   4.319   1.432  28.186 -0.4037  0.2039  0.2073
28138W        W34588   3.524   2.450  30.601  0.0304  0.1942 -0.0552
28139W        W34589  10.422   2.401  11.295 -0.0623 -0.2395  0.1864
28140W        W34590  14.402   4.974  12.461  0.0514 -0.0611 -0.0287
28141W        W34591  21.882   2.027  31.543 -0.1928  0.0933 -0.2290
28142W        W34592  22.762   5.270  29.252 -0.3516  0.2160  0.0102
28143W        W34593   6.969   0.969  25.852  0.1556  0.2862  0.0328
28144W        W34594  19.121   1.344  29.202  0.0197  0.1122 -0.1494
28145W        W34595  22.512   5.785   4.557  0.1093  0.1062 -0.1770
28146W        W34596  19.559   3.811   0.202  0.0310  0.0834 -0.0236
28147W        W34597   6.497   3.309  25.437  0.2744 -0.3289 -0.0799
28148W        W34598  19.833   4.377  26.368  0.1167  0.0744 -0.1809
28149W        W34599  12.953   1.029   9.587  0.1029 -0.0890 -0.0928
28150W        W34600  17.760   4.258   1.013  0.0671  0.0456  0.0386
28151W        W34601   5.598   5.408  20.773  0.2927  0.4011 -0.0341
28152W        W34602   9.390   2.337  35.523  0.1371  0.1742  0.0352
28153W        W34603  18.320   2.338   5.199  0.3119 -0.0114  0.3329
28154W        W34604  22.351   4.643  12.953 -0.1604  0.0626 -0.0111
28155W        W34605   9.305   6.074  30.475  0.2676  0.0034 -0.0723
28156W        W34606  15.238   0.924   8.413 -0.0625  0.0408  0.1101
28157W        W34607   0.479   2.622   5.602 -0.0597 -0.0567  0.1211
28158W        W34608  11.434   4.677  26.136 -0.5328 -0.2116 -0.0523
28159W        W34609  15.746   3.605  34.727 -0.1681 -0.2813  0.1813
28160W        W34610  25.879   4.336  22.466 -0.1137  0.0068  0.0113
28161W        W34611   7.710   3.651  26.554 -0.1221 -0.0549  0.2898
28162W        W34612   7.941   6.595  26.214  0.2421  0.3639 -0.1835
28163W        W34613   3.430   1.867  32.551 -0.1998 -0.0265 -0.1779
28164W        W34614  22.618   0.580  25.594  0.1379  0.1066  0.1178
28165W        W34615  17.840   2.786  21.645 -0.1904 -0.3879 -0.2602
28166W        W34616   1.471   1.623  31.780 -0.0743 -0.0136 -0.2049
28167W        W34617   0.998   0.034  25.737 -0.1662 -0.0303  0.1827
28168W        W34618  25.525   4.389  27.402  0.0374 -0.0301 -0.2066
28169W        W34619  11.844   3.608  13.724 -0.0850 -0.2402  0.0971
28170W        W34620   7.256   5.738  20.932  0.1330  0.0961  0.0712
28171W        W34621   5.094   0.393  25.903  0.0434 -0.0965  0.0979
28172W        W34622  21.103   2.709   0.247  0.2326  0.3482  0.0295
28173W        W34623  11.166   4.368  35.694  0.0262  0.1451  0.1724
28174W        W34624  23.184   4.069   8.255 -0.1449  0.1267 -0.0341
28175W        W34625  21.536   4.194  29.703 -0.1931  0.2756 -0.1457
28176W        W34626   3.229   5.083  12.365 -0.0117 -0.1402  0.0889
28177W        W34627  16.593   3.666   9.089 -0.0737  0.1856 -0.0859
28178W        W34628  17.769   1.084  24.414 -0.4470  0.5703 -0.0912
28179W        W34629  20.604   2.960   2.628 -0.0570 -0.0096  0.1516
28180W        W34630   6.569   4.810  27.358 -0.0382  0.1482  0.1932
28181W        W34631  20.327   0.333  26.997  0.0749 -0.0475  0.1270
28182W        W34632   5.968   4.746  14.426 -0.1618  0.0761 -0.1513
28183W        W34633  10.546   0.268  36.063 -0.0739 -0.0421  0.1006
28184W        W34634  22.074   1.153   4.017  0.1002 -0.0398 -0.2813
28185W        W34635  12.593   3.125   3.400 -0.0033  0.3334  0.0371
28186W        W34636  12.731   3.010   6.812  0.0586  0.0764  0.1412
28187W        W34637  13.839   1.687  26.673 -0.3445 -0.3130  0.1285
28188W        W34638  10.092   3.768  15.254 -0.2675 -0.1624  0.1923
28189W        W34639  13.149   5.783  14.733 -0.1083  0.0783 -0.1157
28190W        W34640  21.827   4.780  32.851 -0.1179 -0.2241 -0.0485
28191W        W34641   2.587   1.014   0.265 -0.2211 -0.3628 -0.0259
28192W        W34642  11.895   1.269  29.085 -0.0392  0.1729  0.1428
28193W        W34643  13.499   0.094  23.026 -0.2161  0.1100 -0.1209
28194W        W34644   4.094   1.509  25.231 -0.0079  0.0852  0.0625
28195W        W34645  11.285   3.462   8.496 -0.3516  0.2524 -0.1019
28196W        W34646   2.949   3.197   0.733 -0.2375  0.2422 -0.0403
28197W        W34647   5.615   0.085  21.710 -0.0084 -0.1255  0.0944
28198W        W34648   2.163   2.277  30.818 -0.0358 -0.2538  0.0667
28199W        W34649   7.899   6.177  33.124 -0.2909 -0.1546  0.0920
28200W        W34650  13.598   2.543  27.210  0.0618 -0.2053  0.0284
28201W        W34651  18.416   4.046  11.084  0.1177  0.1209  0.0520
28202W        W34652   2.617   0.201  12.571  0.0585 -0.3747  0.0567
28203W        W34653  17.057   0.824   1.994  0.2484  0.1503  0.1755
28204W        W34654   4.525   5.232  27.673  0.0370 -0.2039 -0.0835
28205W        W34655  24.555   2.012   2.411  0.1087 -0.1166  0.0407
28206W        W34656  14.978   5.697   1.427 -0.0105 -0.1199 -0.0414
28207W        W34657   1.614   2.335  33.071 -0.0258  0.1516  0.0137
28208W        W34658  10.294   1.409  30.698 -0.1635  0.4580  0.1640
28209W        W34659   2.732   4.177  10.849  0.1771  0.0232 -0.2160
28210W        W34660  13.184   0.389   9.071 -0.2473 -0.0716 -0.1333
28211W        W34661   9.975   5.989  10.517  0.1851  0.1099  0.0409
28212W        W34662  10.849   2.372   5.896 -0.0261  0.2165  0.2351
28213W        W34663  19.127   2.547   4.312 -0.1103 -0.0066 -0.0106
28214W        W34664  18.932   2.196  22.205 -0.0749  0.2698  0.1008
28215W        W34665  18.219   4.022  24.742 -0.2026 -0.1034  0.1471
28216W        W34666  17.181   3.959  32.498  0.0345 -0.0722  0.0425
28217W        W34667  18.723   1.698   4.959  0.3671 -0.2152  0.0134
28218W        W34668  25.443   0.827  20.686 -0.1977 -0.4469 -0.1424
28219W        W34669  25.500   1.249  34.519  0.0727  0.1077  0.2350
28220W        W34670   3.410   4.836  11.975  0.1536  0.2921 -0.0279
28221W        W34671   0.908   5.659   7.608 -0.1114  0.1259  0.0081
28222W        W34672  15.849   2.812   0.268 -0.0390 -0.3993 -0.0780
28223W        W34673  14.253   6.591   6.603  0.2238  0.1127  0.1924
28224W        W34674  19.024   2.720  20.772 -0.1242  0.4337  0.1630
28225W        W34675  19.878   1.540   1.249 -0.0492 -0.3460 -0.0635
28226W        W34676  17.718   0.828  28.956  0.4693 -0.0907  0.0599
28227W        W34677   6.729   2.533  31.008 -0.2430 -0.1888  0.0044
28228W        W34678   6.418   4.054  29.274 -0.2839 -0.1161 -0.1359
28229W        W34679   6.969   4.263   3.593 -0.0582  0.2380 -0.0213
28230W        W34680  21.759   0.627  31.503 -0.0535 -0.1815  0.2242
28231W        W34681  25.307   2.763  12.547 -0.3077  0.0299 -0.1062
28232W        W34682  12.862   1.214  25.069  0.2758  0.1222  0.0578
28233W        W34683   1.569   5.796  13.858  0.0159  0.0083 -0.0969
28234W        W34684   8.027   6.353  28.714 -0.2827  0.2304  0.0329
28235W        W34685   7.830   0.588  23.077 -0.4099  0.0417  0.2894
28236W        W34686   8.678   2.059   4.109  0.0982 -0.0545 -0.2526
28237W        W34687  14.016   4.452  31.633  0.1288  0.1090 -0.0456
28238W        W34688  17.700   4.402  33.358 -0.1830  0.0331  0.0868
28239W        W34689  16.026   0.637  12.628 -0.0023  0.0029  0.0985
28240W        W34690  10.695   3.086  27.175 -0.1312  0.2120  0.2774
28241W        W34691  15.458   5.720   6.505  0.1204  0.1243  0.3549
28242W        W34692  10.815   5.732  28.776 -0.1559  0.2155  0.0556
28243W        W34693  11.781   0.838  30.481 -0.0126  0.2053 -0.0485
28244W        W34694   2.165   1.415   0.263  0.1989  0.0193  0.1632
28245W        W34695  24.495   4.183   9.780  0.0114  0.0341 -0.1236
28246W        W34696   9.086   4.716  21.775  0.1548 -0.0980  0.0166
28247W        W34697   2.116   5.041  25.437 -0.0389  0.0385 -0.0405
28248W        W34698  16.016   0.731  26.578  0.1636 -0.2007  0.3471
28249W        W34699   5.809   3.661  30.807 -0.0478  0.1363 -0.0503
28250W        W34700  26.118   5.743  28.500 -0.0570 -0.2854  0.3577
28251W        W34701   9.766   4.055  22.058 -0.1061 -0.2674 -0.1849
28252W        W34702  19.786   4.311  32.360  0.0732  0.3104  0.1606
28253W        W34703  24.788   2.693  11.668 -0.3411 -0.1652  0.0906
28254W        W34704  11.627   2.899   6.871  0.2859 -0.0824 -0.0160
28255W        W34705  11.274   2.028  26.397  0.0802  0.0852  0.1452
28256W        W34706  25.960   3.459   3.223 -0.1534 -0.0549  0.2053
28257W        W34707   2.593   5.660  35.828 -0.0182  0.2860 -0.0445
28258W        W34708  20.553   1.448  26.367  0.0306 -0.2254  0.4248
28259W        W34709  18.070   2.772   2.824 -0.2303  0.1831  0.3250
28260W        W34710   3.586   2.450  31.953 -0.2277 -0.0623 -0.1125
28261W        W34711  21.592   6.271  35.566 -0.0426  0.2402  0.2604
28262W        W34712   0.724   3.850   5.059 -0.0925 -0.0775 -0.3243
28263W        W34713  13.791   3.447  36.010  0.0638  0.0075  0.2014
28264W        W34714   3.419   4.401  22.651 -0.3274  0.1751  0.0697
28265W        W34715   2.261   5.227  27.647  0.1874  0.2133  0.1621
28266W        W34716   9.784   1.137   6.655  0.0484 -0.1479 -0.3444
28267W        W34717  18.375   1.701  12.875 -0.0657  0.0782  0.1288
28268W        W34718   5.141   2.754  31.993 -0.0302  0.2369  0.2920
28269W        W34719   1.201   3.407  14.072 -0.0613 -0.0383  0.0075
28270W        W34720  26.231   2.132   9.419  0.3208 -0.2716  0.4258
28271W        W34721  23.097   2.659  27.998  0.2074 -0.1678 -0.1216
28272W        W34722   1.651   1.873  35.660  0.3268 -0.0647  0.2737
28273W        W34723   5.824   6.270  35.924  0.1217 -0.0139  0.0106
28274W        W34724   7.255   2.076  30.502  0.0063 -0.0003  0.1959
28275W        W34725   6.352   6.056  22.083  0.0622 -0.0597 -0.0411
28276W        W34726   9.232   1.478  13.641 -0.1139 -0.4963 -0.1681
28277W        W34727   2.282   4.498   4.522 -0.0251 -0.1435  0.2304
28278W        W34728  21.375   2.779   2.472  0.1732  0.2474 -0.1584
28279W        W34729  10.492   0.165   8.898  0.1315  0.1335 -0.0090
28280W        W34730   7.002   2.325  33.291 -0.1909 -0.1041 -0.0574
28281W        W34731  22.056   0.815  31.920 -0.1976  0.0213  0.0430
28282W        W34732  21.679   4.653  28.941  0.0375  0.0117  0.0291
28283W        W34733  23.673   5.867  20.656  0.2767 -0.0387 -0.1405
28284W        W34734  16.863   5.599   3.096 -0.3589 -0.1417  0.0801
28285W        W34735  13.732   5.440  34.060  0.0182 -0.0775  0.1872
28286W        W34736  15.996   0.865   9.707 -0.0083 -0.1533 -0.1220
28287W        W34737   2.707   6.219  12.606 -0.3237 -0.0875  0.1852
28288W        W34738  22.533   1.911  27.601  0.2430 -0.0730  0.2761
28289W        W34739   6.484   1.518  28.707 -0.4167 -0.3690 -0.0921
28290W        W34740   4.617   0.625  35.166  0.4172 -0.2004 -0.0795
28291W        W34741  21.748   5.247  31.297  0.0425 -0.0139  0.0566
28292W        W34742  15.315   5.732  27.504  0.2317 -0.1143 -0.0081
28293W        W34743  22.607   4.211  27.151 -0.0306  0.0430 -0.0633
28294W        W34744  14.585   3.823  34.777 -0.1278 -0.2088 -0.1581
28295W        W34745  21.927   4.968   3.664 -0.1863 -0.4549 -0.1786
28296W        W34746  12.472   4.170  25.458 -0.1568 -0.0361 -0.0703
28297W        W34747  20.402   5.982  23.258  0.0579 -0.0098  0.1450
28298W        W34748   2.122   3.299  29.288 -0.4114 -0.1866 -0.1322
28299W        W34749  23.616   2.101  20.315  0.2789 -0.0679  0.0038
28300W        W34750   4.868   5.512  25.924  0.2155  0.0035  0.0744
28301W        W34751  18.753   1.085  20.933 -0.0049 -0.0535  0.2769
28302W        W34752   0.603   5.756  26.144 -0.1553  0.1363  0.2938
28303W        W34753  11.506   1.524  26.216 -0.0010  0.1515  0.0217
28304W        W34754   7.598   5.061  11.738 -0.0710  0.1138  0.1811
28305W        W34755   0.343   3.516   8.360 -0.0196  0.4516  0.0964
28306W        W34756  15.570   1.630  33.511 -0.0247  0.0667  0.1000
28307W        W34757   6.427   4.949  22.651 -0.4126 -0.0486  0.3850
28308W        W34758  25.263   2.980  21.509  0.0337 -0.2830 -0.2652
28309W        W34759  22.961   2.621  23.541  0.2309  0.1164  0.0260
28310W        W34760  25.412   0.973  11.059 -0.1821 -0.0808  0.0377
28311W        W34761  23.472   1.769  24.941  0.0292 -0.1554  0.1683
28312W        W34762  17.954   2.555  22.513 -0.0176  0.1807 -0.3359
28313W        W34763  13.440   3.361   4.694 -0.0095  0.2794  0.0088
28314W        W34764  21.918   1.189  35.715  0.0640  0.1483 -0.0268
28315W        W34765  11.745   3.287  27.139 -0.1399  0.1284  0.0641
28316W        W34766  25.477   0.271  30.390  0.0505 -0.4770 -0.1927
28317W        W34767  19.896   3.476  11.065  0.3104 -0.0890  0.2211
28318W        W34768   8.541   2.884  23.668 -0.0475 -0.1510 -0.2600
28319W        W34769  23.480   6.219   6.218  0.0755 -0.1034 -0.0907
28320W        W34770  11.803   1.796  26.503 -0.2108 -0.2707  0.1522
28321W        W34771   6.519   1.529  31.756 -0.1062 -0.0541 -0.2018
28322W        W34772   8.076   5.135  10.014  0.1552 -0.0284  0.1320
28323W        W34773   3.651   0.093   4.470 -0.0914  0.2062  0.1521
28324W        W34774  24.262   0.875  28.965  0.0973 -0.0871  0.1292
28325W        W34775  13.727   5.679  27.590 -0.0197 -0.3490 -0.2170
28326W        W34776  17.601   2.307  22.185 -0.0980 -0.0077 -0.0941
28327W        W34777  23.975   0.476  24.603  0.1349 -0.0993  0.1540
28328W        W34778  14.619   4.119   2.156 -0.2925  0.1647 -0.3462
28329W        W34779   1.860   0.593   9.656 -0.1754 -0.0235 -0.0986
28330W        W34780   6.342   3.628  33.369 -0.0740 -0.2119  0.1234
28331W        W34781   7.535   5.855  13.835 -0.0641  0.0615 -0.0320
28332W        W34782  18.295   1.936   1.189 -0.0031 -0.0205  0.1055
28333W        W34783  12.415   0.522   2.709  0.1746 -0.0544 -0.2806
28334W        W34784   3.281   1.140  30.215  0.2268  0.2260  0.1188
28335W        W34785  13.439   2.622  28.579 -0.3029  0.0490 -0.0225
28336W        W34786   9.793   5.094  13.492 -0.0246  0.2017  0.0802
28337W        W34787  14.729   4.497   6.297  0.1098 -0.0129  0.1297
28338W        W34788  11.506   6.566  14.080  0.2191  0.3238 -0.1290
28339W        W34789  16.254   0.157  24.776 -0.1838  0.0409 -0.0417
28340W        W34790   3.832   4.337  21.723  0.1202 -0.0361 -0.2719
28341W        W34791   2.489   3.192  12.441 -0.0950 -0.0274  0.1513
28342W        W34792  13.864   6.481  24.117  0.2761  0.1799  0.5816
28343W        W34793   8.782   5.750  15.539 -0.0055  0.0015 -0.1821
28344W        W34794   2.514   6.491  34.947 -0.0183 -0.0014 -0.1813
28345W        W34795  25.148   5.942  30.882 -0.0101  0.1756 -0.2920
28346W        W34796  11.088   0.696  21.283 -0.1067  0.0961  0.1103
28347W        W34797  17.785   4.099   4.466  0.1936  0.3652  0.0395
28348W        W34798   5.856   6.490  26.208  0.1211 -0.2306 -0.1985
28349W        W34799  18.925   3.915  30.319  0.0579 -0.2360  0.2575
28350W        W34800   1.540   0.894   9.162  0.2288  0.0907 -0.0307
28351W        W34801   2.046   0.308  10.951  0.1293  0.0219 -0.2458
28352W        W34802  16.648   3.869  21.558 -0.0426 -0.0552 -0.0834
28353W        W34803  11.386   0.657   7.358  0.0279  0.0030 -0.0525
28354W        W34804   0.584   3.527  10.729  0.3462 -0.1476 -0.0760
28355W        W34805   7.247   4.365   7.304 -0.0082 -0.4978  0.1551
28356W        W34806   6.377   5.162  29.100  0.0481  0.0330  0.2515
28357W        W34807  14.576   4.269  34.896  0.0072  0.2265 -0.0977
28358W        W34808   2.158   6.062  12.855 -0.0101  0.0112  0.0091
28359W        W34809  22.191   6.255  30.142  0.0264 -0.1222 -0.0287
28360W        W34810  22.121   3.139  30.491 -0.0173  0.2390 -0.0580
28361W        W34811   5.217   3.318   1.787 -0.0189 -0.1024 -0.1885
28362W        W34812  20.565   3.038   9.755 -0.2145 -0.1593  0.1149
28363W        W34813   6.455   5.953   4.187 -0.0482 -0.2179 -0.0536
28364W        W34814  13.221   3.303  25.516 -0.1387  0.3856 -0.2221
28365W        W34815  11.080   2.672  24.148 -0.2463  0.0974 -0.3690
28366W        W34816   5.448   0.591  28.007  0.3214  0.1890  0.0255
28367W        W34817  24.142   3.497  31.544  0.3805  0.1601 -0.2480
28368W        W34818  24.445   3.679   1.897 -0.0246 -0.1603 -0.4879
28369W        W34819   3.467   0.626  31.042 -0.3567 -0.2424  0.1817
28370W        W34820  15.669   0.620   7.035  0.2748 -0.2310 -0.0173
28371W        W34821  20.597   0.625  12.358  0.2093 -0.2373  0.0145
28372W        W34822  16.560   4.244   0.275  0.0083 -0.1120 -0.2172
28373W        W34823  15.237   5.023  21.045  0.3623 -0.2932 -0.1479
28374W        W34824  25.132   0.284  13.491  0.4177  0.1895 -0.0022
28375W        W34825   2.390   0.358  31.969 -0.0965  0.1279 -0.1145
28376W        W34826  14.462   4.209  21.907  0.0985  0.2845  0.1567
28377W        W34827   7.176   0.243   3.949  0.1215 -0.0442 -0.0817
28378W        W34828  26.419   1.477  13.638  0.4187 -0.2476  0.0962
28379W        W34829  15.644   0.199  14.342  0.0517  0.1494  0.2394
28380W        W34830  18.441   3.957  34.890  0.0793  0.1712  0.1794
28381W        W34831  19.719   2.457  29.653  0.3038  0.0039  0.1645
28382W        W34832   5.711   0.508   0.558 -0.0032  0.1050  0.2422
28383W        W34833  23.235   0.640  13.707 -0.1772 -0.2128  0.0242
28384W        W34834   1.102   5.667  25.923 -0.0155  0.0118  0.0881
28385W        W34835  18.814   4.284  31.633  0.1836  0.2167 -0.0827
28386W        W34836   6.036   4.817  34.771 -0.0651 -0.0141 -0.2123
28387W        W34837  13.157   4.948  26.874  0.1353  0.1815  0.0521
28388W        W34838  10.648   2.441   6.813  0.1164  0.0119 -0.3914
28389W        W34839  10.012   2.041  20.924  0.1203 -0.0371 -0.2350
28390W        W34840  25.578   1.158   3.088 -0.1551  0.3099 -0.0262
28391W        W34841   0.369   5.494  20.323  0.0483  0.0965  0.2103
28392W        W34842  10.886   5.762  35.104  0.3642 -0.1268 -0.0872
28393W        W34843   6.324   1.923  32.032 -0.2366 -0.1280 -0.0809
28394W        W34844  17.813   5.831   5.867 -0.0687 -0.2573  0.4519
28395W        W34845  20.785   4.939   1.929 -0.0716  0.0775 -0.3555
28396W        W34846  19.918   3.822  28.853  0.2731  0.0021  0.1244
28397W        W34847  23.187   1.936  13.158 -0.2407 -0.1275  0.0432
28398W        W34848  20.253   5.872  12.464  0.1763 -0.1164 -0.1758
28399W        W34849   3.164   1.949  13.851  0.2123 -0.0013  0.1152
28400W        W34850  10.095   1.987  30.649  0.1503 -0.4602 -0.0665
28401W        W34851   8.179   5.391   6.405 -0.2105 -0.0474 -0.0839
28402W        W34852  21.350   0.768  36.140 -0.0246  0.0208 -0.0913
28403W        W34853   3.602   6.189   4.928  0.0247 -0.1338 -0.1912
28404W        W34854  24.943   2.085  34.852  0.2277 -0.2282 -0.2439
28405W        W34855  25.052   0.680  13.183 -0.0524 -0.3274 -0.1686
28406W        W34856  20.180   1.522  32.849  0.1943  0.2308 -0.1684
28407W        W34857  16.956   5.931   0.361  0.1919 -0.0508 -0.2228
28408W        W34858  22.179   4.715  35.766  0.3277 -0.0757  0.0720
28409W        W34859   3.521   0.115  26.880  0.0682 -0.0236  0.0058
28410W        W34860  19.555   4.954  11.268 -0.0734  0.0944  0.0500
28411W        W34861   4.378   3.268  35.017  0.2666  0.1482 -0.3137
28412W        W34862  12.196   0.400   1.743  0.1460 -0.0246 -0.2768
28413W        W34863  17.363   4.738  31.399 -0.0305  0.1833  0.1757
28414W        W34864  19.019   5.172  13.536  0.2144  0.1820 -0.1365
28415W        W34865  26.138   0.370   7.028 -0.0906 -0.1032  0.2676
28416W        W34866   3.957   3.511   7.330 -0.4345 -0.1172 -0.1564
28417W        W34867   0.490   6.577   1.233  0.1467  0.0195  0.0254
28418W        W34868   2.755   3.950  27.504 -0.0563  0.0984  0.1373
28419W        W34869  13.080   5.793  13.294  0.1894  0.2508  0.3419
28420W        W34870  24.800   5.071  30.256 -0.2464 -0.0822  0.0863
28421W        W34871  22.714   2.585  12.246 -0.0605  0.2351  0.0239
28422W        W34872  14.237   2.906  35.377  0.1046 -0.0506 -0.0559
28423W        W34873   9.184   0.906   6.327 -0.1769  0.0001 -0.1600
28424W        W34874  12.783   1.072   6.928 -0.1710 -0.0972  0.1640
28425W        W34875  15.784   1.606  10.932  0.2194  0.2188 -0.0946
28426W        W34876   5.383   3.844  22.439 -0.3780 -0.0312  0.0124
28427W        W34877   3.177   0.211   9.457  0.1646 -0.2631 -0.3112
28428W        W34878  12.822   0.791  23.945  0.1003 -0.2540 -0.1809
28429W        W34879  18.906   3.067  15.592  0.1842 -0.2379 -0.0767
28430W        W34880  12.014   4.903  35.558 -0.0184 -0.0844 -0.1669
28431W        W34881   4.341   0.319  11.863  0.0189  0.0970  0.0467
28432W        W34882  10.359   0.356   4.770  0.0796  0.1016 -0.0770
28433W        W34883  12.434   6.241   0.620 -0.0308  0.2222 -0.0231
28434W        W34884   0.134   3.667  22.631 -0.1320  0.1391  0.1944
28435W        W34885  17.210   5.156  33.401 -0.0927  0.3953  0.2319
28436W        W34886   3.348   5.564  25.085 -0.1929  0.1619 -0.4321
28437W        W34887   1.897   5.938  33.878  0.1661 -0.0501 -0.0771
28438W        W34888   8.248   1.359   2.520  0.0328 -0.1281 -0.0369
28439W        W34889  10.507   5.829  27.784  0.1619 -0.1332 -0.2222
28440W        W34890  15.701   4.339  13.609 -0.0095  0.1572 -0.0873
28441W        W34891   6.589   2.788   3.393 -0.1692  0.0729 -0.2249
28442W        W34892  16.633   5.084   2.646 -0.0558  0.2150  0.2158
28443W        W34893   5.717   1.450   2.223 -0.1232  0.3138 -0.2049
28444W        W34894   8.382   6.355   0.636  0.1139  0.0338 -0.1985
28445W        W34895  20.589   1.060  31.908 -0.0637  0.2724  0.0695
28446W        W34896  19.433   3.061   2.968  0.1467 -0.0195 -0.0904
28447W        W34897   1.280   0.506   9.288  0.1034 -0.0526 -0.2518
28448W        W34898  14.281   2.236  34.410  0.1827  0.1542 -0.3427
28449W        W34899  12.282   0.102  33.114 -0.3518 -0.1645 -0.1324
28450W        W34900   4.492   2.524   9.602 -0.1035 -0.0599  0.4451
28451W        W34901   6.133   1.478  25.023  0.2099  0.0002  0.0139
28452W        W34902  10.451   2.323  12.163  0.1849 -0.4136 -0.0729
28453W        W34903   9.077   3.170  27.372 -0.0005 -0.2995  0.0887
28454W        W34904   3.617   4.229  24.626  0.3098 -0.1809 -0.0722
28455W        W34905   7.264   6.001  33.697  0.1522 -0.1501  0.1073
28456W        W34906  26.069   5.149  33.873 -0.1141 -0.1154  0.0777
28457W        W34907  13.521   5.633  13.445 -0.0932 -0.3749  0.3003
28458W        W34908   1.088   1.887  29.968  0.1079 -0.0324 -0.0018
28459W        W34909  22.312   3.757  31.753 -0.0360 -0.0320 -0.2458
28460W        W34910  10.337   2.763  34.663  0.1291  0.1004 -0.1361
28461W        W34911  23.213   6.358  30.935 -0.3437  0.1278 -0.1332
28462W        W34912  14.800   0.580  10.997 -0.0547 -0.1734  0.2045
28463W        W34913   6.712   2.039  27.277 -0.0031 -0.2150  0.2556
28464W        W34914  16.817   3.587  14.166  0.1455  0.1335 -0.0031
28465W        W34915   1.641   0.036   2.523 -0.3248 -0.0971  0.1015
28466W        W34916  19.040   1.639  10.849 -0.0324 -0.0438  0.2492
28467W        W34917  12.490   5.447  32.640  0.2721  0.0924 -0.2475
28468W        W34918  11.511   4.366  11.733 -0.1571  0.0805 -0.2416
28469W        W34919  23.507   6.559  35.267  0.0367 -0.0928 -0.0856
28470W        W34920  20.479   2.407   5.252  0.0930 -0.1096 -0.0659
28471W        W34921  26.338   3.660  22.189  0.1481  0.0031  0.1026
28472W        W34922   9.406   1.389  31.617  0.0584  0.0405 -0.0428
28473W        W34923  10.453   5.207   7.926 -0.2210  0.2289  0.2644
28474W        W34924   9.559   1.693   8.457 -0.2328  0.0294  0.0944
28475W        W34925   2.314   3.031  14.026  0.0127  0.2626 -0.1759
28476W        W34926  25.168   0.429  33.108  0.1760  0.0818 -0.0485
28477W        W34927  11.736   3.779  15.250 -0.1006 -0.1428 -0.1595
28478W        W34928  21.445   1.812  25.571 -0.0451  0.1826 -0.0403
28479W        W34929   8.197   4.776   5.330  0.0552  0.0902  0.2863
28480W        W34930   8.403   3.653  27.109  0.0132  0.1271 -0.2997
28481W        W34931  23.266   6.514   2.558 -0.0465 -0.0911  0.0839
28482W        W34932  11.440   5.108  31.729  0.0621 -0.7388 -0.1168
28483W        W34933   2.178   5.383  34.641 -0.1100 -0.1020  0.0763
28484W        W34934  13.832   2.676  31.623  0.0770  0.2418  0.0436
28485W        W34935   5.154   5.201   3.700  0.1795 -0.1719 -0.3692
28486W        W34936  26.144   5.181  22.515  0.1455  0.0652 -0.0226
28487W        W34937   7.346   0.735  32.447  0.0944  0.1768 -0.0338
28488W        W34938   7.731   2.717   6.751 -0.1945  0.1903 -0.3117
28489W        W34939  11.343   4.916  32.197 -0.0749 -0.2052  0.0026
28490W        W34940  16.526   3.558  21.897  0.0806 -0.0011 -0.0819
28491W        W34941   2.789   5.169  20.856 -0.1559  0.0468 -0.2225
28492W        W34942  18.404   2.831   5.119 -0.1566 -0.2631  0.2062
28493W        W34943  24.834   5.992  24.065  0.0776  0.2148  0.1349
28494W        W34944  14.340   0.237   7.426  0.0581  0.0097 -0.1861
28495W        W34945   1.401   3.202  35.611  0.3366  0.1211 -0.0519
28496W        W34946   9.024   2.389  26.898 -0.3370 -0.0979  0.0361
28497W        W34947   4.895   0.663  22.165  0.2390  0.1700 -0.2093
28498W        W34948   4.155   4.377  10.331  0.1516 -0.2076  0.0585
28499W        W34949   3.789   0.811  14.443  0.0306  0.0623 -0.0599
28500W        W34950  15.291   3.507  34.961  0.3019 -0.0256 -0.0310
28501W        W34951  20.436   3.263   8.372  0.1961 -0.1792  0.1234
28502W        W34952  11.988   6.022  29.237 -0.2551  0.2543  0.0146
28503W        W34953  24.612   6.517  28.745  0.4188  0.1903 -0.1401
28504W        W34954  12.019   0.817  13.509  0.0017 -0.0677 -0.0242
28505W        W34955  17.902   2.233   4.794 -0.2071  0.0398  0.2311
28506W        W34956  19.542   1.794   4.603 -0.2422 -0.3018 -0.1316
28507W        W34957  17.017   4.447  12.433  0.0775 -0.2591 -0.2507
28508W        W34958   2.310   3.426   2.642  0.1479 -0.2703 -0.2589
28509W        W34959  23.169   5.448   8.610  0.0860  0.0348 -0.0186
28510W        W34960  22.077   6.284  28.726  0.2012  0.1451 -0.1105
28511W        W34961  18.807   3.487  25.895  0.2805 -0.0877  0.0018
28512W        W34962   7.279   3.608  10.992  0.0948  0.1137  0.2638
28513W        W34963  11.664   6.066  35.187  0.0436  0.0282 -0.1721
28514W        W34964  14.578   5.706   5.042  0.1105  0.5004  0.1355
28515W        W34965  17.016   1.332  31.154 -0.0145 -0.2112 -0.0387
28516W        W34966  10.931   5.166   6.633  0.2542 -0.0044  0.0961
28517W        W34967  22.573   3.892  10.158  0.0578 -0.1910 -0.4235
28518W        W34968   1.710   0.469  27.165  0.5599  0.0654 -0.0232
28519W        W34969  21.150   5.767  22.420  0.1748 -0.3254 -0.1785
28520W        W34970  21.524   5.733  12.321 -0.3990 -0.0763 -0.1361
28521W        W34971   3.247   5.804   4.308 -0.3039 -0.0881  0.1977
28522W        W34972  10.791   5.373   7.126 -0.0370 -0.0517 -0.1077
28523W        W34973   2.184   1.599   6.793  0.1949  0.0530  0.0205
28524W        W34974  11.551   5.102  14.460  0.0504  0.1377  0.0166
28525W        W34975   5.341   0.108  27.143  0.1482  0.0830 -0.1866
28526W        W34976  10.269   3.622  10.529 -0.4252 -0.1960 -0.1616
28527W        W34977   3.293   3.328  34.255 -0.0812 -0.0362 -0.1341
28528W        W34978   9.982   3.251  10.177  0.1595 -0.3476 -0.1123
28529W        W34979   2.924   5.632  32.436  0.1239 -0.0033 -0.1459
28530W        W34980  19.765   2.853  23.679  0.0583  0.1791  0.1115
28531W        W34981  13.028   3.341   6.633 -0.0158  0.2404 -0.1557
28532W        W34982  15.871   2.387   1.680 -0.0794 -0.2217  0.0913
28533W        W34983   5.457   5.913  33.267 -0.2265  0.2959 -0.0897
28534W        W34984   9.592   1.356  28.025  0.1324 -0.2683 -0.1301
28535W        W34985  13.514   1.322  32.761 -0.2293 -0.1651  0.0461
28536W        W34986   0.954   3.591   6.567  0.2282  0.1718 -0.2080
28537W        W34987   5.284   4.521   4.748 -0.0029  0.1271 -0.0539
28538W        W34988  23.380   3.164   5.976 -0.0566 -0.0481 -0.0634
28539W        W34989   1.323   3.503  29.692 -0.0621 -0.0423  0.0033
28540W        W34990  21.426   4.887   7.495 -0.1364 -0.0378  0.1009
28541W        W34991   3.098   3.543  34.803  0.2440  0.1699 -0.4778
28542W        W34992   1.605   2.249  26.717 -0.0780 -0.0138  0.1597
28543W        W34993  24.580   5.204   4.109  0.1463  0.0344  0.0638
28544W        W34994   0.978   6.200   2.244 -0.0290 -0.2443  0.1513
28545W        W34995   3.606   4.449  32.772 -0.0694  0.1689 -0.2588
28546W        W34996   5.689   4.014  33.972 -0.2241  0.1307  0.0574
28547W        W34997  24.597   4.577  22.589  0.3449 -0.1212 -0.3007
28548W        W34998  22.454   5.627  13.407 -0.0428 -0.1631  0.0378
28549W        W34999   4.611   1.434   4.471  0.0184 -0.1021  0.2362
28550W        W35000  20.047   5.869  13.281 -0.0899 -0.2845 -0.3543
28551W        W35001  19.450   4.182  26.014  0.0932 -0.1540 -0.2732
28552W        W35002   2.314   2.417   4.174 -0.0928  0.0587  0.2157
28553W        W35003  23.204   0.986   1.145  0.0970 -0.1305 -0.2244
28554W        W35004  25.251   5.376   8.335  0.2377 -0.0471  0.3762
28555W        W35005   6.956   0.298  22.931 -0.1005  0.2052 -0.2164
28556W        W35006  13.044   6.161  28.695 -0.1091 -0.1033  0.1843
28557W        W35007  17.946   0.854   6.947 -0.1395 -0.2695 -0.1646
28558W        W35008  13.865   5.617  31.380 -0.0509  0.0602  0.0059
28559W        W35009  14.897   3.063  31.478  0.0481 -0.0326 -0.1182
28560W        W35010  23.951   3.581  35.717  0.2377  0.1201 -0.2533
28561W        W35011   5.999   4.936  12.548  0.1252 -0.1239 -0.1646
28562W        W35012  19.710   2.338  12.577  0.0272  0.0492 -0.1242
28563W        W35013   3.325   2.247  13.210 -0.3639 -0.0096  0.0917
28564W        W35014  22.027   6.345  32.812  0.1724  0.2121 -0.0866
28565W        W35015   8.257   0.151  34.081  0.3428  0.0912  0.2566
28566W        W35016  23.955   3.760   1.314  0.1184  0.0665 -0.0252
28567W        W35017  25.499   5.715   6.885  0.2904  0.0702  0.1314
28568W        W35018  21.707   1.920  31.017  0.1510 -0.2459 -0.1254
28569W        W35019  13.023   0.026  33.033 -0.0752 -0.0495 -0.1703
28570W        W35020  13.060   0.260  24.654 -0.1852  0.0882 -0.1653
28571W        W35021  15.698   6.299  12.975  0.2799  0.0359  0.0678
28572W        W35022  12.375   3.426   4.675  0.0140 -0.0419 -0.0772
28573W        W35023  11.961   2.429   0.469 -0.0734  0.2320  0.0896
28574W        W35024  18.913   5.845  30.551  0.0861  0.1637 -0.0954
28575W        W35025  17.558   0.975  32.075  0.1171 -0.0537 -0.3485
28576W        W35026  14.181   4.887  35.085  0.2376  0.1391 -0.1271
28577W        W35027   5.002   0.893   0.862 -0.0554 -0.1009  0.1567
28578W        W35028   5.586   0.687   5.766 -0.1331 -0.0712  0.0377
28579W        W35029  25.054   0.623   3.783  0.1354 -0.4666  0.1398
28580W        W35030   7.509   1.908   1.858  0.0097  0.3075  0.4462
28581W        W35031  16.905   1.754   6.114  0.0640 -0.0913  0.0015
28582W        W35032   6.723   0.874  35.495 -0.1260  0.0651 -0.2488
28583W        W35033   8.357   4.925  14.096 -0.0057 -0.1293 -0.1610
28584W        W35034  17.468   0.727  33.448 -0.0445  0.0570  0.0268
28585W        W35035   7.199   6.298  32.019  0.1491 -0.3418  0.0510
28586W        W35036   0.315   3.894  32.174  0.2397  0.0794 -0.3431
28587W        W35037  24.238   1.792  14.677  0.0454  0.2023  0.1433
28588W        W35038  24.606   2.608  20.083  0.0956  0.0810  0.1200
28589W        W35039  24.825   4.522  29.432 -0.2826  0.3374 -0.0950
28590W        W35040   6.034   3.075  21.158  0.2099  0.1102 -0.1044
28591W        W35041  14.223   2.251  28.734 -0.0343 -0.0874  0.1170
28592W        W35042   0.983   3.030  33.553  0.4340 -0.2553 -0.0722
28593W        W35043   5.470   1.216  20.694  0.1632 -0.1040  0.2484
28594W        W35044  16.006   1.363  26.108  0.0199  0.2359  0.1563
28595W        W35045  15.705   1.191  29.193 -0.1166  0.0977  0.2903
28596W        W35046  15.107   0.426  13.458  0.2265  0.0935 -0.3211
28597W        W35047   7.280   2.574  28.133  0.0169  0.0275  0.1861
28598W        W35048  25.453   3.462   4.826 -0.1059  0.0514  0.2009
28599W        W35049   0.416   0.227   9.499 -0.1312 -0.0862  0.1704
28600W        W35050   1.015   4.494   2.741  0.0648  0.1119  0.0673
28601W        W35051  11.903   3.563   4.700  0.3888  0.1096 -0.0852
28602W        W35052  21.795   4.401   8.500 -0.1071 -0.1477 -0.1283
28603W        W35053  18.248   3.112   0.565 -0.2439 -0.0586  0.0365
28604W        W35054   9.587   2.546  13.184  0.0552 -0.2803  0.0810
28605W        W35055   1.897   0.845   8.556 -0.0526  0.0483  0.2336
28606W        W35056  21.271   3.052   5.227 -0.1913  0.2842 -0.0135
28607W        W35057   5.486   3.621  14.974 -0.1342  0.0202 -0.0658
28608W        W35058  20.279   2.011   5.549 -0.1009  0.4524  0.0436
28609W        W35059   2.207   1.951   3.121  0.2795  0.1680 -0.1279
28610W        W35060  26.412   4.992   2.732 -0.2270  0.0861 -0.2478
28611W        W35061  14.232   2.771   9.330  0.0535  0.1680  0.0156
28612W        W35062   0.748   1.994  23.296 -0.0422  0.0574  0.0082
28613W        W35063  11.677   0.323  13.361  0.2485 -0.2301  0.1845
28614W        W35064  14.548   4.864  32.857 -0.3032 -0.0106 -0.1858
28615W        W35065  20.493   1.886   2.210  0.2485  0.2309  0.1813
28616W        W35066   6.063   6.097  11.254 -0.0558  0.1752 -0.0150
28617W        W35067  20.747   3.627  32.722 -0.0715 -0.0094  0.1680
28618W        W35068   6.623   4.954  15.379  0.0033 -0.1644  0.3649
28619W        W35069  13.974   0.812  32.188 -0.0953  0.1072 -0.2575
28620W        W35070   0.169   5.563  10.690 -0.1106 -0.1915 -0.2653
28621W        W35071  19.835   6.500  28.918  0.2540 -0.0606  0.0765
28622W        W35072   8.634   4.897  32.042  0.2394  0.0553 -0.3573
28623W        W35073   8.274   3.504   3.728  0.0727 -0.1597 -0.4944
28624W        W35074   8.812   0.664   2.796 -0.1382 -0.0124  0.3147
28625W        W35075  22.757   4.459   6.686 -0.0645 -0.2157 -0.1318
28626W        W35076  12.882   4.775   3.783 -0.0434  0.3270  0.3004
28627W        W35077  18.737   6.325  15.425 -0.1701 -0.2548 -0.0751
28628W        W35078   7.029   2.442  31.678 -0.0694  0.1137 -0.0673
28629W        W35079  14.890   1.183  32.693 -0.2501 -0.2791 -0.1604
28630W        W35080  16.374   2.280  29.929 -0.1777  0.0732 -0.0783
28631W        W35081  22.103   6.110  34.204 -0.1776 -0.1544  0.0736
28632W        W35082  18.450   5.838  31.346 -0.2044  0.0132  0.3154
28633W        W35083  16.493   1.736   0.707 -0.2830  0.1137  0.0320
28634W        W35084   7.276   4.710  21.644  0.2841  0.2762 -0.2303
28635W        W35085   1.070   5.040  22.840 -0.2846  0.1469  0.1313
28636W        W35086  11.950   2.415   1.581  0.2164  0.1329  0.4158
28637W        W35087  11.248   1.844  14.733  0.1341 -0.0424  0.1641
28638W        W35088  10.894   5.620  31.046 -0.0956  0.0947 -0.0644
28639W        W35089  20.081   2.354   7.907  0.0385  0.0026  0.0853
28640W        W35090   4.125   0.051  33.901 -0.1705  0.0181  0.0329
28641W        W35091  22.732   1.987  11.454 -0.0848 -0.2235 -0.1968
28642W        W35092  18.503   6.155  28.558  0.0039  0.2236 -0.0843
28643W        W35093  15.504   5.959  12.621  0.0052 -0.3786  0.0313
28644W        W35094   4.030   0.706  31.353 -0.1883  0.0205  0.2670
28645W        W35095   9.751   4.989  31.008  0.3209  0.0902 -0.1852
28646W        W35096  23.412   5.791  35.049 -0.1508 -0.0417  0.0778
28647W        W35097  12.488   0.729   4.645 -0.1488  0.1064 -0.0732
28648W        W35098   0.154   5.037   6.683 -0.2012  0.3020 -0.0011
28649W        W35099  19.752   0.190   9.280 -0.3283  0.0787 -0.0807
28650W        W35100   6.119   2.085  23.493 -0.0974  0.0342  0.1151
28651W        W35101   0.102   2.218  29.415 -0.1895  0.1164  0.1435
28652W        W35102   6.212   2.231  33.779  0.3939 -0.2736  0.1067
28653W        W35103   4.459   1.682  34.604  0.4408 -0.1527  0.0961
28654W        W35104   5.367   0.620  26.249 -0.0698 -0.2195 -0.1251
28655W        W35105   8.023   4.153   6.766 -0.0071 -0.1598  0.0106
28656W        W35106  12.339   0.647   1.291  0.1026 -0.2963  0.0300
28657W        W35107  16.082   4.717  26.517 -0.1114 -0.1722 -0.0330
28658W        W35108  17.838   2.975   1.434  0.0668 -0.2484 -0.2974
28659W        W35109  10.018   6.036  23.994  0.0512 -0.0236  0.0350
28660W        W35110  18.163   1.819  26.854  0.0456 -0.0962  0.0670
28661W        W35111  13.050   0.340   7.713  0.2199  0.1353  0.0676
28662W        W35112  16.589   4.156  29.910  0.1302 -0.2439  0.1013
28663W        W35113  10.385   0.805  31.794 -0.0084 -0.0189 -0.1730
28664W        W35114  10.550   5.324  33.184 -0.0961  0.2448  0.1270
28665W        W35115  26.334   5.798  13.570 -0.0706  0.1639  0.1744
28666W        W35116   2.083   3.802  34.145 -0.5054  0.0118  0.1073
28667W        W35117  16.589   4.837   2.073  0.2323 -0.2138 -0.0117
28668W        W35118  11.329   2.289  12.005  0.0391  0.0797 -0.1083
28669W        W35119  11.748   4.719   3.614  0.1711 -0.4732 -0.0496
28670W        W35120  11.623   1.215  30.184 -0.2554 -0.1980 -0.1392
28671W        W35121   8.904   2.560   9.089 -0.3682  0.1789  0.3037
28672W        W35122  15.532   2.648   5.870 -0.0313  0.2152 -0.1045
28673W        W35123  14.199   5.331  34.838  0.1653 -0.1273  0.0125
28674W        W35124  16.946   3.611   4.238 -0.0480 -0.0553  0.1609
28675W        W35125  20.176   0.830  12.645 -0.1151 -0.0875  0.1232
28676W        W35126   9.398   0.629  21.156  0.0804 -0.1945  0.0814
28677W        W35127   4.949   6.311   5.317 -0.3320  0.0189  0.2111
28678W        W35128   7.919   0.361  31.155 -0.3090  0.1117 -0.0683
28679W        W35129  15.457   1.674   4.421  0.0651  0.4935  0.2630
28680W        W35130  15.014   2.853  28.593 -0.0189 -0.1531 -0.1098
28681W        W35131  21.156   4.677  34.346 -0.1347 -0.0966  0.0238
28682W        W35132  21.483   0.906   4.132 -0.0464 -0.0988 -0.2003
28683W        W35133   2.839   5.442  14.752  0.1752  0.2115  0.0186
28684W        W35134   0.556   1.023   8.930  0.0289 -0.2159  0.0664
28685W        W35135  13.623   2.492  10.086 -0.0605  0.1236  0.0785
28686W        W35136  15.943   5.066  24.062  0.2665 -0.1059  0.1634
28687W        W35137   2.119   2.986   0.940 -0.2252 -0.1277  0.2087
28688W        W35138   1.171   1.928  12.088 -0.0479  0.1485 -0.0055
28689W        W35139  10.031   4.808   8.677  0.0215 -0.0195  0.0072
28690W        W35140  17.690   5.102   2.298 -0.2811 -0.1628  0.2438
28691W        W35141  22.720   5.237   3.554  0.0196  0.2836  0.0308
28692W        W35142   4.834   4.558   3.330  0.0439  0.0468  0.2464
28693W        W35143  12.293   1.825  30.223  0.0246 -0.0798  0.1789
28694W        W35144  24.640   3.173  27.267 -0.0271 -0.1291 -0.1131
28695W        W35145   2.442   5.683  22.317 -0.1315 -0.1522 -0.1676
28696W        W35146  23.616   2.541  30.496 -0.0744 -0.1950  0.1335
28697W        W35147  19.235   1.012   3.278 -0.1853 -0.0707  0.1940
28698W        W35148  11.856   4.633  26.534 -0.0452 -0.1786 -0.1872
28699W        W35149   6.803   5.546   8.115 -0.1807 -0.1130 -0.1677
28700W        W35150  19.818   5.878  10.231 -0.1755  0.0591 -0.0277
28701W        W35151  22.155   2.733  21.470 -0.1565 -0.5107 -0.0636
28702W        W35152   6.132   1.581   1.786  0.0954  0.1802 -0.3989
28703W        W35153   9.562   3.353  30.973 -0.3145 -0.1665 -0.0927
28704W        W35154   0.143   2.476  11.398  0.2343  0.2855  0.0273
28705W        W35155   2.355   1.372  35.535 -0.2023 -0.1240 -0.1206
28706W        W35156  23.705   4.870  26.014  0.3486 -0.1307 -0.3984
28707W        W35157  17.648   6.532  26.312 -0.0283  0.2374 -0.2251
28708W        W35158  12.513   3.932  27.012 -0.0601 -0.2806 -0.0701
28709W        W35159  19.463   2.628   2.521 -0.1270 -0.0713 -0.4107
28710W        W35160   1.824   5.809   4.931  0.3942  0.3785  0.2501
28711W        W35161  12.919   5.150  34.799 -0.0083 -0.1513 -0.0996
28712W        W35162   9.605   5.694  24.908  0.3610 -0.2616 -0.0357
28713W        W35163   3.040   4.474   8.942 -0.2413  0.0066 -0.0295
28714W        W35164  25.407   1.802  34.049 -0.0850 -0.1976  0.2475
28715W        W35165  17.859   3.613   5.222 -0.0600  0.0934  0.2237
28716W        W35166  21.213   6.311  15.225  0.2299 -0.2146  0.0903
28717W        W35167  10.543   0.066   5.531 -0.3059 -0.2851 -0.2034
28718W        W35168   7.979   0.719   3.525  0.0251 -0.1036  0.3101
28719W        W35169  20.350   1.693  26.723  0.2691  0.0687  0.0377
28720W        W35170  20.033   5.605  29.228 -0.0233  0.1512 -0.1782
28721W        W35171   4.870   5.511  35.245 -0.0010 -0.0057 -0.0980
28722W        W35172  26.329   2.387  14.701  0.2178  0.0991  0.2455
28723W        W35173  19.913   0.618  22.086  0.1713  0.1544 -0.1593
28724W        W35174   2.293   6.525  12.825  0.1447  0.0861 -0.3533
28725W        W35175  22.884   1.605   9.982  0.0329  0.1102 -0.0596
28726W        W35176   9.726   1.721  20.684  0.0164  0.0908  0.0784
28727W        W35177  11.115   4.744   5.002 -0.0897 -0.0439  0.1852
28728W        W35178  20.937   5.157  31.700  0.1349  0.0328 -0.1052
28729W        W35179   7.618   3.266  32.828  0.1645  0.0944  0.2126
28730W        W35180  21.454   3.053  24.437 -0.2854 -0.1051 -0.2874
28731W        W35181   9.912   0.726  12.594  0.1526 -0.1562 -0.1830
28732W        W35182  12.949   4.827  11.773 -0.0122  0.4401 -0.1686
28733W        W35183  22.696   3.032  12.934 -0.0177  0.0137 -0.1021
28734W        W35184   9.570   3.812  12.205  0.1782 -0.0826 -0.2449
28735W        W35185  20.736   5.858   7.677  0.0451 -0.1856 -0.3710
28736W        W35186  24.470   0.659  22.879 -0.3759  0.2131 -0.0026
28737W        W35187   6.759   5.188   1.214 -0.2221  0.1718  0.0376
28738W        W35188  22.515   3.342  20.287  0.1958 -0.0102 -0.3587
28739W        W35189  22.228   2.765  26.370 -0.0172 -0.0555 -0.2189
28740W        W35190  16.724   4.861  34.604 -0.2545  0.1701 -0.1930
28741W        W35191   3.813   6.077  11.996 -0.1084  0.0308  0.4224
28742W        W35192   1.343   0.879   8.464  0.1433  0.0854 -0.1613
28743W        W35193  18.461   5.001  26.725  0.3607 -0.1442  0.1752
28744W        W35194  22.110   4.418   8.942 -0.3096  0.2934 -0.0685
28745W        W35195  17.925   1.682  34.401 -0.0921 -0.2102 -0.1961
28746W        W35196  19.183   1.576  31.854  0.2424  0.0332  0.2460
28747W        W35197  18.202   1.306  13.213 -0.4511 -0.1180  0.0015
28748W        W35198  17.916   4.180  35.528  0.2251  0.2588  0.1140
28749W        W35199   9.856   0.448   5.541  0.1826 -0.1798  0.0162
28750W        W35200   0.000   1.177  11.414 -0.1066 -0.0163  0.2861
28751W        W35201  15.816   4.522  31.949  0.3961  0.0355 -0.0415
28752W        W35202   9.256   3.404  23.944  0.0262 -0.2578 -0.2873
28753W        W35203  23.295   2.918  11.680  0.1942 -0.0937  0.0852
28754W        W35204  21.360   5.383  24.024  0.1476  0.1690  0.0932
28755W        W35205  22.772   3.996  22.165  0.2884  0.3429 -0.3091
28756W        W35206  12.654   0.245  35.372  0.0690  0.0238 -0.0972
28757W        W35207  10.370   4.290   1.453  0.2559  0.0475  0.0508
28758W        W35208  17.400   2.550   3.504 -0.2591 -0.2620  0.1148
28759W        W35209   5.517   1.923  10.576  0.0883 -0.0927  0.0239
28760W        W35210  23.827   5.125  13.700  0.1217  0.2840 -0.1787
28761W        W35211  25.611   4.365  35.343  0.1499 -0.2164  0.0319
28762W        W35212  16.253   4.910   6.648  0.1833 -0.1455  0.0895
28763W        W35213  17.718   0.970  29.413  0.5107  0.0001 -0.2083
28764W        W35214   9.050   5.692  14.637  0.1169 -0.3554 -0.1963
28765W        W35215   9.257   0.455  23.433  0.2810 -0.1420  0.1653
28766W        W35216   2.386   4.634  21.659 -0.0089  0.0191  0.0886
28767W        W35217   1.503   5.407  12.713 -0.1405  0.1876  0.0451
28768W        W35218  14.549   5.546   5.597 -0.0754 -0.0953  0.3467
28769W        W35219  23.455   4.772  32.430  0.1427  0.1122  0.1102
28770W        W35220   3.985   1.131  27.226 -0.0274 -0.0753  0.4069
28771W        W35221  20.049   3.998   0.958  0.0608  0.1010 -0.3480
28772W        W35222  13.486   3.934  11.712  0.3790 -0.3503  0.3657
28773W        W35223   7.457   3.545  30.047 -0.2727 -0.4014  0.0572
28774W        W35224  25.965   6.083   2.175  0.3681  0.0691  0.0767
28775W        W35225  17.366   2.042  24.112 -0.2242  0.1221 -0.0704
28776W        W35226  14.495   2.185  31.738  0.1202  0.1171 -0.2069
28777W        W35227   0.412   6.574  10.804  0.0853  0.1382 -0.0262
28778W        W35228  17.461   3.900  30.799  0.3416 -0.0983 -0.2671
28779W        W35229  13.283   0.316   6.812 -0.0044 -0.0317 -0.1158
28780W        W35230   5.378   5.450  36.131  0.1581  0.4049  0.2408
28781W        W35231  25.274   0.859  33.307 -0.0669 -0.0854  0.2653
28782W        W35232  26.390   4.768   5.383  0.1300 -0.0762  0.0797
28783W        W35233   4.896   4.599  11.931  0.2859 -0.1241 -0.0510
28784W        W35234   7.996   5.749   8.754 -0.0411  0.2451  0.1029
28785W        W35235   4.549   4.888  26.845  0.1489  0.0041 -0.0176
28786W        W35236   5.016   0.640  28.567 -0.0240  0.2183 -0.1512
28787W        W35237  23.818   5.600  22.887 -0.1763  0.3022 -0.1611
28788W        W35238  15.817   2.951  23.318 -0.1220  0.0985  0.0177
28789W        W35239  15.934   6.050  12.051 -0.0979 -0.0156  0.0558
28790W        W35240   7.203   2.423   2.702  0.0983 -0.0924  0.1396
28791W        W35241   0.972   3.720  28.206 -0.0338 -0.2492  0.2121
28792W        W35242   1.350   1.468  32.596 -0.0074  0.0902  0.0838
28793W        W35243  25.866   4.525  26.988 -0.0124 -0.0436  0.2639
28794W        W35244  18.021   3.816   2.705  0.0537 -0.1122 -0.0450
28795W        W35245  25.570   0.757  29.360  0.1694  0.0664 -0.1414
28796W        W35246  13.559   6.314  10.872 -0.0412 -0.0470  0.0203
28797W        W35247  24.449   1.339  24.599  0.3551 -0.0541 -0.2784
28798W        W35248   0.859   4.244  30.129  0.0587 -0.1471  0.1185
28799W        W35249  22.833   2.078  21.442  0.1735  0.1237  0.1602
28800W        W35250   2.510   3.217  11.046  0.1298 -0.1513 -0.0351
28801W        W35251  24.408   2.853   8.607 -0.1445 -0.1970 -0.2932
28802W        W35252   2.340   5.897   5.818 -0.0579  0.1624  0.0122
28803W        W35253  11.757   2.335   6.089  0.1129 -0.1588 -0.0851
28804W        W35254   7.183   5.988  11.378  0.2584 -0.0118 -0.0316
28805W        W35255  25.171   1.327  25.254 -0.2212  0.0257  0.0683
28806W        W35256  16.022   4.888  33.493 -0.0989 -0.0868 -0.0451
28807W        W35257  12.473   4.722  31.257  0.0064 -0.1176  0.1038
28808W        W35258   9.421   2.690  20.793 -0.1781 -0.0635 -0.3602
28809W        W35259   4.337   1.131   3.339 -0.2051 -0.2416 -0.0689
28810W        W35260  26.098   5.435  13.294 -0.1294 -0.0785  0.1598
28811W        W35261  25.485   2.931   3.671 -0.2606  0.0007  0.2535
28812W        W35262   6.276   3.750  32.463 -0.3042  0.1258 -0.1408
28813W        W35263   7.763   0.220  25.553 -0.0022  0.1653 -0.0298
28814W        W35264  24.142   2.199   0.605  0.2031 -0.0161  0.2490
28815W        W35265   9.101   0.730   8.775  0.0842  0.1176 -0.2646
28816W        W35266  10.043   2.758  11.509  0.0825  0.1880  0.0795
28817W        W35267  15.312   2.215  28.541  0.0406 -0.2225 -0.1860
28818W        W35268   2.533   1.670  22.737 -0.0332 -0.1965 -0.3471
28819W        W35269   4.792   6.591  24.627  0.0603  0.0659 -0.1353
28820W        W35270   7.860   4.284  31.861  0.0283 -0.0368  0.0375
28821W        W35271  16.484   4.552   2.594 -0.0603  0.1287 -0.0186
28822W        W35272  20.550   2.452   0.832 -0.1148  0.1942 -0.2042
28823W        W35273  11.896   0.184  35.705 -0.1596  0.0257  0.1727
28824W        W35274  20.379   5.869  14.638  0.2938  0.1728 -0.1929
28825W        W35275  24.906   3.644  33.567 -0.0117  0.0771  0.0202
28826W        W35276  17.904   0.318   2.769  0.1957 -0.2866  0.1188
28827W        W35277   5.040   2.864   5.359  0.3236 -0.1466 -0.1105
28828W        W35278  16.498   4.961  12.512 -0.1293 -0.0697  0.1679
28829W        W35279   6.675   2.819  23.872  0.1660 -0.1505  0.0419
28830W        W35280  22.374   3.224  33.631 -0.2130  0.2473 -0.0963
28831W        W35281  16.457   5.284  34.876 -0.1075  0.0681  0.2937
28832W        W35282   9.370   2.118  11.985  0.0321  0.2203  0.0758
28833W        W35283   5.370   3.514   2.790  0.0008  0.0758  0.1257
28834W        W35284   4.936   0.576  21.665 -0.1176 -0.2398 -0.1120
28835W        W35285  11.888   5.400  31.630  0.1517  0.2023  0.2093
28836W        W35286  26.398   4.217   2.554 -0.0895  0.1924 -0.0069
28837W        W35287  16.194   0.448  30.746  0.0225  0.0942 -0.1157
28838W        W35288  24.476   3.657  34.896  0.1430  0.2213 -0.0264
28839W        W35289  17.268   0.612   9.085 -0.0484 -0.0621 -0.0007
28840W        W35290  19.327   4.666  35.712  0.2172 -0.0640  0.0190
28841W        W35291   4.731   4.723  13.989 -0.2911  0.0427  0.2153
28842W        W35292  12.550   4.641  14.950  0.2833 -0.0578  0.0582
28843W        W35293   9.654   2.646  11.179  0.0261 -0.0579 -0.0718
28844W        W35294   5.497   0.044  29.191  0.0810 -0.0049  0.1684
28845W        W35295  13.595   5.571   7.568  0.0897  0.1900 -0.1375
28846W        W35296   4.330   3.488   4.816 -0.1459  0.3410  0.2188
28847W        W35297  20.656   6.098   2.868 -0.0665 -0.1016  0.5383
28848W        W35298  13.814   1.741  31.995  0.2567  0.1014  0.1202
28849W        W35299  17.826   6.396  34.954 -0.1415 -0.0787  0.0185
28850W        W35300  23.204   5.425  32.353  0.0053 -0.1922  0.0679
28851W        W35301   3.742   0.016  25.938  0.1048 -0.1215  0.1512
28852W        W35302  20.373   6.559  32.301 -0.1306  0.0300 -0.0967
28853W        W35303   8.616   3.039   1.590 -0.1239  0.2383 -0.0671
28854W        W35304   4.876   5.705  31.256 -0.1700 -0.1534  0.4798
28855W        W35305  12.178   0.532  24.631  0.0893  0.2014  0.2663
28856W        W35306  23.072   0.043  29.714  0.2235  0.1078  0.0420
28857W        W35307   2.858   0.412  26.569 -0.0706 -0.2283  0.3794
28858W        W35308  20.391   5.169   7.990 -0.0601 -0.1109  0.1189
28859W        W35309   6.844   5.143   9.065  0.1725  0.1363 -0.1634
28860W        W35310   4.185   1.868   1.880 -0.3033 -0.0952 -0.0304
28861W        W35311   0.539   4.039   3.598 -0.0963  0.1565 -0.0421
28862W        W35312  25.778   5.742  15.253 -0.0321 -0.0601  0.2282
28863W        W35313  11.662   2.890   2.518  0.0724 -0.0641  0.1097
28864W        W35314   7.842   2.519   5.619 -0.2702  0.0041  0.1112
28865W        W35315  11.372   1.516  34.609  0.1329 -0.0177 -0.1537
28866W        W35316  12.464   0.832  27.415 -0.0768 -0.1786  0.2353
28867W        W35317   4.466   3.140  34.126  0.2881  0.1412  0.2647
28868W        W35318   6.099   6.373  32.369 -0.1407  0.1703  0.1546
28869W        W35319   1.168   2.370  29.852 -0.0957  0.1109 -0.1065
28870W        W35320  25.292   3.880   3.700 -0.0716 -0.0940  0.0794
28871W        W35321  18.663   6.560  28.256  0.0011 -0.1111  0.0068
28872W        W35322   0.065   4.025  12.810  0.0362  0.1670  0.0550
28873W        W35323   8.369   2.203  27.723  0.0880  0.0384 -0.1481
28874W        W35324  16.345   1.593   2.979 -0.3185 -0.2988  0.0454
28875W        W35325  15.517   5.672   3.511  0.5646  0.1608 -0.1189
28876W        W35326  16.984   1.338  24.076 -0.2119 -0.1916 -0.0276
28877W        W35327   5.925   6.577  23.419 -0.0707  0.0956 -0.4073
28878W        W35328   3.538   5.425  30.529  0.0862  0.1444  0.2895
28879W        W35329  12.220   6.456  29.410  0.0853 -0.0319  0.2125
28880W        W35330  20.025   4.393  33.007 -0.3126  0.0569 -0.1914
28881W        W35331  18.131   5.452  31.250 -0.0054 -0.0135 -0.1048
28882W        W35332  16.106   3.877   6.351  0.0209  0.0677 -0.0136
28883W        W35333  22.812   2.141   6.940 -0.2928  0.0073 -0.0438
28884W        W35334  14.653   4.085   9.582  0.0340 -0.0406  0.1696
28885W        W35335  17.124   4.664  28.872  0.2298  0.1770  0.0168
28886W        W35336   2.622   2.136  10.322 -0.2984  0.0441  0.1737
28887W        W35337   4.505   4.173   4.738  0.2220 -0.0221 -0.0719
28888W        W35338  23.787   3.264  23.066  0.0732  0.2214 -0.1014
28889W        W35339  21.054   0.831  35.761 -0.0483  0.2882 -0.1358
28890W        W35340   1.843   4.056   5.388 -0.0492 -0.0215 -0.1193
28891W        W35341  14.761   6.063  31.781  0.0473  0.0949 -0.1650
28892W        W35342   2.463   3.360  15.006  0.3545 -0.0936 -0.1504
28893W        W35343   3.173   1.819   3.667 -0.1211  0.1820 -0.0971
28894W        W35344  13.431   5.687  31.600 -0.2376  0.2112  0.0063
28895W        W35345  25.929   0.456   1.358  0.1822  0.1703  0.2556
28896W        W35346   1.315   6.115   6.697 -0.0835  0.1087 -0.0333
28897W        W35347   6.975   2.647  25.959 -0.2270 -0.1685  0.0773
28898W        W35348   9.750   0.862   7.075 -0.1453 -0.0705 -0.1733
28899W        W35349  13.247   2.194  28.774 -0.1950  0.2315 -0.4485
28900W        W35350  16.995   4.652  14.473  0.0336 -0.0893  0.1085
28901W        W35351  14.503   3.325  32.312 -0.0921 -0.1436  0.0400
28902W        W35352  19.829   1.151  24.644 -0.0654 -0.1994 -0.1033
28903W        W35353  14.420   2.012  30.976 -0.1033 -0.0015 -0.1061
28904W        W35354  11.235   3.103  13.853  0.1489 -0.0709  0.0487
28905W        W35355  13.553   2.199  23.296 -0.0067 -0.3653  0.0969
28906W        W35356  11.813   1.397  22.333 -0.0397 -0.0843  0.0341
28907W        W35357  20.749   3.854   6.296 -0.2572 -0.1303  0.0808
28908W        W35358   8.232   4.584  28.926  0.2014  0.1636 -0.0738
28909W        W35359  25.124   3.993  22.839 -0.0864 -0.1944 -0.0727
28910W        W35360  23.325   0.329   3.439 -0.0650 -0.0395 -0.0564
28911W        W35361  21.764   1.064  32.540  0.0245 -0.0424  0.0166
28912W        W35362  16.111   4.893  23.188  0.0206 -0.1636 -0.0885
28913W        W35363  23.804   2.361   3.183  0.3157  0.0983 -0.1629
28914W        W35364  23.057   2.521  25.790  0.1856 -0.2527 -0.1007
28915W        W35365   0.131   3.611  13.205 -0.1178  0.0229 -0.1640
28916W        W35366  10.973   0.624  35.940  0.3500  0.1554  0.3528
28917W        W35367   5.417   5.856   4.911  0.1680  0.0458 -0.0077
28918W        W35368  25.435   6.491   6.668 -0.1720 -0.0078  0.0749
28919W        W35369   1.915   3.000  30.192  0.0154  0.1714  0.0497
28920W        W35370  14.638   3.984   6.229  0.2278  0.0032 -0.3929
28921W        W35371   3.376   5.525  21.959 -0.0584 -0.0169 -0.0640
28922W        W35372  20.297   5.455  14.925 -0.0035  0.2122 -0.3563
28923W        W35373  17.947   5.907  10.212  0.0120 -0.1383  0.2033
28924W        W35374   2.231   6.574   8.561 -0.1083  0.1611  0.0628
28925W        W35375   2.648   6.418  30.828  0.3153  0.0285  0.1470
28926W        W35376   1.125   3.369   5.115  0.0859  0.2697  0.2280
28927W        W35377   7.607   2.305   0.643  0.1144 -0.2389  0.3816
28928W        W35378  13.492   5.053   5.417  0.1797 -0.0164  0.1713
28929W        W35379  12.958   2.549   2.738  0.1109 -0.5860  0.1967
28930W        W35380  22.991   0.823   0.753  0.1300  0.3007 -0.3430
28931W        W35381  21.407   6.052  21.046 -0.2202 -0.2231 -0.1410
28932W        W35382  16.815   1.357   0.173  0.1691 -0.4671  0.1880
28933W        W35383  18.218   4.253  33.333 -0.2185  0.1982 -0.0531
28934W        W35384  21.238   5.203  35.577 -0.0322  0.1165  0.0407
28935W        W35385   6.164   1.773   2.984 -0.1690 -0.0701 -0.3073
28936W        W35386  23.202   6.595  13.293  0.0158  0.1291  0.2926
28937W        W35387  25.012   3.364  35.447 -0.0613 -0.2714 -0.0791
28938W        W35388  18.886   0.359  28.484 -0.0222  0.0683 -0.1972
28939W        W35389  21.584   3.451  22.240 -0.4465 -0.0754 -0.0489
28940W        W35390   7.602   3.255   6.880  0.0836  0.1315 -0.1756
28941W        W35391   6.640   1.023  33.894 -0.3060  0.0059  0.0823
28942W        W35392   2.094   2.634  23.841  0.0588 -0.0161 -0.0853
28943W        W35393  14.857   3.776  14.118  0.1207 -0.2000 -0.1451
28944W        W35394  13.682   2.871   8.362 -0.0339 -0.1728 -0.0069
28945W        W35395  19.346   5.919  14.190  0.0779 -0.0170  0.0171
28946W        W35396  14.540   5.737   7.927  0.2387  0.2113  0.1390
28947W        W35397  13.486   1.355  22.740  0.0164 -0.0994  0.0181
28948W        W35398   0.819   4.172   8.841  0.1238 -0.3029 -0.1288
28949W        W35399  12.136   3.847  33.614 -0.0186 -0.1910  0.0546
28950W        W35400  23.763   6.418   1.171 -0.0325  0.3319  0.0972
28951W        W35401   6.281   5.898  24.056 -0.1475  0.0593  0.0591
28952W        W35402   6.835   5.982   3.842  0.0065  0.1116  0.2423
28953W        W35403   5.713   0.975  31.502  0.0084  0.1299  0.0232
28954W        W35404  22.229   2.312   8.689  0.0670 -0.1858 -0.0979
28955W        W35405  21.253   3.605  25.200  0.1079 -0.2106  0.1692
28956W        W35406  24.002   5.398  21.387 -0.1417 -0.2970 -0.0539
28957W        W35407  12.427   4.315   5.637 -0.0764 -0.1020 -0.1144
28958W        W35408  20.885   5.673  28.666  0.0282  0.0545 -0.0347
28959W        W35409   4.992   0.433   8.480  0.0567  0.1645 -0.0551
28960W        W35410   4.820   5.955  26.661 -0.0716 -0.1156 -0.1324
28961W        W35411  15.948   5.418  11.909  0.1865  0.0487  0.0780
28962W        W35412   2.937   0.424  30.018  0.0739 -0.2239 -0.1200
28963W        W35413  23.618   2.581  29.674 -0.1416  0.0527  0.2298
28964W        W35414  19.787   2.319  29.145  0.2530 -0.0976  0.2300
28965W        W35415  19.915   3.418  22.885 -0.1766 -0.0658 -0.0043
28966W        W35416   3.832   0.719   6.816 -0.1865 -0.3755 -0.0309
28967W        W35417  14.513   0.986  32.280 -0.1434 -0.1813  0.0448
28968W        W35418  17.130   1.323  14.312  0.2675 -0.0542  0.1233
28969W        W35419   6.069   6.489  21.953 -0.1684 -0.0698  0.1674
28970W        W35420   2.457   5.675  26.100 -0.0405 -0.2336 -0.0588
28971W        W35421   6.314   0.453  22.383  0.1647 -0.0948  0.1162
28972W        W35422  20.737   6.557  15.177 -0.0513  0.0857 -0.0808
28973W        W35423  19.789   1.243  11.007  0.0670  0.1190  0.1005
28974W        W35424   1.157   4.945   7.248 -0.0071  0.0347 -0.0590
28975W        W35425  13.761   1.433  15.009  0.1946 -0.1064 -0.2220
28976W        W35426  22.638   6.543  14.386 -0.0319 -0.1656  0.2274
28977W        W35427  16.147   6.587  33.917  0.1136  0.3033 -0.0951
28978W        W35428   7.219   3.739   4.369 -0.0997  0.2761 -0.1189
28979W        W35429   1.623   0.041  10.924  0.0341  0.1659 -0.1768
28980W        W35430   6.050   2.848   3.545 -0.3262  0.0168 -0.0984
28981W        W35431  12.133   6.298   9.659  0.1159 -0.2888 -0.2803
28982W        W35432  15.678   4.518  23.197  0.3548 -0.1344 -0.1281
28983W        W35433  18.208   2.693  13.052  0.1111  0.2197  0.2020
28984W        W35434   6.476   0.156  36.136  0.1190  0.0133 -0.0491
28985W        W35435  25.820   1.259  25.770  0.0829  0.0574  0.2973
28986W        W35436   6.633   6.320  33.487  0.5672  0.1455  0.1664
28987W        W35437   5.602   5.112  32.552 -0.1488 -0.3213  0.1234
28988W        W35438  21.574   3.817  24.858  0.0107 -0.1208  0.0134
28989W        W35439   9.096   0.428  26.976 -0.2712  0.1717 -0.3834
28990W        W35440   7.361   0.234  11.230  0.1512  0.1612  0.5586
28991W        W35441  19.310   5.174  10.578  0.1104 -0.2548  0.1088
28992W        W35442   0.597   6.220   3.086  0.0926  0.1102  0.0300
28993W        W35443   8.661   4.623  24.644 -0.0044 -0.0862 -0.0091
28994W        W35444  20.695   0.751  24.176  0.4092 -0.1281 -0.1822
28995W        W35445  15.648   2.872  28.116 -0.0491 -0.1615 -0.0078
28996W        W35446   1.791   6.346  13.701 -0.0618 -0.0467 -0.1532
28997W        W35447  10.100   5.272  25.830  0.0760  0.1126 -0.0365
28998W        W35448   1.632   2.101  12.062 -0.0852  0.1766 -0.2850
28999W        W35449  18.967   4.576   8.765 -0.0593 -0.0764 -0.1250
29000W        W35450  16.935   6.576  27.774 -0.0338 -0.0361 -0.1427
29001W        W35451  22.907   0.945   0.125  0.1925  0.3607 -0.3080
29002W        W35452   0.550   5.282   2.503 -0.0700  0.0242  0.2231
29003W        W35453  13.534   4.639  27.030  0.0033  0.0671 -0.0310
29004W        W35454  10.700   0.356   0.933  0.2941  0.3347 -0.0095
29005W        W35455  24.842   1.877   9.867 -0.1312 -0.0096  0.1792
29006W        W35456  26.397   5.358   3.170  0.1016  0.2965 -0.1781
29007W        W35457  13.831   3.658   1.501  0.0485 -0.1095 -0.1131
29008W        W35458   2.961   4.163  25.976 -0.0984 -0.1660 -0.1844
29009W        W35459   4.282   2.571  23.787  0.0055  0.0063  0.0240
29010W        W35460  23.585   4.914   0.193  0.1550 -0.4499 -0.2377
29011W        W35461  18.392   0.303  20.796 -0.0188 -0.3906  0.0546
29012W        W35462  18.867   3.631  27.586  0.0099 -0.1470  0.0362
29013W        W35463   2.817   5.109  12.685 -0.0762  0.0082 -0.0212
29014W        W35464  13.542   2.986  21.700 -0.2114 -0.1224 -0.1188
29015W        W35465  26.020   3.577  22.678 -0.0731 -0.1228  0.1875
29016W        W35466   6.194   1.747  33.069 -0.0923 -0.2151 -0.0109
29017W        W35467  16.740   2.732   4.472 -0.3088  0.1361  0.1696
29018W        W35468  20.654   5.680   4.655 -0.0427  0.0461 -0.0289
29019W        W35469  10.691   2.772   1.884 -0.0360 -0.3919  0.0577
29020W        W35470  22.740   1.763   9.153 -0.2561  0.1470  0.1348
29021W        W35471  23.049   4.191   1.749  0.0188  0.1519 -0.0806
29022W        W35472  19.523   4.721  32.477 -0.0681 -0.3163 -0.3144
29023W        W35473   4.670   5.899  25.674  0.0292 -0.2925 -0.0454
29024W        W35474  22.525   3.959  27.577  0.3652  0.0217 -0.0764
29025W        W35475  25.280   5.965  21.822 -0.0030 -0.1110 -0.1122
29026W        W35476  15.176   3.240  26.832 -0.0972  0.0143  0.2852
29027W        W35477   4.650   3.865   6.841 -0.2113  0.0313  0.0864
29028W        W35478   1.502   3.324  30.094 -0.0077 -0.3059  0.3044
29029W        W35479  18.439   2.290  23.227  0.0408 -0.1750  0.0899
29030W        W35480  19.358   5.778  31.365  0.1578 -0.1698  0.0003
29031W        W35481  11.949   6.241   4.725 -0.2260 -0.3834 -0.0886
29032W        W35482  24.519   4.970   6.068 -0.1075 -0.3359 -0.1011
29033W        W35483   6.526   1.913  14.753  0.2720  0.4016 -0.2041
29034W        W35484  20.661   3.027   7.931 -0.0996  0.0598 -0.1188
29035W        W35485  20.148   1.066   7.524 -0.1868 -0.0308 -0.0854
29036W        W35486  21.053   2.061  21.386  0.1016  0.2480  0.0264
29037W        W35487   9.779   0.784  33.395 -0.0034 -0.0319 -0.1551
29038W        W35488   1.222   1.755  21.390  0.0359  0.2101 -0.3142
29039W        W35489  14.799   2.864  11.747  0.2989 -0.1433  0.1842
29040W        W35490  12.039   5.142  25.556  0.2260  0.0699 -0.0317
29041W        W35491  20.881   3.172  23.809 -0.1477  0.3002  0.0139
29042W        W35492  23.003   2.520  26.692 -0.0476 -0.0794 -0.0261
29043W        W35493  14.771   1.579  35.820 -0.0290 -0.1972 -0.2958
29044W        W35494   3.008   6.397   5.253 -0.0209  0.3258  0.0390
29045W        W35495  17.722   6.359   1.605  0.0431  0.1943  0.3226
29046W        W35496   1.102   3.126   5.707 -0.2149  0.2462 -0.0693
29047W        W35497  14.873   5.104   5.773  0.0186 -0.1430 -0.1020
29048W        W35498  23.573   1.378  31.311 -0.0070  0.0941  0.0430
29049W        W35499   7.685   4.720  32.167  0.0713  0.0909 -0.0043
29050W        W35500  24.400   6.237  29.957 -0.0633  0.1241 -0.0625
29051W        W35501  10.438   0.003  14.810 -0.2266 -0.0576 -0.2884
29052W        W35502  17.372   4.709  32.967  0.0009 -0.1757 -0.2683
29053W        W35503  25.005   5.901  23.253  0.1153 -0.1355  0.2252
29054W        W35504  21.627   6.358   3.897 -0.0091 -0.2352  0.1822
29055W        W35505  19.119   0.266   3.104 -0.0159 -0.1568 -0.1591
29056W        W35506  14.697   1.191  15.194  0.0970  0.1414 -0.1235
29057W        W35507  19.467   4.799  23.894  0.1876 -0.2460  0.0590
29058W        W35508  21.179   2.300  22.870 -0.2069 -0.1991 -0.1261
29059W        W35509  25.588   1.193  26.179 -0.1204 -0.0959 -0.0344
29060W        W35510   8.294   3.123  30.450  0.0604 -0.0580  0.2334
29061W        W35511   6.815   2.889   5.716  0.0917 -0.0680  0.0616
29062W        W35512   5.804   2.020  10.080  0.0271 -0.4641  0.0283
29063W        W35513   1.918   3.928   1.905 -0.0022 -0.1019 -0.0185
29064W        W35514   5.712   5.728  10.247  0.0622 -0.0418  0.1676
29065W        W35515   3.474   5.117   3.573 -0.0065 -0.0454  0.0226
29066W        W35516  10.517   3.882   9.724 -0.2128 -0.1155  0.1400
29067W        W35517  14.491   3.570   8.387 -0.1528 -0.1755 -0.1167
29068W        W35518   2.702   4.180  15.538  0.1259 -0.3543  0.0521
29069W        W35519  17.860   3.602   3.734 -0.1504 -0.2206 -0.3086
29070W        W35520  24.340   3.127  24.504  0.1042  0.1059 -0.1110
29071W        W35521  23.486   5.082  29.990  0.1757  0.0023 -0.0744
29072W        W35522  25.889   6.074   7.889 -0.1885  0.2123 -0.0265
29073W        W35523  22.121   3.020  15.010  0.1664 -0.0409 -0.0958
29074W        W35524  20.172   6.143  21.142 -0.1039  0.0264  0.2236
29075W        W35525  14.279   3.298  25.826  0.2088  0.1065 -0.0002
29076W        W35526   9.179   4.874   7.025  0.1875 -0.0526 -0.0277
29077W        W35527  16.141   3.393  31.000  0.1935  0.1049 -0.0628
29078W        W35528   1.461   2.168  33.676  0.1146 -0.0036 -0.2700
29079W        W35529   1.944   1.300  27.310  0.1246  0.6764 -0.0417
29080W        W35530  20.468   4.235   8.703 -0.1992  0.0466 -0.1943
29081W        W35531  23.768   4.950  13.211 -0.1868  0.0396 -0.0900
29082W        W35532   5.063   2.640  32.609 -0.1828  0.2602 -0.2932
29083W        W35533  19.193   0.928  28.314  0.1579  0.2179  0.0686
29084W        W35534   1.154   3.207  28.063  0.0823 -0.1928 -0.0169
29085W        W35535  22.108   0.921  28.403  0.2090 -0.2147  0.0658
29086W        W35536  25.203   0.362   5.946  0.0629  0.1797  0.3297
29087W        W35537  17.999   4.444   0.573 -0.0287 -0.1665  0.0634
29088W        W35538   7.087   0.864  26.921 -0.2505  0.0553  0.2020
29089W        W35539  19.045   5.362  27.445 -0.0517 -0.0934  0.2073
29090W        W35540  16.824   2.641  21.829 -0.1673 -0.1440  0.0479
29091W        W35541   7.178   1.977  36.023 -0.0772 -0.0289 -0.1191
29092W        W35542  17.879   4.599  31.428  0.1951 -0.1606 -0.0427
29093W        W35543  25.492   0.798   7.362 -0.0060 -0.1484 -0.0301
29094W        W35544  17.421   1.430  32.310  0.1277 -0.1182 -0.2890
29095W        W35545  12.030   3.992  22.958 -0.0711 -0.1251  0.4086
29096W        W35546  20.302   0.686  24.478 -0.0322 -0.0431 -0.1489
29097W        W35547  25.060   2.485  35.162 -0.1436 -0.0824 -0.1193
29098W        W35548  15.409   5.600  10.802 -0.0784  0.1501  0.0221
29099W        W35549  17.001   5.438   0.142 -0.1865  0.1094 -0.1531
29100W        W35550   8.799   2.435  26.468 -0.0251  0.2193  0.0496
29101W        W35551   3.911   5.070  31.844  0.4553  0.2479  0.1584
29102W        W35552  25.168   5.757  32.637 -0.0455 -0.2172  0.0097
29103W        W35553   3.163   5.627  33.352  0.2348 -0.0908  0.0952
29104W        W35554  18.314   4.828  28.779  0.0768 -0.2146  0.4611
29105W        W35555  16.433   1.482  27.491 -0.1360  0.1386  0.2741
29106W        W35556   4.718   6.411  27.947  0.1227 -0.0339 -0.1674
29107W        W35557  25.754   2.854  33.842  0.0633 -0.0201  0.1364
29108W        W35558  16.974   2.283   9.966  0.2701  0.1434  0.0739
29109W        W35559   5.533   4.186  27.595  0.1484 -0.0973 -0.1872
29110W        W35560  13.389   1.183  36.138  0.0700 -0.1450 -0.2632
29111W        W35561  18.921   2.343   1.404 -0.1012 -0.0579 -0.0538
29112W        W35562  11.599   6.198  11.387  0.1357  0.1555 -0.0968
29113W        W35563  21.851   5.238  21.778 -0.2852  0.0635  0.3580
29114W        W35564   8.522   1.471  22.848  0.1472  0.0855 -0.4282
29115W        W35565   5.254   1.752   2.004 -0.0860  0.0841 -0.2029
29116W        W35566   7.623   5.692   8.457  0.0324  0.3329  0.2312
29117W        W35567   1.470   5.674  14.719 -0.4100 -0.2597 -0.0653
29118W        W35568  17.639   1.147   8.432 -0.0784  0.0374  0.0458
29119W        W35569  16.333   4.092   7.043 -0.2083  0.0562 -0.1137
29120W        W35570  16.416   4.618  27.685 -0.0894 -0.1607  0.0773
29121W        W35571  15.728   2.025   4.177 -0.1921  0.1304  0.3824
29122W        W35572   3.506   3.532   9.023  0.1414 -0.1685 -0.1035
29123W        W35573  11.792   6.467  29.004  0.3360  0.0582 -0.2821
29124W        W35574  24.799   4.722  27.055 -0.0352 -0.1188  0.1944
29125W        W35575  13.896   2.146   8.673 -0.0731 -0.0508  0.0565
29126W        W35576   1.763   1.001   5.215  0.0372  0.0024 -0.0154
29127W        W35577  13.512   6.138  25.248 -0.2595 -0.2943  0.1193
29128W        W35578  16.316   0.924  14.594 -0.1906  0.1487 -0.1485
29129W        W35579  12.869   5.439  22.848  0.2422  0.1474  0.3246
29130W        W35580  12.134   5.656  28.219 -0.1262  0.0067 -0.0876
29131W        W35581  18.138   5.127   6.424  0.1553  0.3389  0.1054
29132W        W35582   4.727   4.205   5.557 -0.0502 -0.2218 -0.1168
29133W        W35583  17.569   3.852  29.390  0.0404  0.1151  0.3983
29134W        W35584   7.547   2.819  12.103 -0.2187 -0.0679 -0.0417
29135W        W35585   6.611   2.488  35.527 -0.0094  0.1972  0.0834
29136W        W35586  10.140   3.965   2.438 -0.1441 -0.0320  0.1327
29137W        W35587   4.439   3.365  25.873  0.0983 -0.1298 -0.2150
29138W        W35588   9.762   1.235  35.497  0.1055  0.0672 -0.0768
29139W        W35589   7.345   4.543   2.785 -0.0876 -0.3181 -0.0437
29140W        W35590  11.359   2.936  31.299 -0.1925  0.0209 -0.1002
29141W        W35591   2.054   2.192  34.352  0.2165 -0.0934  0.1244
29142W        W35592   5.787   2.973  21.593 -0.1110  0.0281  0.0120
29143W        W35593  16.543   0.115   2.219 -0.0176 -0.1966 -0.2161
29144W        W35594  10.242   1.427   3.433  0.4080  0.0230  0.1683
29145W        W35595  18.914   0.662  10.308 -0.2363  0.0402 -0.1761
29146W        W35596   8.762   2.946  24.728 -0.1789 -0.1749 -0.3585
29147W        W35597   3.449   3.108   1.907  0.0955 -0.0831  0.1431
29148W        W35598  15.587   5.648  22.185  0.1027 -0.1114  0.1075
29149W        W35599   2.837   1.548   1.647  0.0517 -0.1917  0.0069
29150W        W35600  13.828   2.388   3.720  0.6564  0.0861  0.0047
29151W        W35601   9.255   0.590  12.270 -0.1196 -0.1898 -0.1466
29152W        W35602  12.313   0.282   3.855 -0.1664 -0.0054  0.1569
29153W        W35603   4.198   4.579  27.264 -0.0655 -0.3153 -0.0666
29154W        W35604  25.412   5.028   7.990  0.0882 -0.1647 -0.1434
29155W        W35605  18.222   2.606  12.546 -0.0121 -0.1101  0.1563
29156W        W35606  21.803   3.349   5.041 -0.1891 -0.0887 -0.0914
29157W        W35607  21.082   5.469  26.141  0.0088 -0.1778 -0.0985
29158W        W35608   5.971   3.871   0.399  0.0175 -0.0427  0.0624
29159W        W35609   4.050   0.142  24.254 -0.2077 -0.1552  0.0773
29160W        W35610  18.546   6.034   1.204 -0.2500 -0.4281  0.1542
29161W        W35611   9.884   1.082  26.388 -0.1200  0.1185 -0.1527
29162W        W35612   2.962   6.378   1.996  0.1102  0.0673 -0.0148
29163W        W35613   0.243   4.029   6.444  0.1503 -0.0927 -0.3017
29164W        W35614   0.489   1.597  13.436  0.0851  0.1350 -0.2013
29165W        W35615  23.854   4.371  14.382 -0.4121  0.0997  0.1418
29166W        W35616   8.211   1.301   8.950  0.1213  0.2242  0.0126
29167W        W35617   7.841   2.681   0.355 -0.3785 -0.2740  0.2832
29168W        W35618  20.692   0.344  24.503  0.0376  0.2576  0.3298
29169W        W35619   1.801   4.158  24.189  0.1490 -0.3374 -0.1059
29170W        W35620  25.811   5.139   4.432 -0.1196  0.0405  0.2739
29171W        W35621   3.801   4.838  12.497  0.3102 -0.0951  0.1706
29172W        W35622  12.124   3.196   7.528 -0.0092 -0.0111  0.1976
29173W        W35623  23.825   4.986   7.005 -0.2636 -0.1775 -0.0920
29174W        W35624  16.015   3.413  26.252 -0.0775  0.1240 -0.2286
29175W        W35625  18.351   1.155  35.291  0.1095 -0.2412  0.1484
29176W        W35626   9.225   6.335   8.518 -0.3230  0.1505 -0.2216
29177W        W35627   4.805   4.572   2.105 -0.2521  0.1400  0.2439
29178W        W35628  10.789   1.333  25.816  0.3765  0.0167 -0.2741
29179W        W35629   4.604   5.359   2.046 -0.1165 -0.0757  0.1701
29180W        W35630  24.371   6.292  23.376 -0.2765 -0.0279  0.1341
29181W        W35631  15.273   5.572   7.119 -0.1598 -0.0575 -0.0522
29182W        W35632  19.093   3.621   2.236  0.1267 -0.1269 -0.0376
29183W        W35633  19.653   5.638  11.690  0.1202 -0.0550  0.1861
29184W        W35634   1.446   1.460   3.283 -0.3013 -0.1156 -0.2138
29185W        W35635  18.055   6.353  30.367  0.1767 -0.0314  0.1259
29186W        W35636   5.432   3.292  10.329  0.2839 -0.1171 -0.1495
29187W        W35637   3.221   5.111  33.476 -0.0624 -0.0818  0.1094
29188W        W35638   3.441   4.056  23.475 -0.0184 -0.5617 -0.0748
29189W        W35639  12.140   1.214  31.499 -0.1084 -0.2765  0.1984
29190W        W35640   3.078   0.776   2.073 -0.0816 -0.3136  0.0321
29191W        W35641   6.461   2.408  32.879  0.1745  0.0321 -0.0275
29192W        W35642   8.200   3.985  26.690  0.0203 -0.0845  0.2352
29193W        W35643   0.859   1.858  11.704  0.2619 -0.0293  0.2701
29194W        W35644  23.096   3.806  21.820  0.1763  0.1516 -0.0339
29195W        W35645  25.216   5.235  27.249  0.3409  0.0439  0.1270
29196W        W35646   6.688   5.101   3.483  0.1695 -0.1353  0.1488
29197W        W35647   0.230   6.399   9.403  0.1223  0.0233  0.1469
29198W        W35648   0.814   6.200   1.004  0.0516  0.2361 -0.3377
29199W        W35649   6.003   3.678  15.084 -0.0613 -0.1550  0.0236
29200W        W35650   4.334   0.366   2.111 -0.1367  0.1367 -0.1606
29201W        W35651  19.226   1.865  32.625  0.1108 -0.1579  0.0679
29202W        W35652  11.869   1.984  30.135  0.0206  0.4372 -0.0529
29203W        W35653  12.898   0.274  22.082  0.2583 -0.0083 -0.2567
29204W        W35654   9.259   6.009  28.726  0.2325 -0.1054  0.2190
29205W        W35655  14.988   1.537  34.985 -0.2434  0.0832  0.3824
29206W        W35656   2.149   2.810   3.879 -0.3699  0.0160  0.2484
29207W        W35657  13.676   3.519   0.336  0.0785  0.1235 -0.0664
29208W        W35658  19.115   6.003  33.124  0.1300 -0.0870 -0.0887
29209W        W35659  24.750   3.241  24.913  0.0955  0.0391  0.0928
29210W        W35660   3.878   5.544  24.674  0.0205 -0.2734 -0.1386
29211W        W35661   4.091   6.106  32.848 -0.0152 -0.2453  0.2082
29212W        W35662  23.215   4.648   5.402  0.0559 -0.0819  0.0452
29213W        W35663  16.517   3.035  22.014  0.2202  0.5154 -0.0921
29214W        W35664  17.228   0.446  22.519  0.0622  0.4440 -0.0531
29215W        W35665   9.990   6.592   8.684  0.3018  0.1996 -0.2727
29216W        W35666  12.897   2.440  13.351 -0.4614 -0.0447  0.2279
29217W        W35667   8.212   2.368  26.161  0.0279 -0.0601  0.1055
29218W        W35668  22.004   0.001   7.404 -0.1136  0.1542  0.2170
29219W        W35669  17.428   3.670  12.734 -0.0138  0.0730  0.1170
29220W        W35670  15.327   2.079  29.146 -0.2092 -0.1527  0.1791
29221W        W35671  15.728   3.205   3.627 -0.0896  0.3030 -0.2470
29222W        W35672   8.011   3.190   2.793 -0.0148  0.3363 -0.1853
29223W        W35673  22.208   0.218  21.042  0.0648 -0.0721  0.2982
29224W        W35674  18.849   2.397  26.687  0.1705  0.0295  0.0016
29225W        W35675  24.453   4.721  29.790 -0.2617 -0.0263 -0.1587
29226W        W35676   6.848   3.624  27.602  0.1118 -0.0463 -0.2284
29227W        W35677   1.793   5.776   3.560  0.0745  0.2238  0.2450
29228W        W35678  23.440   1.246   8.785 -0.0563  0.0029  0.2296
29229W        W35679  22.296   0.617   6.162  0.0378 -0.1201  0.1104
29230W        W35680  16.964   4.035  16.219  0.1554 -0.2692 -0.0501
29231W        W35681  22.034   6.116   1.637  0.3817 -0.3026  0.1216
29232W        W35682  12.977   1.500  13.998 -0.0846 -0.1563 -0.0504
29233W        W35683  13.802   5.810   9.841 -0.0445  0.4797 -0.1597
29234W        W35684  15.301   4.166  10.866 -0.2497  0.0365 -0.2124
29235W        W35685   5.803   5.489   1.667 -0.0102  0.1688 -0.1196
29236W        W35686  23.427   0.881   6.235  0.0493 -0.0503  0.4413
29237W        W35687   2.325   0.785  14.075 -0.0417 -0.1367 -0.0040
29238W        W35688   9.020   3.042  29.395 -0.0432 -0.0717  0.0749
29239W        W35689  17.871   1.324  21.316  0.0334 -0.1543 -0.1649
29240W        W35690  16.705   3.226   4.536 -0.2616 -0.3090 -0.3034
29241W        W35691   6.473   5.314  28.147  0.0070 -0.1693  0.1423
29242W        W35692  20.502   5.189   5.999 -0.1461 -0.0923 -0.0263
29243W        W35693  11.420   6.506   9.106  0.1533  0.1066 -0.0253
29244W        W35694  23.221   6.250  22.369 -0.0701 -0.0240 -0.0313
29245W        W35695  17.743   5.886  23.178  0.1064 -0.0955 -0.2096
29246W        W35696  10.481   6.490  31.349 -0.3109  0.2477 -0.3072
29247W        W35697   9.830   3.740  12.977  0.0211  0.1507 -0.0431
29248W        W35698  19.887   0.626   2.639  0.0295 -0.0828 -0.0657
29249W        W35699  12.649   2.262   9.497  0.3279  0.4708  0.2339
29250W        W35700   5.624   5.980  35.532 -0.3254  0.1721 -0.1595
29251W        W35701   5.128   6.529  10.256  0.1558  0.0342  0.0873
29252W        W35702  21.607   4.951  34.276  0.0526  0.3346 -0.0154
29253W        W35703  17.656   2.625   1.071 -0.1090 -0.3075 -0.0264
29254W        W35704  10.064   2.085   5.456 -0.0830 -0.0518 -0.0189
29255W        W35705   6.018   4.303  29.073  0.0084  0.1234 -0.2219
29256W        W35706  13.693   1.539  35.739  0.0974  0.2619 -0.4799
29257W        W35707   7.239   3.981  20.187  0.1508 -0.0071  0.2811
29258W        W35708   8.508   0.364   0.354  0.3150  0.0392 -0.0452
29259W        W35709  14.517   6.120  23.507 -0.1439  0.0588  0.1009
29260W        W35710  12.333   4.853  32.693  0.1234  0.4641 -0.1483
29261W        W35711  11.068   5.119   3.110 -0.1264  0.0592  0.0094
29262W        W35712   3.552   6.038  35.650 -0.1636  0.1069 -0.2355
29263W        W35713  18.031   1.791  25.238 -0.0343  0.0904 -0.3057
29264W        W35714   0.143   0.392  26.466  0.2603 -0.1153  0.3130
29265W        W35715  11.254   1.117  26.848 -0.1576  0.3092 -0.0962
29266W        W35716  23.141   0.582  25.462  0.0152  0.2157  0.0615
29267W        W35717  17.476   2.258   5.109  0.1835  0.1616 -0.1577
29268W        W35718  20.369   4.250  22.169 -0.1959 -0.3730 -0.1257
29269W        W35719   6.853   6.477  13.885  0.2446 -0.1080  0.0210
29270W        W35720  24.732   0.879  27.431 -0.1746  0.1550 -0.1996
29271W        W35721   1.113   5.273  27.274  0.0486 -0.2635 -0.0253
29272W        W35722   1.298   2.811  27.691 -0.1885  0.0519 -0.0889
29273W        W35723  26.148   2.380  11.125  0.1034  0.0796  0.1892
29274W        W35724  22.330   4.715  25.305 -0.0907 -0.2337 -0.0162
29275W        W35725   8.271   1.812   3.102 -0.1494 -0.0798  0.3088
29276W        W35726   1.663   6.314  23.248 -0.0181  0.0762 -0.0765
29277W        W35727   2.209   5.860  29.860 -0.0267  0.0518 -0.1143
29278W        W35728  15.937   5.974   3.419  0.1919 -0.0318  0.1958
29279W        W35729   8.014   4.173   3.822  0.0768  0.3215  0.0950
29280W        W35730  22.176   4.950  32.509  0.3247  0.1408 -0.1139
29281W        W35731  16.019   5.574  14.150 -0.0609  0.1407 -0.0038
29282W        W35732   2.455   6.399  28.154 -0.0299 -0.2329 -0.2171
29283W        W35733  16.933   3.609  31.868  0.2624 -0.0600  0.1479
29284W        W35734  10.649   3.411   4.028  0.0234 -0.1266 -0.0574
29285W        W35735  22.941   4.486  12.797 -0.1183  0.2937  0.2578
29286W        W35736  19.195   3.579  25.093  0.1379 -0.3889  0.1463
29287W        W35737   0.203   4.415  32.536  0.1086 -0.1485  0.0383
29288W        W35738  11.134   4.672  31.714  0.2405 -0.1797  0.3043
29289W        W35739   5.108   2.317   7.668 -0.1704  0.0248  0.0145
29290W        W35740   7.014   1.375  21.443  0.1334  0.1124  0.1104
29291W        W35741  16.222   0.990  27.972 -0.0337 -0.1382  0.1236
29292W        W35742  12.992   0.647  27.523  0.2834  0.0063 -0.2116
29293W        W35743  24.019   3.740   6.723 -0.3326 -0.1834  0.1782
29294W        W35744  11.528   3.457  24.462  0.3966  0.1153 -0.3203
29295W        W35745   6.157   0.358  22.859 -0.0175  0.1277  0.0226
29296W        W35746  20.161   2.792  29.059 -0.1318 -0.2104  0.2021
29297W        W35747  18.285   3.585   0.385  0.0434  0.0296 -0.1944
29298W        W35748   1.582   3.040   8.561  0.0181 -0.1279 -0.1263
29299W        W35749  15.537   0.556  26.469 -0.1864  0.3542  0.2095
29300W        W35750   5.936   6.033  12.752 -0.2794 -0.0037  0.3910
29301W        W35751  24.908   6.130  31.303 -0.0256 -0.3202 -0.0731
29302W        W35752  10.658   3.943  29.082  0.1559 -0.2603 -0.1495
29303W        W35753  10.661   5.224   4.001 -0.0193 -0.0664  0.0146
29304W        W35754   6.290   2.026  12.342 -0.0442 -0.0632  0.2433
29305W        W35755   2.100   3.743   4.065  0.0165  0.1274  0.1010
29306W        W35756  17.373   3.822  34.026  0.1686  0.1339  0.1779
29307W        W35757   4.582   2.565  31.845  0.1646  0.1800  0.1622
29308W        W35758  23.004   5.929  10.922  0.0149 -0.1857 -0.0658
29309W        W35759  21.506   1.855   2.223  0.2196 -0.2393  0.1879
29310W        W35760  19.495   4.668  26.137  0.0609  0.2078 -0.1534
29311W        W35761  26.057   0.195  12.456  0.3650  0.0706 -0.0942
29312W        W35762   1.686   6.552  26.509  0.1041  0.0190 -0.2924
29313W        W35763   3.988   1.905   0.189 -0.2346 -0.0342  0.1949
29314W        W35764   8.139   2.790  22.751  0.0510 -0.2822 -0.0957
29315W        W35765   3.458   0.084  23.939 -0.0204 -0.1470 -0.3308
29316W        W35766   7.926   0.989  13.533  0.1715  0.3155 -0.2686
29317W        W35767   9.272   5.149  35.902  0.1288 -0.0991 -0.1581
29318W        W35768  11.374   5.504  24.898 -0.0922  0.1207  0.2813
29319W        W35769  24.125   0.420  28.005  0.0953 -0.0543  0.0072
29320W        W35770  12.924   0.981  13.281 -0.2084  0.1981 -0.1597
29321W        W35771  20.612   5.295   8.477 -0.2413  0.2472  0.1773
29322W        W35772   2.847   0.045  10.994 -0.1359  0.1482 -0.0175
29323W        W35773  10.758   3.086  35.829 -0.1448  0.1302  0.1817
29324W        W35774   0.274   3.292  34.700  0.2713 -0.1507 -0.0241
29325W        W35775  21.427   3.412  20.021 -0.1509  0.2006  0.0667
29326W        W35776   8.561   3.796  29.974  0.1613 -0.0798 -0.0946
29327W        W35777   5.395   5.402  13.867 -0.0264  0.5828  0.3209
29328W        W35778  18.374   5.598  10.232 -0.1935  0.3841 -0.1428
29329W        W35779  13.992   6.431  31.682  0.0140  0.1569  0.1859
29330W        W35780  19.125   5.049  25.285  0.1819  0.1781 -0.3955
29331W        W35781   0.603   3.132   5.777 -0.0609  0.0115  0.0192
29332W        W35782   5.796   3.129  13.210  0.2174 -0.1407 -0.1662
29333W        W35783  25.967   3.052  27.343  0.1780  0.2446 -0.1357
29334W        W35784   9.643   3.238   3.139 -0.0561  0.1295  0.4088
29335W        W35785   0.804   5.091  23.253 -0.1402  0.1021  0.0550
29336W        W35786  24.982   4.039   2.836 -0.0322  0.0649  0.2243
29337W        W35787  24.497   2.382   3.302 -0.0214  0.1313  0.1342
29338W        W35788  24.304   6.395   2.773  0.1195  0.0558  0.2660
29339W        W35789  18.282   5.371   8.124 -0.3211 -0.0223  0.0564
29340W        W35790  10.906   5.668  25.220 -0.1242  0.1342 -0.0676
29341W        W35791  15.188   2.144  24.101  0.0177  0.3958  0.1145
29342W        W35792  14.717   3.355  10.240  0.0112  0.0478  0.1388
29343W        W35793   5.322   0.521   1.647  0.1462  0.1865 -0.0623
29344W        W35794  25.901   1.778  21.366  0.0230  0.2474 -0.0751
29345W        W35795  15.158   1.177   6.838 -0.1905 -0.2428 -0.0944
29346W        W35796  11.571   3.995  14.395  0.0540  0.0222  0.1300
29347W        W35797  11.960   3.945  25.840  0.1736 -0.0281 -0.1015
29348W        W35798   4.939   4.976   9.191 -0.1027 -0.3578 -0.0389
29349W        W35799   6.122   4.166   9.734 -0.0655  0.3448  0.1458
29350W        W35800  14.306   3.761   1.390 -0.1971  0.0692 -0.2683
29351W        W35801   9.961   1.807  14.150  0.0331  0.0198 -0.2458
29352W        W35802   8.530   3.049   8.945  0.2618  0.2893  0.0836
29353W        W35803  26.071   2.511  25.364 -0.1844 -0.1277  0.1646
29354W        W35804   9.910   1.793   2.607  0.1623 -0.0584 -0.1546
29355W        W35805   3.383   0.038  14.968  0.0680 -0.2340 -0.1426
29356W        W35806  12.855   0.096  10.674 -0.1687  0.2870  0.0135
29357W        W35807   7.897   2.629  21.506  0.3444  0.1793 -0.1146
29358W        W35808  23.792   2.488   2.257 -0.0517 -0.3912 -0.0051
29359W        W35809  12.718   5.136   6.603 -0.2119  0.0024  0.0388
29360W        W35810  11.175   5.295   5.088  0.0012 -0.4080 -0.1676
29361W        W35811   7.413   0.635   7.918  0.0396  0.3789  0.0525
29362W        W35812   7.454   2.445   3.665  0.0325  0.1896  0.0332
29363W        W35813  26.422   4.611  35.431 -0.1807  0.0622  0.1933
29364W        W35814   9.961   4.356  10.265  0.0658 -0.0803 -0.1778
29365W        W35815   3.022   4.461  10.467  0.0545  0.3151 -0.4317
29366W        W35816  25.146   3.102  26.898  0.0006 -0.0369 -0.0112
29367W        W35817  18.541   3.274  11.785 -0.1131  0.2024  0.3908
29368W        W35818   5.856   1.131  30.861 -0.0677  0.2609 -0.2642
29369W        W35819   2.433   5.392   0.073  0.0328 -0.2283  0.1954
29370W        W35820   1.301   0.152  10.493  0.2167 -0.0957 -0.2083
29371W        W35821  22.481   2.478   6.415  0.3184  0.1768 -0.0163
29372W        W35822  13.798   4.989  29.806  0.3495 -0.3694 -0.0534
29373W        W35823   6.671   4.686  30.717 -0.0952 -0.1577 -0.1432
29374W        W35824  25.243   2.731  11.301  0.2484 -0.3283  0.0162
29375W        W35825  23.906   1.349  23.008  0.1814  0.0449  0.3598
29376W        W35826  16.606   1.825  14.938  0.3063  0.0444 -0.2433
29377W        W35827  15.788   1.590  13.387  0.1105 -0.0484 -0.1818
29378W        W35828  12.560   1.021   7.777 -0.4421 -0.2139  0.0975
29379W        W35829  24.419   4.553  13.602  0.3521 -0.0520 -0.0365
29380W        W35830  13.674   0.964   5.640 -0.3338  0.0827 -0.0380
29381W        W35831  24.325   1.810  14.107  0.0249 -0.2113  0.0081
29382W        W35832  14.820   6.030   4.082 -0.0624  0.2314  0.0416
29383W        W35833  25.438   0.564  32.245  0.0957 -0.2390  0.1465
29384W        W35834   0.165   4.216  11.337  0.1533  0.0886  0.2081
29385W        W35835  24.527   5.654  35.555  0.0271  0.0816 -0.1040
29386W        W35836  22.336   1.249  34.836 -0.0641 -0.2640 -0.0390
29387W        W35837  13.887   5.543  25.101  0.1210  0.3120 -0.3555
29388W        W35838   7.659   5.211   0.512  0.2506 -0.2238 -0.4983
29389W        W35839   8.810   0.930  33.581  0.1384 -0.2176 -0.2449
29390W        W35840  15.637   3.737  23.473  0.2871  0.3751 -0.0069
29391W        W35841  13.793   3.316  30.920  0.1964 -0.1138 -0.1242
29392W        W35842   1.009   5.389  28.833 -0.1805 -0.1448  0.2374
29393W        W35843  12.788   2.453  32.319  0.3495  0.1266  0.3656
29394W        W35844   8.194   3.018   0.676  0.3196  0.0661  0.0722
29395W        W35845  11.339   0.976  35.649 -0.1537 -0.0739 -0.1276
29396W        W35846  18.092   1.314   4.487  0.1107  0.1968 -0.2300
29397W        W35847  15.341   5.117  26.437  0.2343  0.0833  0.0861
29398W        W35848  10.500   5.505  32.493 -0.2069  0.2727 -0.0353
29399W        W35849   2.249   1.322   9.664 -0.0719  0.0091 -0.0164
29400W        W35850  23.553   3.537  29.382  0.1410  0.1272 -0.1040
29401W        W35851   3.753   5.769   4.188  0.2196 -0.1803 -0.0566
29402W        W35852  12.636   1.749  31.225 -0.2520  0.0927 -0.0581
29403W        W35853   5.556   3.572  28.988  0.2638  0.2259  0.0341
29404W        W35854  20.432   2.082  31.199  0.0021 -0.0114  0.0839
29405W        W35855   2.200   1.803   2.051  0.0177 -0.0731 -0.1838
29406W        W35856   6.232   3.400   7.939 -0.2197 -0.1013  0.2933
29407W        W35857  23.986   6.366   0.669  0.4862  0.0336  0.4586
29408W        W35858  17.398   1.433  33.073 -0.2578  0.0465  0.0687
29409W        W35859   8.024   4.058  35.365  0.1962 -0.0873  0.2871
29410W        W35860  13.981   4.007  22.068  0.2115 -0.0594 -0.0060
29411W        W35861   8.765   3.286  23.913  0.1153 -0.0019 -0.1660
29412W        W35862   7.156   1.055  24.219 -0.0065 -0.1619 -0.1633
29413W        W35863  13.256   2.051   7.034  0.0327 -0.0293 -0.0585
29414W        W35864  23.891   1.161  36.047  0.3507  0.1913  0.1193
29415W        W35865   3.129   0.355   7.741 -0.2351  0.0344  0.2428
29416W        W35866  22.833   5.623   3.807  0.2567  0.1076  0.2645
29417W        W35867   0.948   1.952   6.630  0.0760 -0.1572  0.1643
29418W        W35868  21.444   1.100  30.704  0.1783 -0.1388 -0.2255
29419W        W35869  24.590   4.858  34.125  0.3936 -0.0252  0.1123
29420W        W35870  21.291   4.532   4.316  0.0762  0.1298  0.5263
29421W        W35871   4.897   1.200  31.134 -0.1988  0.0655  0.0674
29422W        W35872  23.770   4.101   5.247 -0.2432  0.0880  0.1759
29423W        W35873   7.809   1.965  22.992  0.0634 -0.2675 -0.1129
29424W        W35874   7.370   2.306  32.027 -0.0163  0.0576 -0.1139
29425W        W35875  22.166   3.675  11.084 -0.0643 -0.1225 -0.1095
29426W        W35876  19.200   2.019  34.005 -0.0219 -0.1316  0.1649
29427W        W35877  11.190   0.662  12.226  0.1622 -0.1129 -0.0296
29428W        W35878   3.306   4.257  15.324  0.0595  0.0310  0.0848
29429W        W35879  15.748   3.389  33.585  0.0389 -0.1215  0.0751
29430W        W35880   5.570   2.836   8.742  0.1562  0.2246 -0.1811
29431W        W35881   1.416   0.860  26.199 -0.1200 -0.0799 -0.2832
29432W        W35882  19.908   3.328  34.403  0.0856 -0.0609 -0.1007
29433W        W35883   1.625   2.760  25.041  0.1071  0.3440  0.4314
29434W        W35884  17.457   1.076  15.313  0.0409 -0.1495 -0.0219
29435W        W35885  12.067   0.121   9.497  0.2901 -0.0124 -0.4961
29436W        W35886  21.245   3.879   0.061  0.1744 -0.2573 -0.3045
29437W        W35887   1.079   0.563  12.758  0.2082  0.0954  0.2352
29438W        W35888  12.370   5.341  23.766 -0.0083  0.3821 -0.1242
29439W        W35889   1.531   3.275   4.868 -0.0636 -0.1018  0.0332
29440W        W35890  26.202   5.709  14.946  0.0443  0.0418 -0.1582
29441W        W35891   0.330   0.790   2.283 -0.2068  0.0010  0.2380
29442W        W35892   2.521   0.656  12.389  0.1804 -0.0991  0.0877
29443W        W35893   8.744   3.555   3.676 -0.0815  0.2166  0.0462
29444W        W35894   0.333   6.155  32.824  0.0641  0.0470  0.1452
29445W        W35895   8.661   3.973  28.035  0.1178 -0.0015  0.0579
29446W        W35896   9.915   1.390  27.329 -0.1737 -0.3057  0.3139
29447W        W35897  12.185   1.638  11.150  0.0416 -0.0147  0.0478
29448W        W35898  15.440   1.409  15.687  0.0522 -0.1452 -0.0583
29449W        W35899  15.210   6.399  12.889 -0.0779 -0.0230  0.0954
29450W        W35900   4.984   5.550   3.389 -0.2488 -0.1925  0.0123
29451W        W35901   5.619   4.026  13.287 -0.1002  0.1489  0.0535
29452W        W35902  19.063   0.003   4.519  0.1948 -0.0130  0.2765
29453W        W35903   0.562   0.142  34.014  0.0890 -0.1524 -0.1096
29454W        W35904  21.851   4.659  14.674 -0.0189  0.4472 -0.2008
29455W        W35905   1.690   2.856  32.885 -0.0778  0.2116  0.1189
29456W        W35906   4.633   6.392  33.189 -0.1506 -0.1738 -0.4653
29457W        W35907  23.140   1.538   9.349  0.1860 -0.0586  0.1589
29458W        W35908   0.887   5.829  10.670  0.0146 -0.0492 -0.1105
29459W        W35909   1.382   4.914  30.422 -0.1927 -0.0503 -0.0566
29460W        W35910  13.134   6.083  23.482  0.0195 -0.2864 -0.2332
29461W        W35911  12.489   0.571  29.914 -0.0745  0.0166 -0.2634
29462W        W35912   2.267   1.757  30.788  0.0024 -0.0635  0.0552
29463W        W35913  22.671   6.044   4.139  0.0370 -0.0334  0.0511
29464W        W35914  12.736   5.517  12.973  0.1684 -0.2499  0.0773
29465W        W35915  19.830   0.463   9.635 -0.0108 -0.0148  0.1392
29466W        W35916  24.027   1.623  20.988 -0.0251 -0.2661  0.2083
29467W        W35917  18.269   2.763  14.495  0.0615  0.1748 -0.1970
29468W        W35918  20.010   4.012   5.907  0.1198 -0.1757 -0.1369
29469W        W35919  23.709   4.897  10.825 -0.2498 -0.2998 -0.3451
29470W        W35920   2.763   6.383  33.631  0.0211 -0.1605  0.2321
29471W        W35921  14.654   0.038  34.729 -0.0175 -0.0245  0.0714
29472W        W35922  19.827   0.496  12.898  0.0097 -0.3172  0.1344
29473W        W35923  11.871   0.094   2.154 -0.0909 -0.2116 -0.2722
29474W        W35924  20.171   5.005   2.514  0.0643  0.1295  0.0964
29475W        W35925   9.168   5.761   3.937  0.3073 -0.0685  0.2737
29476W        W35926  24.117   1.888  32.698 -0.0793  0.0748  0.0004
29477W        W35927   0.933   2.991  15.209  0.0063  0.0455 -0.0214
29478W        W35928  13.062   4.768   7.664 -0.0831  0.1095  0.1867
29479W        W35929  11.015   2.298  12.643 -0.2848  0.1911  0.0029
29480W        W35930  12.890   4.320  11.868 -0.2645 -0.0331 -0.0270
29481W        W35931   6.307   2.125   5.739  0.1281 -0.1798  0.2565
29482W        W35932  16.428   5.643   8.913  0.2348  0.1135 -0.2038
29483W        W35933  22.568   1.106  11.572  0.0125 -0.0020  0.0740
29484W        W35934  16.750   1.809  22.931  0.1129  0.2970  0.1340
29485W        W35935  13.402   0.791  11.134  0.1672 -0.1492  0.2212
29486W        W35936   3.881   3.241   1.763  0.2115  0.1529  0.1690
29487W        W35937   7.027   0.133  32.271 -0.0439 -0.1675  0.0866
29488W        W35938  11.609   3.251   0.238 -0.1924  0.0230  0.0542
29489W        W35939  23.619   5.216   2.174  0.2576  0.1209  0.0617
29490W        W35940  14.923   0.258  34.237 -0.1917  0.1363  0.0997
29491W        W35941  15.640   1.239  33.777  0.1370  0.0755  0.0880
29492W        W35942  16.782   5.055  23.868  0.0953 -0.0464  0.0571
29493W        W35943  13.590   6.177   3.513  0.0900 -0.1145 -0.2542
29494W        W35944   5.084   0.082  34.207 -0.1006  0.0243  0.0766
29495W        W35945   3.947   3.465   4.224  0.1482  0.0588 -0.0645
29496W        W35946  16.636   6.267   5.121  0.0776 -0.0865  0.3418
29497W        W35947  20.395   1.168  28.879 -0.1606  0.0798 -0.0431
29498W        W35948   4.118   5.637   8.702 -0.1099 -0.1022  0.0719
29499W        W35949  22.805   2.603  22.229  0.2237 -0.0636  0.3277
29500W        W35950  15.321   4.846  25.701  0.2083 -0.0493 -0.0542
29501W        W35951  25.215   3.731  30.784 -0.3900  0.0921 -0.3801
29502W        W35952   9.932   4.670  29.555 -0.1449  0.0974 -0.1272
29503W        W35953   6.367   5.272  28.652  0.3112  0.0295 -0.1038
29504W        W35954  20.115   4.448  29.920  0.0301  0.2157 -0.4701
29505W        W35955  10.183   2.424  21.169  0.0445 -0.1620 -0.0627
29506W        W35956   6.651   4.567  32.418 -0.2807  0.0292  0.1610
29507W        W35957  11.841   3.522  24.810  0.1217  0.1271  0.1293
29508W        W35958   6.692   1.547  24.111  0.2435 -0.1335  0.0171
29509W        W35959  26.309   4.749  32.921 -0.0152 -0.2722  0.0089
29510W        W35960  19.004   3.506  24.161 -0.0916 -0.3385  0.1093
29511W        W35961  13.071   0.117  13.421 -0.5055 -0.0363  0.1259
29512W        W35962  11.798   5.640   1.422  0.0935 -0.1742 -0.0805
29513W        W35963  22.028   3.788  28.424  0.1127 -0.2584  0.0258
29514W        W35964  24.225   5.243   3.301 -0.0542 -0.3086 -0.2396
29515W        W35965  18.082   5.932  32.677  0.2831 -0.1119  0.3148
29516W        W35966  16.828   0.688   0.099 -0.2782  0.0454  0.0300
29517W        W35967  13.834   4.387  27.300 -0.1493 -0.1302  0.2078
29518W        W35968  14.186   4.910  14.776  0.2423  0.0255 -0.2567
29519W        W35969  23.402   4.061   3.791 -0.0307 -0.1428 -0.6692
29520W        W35970  14.861   3.021  30.969 -0.3848 -0.1540 -0.0129
29521W        W35971  20.099   1.700   3.212  0.0331 -0.0629  0.1678
29522W        W35972   5.833   3.441  28.151  0.1128  0.1187  0.0008
29523W        W35973  13.438   1.389  29.983  0.0116  0.3573 -0.3363
29524W        W35974   6.304   0.741  13.368  0.1254  0.0512 -0.2800
29525W        W35975  18.327   5.764   5.618  0.1091 -0.0475  0.2339
29526W        W35976   7.512   4.242  29.673 -0.1974  0.0594  0.2227
29527W        W35977   6.437   4.601  12.673 -0.0064  0.3466  0.1934
29528W        W35978   7.294   1.004   7.496  0.0536  0.1303 -0.5328
29529W        W35979  24.344   1.069   7.922 -0.0540 -0.1206 -0.1793
29530W        W35980   4.303   6.307  11.265  0.0204 -0.0721 -0.0569
29531W        W35981   1.112   2.439   4.945 -0.0430 -0.0682  0.0801
29532W        W35982  11.549   5.401  14.889 -0.1096 -0.1516 -0.1240
29533W        W35983  17.395   5.301  12.359 -0.0963 -0.0649 -0.0283
29534W        W35984  10.209   5.510  12.165  0.1150  0.0973  0.0122
29535W        W35985  22.253   3.811  21.387 -0.4834  0.0944 -0.2685
29536W        W35986  18.280   2.413  34.208  0.0486  0.1577  0.2531
29537W        W35987   1.722   3.917  25.135  0.0749  0.0961  0.2137
29538W        W35988  14.784   6.332  23.863 -0.2322  0.0178  0.0313
29539W        W35989  17.849   2.690  28.274 -0.1314 -0.0869 -0.0173
29540W        W35990  10.776   6.226  35.483 -0.0911  0.0159  0.1926
29541W        W35991  14.942   6.365  34.244 -0.3289 -0.1177  0.0961
29542W        W35992  20.562   5.623  29.039 -0.1944  0.0559  0.0480
29543W        W35993   9.875   1.911  10.952  0.3159 -0.0191  0.1707
29544W        W35994  11.936   1.383  28.578  0.2516  0.0500  0.0480
29545W        W35995  13.371   3.097  12.047 -0.1246 -0.1566  0.3398
29546W        W35996  17.925   1.841   9.345 -0.2004  0.2210 -0.1153
29547W        W35997  10.270   3.261  14.700 -0.1130  0.3055  0.2995
29548W        W35998  10.774   3.422   8.530  0.1718  0.0446 -0.2560
29549W        W35999  18.627   2.809  20.504  0.0408  0.0707 -0.0797
29550W        W36000   4.774   1.253  11.460 -0.0440  0.2331  0.0319
29551W        W36001   0.272   3.022  32.982 -0.1231 -0.0725 -0.2503
29552W        W36002   2.517   3.712  30.217  0.1718 -0.1767  0.1350
29553W        W36003   2.447   5.808   6.709 -0.0085  0.1578 -0.0677
29554W        W36004  11.135   0.520  31.507  0.2195 -0.2915  0.1552
29555W        W36005   3.521   6.249   0.373 -0.0644 -0.1245  0.0863
29556W        W36006  12.512   6.183  34.751 -0.1481 -0.1296  0.0356
29557W        W36007   7.325   2.923  12.573 -0.1247  0.1539 -0.2004
29558W        W36008  26.250   6.231  35.319  0.1620  0.1660 -0.0305
29559W        W36009  25.942   2.004   7.287  0.1276 -0.0274 -0.0272
29560W        W36010   7.237   0.478  35.554 -0.0022  0.2222 -0.1664
29561W        W36011   8.606   0.562  28.031 -0.2312 -0.2026  0.0651
29562W        W36012  12.908   5.215  11.355 -0.0263 -0.1225  0.1786
29563W        W36013  23.883   2.549  31.988 -0.0652 -0.0184  0.0545
29564W        W36014  12.120   5.450  34.179  0.2981  0.1058 -0.0209
29565W        W36015   6.222   0.219   4.978 -0.0464  0.1229 -0.0989
29566W        W36016   9.219   5.102  30.324 -0.0169  0.3058  0.0176
29567W        W36017  25.440   4.826  28.442 -0.0637 -0.0943 -0.0828
29568W        W36018   8.263   6.338  22.697  0.1455  0.0987  0.3991
29569W        W36019  13.762   4.522  33.160 -0.0075 -0.0155  0.0741
29570W        W36020  18.890   3.041  24.912  0.1242 -0.1860 -0.1328
29571W        W36021   5.959   1.298   8.324 -0.0703 -0.0948  0.3303
29572W        W36022   8.331   1.629  33.956  0.1409 -0.1300 -0.0323
29573W        W36023  11.279   3.930  30.347  0.0815 -0.1050  0.1895
29574W        W36024   4.827   4.399   5.039  0.1250  0.2078 -0.0824
29575W        W36025   1.885   1.850  21.993  0.2207 -0.0524 -0.0068
29576W        W36026  13.973   4.203   8.019 -0.0265 -0.1805  0.1404
29577W        W36027  16.556   1.975   8.809  0.1375 -0.0617  0.1205
29578W        W36028  19.593   4.292  33.817 -0.1853  0.0140  0.2528
29579W        W36029   9.531   2.696   0.574 -0.0202  0.1433 -0.0013
29580W        W36030   8.966   4.602  31.700  0.2719 -0.1508 -0.0111
29581W        W36031  18.473   0.819  11.134 -0.2455  0.0789 -0.1365
29582W        W36032  11.211   3.064   2.632 -0.1414  0.1289  0.0231
29583W        W36033  22.684   3.436   1.342  0.1372  0.2722  0.0215
29584W        W36034  23.460   6.363  29.598  0.0995 -0.0234  0.0638
29585W        W36035   1.947   1.599   7.418 -0.1226  0.1369  0.2240
29586W        W36036  18.345   5.796   4.143  0.1360  0.1610  0.0683
29587W        W36037  22.330   1.543  27.079  0.1567  0.1822 -0.1480
29588W        W36038   6.031   4.319  10.547 -0.3722  0.0369  0.1645
29589W        W36039  11.866   6.498  15.397  0.1112  0.2571 -0.2741
29590W        W36040  10.232   6.229   8.368  0.0377 -0.2931 -0.4113
29591W        W36041   9.165   3.471  26.052  0.0023  0.2051  0.0687
29592W        W36042  13.164   3.438   7.915  0.3785 -0.0042  0.0963
29593W        W36043   1.246   5.804   1.825  0.3657 -0.1155  0.0514
29594W        W36044   7.561   6.367  28.978  0.1565 -0.1270 -0.0076
29595W        W36045   1.270   4.466  14.730  0.0439 -0.0562 -0.0982
29596W        W36046  19.096   2.104  32.208 -0.1597  0.0942  0.0148
29597W        W36047  16.861   0.846  24.034 -0.3994 -0.2126 -0.0072
29598W        W36048   2.165   5.071  11.540  0.1242  0.0827 -0.2509
29599W        W36049  11.050   0.152  31.803  0.2639 -0.0114  0.2519
29600W        W36050  12.005   2.431   4.110 -0.1133  0.2124  0.2283
29601W        W36051  16.034   2.716  28.620 -0.1053 -0.0896  0.1220
29602W        W36052  22.830   1.778  29.684  0.0284  0.2865  0.2651
29603W        W36053   1.892   3.533   2.399 -0.2445  0.1122 -0.3667
29604W        W36054  19.858   6.375   3.077 -0.1412  0.1170 -0.0331
29605W        W36055   1.876   3.195   4.516  0.1302  0.0157 -0.0295
29606W        W36056  20.198   0.292  32.614  0.0307 -0.0129 -0.1728
29607W        W36057  13.486   3.470  10.129 -0.0816 -0.1421 -0.0670
29608W        W36058  10.751   6.545  11.820  0.3917 -0.0706 -0.0945
29609W        W36059   6.015   6.408  28.998  0.0725 -0.1394  0.1003
29610W        W36060   9.073   1.210  31.227 -0.0424  0.0424 -0.2038
29611W        W36061   4.732   3.154   2.927  0.1423 -0.1875  0.0102
29612W        W36062  25.695   2.382  33.305 -0.2489  0.2080  0.0236
29613W        W36063  11.652   4.893   0.815  0.0786  0.1417 -0.0007
29614W        W36064  24.359   1.687  32.144 -0.3370 -0.1633  0.0179
29615W        W36065  14.285   3.817  24.091  0.1539  0.1605 -0.1444
29616W        W36066  17.936   1.261  11.659 -0.1302  0.0329  0.0266
29617W        W36067  11.919   0.015   4.368  0.0816 -0.1502 -0.1245
29618W        W36068  22.106   4.706  29.268  0.1103 -0.0377  0.0620
29619W        W36069  23.791   5.658   5.585  0.1142  0.0401 -0.1176
29620W        W36070  23.256   3.325  21.852  0.3129 -0.1547 -0.1878
29621W        W36071  17.913   0.006  22.466 -0.0090 -0.0167  0.1330
29622W        W36072  16.179   5.285   4.105  0.0490 -0.3980  0.3538
29623W        W36073   7.421   6.030  23.536  0.3909  0.1467  0.1394
29624W        W36074  16.521   3.352   3.278  0.2712 -0.0281 -0.1293
29625W        W36075  13.336   3.606   3.106  0.1677 -0.1340  0.1030
29626W        W36076   1.590   2.635  33.507 -0.3084 -0.1500  0.1769
29627W        W36077  11.379   1.261  28.474  0.0996 -0.1821  0.0994
29628W        W36078   9.510   5.149   2.315 -0.1162  0.0160 -0.0466
29629W        W36079   8.406   0.888   9.335  0.2167  0.2736 -0.1431
29630W        W36080  19.379   3.450  33.367  0.1149  0.0810  0.0187
29631W        W36081  16.593   0.149   3.354  0.1352 -0.0945 -0.3275
29632W        W36082  11.248   0.512  25.545 -0.1837  0.2060  0.2164
29633W        W36083   2.921   3.761  32.867 -0.0570 -0.2479 -0.0869
29634W        W36084   4.881   3.973   1.275 -0.0329 -0.1662 -0.0896
29635W        W36085  23.016   3.415  10.962 -0.0882 -0.5584  0.1349
29636W        W36086  21.746   2.065  11.403  0.0959 -0.1391 -0.0244
29637W        W36087   4.775   1.817  23.641 -0.2169  0.0523  0.3208
29638W        W36088  25.770   4.143  26.117  0.0273 -0.1367 -0.3596
29639W        W36089  11.710   4.635  33.180 -0.0106  0.0406 -0.0684
29640W        W36090   8.955   4.563   7.399  0.0798  0.1223 -0.0595
29641W        W36091   8.790   2.379  34.914  0.0314  0.1684 -0.0801
29642W        W36092   9.293   1.491   0.634 -0.3313 -0.0829 -0.0905
29643W        W36093  19.058   0.739  35.483 -0.0522 -0.3055 -0.0904
29644W        W36094   8.192   3.195   3.368 -0.0131 -0.0481  0.1092
29645W        W36095  17.984   1.710  31.648 -0.2123 -0.0487  0.0266
29646W        W36096  21.430   3.910  31.380  0.1323 -0.0745 -0.2211
29647W        W36097   8.058   4.121   3.286  0.1326 -0.1633  0.0750
29648W        W36098  15.153   0.257  27.248  0.2404 -0.0849  0.4344
29649W        W36099  23.320   1.005  27.661  0.0945  0.0812 -0.0735
29650W        W36100  11.020   1.979   6.145 -0.0901  0.2410 -0.1705
29651W        W36101   2.842   2.460  33.598  0.1133 -0.1091 -0.1171
29652W        W36102   1.917   1.532  28.599 -0.3086  0.2585  0.1326
29653W        W36103  26.215   5.795   6.113  0.1128 -0.0311  0.0247
29654W        W36104  24.376   1.956  10.135 -0.0995  0.0053  0.0146
29655W        W36105   9.465   1.664   1.991  0.1316  0.0025 -0.0599
29656W        W36106  24.177   2.493  32.735 -0.0829 -0.2165 -0.2825
29657W        W36107  20.181   1.012  32.905  0.1772  0.1494 -0.2572
29658W        W36108  12.374   1.028  21.691 -0.1470 -0.0784  0.1389
29659W        W36109  24.860   0.905  33.055 -0.0306  0.0986 -0.0760
29660W        W36110  16.931   0.687  35.317 -0.1655 -0.0360  0.2900
29661W        W36111  13.662   5.027   6.869 -0.1994  0.3351  0.2030
29662W        W36112  11.476   6.443  34.816 -0.1181  0.2498 -0.1461
29663W        W36113  19.633   0.133   3.354 -0.0150 -0.0228  0.0818
29664W        W36114   2.161   5.580   1.467  0.0197  0.1708  0.0231
29665W        W36115  17.372   2.852   6.534  0.1189  0.2270 -0.2429
29666W        W36116  22.531   3.268   5.988  0.0143  0.0012 -0.1183
29667W        W36117  20.926   6.566  28.857 -0.0361  0.0028 -0.1260
29668W        W36118  12.646   1.846  23.199 -0.0432  0.1009  0.1531
29669W        W36119  23.087   3.288  15.000 -0.1173  0.0066  0.1609
29670W        W36120  26.263   5.632  25.907  0.1320  0.1733 -0.0788
29671W        W36121  15.308   2.896   3.814 -0.0677 -0.1314 -0.1485
29672W        W36122  22.808   6.324  23.148  0.1044 -0.1751 -0.3752
29673W        W36123   6.908   5.312  33.547  0.0645  0.0689  0.3430
29674W        W36124  11.805   0.874  12.667 -0.0165 -0.1955  0.2691
29675W        W36125  22.720   0.059   7.322  0.1013  0.1529  0.1889
29676W        W36126  25.229   3.368  24.150  0.1766  0.0180 -0.4339
29677W        W36127  23.446   1.094  13.532  0.1816 -0.4506  0.0009
29678W        W36128   4.659   6.077  23.729 -0.2218  0.1415  0.1400
29679W        W36129  24.667   6.031  26.997 -0.0115  0.0438  0.1472
29680W        W36130  19.936   1.995  12.237 -0.1621 -0.0607 -0.1507
29681W        W36131  16.557   2.294  25.305 -0.2193  0.1043 -0.1482
29682W        W36132  24.138   4.612   7.170 -0.1952 -0.0554 -0.3549
29683W        W36133  14.171   0.186  32.048 -0.1363  0.0042  0.3035
29684W        W36134  18.306   4.530  31.746 -0.0170  0.1336 -0.1682
29685W        W36135  11.063   2.469  21.997  0.0228 -0.2028 -0.0270
29686W        W36136  20.268   0.951  25.020 -0.0767 -0.2442  0.2569
29687W        W36137  21.485   1.332   7.018 -0.2437 -0.0751  0.0254
29688W        W36138   8.208   5.231  31.640 -0.1697 -0.1340  0.0500
29689W        W36139  22.954   1.396   5.796  0.0662 -0.0707 -0.0093
29690W        W36140  24.915   2.316  27.104 -0.2245  0.2530 -0.1095
29691W        W36141  16.202   0.668  22.678  0.1743 -0.2372 -0.0883
29692W        W36142  24.009   6.541  20.177 -0.1462 -0.3466  0.0552
29693W        W36143  26.431   1.385   2.517  0.0006  0.0671 -0.0108
29694W        W36144  15.881   6.367  11.641  0.0767  0.0743  0.2019
29695W        W36145   8.511   0.502  12.222  0.1773  0.0686  0.1521
29696W        W36146  25.209   2.548   3.945  0.1367 -0.1745 -0.0967
29697W        W36147  22.040   4.734  32.108  0.2934 -0.4579 -0.2041
29698W        W36148  26.184   0.819   1.564  0.0254  0.2826 -0.1229
29699W        W36149  14.347   3.109  26.262  0.2248  0.1000 -0.2005
29700W        W36150  20.169   2.851  34.976  0.0526 -0.0879 -0.0717
29701W        W36151   3.936   6.205   2.765  0.0282  0.1300 -0.1860
29702W        W36152   9.557   6.375  28.480  0.1502  0.0630  0.0999
29703W        W36153   8.828   0.691  15.117  0.0310  0.0613  0.2192
29704W        W36154   3.091   4.294  29.575  0.1398 -0.2238  0.0962
29705W        W36155  23.157   2.505  30.679  0.2712  0.1018  0.2842
29706W        W36156  25.760   1.251  14.223  0.0879 -0.1898  0.0420
29707W        W36157   6.566   2.467  12.219 -0.0323 -0.1335 -0.1675
29708W        W36158  13.461   4.354   6.392 -0.0188 -0.3288 -0.2582
29709W        W36159  23.016   1.253  30.431  0.0847 -0.1643 -0.0325
29710W        W36160  26.403   3.716   5.102 -0.0824 -0.3474  0.0751
29711W        W36161   7.636   3.662  14.466  0.1617 -0.3247  0.0271
29712W        W36162   0.753   3.569   2.720 -0.2252 -0.0829 -0.0083
29713W        W36163  16.889   4.286   7.627  0.2231 -0.0443 -0.2263
29714W        W36164  12.514   4.400  32.977 -0.2808 -0.1211 -0.0396
29715W        W36165  15.022   5.672  10.516  0.1067  0.0780  0.0187
29716W        W36166  20.512   1.196  23.000 -0.2861  0.0815 -0.1409
29717W        W36167  14.522   4.060   1.694  0.0920  0.5221 -0.0205
29718W        W36168  12.563   5.999  21.691 -0.4062 -0.0693 -0.3535
29719W        W36169  25.591   6.381   2.463 -0.1511  0.0297  0.1111
29720W        W36170   4.037   1.789   6.334 -0.2025  0.1687  0.1093
29721W        W36171  12.554   5.525  24.775  0.2006  0.0528 -0.0510
29722W        W36172   7.151   2.142   0.433  0.0264  0.0842 -0.0680
29723W        W36173  18.266   5.795  10.703  0.0977 -0.3142 -0.1450
29724W        W36174  12.346   2.203  31.404 -0.0768  0.0231 -0.1062
29725W        W36175  17.622   1.586   4.395 -0.1615  0.4508  0.1137
29726W        W36176   9.709   2.382   3.320  0.2391  0.3470 -0.1436
29727W        W36177  11.074   2.213   7.255  0.1961 -0.0806 -0.1072
29728W        W36178  25.239   3.347   2.491 -0.3177 -0.3340 -0.1867
29729W        W36179  25.060   3.170  28.277  0.0429  0.3296 -0.2065
29730W        W36180  17.558   1.941  31.635 -0.0206 -0.0751  0.0008
29731W        W36181  25.278   4.904  30.130 -0.0218 -0.2953  0.2587
29732W        W36182  13.703   4.160   7.439  0.0365 -0.0915 -0.3030
29733W        W36183  11.284   6.131  35.498  0.0163  0.5369  0.1678
29734W        W36184  21.796   2.826  29.151 -0.1862 -0.0458  0.2187
29735W        W36185  23.899   1.916  13.802 -0.1522  0.0506  0.0103
29736W        W36186  10.613   2.997   9.930  0.0952  0.1045 -0.1994
29737W        W36187   4.775   6.593  11.582  0.2823 -0.0027 -0.1751
29738W        W36188   1.097   5.725  31.212  0.0638 -0.1522  0.0709
29739W        W36189  10.605   0.590   8.596  0.0437 -0.0424  0.1295
29740W        W36190  18.093   4.702   9.399  0.0656  0.1878  0.4273
29741W        W36191   7.184   2.635   4.019  0.2136 -0.2676  0.0915
29742W        W36192   3.306   4.480  35.221  0.1680 -0.1871  0.1876
29743W        W36193  14.332   1.404  23.353  0.1641 -0.4275  0.1194
29744W        W36194  10.175   1.355   9.617  0.0359 -0.0314 -0.4375
29745W        W36195  12.399   1.922  12.721  0.1023 -0.2287  0.3553
29746W        W36196  15.777   3.878  27.462 -0.0514  0.1652 -0.2073
29747W        W36197   9.164   3.272  30.651 -0.2498 -0.0260  0.0005
29748W        W36198  19.088   2.309   0.858 -0.2053 -0.0406  0.2348
29749W        W36199  15.302   5.134   8.073  0.1368 -0.1048 -0.0441
29750W        W36200  26.391   0.554  12.746  0.2412  0.0947 -0.3251
29751W        W36201  19.673   3.601   1.709 -0.0048 -0.2967 -0.0388
29752W        W36202   2.984   4.891  30.821  0.1350  0.0695  0.0944
29753W        W36203  13.302   3.589  23.838  0.0242  0.0746 -0.1208
29754W        W36204  24.628   1.929   3.787  0.0157 -0.2583 -0.0986
29755W        W36205  22.018   4.760   3.194 -0.1390 -0.0307 -0.0045
29756W        W36206  19.410   0.933  12.062  0.0652  0.6682 -0.0472
29757W        W36207  21.951   0.490  25.039  0.0320 -0.1369 -0.0046
29758W        W36208  19.834   3.345  35.732 -0.3424 -0.0550 -0.0249
29759W        W36209  14.616   1.781   1.883  0.1357  0.3379 -0.3270
29760W        W36210  19.308   4.367  31.599  0.0844  0.3004 -0.3252
29761W        W36211  12.162   3.382  23.540 -0.0632  0.1879 -0.0506
29762W        W36212   2.457   0.429  24.756 -0.0310  0.0198  0.1001
29763W        W36213  13.116   3.130  23.449 -0.0168 -0.0415  0.1630
29764W        W36214   6.016   5.258  26.588 -0.2236  0.2447 -0.2937
29765W        W36215  22.641   4.458  23.514  0.1223  0.0640  0.2363
29766W        W36216  15.922   2.497  23.888 -0.0970  0.5235 -0.0942
29767W        W36217  24.829   0.758  28.242 -0.0694  0.0604  0.1978
29768W        W36218  24.166   6.152   4.393  0.1217  0.1750 -0.1178
29769W        W36219  15.141   5.862  15.228 -0.0520 -0.0154  0.1576
29770W        W36220  14.029   0.992   3.583  0.2005  0.1971  0.0009
29771W        W36221   6.832   5.294  35.313  0.1399  0.2038  0.0299
29772W        W36222  20.216   5.908  20.270 -0.0524 -0.1718  0.2241
29773W        W36223  21.529   5.815  24.220  0.0136  0.2452  0.0702
29774W        W36224   6.078   6.120   8.681 -0.1738 -0.0691 -0.1159
29775W        W36225  24.640   0.553  29.751  0.2148 -0.1142 -0.1743
29776W        W36226  20.187   4.888   4.783 -0.1112  0.0666 -0.0735
29777W        W36227   6.231   4.366  30.856 -0.0611  0.0996 -0.1531
29778W        W36228  10.644   6.253   4.069  0.0938  0.2354 -0.0758
29779W        W36229   5.135   2.252   3.155  0.0411 -0.1815 -0.0164
29780W        W36230   5.291   6.398  24.698 -0.1339  0.0762  0.1976
29781W        W36231  18.113   3.190  10.743 -0.2222  0.1376 -0.0130
29782W        W36232  13.240   2.996  10.796 -0.3978 -0.2143  0.4710
29783W        W36233   5.124   6.535   1.037  0.1286  0.2166 -0.1233
29784W        W36234   1.054   3.127  34.155 -0.0594 -0.2794 -0.1483
29785W        W36235   7.716   3.098  26.262 -0.1408  0.2405  0.2771
29786W        W36236   1.745   5.208  26.089  0.1203 -0.1441 -0.1119
29787W        W36237  16.463   5.778  34.646  0.2076  0.3266  0.2855
29788W        W36238  13.131   4.220  11.442  0.0297  0.1401 -0.4911
29789W        W36239  15.739   5.828  11.529 -0.3157 -0.0970  0.1787
29790W        W36240  15.055   4.448  22.970 -0.1518  0.0108 -0.0646
29791W        W36241  24.806   2.809  21.337 -0.2991 -0.0219 -0.0244
29792W        W36242  16.296   1.050  33.151 -0.0903  0.1521 -0.2770
29793W        W36243  17.533   6.299  21.533 -0.1018 -0.0021 -0.2198
29794W        W36244  19.770   0.949  27.461  0.1326 -0.1610 -0.0861
29795W        W36245  10.459   2.283  23.913  0.0030 -0.0782  0.0905
29796W        W36246  16.716   6.155   4.197 -0.1061 -0.0361 -0.3410
29797W        W36247  12.401   5.862  34.002 -0.0288  0.0170 -0.1522
29798W        W36248   7.755   2.258  22.178  0.1661 -0.1841 -0.0142
29799W        W36249  19.455   2.488  28.522 -0.2548  0.0304  0.0708
29800W        W36250  18.431   5.313  21.749  0.1115 -0.1134 -0.0183
29801W        W36251  16.561   2.932  24.082 -0.1019 -0.1499  0.0066
29802W        W36252  22.017   2.748   9.021 -0.2451  0.3279  0.1739
29803W        W36253  13.294   5.217   2.755 -0.1586  0.0462  0.1782
29804W        W36254  14.619   6.427  35.947  0.0250 -0.1063 -0.0365
29805W        W36255  20.917   3.130  14.728 -0.0095 -0.1854  0.0814
29806W        W36256   0.445   0.331   7.265  0.2942  0.2123 -0.1554
29807W        W36257  12.650   6.493   7.652  0.1621 -0.0657 -0.0969
29808W        W36258  22.783   4.333   0.368 -0.0613 -0.2296  0.0171
29809W        W36259   1.175   5.186   8.569  0.0246  0.0602 -0.0153
29810W        W36260  16.131   1.260  24.302  0.0821  0.0089  0.2268
29811W        W36261  24.729   0.259  31.820 -0.2480  0.0317  0.2555
29812W        W36262  20.805   3.740  10.564 -0.1660  0.0359 -0.1330
29813W        W36263  25.720   1.174   0.063  0.0786 -0.1464  0.2538
29814W        W36264  10.613   5.562   4.835  0.1870  0.4266 -0.0418
29815W        W36265  13.842   5.115   5.030  0.0279 -0.2179  0.0810
29816W        W36266  21.308   6.254   5.706  0.2717  0.1466 -0.0369
29817W        W36267   1.395   1.795  26.529  0.1689 -0.0452 -0.1795
29818W        W36268   1.146   3.206   9.919 -0.0692 -0.2124 -0.2947
29819W        W36269  24.897   1.375  30.912 -0.0611  0.0775 -0.1877
29820W        W36270   6.912   1.091  13.528 -0.0395  0.2212 -0.1908
29821W        W36271  26.070   5.065  21.314  0.1697  0.1712 -0.1519
29822W        W36272   3.531   4.959  30.859  0.2393 -0.4846  0.0102
29823W        W36273   0.231   4.894   0.629  0.1323  0.0517  0.2137
29824W        W36274   0.494   5.880   0.457 -0.1033  0.1117  0.0593
29825W        W36275  16.545   4.487  22.299 -0.0841 -0.0713 -0.1042
29826W        W36276   1.680   1.246  34.386  0.1205 -0.0173  0.2552
29827W        W36277  23.050   2.196  22.572  0.1221  0.4960  0.0159
29828W        W36278   4.117   1.377  32.164  0.0002 -0.2851  0.0238
29829W        W36279   3.867   0.683   9.708  0.0129  0.0450 -0.4852
29830W        W36280   6.866   5.238  31.495 -0.1224  0.0363  0.1077
29831W        W36281  13.186   0.576   2.495  0.1652 -0.0228  0.1779
29832W        W36282   8.982   3.655   1.935  0.1592  0.3345 -0.2999
29833W        W36283  23.484   3.727  13.206  0.1889  0.5770 -0.2616
29834W        W36284  21.558   2.421  31.334 -0.0283 -0.0392  0.0486
29835W        W36285   3.252   3.650   0.871  0.2724  0.2609 -0.0621
29836W        W36286   5.479   6.165   3.707  0.1095 -0.0169  0.1563
29837W        W36287  17.332   0.266   6.881  0.1393 -0.1346  0.0151
29838W        W36288  19.919   6.508   3.832 -0.3703 -0.1514 -0.1363
29839W        W36289   7.757   5.983  32.591 -0.1346  0.0555  0.0751
29840W        W36290  12.574   2.539  33.827 -0.3195  0.0911 -0.0225
29841W        W36291   2.168   3.657  24.976 -0.2287  0.0057 -0.0145
29842W        W36292  24.681   5.073  28.532  0.1549  0.1325 -0.0599
29843W        W36293  13.763   5.251   0.783 -0.1167 -0.3436  0.2681
29844W        W36294   4.247   3.286   3.831 -0.0409 -0.0987  0.0956
29845W        W36295  17.496   4.909   6.001  0.0948  0.2838 -0.0637
29846W        W36296   7.287   1.117  34.823 -0.0377 -0.1301  0.0422
29847W        W36297  21.454   0.176  33.995 -0.0706 -0.5194  0.0440
29848W        W36298  11.042   0.353  15.348 -0.0895  0.3294  0.2123
29849W        W36299   2.106   1.521  23.898  0.0005 -0.1334 -0.0055
29850W        W36300  18.098   1.383  21.765 -0.2958 -0.1753 -0.1623
29851W        W36301  12.818   4.562  23.327 -0.1437  0.0960 -0.0008
29852W        W36302  21.500   6.444  23.365 -0.0650 -0.0502 -0.1612
29853W        W36303   4.053   2.981  28.678  0.0745 -0.0928  0.0272
29854W        W36304   5.370   2.079   1.630 -0.0448 -0.0412 -0.0699
29855W        W36305  15.423   5.871  25.813 -0.1889  0.4961 -0.0102
29856W        W36306   9.142   1.870   8.169  0.0364 -0.2454 -0.1626
29857W        W36307   5.628   2.128  12.734  0.4477  0.2674  0.1458
29858W        W36308   1.723   0.588  22.068  0.0551  0.0496 -0.1477
29859W        W36309   3.265   0.847   2.515  0.1334  0.0461  0.0883
29860W        W36310   4.647   1.585  27.491  0.1266 -0.0076 -0.3612
29861W        W36311   2.030   5.951   9.965 -0.1525  0.1005 -0.2038
29862W        W36312   2.059   6.250  21.820  0.2970 -0.2510 -0.1725
29863W        W36313  20.190   1.114  10.674 -0.0485  0.1703  0.1172
29864W        W36314   7.656   1.771   7.442 -0.1396 -0.3400 -0.5687
29865W        W36315  15.004   6.530   4.869 -0.0258 -0.2571  0.0697
29866W        W36316  24.811   3.190  21.601  0.0106  0.1950 -0.0381
29867W        W36317  22.162   0.733  11.686  0.1208  0.0005  0.0202
29868W        W36318   4.781   4.952  35.243 -0.0995 -0.1055 -0.0372
29869W        W36319  21.256   5.710   6.899 -0.0175 -0.2303 -0.1151
29870W        W36320  12.411   3.092  33.046 -0.0017 -0.1360 -0.0311
29871W        W36321  10.077   0.342  21.582  0.4033 -0.2432  0.0587
29872W        W36322  23.450   6.553  32.872 -0.0249 -0.1233 -0.0951
29873W        W36323   0.533   6.176  26.490  0.0513  0.1040  0.4780
29874W        W36324  26.104   3.394  35.576 -0.0826  0.1095 -0.0816
29875W        W36325  11.991   4.583  22.316  0.0225 -0.2080  0.1465
29876W        W36326  10.505   1.882  24.242  0.1386 -0.1684  0.0655
29877W        W36327  14.229   2.509  24.130  0.1208 -0.0042  0.0037
29878W        W36328  11.147   4.090  27.059  0.1267 -0.1374 -0.0040
29879W        W36329  22.720   3.866  22.697  0.2231  0.1526  0.1484
29880W        W36330  15.674   6.578  10.182  0.0082  0.1877  0.0765
29881W        W36331  19.032   5.475   1.064  0.2074 -0.0494  0.1623
29882W        W36332   2.218   5.481  28.448 -0.1462  0.0416 -0.0060
29883W        W36333   9.785   2.729  32.134 -0.0062  0.0398 -0.4657
29884W        W36334  14.749   5.844  25.605 -0.0353  0.0585  0.0236
29885W        W36335   0.547   0.431  33.042  0.1141 -0.1345 -0.1990
29886W        W36336  11.168   5.331  10.538 -0.0241 -0.1022 -0.1474
29887W        W36337  10.553   6.256   1.248 -0.0485 -0.0714  0.0501
29888W        W36338   2.267   0.279   4.556  0.0051  0.0679  0.2160
29889W        W36339  22.287   6.294   1.203  0.0788 -0.0425 -0.2310
29890W        W36340   2.005   3.505  20.991 -0.0196 -0.0113  0.1469
29891W        W36341  22.260   4.790  24.332 -0.0463 -0.0309 -0.1094
29892W        W36342   8.296   1.752  21.133 -0.4155  0.1027  0.1700
29893W        W36343  14.059   2.009  29.167 -0.1887 -0.1904  0.1176
29894W        W36344  16.571   3.004  34.700  0.3794  0.0836  0.0856
29895W        W36345  19.264   1.563  15.440 -0.4154 -0.3327 -0.2839
29896W        W36346  19.343   1.788  22.126 -0.2970  0.0131  0.0052
29897W        W36347   2.242   1.119   5.547 -0.0802 -0.2190  0.1981
29898W        W36348  20.294   3.987  14.098  0.1676  0.0800  0.1004
29899W        W36349  21.322   6.423  29.226  0.1484 -0.0465  0.1372
29900W        W36350  18.306   1.096   9.785  0.1052  0.0176 -0.0150
29901W        W36351   9.164   3.098   2.308  0.2642 -0.0853  0.1832
29902W        W36352  13.331   6.326   1.278  0.1828 -0.2179 -0.1646
29903W        W36353  26.210   1.397  31.428  0.1920 -0.3168  0.1088
29904W        W36354  13.927   2.124  32.845  0.1986  0.0148 -0.1339
29905W        W36355  15.546   5.187  28.659  0.0817  0.0353  0.1165
29906W        W36356  22.642   5.758  14.726  0.0800 -0.1271  0.1207
29907W        W36357   8.966   2.448  14.305 -0.1635 -0.1653  0.1491
29908W        W36358  10.874   1.120  20.555  0.4114  0.3053  0.1584
29909W        W36359   4.768   4.918  10.973  0.0483 -0.0128  0.0590
29910W        W36360   7.531   2.194  26.425 -0.1964 -0.1399  0.0254
29911W        W36361  18.546   0.236   2.543 -0.0362  0.0487 -0.1530
29912W        W36362   5.996   3.454  21.867  0.0253 -0.1016 -0.3601
29913W        W36363  12.972   4.096  20.504  0.1517  0.3789 -0.0585
29914W        W36364  26.129   0.829   3.177 -0.2149 -0.1405  0.0499
29915W        W36365  14.859   4.678   0.457  0.2754 -0.1863 -0.0261
29916W        W36366  15.740   4.505  35.889  0.2673 -0.0631 -0.2419
29917W        W36367   6.067   5.271  33.488 -0.0527  0.0418  0.3543
29918W        W36368  10.245   2.049  15.044 -0.1389  0.0112  0.2986
29919W        W36369  12.826   0.838   6.410 -0.0304 -0.2211 -0.0858
29920W        W36370  23.655   6.464   2.097 -0.0563 -0.1149  0.0847
29921W        W36371  16.572   3.847  33.439  0.0853 -0.1442  0.0608
29922W        W36372  18.710   0.574   9.033 -0.0695  0.0151 -0.0719
29923W        W36373  22.529   0.814  34.710  0.0029 -0.0824  0.4124
29924W        W36374  12.898   1.211   7.429  0.2221 -0.0515  0.0888
29925W        W36375  13.160   3.815   6.677  0.2473 -0.4133 -0.0039
29926W        W36376  16.111   3.903  29.387 -0.0071 -0.1332 -0.0195
29927W        W36377   1.441   0.551  14.000 -0.2867  0.2735 -0.2967
29928W        W36378   1.971   2.302   7.977 -0.1589 -0.2263  0.2967
29929W        W36379  12.660   5.412  13.461 -0.1349 -0.1641 -0.1173
29930W        W36380   9.246   1.124  35.158  0.0436  0.1365 -0.1450
29931W        W36381   0.102   0.495   5.586 -0.0765  0.1112 -0.2361
29932W        W36382  12.181   2.356  12.591  0.1379 -0.0201 -0.1870
29933W        W36383  25.917   5.456  28.163 -0.0570  0.0479 -0.1862
29934W        W36384   9.607   4.088  11.245  0.1395 -0.0488 -0.1826
29935W        W36385   7.628   0.327   6.397 -0.1130 -0.2519 -0.0333
29936W        W36386   2.493   4.767  30.397  0.0443 -0.0942 -0.0211
29937W        W36387  20.488   0.153  12.259  0.1283 -0.0128  0.1187
29938W        W36388   3.423   0.890   1.686 -0.2359 -0.1637  0.1221
29939W        W36389   5.318   0.512  35.633 -0.0900 -0.1741  0.1154
29940W        W36390   2.983   2.885  10.810  0.1653  0.0978 -0.0823
29941W        W36391   4.744   1.909  10.840 -0.1454  0.1574 -0.1557
29942W        W36392   9.708   2.164  34.206  0.2713 -0.2037 -0.0639
29943W        W36393  15.092   6.367  26.465  0.0920 -0.4392  0.0173
29944W        W36394   3.073   3.364  12.964 -0.0866  0.2745  0.1159
29945W        W36395   7.167   4.198  34.166  0.0664 -0.0534  0.0247
29946W        W36396  22.763   4.390   5.347  0.0511 -0.0140 -0.2359
29947W        W36397  19.149   2.598   7.444 -0.0244 -0.2095  0.0372
29948W        W36398   2.938   4.844  12.027 -0.1197 -0.1187  0.3615
29949W        W36399  23.841   0.356  21.727  0.0520 -0.0705  0.2373
29950W        W36400   6.576   2.199   9.001 -0.1365  0.0518 -0.0218
29951W        W36401   9.109   0.997  25.177 -0.2096 -0.0876  0.2843
29952W        W36402  24.688   1.423   1.013  0.0346  0.1026  0.1369
29953W        W36403   4.105   5.048  22.333 -0.3434  0.0095  0.0710
29954W        W36404  13.583   1.213   6.879  0.0586 -0.1573  0.0894
29955W        W36405   3.787   4.348  20.524  0.0215  0.1453 -0.3892
29956W        W36406  22.126   5.294  15.226 -0.5551  0.1486 -0.0347
29957W        W36407  10.040   5.048   1.628  0.2391 -0.0522 -0.2558
29958W        W36408  19.680   4.192  27.788 -0.1637  0.3433 -0.0219
29959W        W36409   6.884   4.828  30.265 -0.0274 -0.0495  0.1214
29960W        W36410   0.680   5.287  33.009  0.2424  0.0074  0.0983
29961W        W36411  11.693   4.304  24.683  0.1447 -0.1453 -0.1982
29962W        W36412  20.147   4.138   2.822  0.2070  0.1218  0.1279
29963W        W36413  25.788   4.824  22.619 -0.0744  0.1362  0.2944
29964W        W36414   5.144   0.496   9.048 -0.0317 -0.1204 -0.0032
29965W        W36415   7.430   0.967   2.135 -0.0264  0.2035  0.0578
29966W        W36416   2.272   1.962   4.407 -0.1148 -0.0832 -0.0101
29967W        W36417  23.241   3.622   8.691  0.2500  0.2430  0.0045
29968W        W36418  14.736   0.211  30.201 -0.3486  0.1141  0.0608
29969W        W36419  14.444   3.803  10.103  0.1419 -0.2443 -0.1813
29970W        W36420  13.845   3.486  28.388  0.2714  0.1949  0.0137
29971W        W36421  22.684   1.509  21.462 -0.1453 -0.0486  0.3406
29972W        W36422  25.584   4.995  28.888  0.1895 -0.0655  0.0409
29973W        W36423   0.585   6.166  34.616 -0.2004 -0.0986 -0.2480
29974W        W36424  13.097   0.503  33.217  0.1134 -0.0624 -0.1211
29975W        W36425   9.993   3.215  14.103  0.0307  0.2138 -0.1720
29976W        W36426  17.218   1.688  32.681  0.0833 -0.3460 -0.0190
29977W        W36427  16.223   4.046  28.873 -0.0474  0.1134 -0.2672
29978W        W36428  11.579   3.654   5.197 -0.0304 -0.4614 -0.1223
29979W        W36429  13.139   4.251  33.779  0.0376  0.1835 -0.1291
29980W        W36430  23.862   5.110  30.381 -0.1472  0.1034 -0.1573
29981W        W36431   4.680   3.604  14.045 -0.2550  0.0575  0.2969
29982W        W36432  15.075   0.415  10.091 -0.0353  0.0477  0.1946
29983W        W36433  24.360   6.438  24.737  0.0376 -0.1513  0.0965
29984W        W36434  25.649   0.376  33.467  0.2190  0.0599  0.0393
29985W        W36435   2.021   6.220  35.119 -0.1206  0.1731 -0.1481
29986W        W36436  24.052   4.260  12.257 -0.0045  0.1432 -0.0326
29987W        W36437  24.426   3.410  35.333  0.1028 -0.0843 -0.1889
29988W        W36438  20.104   0.226  35.992 -0.1677  0.1201  0.0431
29989W        W36439  15.359   5.815  29.827 -0.0646  0.2305  0.1671
29990W        W36440   3.204   6.508  31.727  0.0303  0.1382  0.0024
29991W        W36441  20.894   6.296  11.223  0.1490  0.1024 -0.1754
29992W        W36442  15.914   3.568  32.168 -0.0181  0.1875 -0.1387
29993W        W36443  13.575   3.345   7.667 -0.1018  0.0480  0.1342
29994W        W36444  14.301   2.673  23.691  0.0572 -0.0086 -0.0298
29995W        W36445  19.973   6.003  26.820  0.1966 -0.0009  0.2016
29996W        W36446  17.609   3.318   3.153 -0.3927  0.2260 -0.1730
29997W        W36447  14.042   2.982  29.371  0.1393 -0.1310  0.3912
29998W        W36448  18.204   4.740  24.056  0.0937 -0.3267 -0.1757
29999W        W36449  19.606   0.196  13.294  0.2766 -0.2137 -0.0251
30000W        W36450   0.796   2.400  13.801 -0.1035 -0.0073 -0.0293
30001W        W36451  20.588   0.995  34.238 -0.0599  0.0328 -0.2636
30002W        W36452  22.277   6.182  25.424 -0.1885 -0.0689 -0.0468
30003W        W36453   6.323   0.868   4.395  0.1481 -0.4042  0.1843
30004W        W36454   5.273   1.527  33.886 -0.1730 -0.1401  0.1373
30005W        W36455  13.854   3.275  35.527  0.1362  0.1783  0.1072
30006W        W36456   2.211   0.341   7.591  0.2326  0.0618  0.0787
30007W        W36457  22.139   0.939   2.422 -0.2173 -0.1451 -0.2768
30008W        W36458  25.369   5.343  34.204  0.0111 -0.2779  0.3183
30009W        W36459   5.818   6.501   0.508 -0.1190 -0.1393 -0.1391
30010W        W36460   2.164   3.975  13.039  0.0202  0.2184 -0.0855
30011W        W36461  16.726   6.207   6.895  0.0746 -0.1143  0.1690
30012W        W36462  20.596   0.634  22.902 -0.1452 -0.3181 -0.2012
30013W        W36463   8.266   5.624  29.240 -0.0218 -0.3387 -0.2285
30014W        W36464  23.170   2.716   8.981  0.0871 -0.0232  0.2307
30015W        W36465  20.223   4.490  10.059  0.2993 -0.1044  0.1153
30016W        W36466   4.825   4.483  30.964  0.0736  0.1397  0.1025
30017W        W36467  11.384   2.286   5.135 -0.2433 -0.2504  0.1913
30018W        W36468   2.120   2.481  22.905 -0.2370 -0.0726 -0.0502
30019W        W36469  20.003   4.847  24.923  0.3454  0.1046 -0.0236
30020W        W36470  13.961   1.002  35.441 -0.2256 -0.0192 -0.1722
30021W        W36471  21.643   1.368  12.165  0.1282  0.3205 -0.1275
30022W        W36472   1.860   4.304  29.345  0.0695 -0.2623 -0.1508
30023W        W36473   5.758   0.709  30.607 -0.0013  0.0887 -0.2669
30024W        W36474  12.019   1.948   0.348 -0.0940  0.4496  0.0257
30025W        W36475  12.837   1.554  22.348 -0.0840 -0.3882  0.0545
30026W        W36476  12.284   1.486  24.136  0.2919  0.2098  0.0239
30027W        W36477   6.815   1.429  11.084 -0.1519  0.1273 -0.2394
30028W        W36478  20.660   1.399   5.178 -0.2260  0.0189 -0.1868
30029W        W36479  25.321   2.550  21.187  0.0872 -0.3328 -0.1512
30030W        W36480  11.811   3.797   7.369 -0.3458 -0.1593 -0.1984
30031W        W36481  22.807   5.443  25.958 -0.1072 -0.0606 -0.0952
30032W        W36482  17.710   5.109  13.907  0.0599  0.0986 -0.3160
30033W        W36483  19.853   6.350  24.020  0.0433  0.1260 -0.0371
30034W        W36484   5.902   3.111  23.342  0.2724 -0.2695 -0.1205
30035W        W36485  24.428   3.512  33.547  0.0680  0.3590 -0.0527
30036W        W36486   2.345   5.748  33.059 -0.0982 -0.3195 -0.2561
30037W        W36487  24.326   4.302  33.900 -0.2261  0.0093  0.0219
30038W        W36488  14.228   5.496  22.888  0.0431 -0.4250  0.0381
30039W        W36489  22.596   1.672  34.664 -0.0530  0.1936  0.1008
30040W        W36490  19.594   5.975  29.577 -0.2599  0.4045 -0.3698
30041W        W36491   3.340   0.079   5.842 -0.2193  0.4689 -0.2401
30042W        W36492  18.207   2.323  21.473 -0.0063 -0.3100  0.2425
30043W        W36493   7.550   0.913  25.985 -0.1115  0.1482  0.0285
30044W        W36494  12.798   0.308   2.378 -0.0517 -0.0145 -0.4933
30045W        W36495  14.331   0.839  15.502 -0.0476 -0.0876 -0.0654
30046W        W36496  16.137   1.076  23.049  0.4632  0.1124 -0.0481
30047W        W36497   8.780   3.812  20.875  0.1389 -0.2889 -0.2293
30048W        W36498  19.733   3.901   9.421  0.0373  0.2012 -0.0242
30049W        W36499   6.911   3.893  20.636 -0.0129 -0.0231 -0.0667
30050W        W36500   5.749   1.278  11.172  0.0140 -0.1046  0.0147
30051W        W36501   6.738   4.410  34.111  0.4252  0.0855 -0.0873
30052W        W36502  23.590   5.853  21.145  0.2046  0.1321  0.3709
30053W        W36503  13.792   3.631  13.057  0.0379  0.0028 -0.2989
30054W        W36504   5.021   2.406  30.878 -0.1779 -0.1672 -0.1755
30055W        W36505  12.918   0.194  22.599  0.2144 -0.0031  0.1065
30056W        W36506  21.740   4.692   4.030 -0.0976 -0.1626  0.0689
30057W        W36507  19.544   4.417  12.140 -0.1564  0.1875 -0.0955
30058W        W36508   0.950   3.538  14.663  0.0513  0.1412  0.0001
30059W        W36509   0.272   3.961  21.096  0.0204 -0.2093  0.2051
30060W        W36510  24.913   3.850   0.791  0.2604 -0.1165  0.0262
30061W        W36511  10.980   2.477  29.843 -0.2153  0.2742 -0.0767
30062W        W36512   0.390   5.976  23.545 -0.3230 -0.1036 -0.0555
30063W        W36513  23.560   1.521  35.268  0.0520  0.1808 -0.1054
30064W        W36514   5.524   3.678  33.628 -0.1337  0.1083  0.0123
30065W        W36515  10.194   5.470   8.930 -0.1448 -0.2588 -0.2409
30066W        W36516   6.109   1.785  31.520 -0.1371 -0.1862  0.3628
30067W        W36517  17.702   0.443  12.701  0.1239 -0.0188 -0.0065
30068W        W36518   6.260   6.318  25.910  0.1451 -0.1504 -0.1557
30069W        W36519  14.714   0.135  10.468  0.0272 -0.2189 -0.0184
30070W        W36520  12.248   6.333  28.823 -0.0236 -0.0376 -0.2906
30071W        W36521  14.384   3.436  11.047  0.1573 -0.2083  0.1173
30072W        W36522   5.438   3.276   8.425 -0.2244  0.1502 -0.2028
30073W        W36523  25.731   0.171  32.139  0.1518 -0.1337  0.4220
30074W        W36524  11.984   3.890  28.546 -0.2047 -0.2277  0.2850
30075W        W36525  18.071   5.189   0.158  0.2194  0.2694  0.0991
30076W        W36526  20.424   0.236  15.409  0.1403 -0.2092  0.2738
30077W        W36527  23.290   3.120  28.175  0.0238 -0.0906 -0.2488
30078W        W36528  13.666   2.034  12.560  0.1435  0.2301  0.1829
30079W        W36529  23.485   2.812  24.966 -0.1608  0.0548  0.1379
30080W        W36530  24.454   2.742   1.361 -0.0023 -0.1297  0.1852
30081W        W36531  25.524   6.268  14.617  0.0927 -0.2398 -0.2005
30082W        W36532  24.631   5.881  23.546 -0.1130 -0.1477  0.3291
30083W        W36533   4.348   1.100  35.299  0.4772 -0.2169 -0.1557
30084W        W36534  12.924   2.349   4.050 -0.2982 -0.0452  0.0107
30085W        W36535   1.077   6.040  34.212 -0.1392  0.2010  0.0822
30086W        W36536   7.403   3.246   5.728 -0.0540  0.0061  0.0927
30087W        W36537  14.972   1.745   6.813 -0.0203  0.0547 -0.1003
30088W        W36538   9.336   1.016  26.189  0.1370 -0.0772  0.1941
30089W        W36539  16.775   3.015   2.973 -0.1671 -0.0158 -0.0589
30090W        W36540  20.815   2.492  25.607 -0.2139 -0.1469 -0.1548
30091W        W36541  25.862   2.455  31.532  0.1938 -0.0140 -0.1165
30092W        W36542  24.690   6.462  29.245 -0.0588 -0.1191  0.0935
30093W        W36543  15.858   4.191   7.171  0.2798 -0.0742  0.1995
30094W        W36544  13.949   2.851  21.365 -0.1687 -0.1748  0.2402
30095W        W36545   6.538   5.507  31.747  0.0603  0.0705  0.1776
30096W        W36546  19.672   4.763   3.466  0.1040  0.0726 -0.3163
30097W        W36547  12.578   3.627  35.921  0.1739  0.0409  0.1275
30098W        W36548  25.050   3.273   7.487 -0.1445 -0.2491 -0.2632
30099W        W36549  14.050   2.985   0.111 -0.1295  0.2012  0.0705
30100W        W36550  21.510   2.859   8.146  0.0372 -0.1835 -0.2999
30101W        W36551   6.126   5.346  34.856 -0.0690 -0.0521 -0.0893
30102W        W36552   3.624   4.337   3.762  0.0519  0.4821  0.3639
30103W        W36553  24.638   5.791  26.076  0.3055  0.0531 -0.0105
30104W        W36554  12.291   2.578  12.093  0.1653 -0.1562 -0.0049
30105W        W36555  25.428   3.918  10.014  0.2693  0.1740 -0.0608
30106W        W36556   8.502   5.951  12.348  0.1313 -0.1556  0.1908
30107W        W36557  12.855   3.569  23.583  0.1385 -0.2604  0.0757
30108W        W36558   4.733   1.982  19.800  0.0929  0.0722  0.3151
30109W        W36559   9.507   6.150   7.508  0.2598  0.0475 -0.1272
30110W        W36560  16.675   4.063  12.124 -0.1531 -0.0082  0.2162
30111W        W36561   0.046   5.043  22.915 -0.1439 -0.0971  0.0669
30112W        W36562  11.294   2.037  21.199 -0.0711  0.2510  0.1838
30113W        W36563  14.123   2.554  32.015  0.1881  0.3430 -0.2491
30114W        W36564  26.060   0.939  33.140  0.1851 -0.2513  0.1994
30115W        W36565   8.436   5.814  28.805 -0.1375  0.2962  0.0898
30116W        W36566  18.934   3.821   2.707 -0.0808  0.1386 -0.1124
30117W        W36567  12.576   5.660   3.884  0.0831  0.0932  0.0482
30118W        W36568   2.644   3.037   1.230 -0.2722  0.2180 -0.2700
30119W        W36569  13.748   0.180  34.553 -0.1156 -0.0073  0.0410
30120W        W36570  10.091   5.678   1.782 -0.2922 -0.0038 -0.2132
30121W        W36571  21.535   4.784   5.514  0.0614  0.2701 -0.2951
30122W        W36572   3.549   2.509  25.197 -0.0156 -0.1040  0.0844
30123W        W36573  20.502   1.214  33.255 -0.0796 -0.1938  0.2069
30124W        W36574  12.477   3.238   2.943 -0.1701 -0.0651 -0.1166
30125W        W36575  11.076   2.999  28.611  0.0310  0.5219  0.2410
30126W        W36576  24.128   1.898  26.721  0.1078 -0.0192  0.0085
30127W        W36577   5.038   0.422  23.229  0.0743  0.0614  0.1643
30128W        W36578  25.211   5.581   5.812  0.3266 -0.0271 -0.1952
30129W        W36579  11.100   1.047   3.417  0.1701  0.2468 -0.3590
30130W        W36580  15.507   5.634   5.317 -0.1262  0.0798  0.1041
30131W        W36581   3.893   3.581  21.846 -0.3017  0.0599  0.0937
30132W        W36582  12.153   5.640  32.274  0.0361 -0.1632 -0.0470
30133W        W36583  15.402   1.821  30.777 -0.1354 -0.2049 -0.1309
30134W        W36584  10.721   5.256  30.079  0.0603 -0.1950  0.1144
30135W        W36585   5.915   5.640  11.140  0.2846  0.0812 -0.1148
30136W        W36586   8.243   6.544  32.731 -0.1814  0.0577  0.0556
30137W        W36587   0.826   4.298  24.298  0.3349 -0.1325 -0.3511
30138W        W36588  17.195   0.063  10.582  0.2625  0.0828 -0.1644
30139W        W36589   8.810   1.961  32.453 -0.0001 -0.2519  0.0433
30140W        W36590  22.272   3.823  24.318  0.2367 -0.0642  0.4436
30141W        W36591  25.328   2.571   5.557  0.2036 -0.1166  0.1918
30142W        W36592   8.467   4.267  29.187 -0.0838  0.0911 -0.0566
30143W        W36593  23.012   6.447  26.650 -0.0270 -0.0571  0.2112
30144W        W36594   0.955   2.036  33.588  0.0879  0.3140  0.0832
30145W        W36595  19.897   5.115  10.742  0.2696  0.1445 -0.0578
30146W        W36596  26.325   2.146  10.562  0.1548 -0.0651  0.0987
30147W        W36597   1.416   5.498  22.050  0.1484 -0.3366 -0.0541
30148W        W36598  17.658   0.110  30.527  0.0732  0.1947  0.2065
30149W        W36599  13.550   2.993   0.010 -0.2429 -0.2244 -0.1523
30150W        W36600  14.674   3.052   6.758 -0.0680  0.0341 -0.0661
30151W        W36601  14.559   2.610  29.077  0.2551  0.2646  0.1241
30152W        W36602   9.203   1.275   3.967  0.1505  0.1249 -0.0850
30153W        W36603   8.211   6.605  31.177 -0.0918  0.1778  0.1663
30154W        W36604   5.300   4.079   2.646  0.0782  0.1010 -0.0180
30155W        W36605  15.084   2.925   9.086  0.1022  0.0224 -0.2097
30156W        W36606   5.601   0.434  29.559 -0.1579 -0.2452  0.3171
30157W        W36607  10.854   1.960  12.065  0.3342 -0.0649 -0.0897
30158W        W36608   2.576   5.032  34.742  0.0684  0.2016 -0.2237
30159W        W36609  14.685   0.732   6.521 -0.3593  0.0571 -0.2172
30160W        W36610  23.311   2.784  23.982  0.0662 -0.0941  0.1924
30161W        W36611  10.590   1.515  27.974  0.3227 -0.5583 -0.0083
30162W        W36612  18.511   3.328  25.133 -0.2096 -0.2121 -0.0869
30163W        W36613  18.021   6.001   4.513  0.0866 -0.3955  0.3339
30164W        W36614  15.852   4.902   6.214 -0.0684  0.0838 -0.2084
30165W        W36615   6.057   4.335  20.583 -0.1039  0.2771  0.1809
30166W        W36616  21.856   3.876  32.658  0.3287 -0.0885  0.3509
30167W        W36617   5.285   4.271   5.807 -0.0491 -0.1537  0.0509
30168W        W36618   4.178   0.261  21.657 -0.2988 -0.0771 -0.2521
30169W        W36619   9.994   6.232  28.332 -0.0454 -0.0585 -0.0914
30170W        W36620  21.413   2.359   4.957 -0.0692  0.1029  0.0561
30171W        W36621  22.045   2.387  35.696  0.0606  0.2445 -0.1266
30172W        W36622  19.472   5.485  29.395  0.0369  0.0328  0.0117
30173W        W36623   5.323   1.090  24.916  0.3183 -0.2942 -0.1213
30174W        W36624  14.802   5.935   0.003  0.0190 -0.0177 -0.1752
30175W        W36625   7.726   3.824  10.038  0.2256 -0.0936 -0.1134
30176W        W36626  10.711   4.748   7.653 -0.0822 -0.2136 -0.3240
30177W        W36627  25.548   0.281  32.707 -0.0100  0.1963  0.1206
30178W        W36628   5.101   1.043  24.083 -0.2296 -0.0654  0.0805
30179W        W36629  23.517   4.002   1.519  0.0570  0.1285 -0.2372
30180W        W36630  22.234   2.255  34.851 -0.1655 -0.1481  0.1473
30181W        W36631   1.871   6.254  29.863  0.0728  0.2154  0.1527
30182W        W36632   0.069   5.395  21.673 -0.0370 -0.2744 -0.1541
30183W        W36633  21.061   6.298   2.657 -0.1772 -0.1417  0.0718
30184W        W36634  13.124   3.920  35.345  0.1319 -0.0713 -0.2602
30185W        W36635  25.620   2.758  31.233  0.0848 -0.1160 -0.1214
30186W        W36636   0.397   6.323  15.081  0.0670 -0.2239 -0.1190
30187W        W36637  23.094   0.352   6.609 -0.2386 -0.1185  0.0291
30188W        W36638   7.796   4.139  35.858  0.1733  0.0161 -0.2069
30189W        W36639  17.545   6.202   5.645 -0.1641  0.2593  0.1820
30190W        W36640  12.519   0.657  31.011  0.1306  0.0478  0.1763
30191W        W36641  24.928   3.585   1.218  0.3344  0.0122 -0.0988
30192W        W36642   9.879   2.444   5.707 -0.2595 -0.0248 -0.1669
30193W        W36643  25.127   1.982   2.174 -0.1329 -0.1353  0.3713
30194W        W36644  19.948   4.072  30.191  0.1325  0.1617 -0.0964
30195W        W36645  19.560   5.489  24.778 -0.1175  0.1204 -0.1174
30196W        W36646  19.300   1.103  27.269  0.0603  0.2958  0.3999
30197W        W36647  13.847   2.216  25.112  0.1665 -0.0707  0.2722
30198W        W36648  11.083   4.984   1.713 -0.0951  0.3631 -0.2499
30199W        W36649   4.169   3.775   5.652  0.0617 -0.3918  0.4595
30200W        W36650  15.763   3.578   5.987 -0.2343 -0.0842  0.4443
30201W        W36651  22.915   1.074  25.536 -0.0937  0.1399  0.0699
30202W        W36652  16.239   1.846  11.094 -0.2448 -0.2244 -0.2448
30203W        W36653  20.079   4.214  13.228 -0.1491 -0.2496  0.0264
30204W        W36654   1.670   3.607  21.352  0.0112  0.2270  0.1726
30205W        W36655  19.321   3.425  24.609 -0.1203 -0.1574  0.0888
30206W        W36656   0.866   3.315   3.977  0.3383 -0.1671  0.2248
30207W        W36657  24.401   6.149   3.178  0.0128 -0.1817 -0.0861
30208W        W36658  17.301   5.186  24.811 -0.1270 -0.0188  0.5472
30209W        W36659  13.215   3.360   7.311  0.0268  0.2504 -0.0670
30210W        W36660  20.194   6.070  27.312 -0.0821 -0.0308  0.0175
30211W        W36661  12.603   4.473  22.842 -0.0914  0.2360 -0.2894
30212W        W36662  19.597   6.194  28.255  0.2211 -0.1868  0.2406
30213W        W36663   2.410   3.726  12.656 -0.1438 -0.0467 -0.1646
30214W        W36664  12.644   3.161  25.463  0.0287 -0.0042  0.0288
30215W        W36665  13.052   2.183   8.566 -0.1512  0.0289 -0.2741
30216W        W36666  25.285   4.428   9.171 -0.0632 -0.0073  0.1371
30217W        W36667  14.828   2.014   2.801  0.0447 -0.2554  0.0659
30218W        W36668  13.651   0.798  28.299  0.0973 -0.3752 -0.0234
30219W        W36669  18.435   3.459   5.079  0.0620  0.0140 -0.2962
30220W        W36670  10.801   5.755  21.570  0.1443  0.0090  0.0464
30221W        W36671   7.739   2.730   7.666  0.1632 -0.1269  0.0380
30222W        W36672  11.255   2.452   4.610  0.4111 -0.0244 -0.1601
30223W        W36673  14.889   3.992   8.266  0.2796 -0.1817  0.0549
30224W        W36674  25.849   1.403   3.854 -0.2113 -0.2769  0.1427
30225W        W36675   2.983   6.049  31.651  0.0220  0.1575 -0.0492
30226W        W36676   0.877   4.018  32.137 -0.1159  0.2412  0.0543
30227W        W36677   8.416   0.874  27.348  0.1124  0.0594 -0.0936
30228W        W36678   9.110   3.264  27.826 -0.4441 -0.0312 -0.3042
30229W        W36679  18.065   3.512  22.051  0.0255 -0.1776  0.1254
30230W        W36680  11.391   2.648  32.069  0.0578 -0.0445  0.1627
30231W        W36681  22.441   0.373  22.948  0.1500 -0.0088 -0.2276
30232W        W36682  15.829   5.568  13.571  0.2846 -0.0999  0.2497
30233W        W36683  11.091   0.471   8.430  0.1636  0.0765 -0.3325
30234W        W36684  15.701   6.101   0.397  0.0372 -0.2138  0.0090
30235W        W36685   7.253   5.230  30.204 -0.2103 -0.0634 -0.2029
30236W        W36686   0.009   1.015   9.193 -0.0590  0.2705  0.3017
30237W        W36687  19.836   3.532   5.755  0.1021 -0.0268  0.0951
30238W        W36688   2.888   4.964  23.852  0.1421 -0.1928 -0.1066
30239W        W36689  10.643   1.043  28.313  0.0139 -0.2406 -0.2360
30240W        W36690  12.625   2.662  25.544  0.1050 -0.0980 -0.1607
30241W        W36691  23.258   3.260  25.313  0.2932  0.0878  0.0696
30242W        W36692   2.561   2.645  21.425  0.1655 -0.2769 -0.3692
30243W        W36693  15.809   2.312  15.835  0.0593 -0.1290 -0.1173
30244W        W36694  23.781   2.759  10.760 -0.3665  0.1684 -0.1054
30245W        W36695   1.796   3.280   6.933 -0.0999  0.1680  0.0495
30246W        W36696   8.430   2.713  33.933  0.3610 -0.3639  0.2094
30247W        W36697  13.928   2.649  21.883 -0.2178 -0.0717  0.0212
30248W        W36698   2.214   3.971   6.883 -0.0092 -0.1758  0.1256
30249W        W36699  23.132   5.573  28.299  0.1257  0.2006 -0.0149
30250W        W36700  15.040   3.497  15.011 -0.1411 -0.2826 -0.1558
30251W        W36701  18.332   4.370   7.842  0.2014 -0.1980 -0.1528
30252W        W36702  18.051   6.557  34.317 -0.1754 -0.0908  0.0254
30253W        W36703  14.502   1.238  35.575 -0.0058  0.1015 -0.0616
30254W        W36704   7.972   3.697  11.833 -0.0811  0.0777 -0.1415
30255W        W36705  10.237   5.380  23.552  0.1238 -0.0372  0.0861
30256W        W36706  10.140   0.040   9.286 -0.0465 -0.2972 -0.1836
30257W        W36707  20.152   6.590   1.631 -0.0861  0.1612  0.3039
30258W        W36708   4.422   6.226   3.915 -0.1118  0.0534 -0.0675
30259W        W36709  10.270   1.014  21.183 -0.0480  0.0478  0.2802
30260W        W36710  22.794   4.715  28.483  0.1903  0.0913 -0.0650
30261W        W36711  12.999   0.191  11.110  0.0095  0.1317  0.3184
30262W        W36712   1.789   2.540   6.190  0.0025 -0.1076 -0.1193
30263W        W36713  20.925   0.070   6.533  0.1946  0.3879 -0.0189
30264W        W36714  24.748   3.007  35.903 -0.3121  0.0986 -0.1375
30265W        W36715   0.614   5.721  34.274 -0.0078  0.0291 -0.0357
30266W        W36716   6.703   4.408   6.552 -0.2263  0.0036  0.1911
30267W        W36717  15.738   6.471  24.142 -0.1223 -0.0376  0.2307
30268W        W36718   3.629   3.947   4.808 -0.1119 -0.0997 -0.2589
30269W        W36719  14.612   0.829   6.030 -0.0216 -0.3631 -0.2826
30270W        W36720   1.384   5.602   4.914 -0.1740 -0.2549 -0.1185
30271W        W36721  22.666   6.564   5.808  0.2477 -0.0352  0.0600
30272W        W36722   3.095   1.177  10.254 -0.0100 -0.2164  0.1258
30273W        W36723  23.116   0.265   8.132  0.0505  0.1029 -0.2600
30274W        W36724   5.760   5.187  10.998  0.2968  0.1455  0.1192
30275W        W36725  24.874   1.952  13.190  0.0236 -0.0456  0.1184
30276W        W36726  19.679   3.691  23.304  0.2283  0.0187  0.1099
30277W        W36727   6.817   3.650  14.735 -0.0825 -0.0454  0.4863
30278W        W36728   3.398   4.635  33.528 -0.0408 -0.1026  0.0020
30279W        W36729   2.682   4.477   9.619  0.4850  0.0927 -0.3445
30280W        W36730  21.143   1.476  30.112  0.1561  0.1709  0.0148
30281W        W36731   7.483   4.670  22.604  0.0585  0.0543  0.1594
30282W        W36732  21.340   4.847  23.877 -0.0586 -0.0425  0.1622
30283W        W36733   6.747   6.490  25.976 -0.0232  0.2902 -0.0405
30284W        W36734  15.555   5.544   1.740 -0.3724  0.1852 -0.1181
30285W        W36735   5.674   3.465   2.374  0.0542 -0.0071 -0.0170
30286W        W36736  18.797   3.209  32.147  0.1117  0.3832 -0.0234
30287W        W36737  13.404   4.665   7.279  0.1458  0.0288  0.2603
30288W        W36738  25.463   5.914  34.428 -0.0439  0.0820 -0.4533
30289W        W36739  12.291   4.662   4.372 -0.1408  0.1349  0.4199
30290W        W36740  10.619   6.174  12.665 -0.0137 -0.1018 -0.1338
30291W        W36741   8.435   2.336  32.157 -0.1010 -0.0054  0.2842
30292W        W36742   2.578   1.951  29.768 -0.1742 -0.2004 -0.3021
30293W        W36743  22.721   0.123  25.239  0.3241  0.0537  0.1440
30294W        W36744   2.388   3.460  13.061 -0.1243 -0.1007  0.1959
30295W        W36745  10.384   4.441   0.142 -0.0576  0.2218  0.1645
30296W        W36746  25.742   2.750  31.990 -0.1110 -0.1404  0.2104
30297W        W36747   5.120   1.818  13.739 -0.4845 -0.0120 -0.0059
30298W        W36748  23.541   2.227  12.171  0.1613  0.0261  0.1196
30299W        W36749  17.433   0.586  27.846 -0.0313 -0.0551 -0.0976
30300W        W36750  23.317   3.466  34.854  0.1315  0.0852  0.1679
30301W        W36751  25.424   1.850   9.771  0.3132  0.0969 -0.5000
30302W        W36752  16.514   4.889  35.162  0.1148 -0.0467 -0.2047
30303W        W36753  23.924   0.899  26.559  0.1581  0.0088  0.2816
30304W        W36754   2.514   6.122  31.543  0.2069 -0.0516  0.1751
30305W        W36755   4.856   5.188  23.687  0.0057 -0.0800  0.0851
30306W        W36756   0.857   1.764  29.019 -0.1361  0.1073 -0.0655
30307W        W36757  19.928   0.689  10.108 -0.1180 -0.0818 -0.0589
30308W        W36758  13.304   3.332   2.662 -0.1918  0.0384  0.2351
30309W        W36759  21.087   3.029   6.373 -0.0969  0.1961  0.1394
30310W        W36760  18.195   6.562  28.293 -0.1969  0.0836  0.0121
30311W        W36761  24.230   6.158  31.083 -0.0484 -0.0086 -0.3013
30312W        W36762  19.843   4.492  14.656  0.0902  0.1637  0.3738
30313W        W36763   7.131   4.345  22.815 -0.2378 -0.1974  0.1796
30314W        W36764  25.973   4.596  32.561  0.0476  0.1419  0.0756
30315W        W36765   0.234   3.384   9.915 -0.1571  0.0952  0.2522
30316W        W36766  25.634   1.613   1.692 -0.0031  0.0341 -0.1457
30317W        W36767  24.403   1.917  22.000 -0.3825  0.1153 -0.0984
30318W        W36768  23.146   4.909   7.263 -0.1278 -0.2640 -0.0116
30319W        W36769   9.536   1.571  34.784 -0.0246 -0.0549  0.4415
30320W        W36770   7.944   1.670  31.471  0.1727  0.2367 -0.1895
30321W        W36771  23.414   4.033  23.755  0.0419 -0.2263  0.2804
30322W        W36772  19.424   3.456  27.339  0.0928  0.2116  0.1118
30323W        W36773  10.102   4.302  29.843  0.1935 -0.2014 -0.3090
30324W        W36774  15.925   2.894  35.917 -0.1164 -0.0634  0.0032
30325W        W36775   5.620   1.064   8.000 -0.1575  0.1368 -0.3021
30326W        W36776  12.093   1.242  13.166 -0.0265 -0.0764  0.2844
30327W        W36777   0.203   0.480   6.092  0.1200  0.3303  0.0430
30328W        W36778   5.105   5.400  35.688  0.1864 -0.0250  0.1472
30329W        W36779  12.209   2.561  34.247 -0.3091  0.0222  0.2718
30330W        W36780  17.387   5.765   4.154 -0.3278 -0.1843 -0.2601
30331W        W36781  10.956   5.850  24.122  0.1418  0.0396 -0.0042
30332W        W36782  12.581   2.275   2.989 -0.1269 -0.1140  0.2486
30333W        W36783  18.176   5.648   6.519  0.1528 -0.3205 -0.0637
30334W        W36784  17.177   1.221  27.540  0.1223  0.0636 -0.0809
30335W        W36785  20.317   6.484   5.881 -0.0534  0.0936  0.0493
30336W        W36786  24.642   2.098   5.685 -0.0118  0.0350  0.1324
30337W        W36787  16.367   3.738  30.249 -0.0837  0.1523  0.0073
30338W        W36788   0.001   1.405  28.188  0.1690  0.0558  0.1857
30339W        W36789  15.154   2.622  30.934 -0.1655  0.2516 -0.2188
30340W        W36790   0.080   6.292  32.004 -0.1346 -0.2319  0.1069
30341W        W36791  19.205   1.758  31.334 -0.0619 -0.0566 -0.0871
30342W        W36792  16.473   3.232   9.617 -0.1014 -0.0485 -0.0067
30343W        W36793  21.412   2.281  15.083  0.0697  0.1355 -0.0034
30344W        W36794   9.230   1.617  15.410 -0.2962 -0.2799  0.3138
30345W        W36795  20.538   5.328   3.416 -0.0651  0.2777 -0.2173
30346W        W36796  16.081   3.640  27.086 -0.4121 -0.3411  0.1657
30347W        W36797  24.072   1.403  33.880 -0.2208 -0.0147 -0.1093
30348W        W36798   3.131   3.978  21.180 -0.1819 -0.1213 -0.1855
30349W        W36799  23.122   2.957  31.975 -0.0183  0.1451 -0.1407
30350W        W36800  18.489   4.657  11.725  0.1791  0.0528 -0.0010
30351W        W36801  21.503   4.265  35.463  0.0832  0.2021  0.0328
30352W        W36802  19.105   4.230  29.988 -0.0550 -0.0401  0.1941
30353W        W36803  17.439   5.549   7.997 -0.2339  0.0330  0.0507
30354W        W36804  14.166   2.855  27.438 -0.1880 -0.1040  0.0031
30355W        W36805  15.077   6.539   9.914 -0.0267  0.2446 -0.1768
30356W        W36806   3.315   0.473  32.162  0.0875 -0.1581 -0.2287
30357W        W36807   3.742   0.060  13.143  0.0991 -0.1409 -0.2222
30358W        W36808   1.634   2.049  24.460 -0.0739  0.3598  0.1546
30359W        W36809  22.825   3.463  35.042  0.0489 -0.1027 -0.1791
30360W        W36810  21.907   3.089  11.678  0.0647 -0.0202  0.0555
30361W        W36811  22.851   0.741   9.673  0.3694  0.0376  0.1980
30362W        W36812  16.059   0.790  14.188 -0.0413  0.3130  0.0077
30363W        W36813   1.678   5.331   3.318 -0.0555  0.4004 -0.1140
30364W        W36814  13.072   0.787  35.850 -0.3142  0.0061 -0.1985
30365W        W36815  14.585   1.672  21.118  0.3330 -0.2192  0.0306
30366W        W36816   7.532   4.186   6.851 -0.3021 -0.0489  0.0728
30367W        W36817  24.117   4.181  20.580  0.0671 -0.0064  0.4039
30368W        W36818   8.133   3.339  35.964  0.0425  0.0629 -0.0696
30369W        W36819  10.359   2.494   9.765 -0.2263  0.0766 -0.1665
30370W        W36820   7.024   6.277   1.110  0.2055  0.0834 -0.1221
30371W        W36821  18.088   2.718   3.996  0.0877 -0.1298  0.0464
30372W        W36822   3.171   0.474  29.080  0.2035 -0.0724 -0.0176
30373W        W36823   3.382   5.598   6.605  0.0771  0.2130 -0.2293
30374W        W36824   9.179   0.146   1.634  0.2828 -0.0517 -0.1153
30375W        W36825   8.064   4.934   2.364  0.1209  0.2639 -0.2094
30376W        W36826   4.539   6.420   7.986 -0.0615  0.2501  0.0462
30377W        W36827   3.189   2.676   5.222  0.2276  0.0012 -0.0592
30378W        W36828  16.906   6.446  29.358 -0.0631  0.0678 -0.1413
30379W        W36829  10.339   5.678   5.848  0.1460 -0.0470 -0.0871
30380W        W36830   6.978   0.641   2.015  0.2247 -0.1381 -0.2122
30381W        W36831  17.320   2.159  35.876 -0.0752  0.3303  0.3805
30382W        W36832   8.163   3.161  15.478 -0.1062  0.0015 -0.2244
30383W        W36833  23.309   1.103  22.295  0.0461 -0.1440  0.3204
30384W        W36834  21.113   3.861   5.914  0.0384  0.0046 -0.1698
30385W        W36835  14.972   2.147   2.101 -0.1015 -0.2913 -0.0257
30386W        W36836   3.888   6.349  23.970 -0.0005 -0.0864 -0.2105
30387W        W36837   5.835   5.530   6.234 -0.0011 -0.0447  0.0538
30388W        W36838  24.628   4.103  21.073  0.0563  0.3197 -0.0519
30389W        W36839  16.344   1.126  24.779 -0.1188 -0.0370  0.2585
30390W        W36840  19.257   0.337  32.227 -0.0323  0.1741 -0.3901
30391W        W36841  24.346   2.966  28.960 -0.1624  0.0752 -0.0208
30392W        W36842  25.770   5.545  22.546 -0.2498  0.1369  0.1320
30393W        W36843  12.670   2.061   4.650  0.1212  0.1629  0.1323
30394W        W36844  21.113   5.250  32.598 -0.4127  0.1504 -0.2675
30395W        W36845  18.675   4.959   8.753  0.1189 -0.0970 -0.1778
30396W        W36846   4.889   1.893  26.839  0.0048 -0.0870 -0.1028
30397W        W36847  23.307   0.433   4.476 -0.0052 -0.0787 -0.1025
30398W        W36848  21.509   4.352  33.969 -0.0045  0.0809  0.0729
30399W        W36849  14.911   4.529   4.527 -0.1099 -0.0291 -0.4281
30400W        W36850   9.302   2.130   3.321  0.0871 -0.0309 -0.2506
30401W        W36851   5.796   1.497  22.774 -0.0472 -0.3013 -0.2941
30402W        W36852   7.258   4.947  33.602  0.0603 -0.1294 -0.2217
30403W        W36853  12.154   4.430  29.320 -0.0925 -0.1558  0.1189
30404W        W36854   6.924   5.349  23.781  0.0186  0.1245 -0.1783
30405W        W36855  10.679   6.124  22.188 -0.1581  0.4260 -0.1610
30406W        W36856  19.730   0.130  22.377 -0.0702 -0.0348  0.3468
30407W        W36857  24.839   1.655  35.048 -0.1956  0.0512  0.0597
30408W        W36858   2.036   5.622  12.608  0.4476  0.0574  0.0244
30409W        W36859  17.531   1.517   9.551 -0.1644  0.2253 -0.0274
30410W        W36860  10.900   3.356   6.446 -0.1385  0.1084  0.1349
30411W        W36861  21.623   3.783  33.276 -0.0093 -0.0727  0.0163
30412W        W36862  24.142   2.643  34.696  0.0226  0.0273  0.2130
30413W        W36863  20.358   5.182  23.768  0.4138 -0.3428 -0.3408
30414W        W36864   0.155   6.268   3.380  0.2808 -0.1406 -0.0613
30415W        W36865  15.523   2.248  25.109  0.0750  0.4955  0.0236
30416W        W36866  25.592   4.941  10.612 -0.1475 -0.0366 -0.1140
30417W        W36867   4.556   5.075   7.565  0.0891 -0.1415 -0.1280
30418W        W36868  16.937   0.530  10.595 -0.3156 -0.1760  0.2074
30419W        W36869  12.097   1.946  29.683  0.1591 -0.0547  0.1285
30420W        W36870   6.521   1.510  31.230 -0.1711 -0.0487  0.1682
30421W        W36871   1.449   3.817  13.948 -0.1404 -0.0761  0.1640
30422W        W36872   5.856   2.824   5.696 -0.2814 -0.0910 -0.0852
30423W        W36873  22.389   6.029   3.719  0.1655  0.1425 -0.1524
30424W        W36874   2.421   1.304  21.041 -0.4777 -0.2310 -0.1278
30425W        W36875  13.202   5.182  30.058 -0.1322  0.0582 -0.3130
30426W        W36876  15.140   0.446  23.743  0.1446  0.0581  0.0803
30427W        W36877   8.029   5.339  14.219  0.2085  0.1437  0.2686
30428W        W36878  22.458   1.686  23.414  0.4555 -0.0412  0.0603
30429W        W36879   5.534   2.548  32.883 -0.1488  0.2282  0.1930
30430W        W36880   5.142   2.309   3.694 -0.0324  0.1317 -0.0875
30431W        W36881   6.064   2.701  25.850 -0.0428 -0.1034 -0.0363
30432W        W36882  24.840   2.058  25.851 -0.0236  0.0048 -0.2051
30433W        W36883  15.535   1.928  28.224  0.0671  0.2291  0.1523
30434W        W36884  16.425   3.472  31.487 -0.1703 -0.0837 -0.0793
30435W        W36885  19.479   2.154   2.489  0.0319  0.0129  0.0517
30436W        W36886  13.791   2.153  32.362 -0.0417  0.3843  0.0075
30437W        W36887  23.407   3.318   7.702 -0.1782 -0.2351 -0.0976
30438W        W36888   3.497   5.388  22.844  0.2773 -0.0640  0.1550
30439W        W36889  12.663   4.286   4.692  0.1999 -0.2804  0.3236
30440W        W36890   6.511   3.786   1.940 -0.0445 -0.1234  0.2010
30441W        W36891  12.413   6.559   3.431  0.1270 -0.0086  0.1833
30442W        W36892  17.530   5.072  22.644  0.1349 -0.0926  0.0076
30443W        W36893  22.937   1.136   3.718 -0.1514  0.0662  0.1277
30444W        W36894  14.842   2.782   3.906  0.0344  0.2481 -0.0008
30445W        W36895  25.210   4.606   6.467 -0.1276  0.1089  0.0877
30446W        W36896  22.450   5.530  24.654 -0.0320  0.1113  0.0475
30447W        W36897  24.352   6.181  23.947 -0.1459  0.1290 -0.2100
30448W        W36898  25.040   5.876  35.469 -0.2997  0.1119  0.0666
30449W        W36899  16.763   6.171  13.597  0.1345  0.1085 -0.0367
30450W        W36900  26.218   2.950   9.363  0.2975  0.0293  0.1102
30451W        W36901  25.418   0.634  31.432 -0.0642  0.0886 -0.0847
30452W        W36902   2.820   5.803  32.892 -0.1497 -0.0011  0.2132
30453W        W36903  13.990   6.079   6.686  0.2459 -0.1153  0.1725
30454W        W36904   8.857   5.352   0.044 -0.1591  0.1154 -0.0142
30455W        W36905  14.472   4.898  34.687  0.0856  0.0991 -0.0240
30456W        W36906  20.580   2.767  10.767 -0.1226  0.4392 -0.0462
30457W        W36907  21.921   4.404  30.942  0.0965  0.1443 -0.4052
30458W        W36908   5.640   1.519  28.437  0.0176  0.0306  0.0760
30459W        W36909   3.455   3.886  14.105 -0.0609 -0.1294 -0.0803
30460W        W36910  13.910   6.583   8.349  0.1805 -0.0265 -0.0903
30461W        W36911   5.829   1.784  31.992  0.1191  0.1738  0.3028
30462W        W36912   3.046   2.547   5.740 -0.0612 -0.1504 -0.2940
30463W        W36913   2.495   5.763   9.953 -0.0028 -0.1282 -0.0579
30464W        W36914   6.154   4.339  31.530 -0.4057  0.1281 -0.1723
30465W        W36915  25.290   2.948   8.594  0.0015 -0.0224 -0.0682
30466W        W36916   6.843   0.656   0.158 -0.2257 -0.0746  0.1162
30467W        W36917  14.692   5.432  27.311 -0.2140  0.0820 -0.0503
30468W        W36918  15.094   5.360   8.748 -0.2432 -0.0724  0.2333
30469W        W36919  23.490   6.068   0.912 -0.2926  0.0005 -0.0660
30470W        W36920  20.098   0.427   5.322 -0.0405 -0.2743  0.0039
30471W        W36921  25.977   1.658   9.849 -0.2663  0.0221  0.5468
30472W        W36922   7.300   6.380   3.723 -0.0857 -0.0640  0.0428
30473W        W36923  21.586   5.952   6.159  0.0564 -0.0648  0.1814
30474W        W36924   4.648   3.960  33.317 -0.0729 -0.1674 -0.3195
30475W        W36925   0.017   4.945  34.737 -0.2192  0.0243 -0.0532
30476W        W36926  16.412   3.532  14.502 -0.0768 -0.2597 -0.0280
30477W        W36927   1.319   2.631  10.633  0.1283 -0.0965  0.0232
30478W        W36928  20.741   1.915  26.484  0.1863  0.0513  0.4086
30479W        W36929  18.848   2.772   8.599 -0.0982  0.0195 -0.0619
30480W        W36930  15.586   2.865  13.316 -0.2038  0.1666  0.0547
30481W        W36931  13.222   3.916   3.941 -0.0864  0.0772  0.0915
30482W        W36932  19.488   5.066  34.990  0.3748 -0.1827  0.1216
30483W        W36933  18.343   1.612   8.054 -0.0523  0.0866 -0.0526
30484W        W36934  12.546   1.312  11.854 -0.0351 -0.2033  0.0190
30485W        W36935   7.828   4.940  33.565  0.1006 -0.3119 -0.0164
30486W        W36936   6.276   3.370  11.930 -0.0391  0.1744 -0.0390
30487W        W36937  10.209   1.370  23.854  0.2821 -0.1145 -0.0765
30488W        W36938  15.462   2.989   0.448 -0.1137  0.2058 -0.1019
30489W        W36939   8.408   5.253   7.419 -0.0942  0.0872 -0.1845
30490W        W36940  10.546   2.299  33.174  0.1074  0.2519  0.1603
30491W        W36941  22.329   0.980   9.387 -0.1977  0.1369 -0.0635
30492W        W36942  11.571   6.345  24.928 -0.0882  0.2291  0.1551
30493W        W36943   5.327   6.050  10.523 -0.2721  0.1435  0.0818
30494W        W36944  18.768   4.704   3.839  0.0164  0.0303  0.2014
30495W        W36945   8.719   4.619  20.712  0.1062  0.3893 -0.2271
30496W        W36946  12.007   1.544   9.600 -0.4457 -0.0899  0.0911
30497W        W36947  14.457   2.092   0.641  0.0348  0.3433 -0.0034
30498W        W36948  19.297   5.533   7.835 -0.0993 -0.0199  0.2622
30499W        W36949  16.483   5.091  33.112  0.1615 -0.0162 -0.0026
30500W        W36950   5.026   3.154  27.126 -0.1340  0.0472  0.0823
30501W        W36951   4.891   0.189  35.533  0.0640 -0.1192  0.2285
30502W        W36952  26.051   6.524  13.909  0.0070  0.2458 -0.0501
30503W        W36953  14.429   3.264  34.841  0.2285  0.1220  0.3016
30504W        W36954  15.413   0.086  14.812  0.2808  0.1578  0.0235
30505W        W36955   8.501   6.428   1.166 -0.0539  0.0295  0.2731
30506W        W36956   6.878   5.496  24.601 -0.1275 -0.0415 -0.3081
30507W        W36957   1.736   4.034  28.134 -0.1691 -0.0722 -0.2316
30508W        W36958  12.097   6.521  32.702  0.0278 -0.0491 -0.1614
30509W        W36959   7.555   1.398  21.274 -0.0329  0.3088  0.0438
30510W        W36960   5.068   2.760  10.844 -0.0491 -0.0186  0.3521
30511W        W36961  25.822   2.323  21.526  0.0158 -0.1067  0.0511
30512W        W36962  22.730   6.486  24.250  0.0307  0.3923 -0.1377
30513W        W36963  10.363   1.538   8.595 -0.2119  0.0793  0.1452
30514W        W36964   4.645   2.897   7.125 -0.0761  0.0748  0.0762
30515W        W36965   6.701   2.209  27.970  0.0723 -0.1520  0.1857
30516W        W36966  11.515   5.111   7.329  0.1145  0.0865 -0.2405
30517W        W36967  14.572   0.467  35.081 -0.0948  0.1545 -0.1582
30518W        W36968  17.518   2.497  10.665 -0.2145  0.0867  0.0196
30519W        W36969  16.067   3.332  25.773 -0.3238  0.1974 -0.0636
30520W        W36970  20.035   2.420  25.191 -0.0769  0.0158  0.0495
30521W        W36971  12.284   4.159  22.530 -0.3538 -0.1368 -0.0030
30522W        W36972  19.364   1.954  24.581  0.4160  0.0570 -0.3756
30523W        W36973  18.814   5.000  28.712 -0.1834  0.1780  0.0871
30524W        W36974  13.123   2.829  21.451  0.1682 -0.1840  0.1194
30525W        W36975   7.425   1.113   0.828 -0.0088 -0.1756 -0.0621
30526W        W36976  16.557   0.979   3.877  0.2136  0.2360 -0.0444
30527W        W36977  16.964   3.013  10.571 -0.2374 -0.1466 -0.3896
30528W        W36978   5.638   4.387   9.463  0.0029  0.2773  0.1901
30529W        W36979   5.048   2.980  26.659 -0.2226  0.3506  0.3376
30530W        W36980  23.240   1.968  24.351 -0.0869  0.0417 -0.5016
30531W        W36981  20.821   2.563  35.796 -0.0386  0.2947  0.1598
30532W        W36982   0.031   6.237   5.396 -0.1509 -0.0173 -0.2163
30533W        W36983   0.819   6.406  26.145  0.0289  0.0671  0.0212
30534W        W36984  15.698   4.539   2.474  0.0730 -0.2413 -0.2304
30535W        W36985   3.449   3.875   3.821 -0.0835  0.0805  0.1702
30536W        W36986  23.148   1.437  21.968  0.2115  0.3657 -0.0641
30537W        W36987  14.459   6.454  26.929 -0.2724 -0.1540 -0.0453
30538W        W36988   5.490   2.278  29.193 -0.0843  0.1405  0.0699
30539W        W36989  21.718   4.410  31.871 -0.2448 -0.1700  0.3052
30540W        W36990   0.813   2.616   8.413  0.2124  0.2850 -0.1179
30541W        W36991  13.985   4.016  23.134  0.2858 -0.0020  0.1859
30542W        W36992  19.061   0.404  35.883 -0.4498 -0.0274  0.0119
30543W        W36993   9.074   1.851  12.362  0.0199  0.3314 -0.1136
30544W        W36994  23.825   2.765   9.529  0.2024 -0.1906  0.0557
30545W        W36995  13.240   5.280  12.715 -0.0295  0.0327 -0.0491
30546W        W36996  13.660   2.170  14.194  0.1460 -0.2198  0.0272
30547W        W36997  23.171   4.129  12.549  0.2383  0.4514 -0.4615
30548W        W36998  15.710   2.777  11.527  0.1731  0.1166  0.0002
30549W        W36999  17.223   2.258  28.802  0.1628 -0.0929 -0.1326
30550W        W37000   6.536   6.440  21.736  0.1477  0.0396  0.4232
30551W        W37001  19.101   3.097  34.168 -0.2701  0.1288  0.2640
30552W        W37002   5.481   5.631   1.289 -0.3367  0.0775 -0.0429
30553W        W37003  12.423   1.973   7.551 -0.0607  0.1283  0.2542
30554W        W37004   5.485   1.557   5.089  0.1129  0.1221 -0.0472
30555W        W37005  12.708   2.488  13.821  0.3331  0.0254 -0.0244
30556W        W37006  16.443   6.135  29.307 -0.4397 -0.0076 -0.0312
30557W        W37007   7.073   2.024  10.467  0.2862  0.1451 -0.2415
30558W        W37008  12.104   3.411  33.960 -0.3608 -0.0882 -0.4188
30559W        W37009  14.278   3.558  12.022 -0.0485  0.0235 -0.1527
30560W        W37010  10.342   6.504  13.028  0.1599 -0.1902 -0.2145
30561W        W37011   8.741   5.833  20.767  0.0024 -0.0411 -0.1257
30562W        W37012  15.009   1.167  30.657  0.1090 -0.0256 -0.2191
30563W        W37013  24.500   0.877  10.822 -0.2646  0.2336 -0.4218
30564W        W37014   5.882   4.234  32.997  0.1712 -0.3175  0.3731
30565W        W37015  13.418   4.188   2.276  0.0079  0.0928  0.2269
30566W        W37016  13.365   4.513  13.274  0.0884  0.0375 -0.1119
30567W        W37017  15.959   4.881   3.579  0.1104  0.0288  0.0212
30568W        W37018   6.287   4.997   1.369 -0.0923  0.1185  0.0451
30569W        W37019  10.729   5.644  14.068  0.2818  0.0093 -0.0046
30570W        W37020   0.658   3.667  33.592 -0.0656  0.1053  0.0161
30571W        W37021  25.753   0.568  24.410 -0.2373 -0.0851  0.0213
30572W        W37022  17.442   2.763   2.246  0.2790 -0.0041 -0.1751
30573W        W37023   6.427   5.567  14.422  0.3638  0.0292  0.0810
30574W        W37024  12.621   2.174  25.470 -0.0546  0.0433  0.2480
30575W        W37025  12.513   4.149  36.088  0.0204 -0.0301  0.0201
30576W        W37026  12.674   5.177  31.873 -0.3207 -0.0407 -0.1895
30577W        W37027  17.381   5.216  13.566 -0.2148 -0.0217 -0.2902
30578W        W37028  14.605   4.960  25.106 -0.0609 -0.1708 -0.0791
30579W        W37029   6.195   5.446  10.798  0.0118 -0.0468 -0.1358
30580W        W37030  25.217   4.348   8.696  0.0044  0.1211 -0.1287
30581W        W37031   4.002   2.369   0.343 -0.0849 -0.1467  0.1345
30582W        W37032   3.225   3.044  20.597 -0.1241 -0.0192  0.2298
30583W        W37033  11.104   4.317  32.723  0.0691 -0.0518  0.2341
30584W        W37034   6.403   5.447  24.432  0.2020 -0.0170  0.2630
30585W        W37035  19.423   6.256  15.862  0.0517  0.0794 -0.0415
30586W        W37036   7.539   2.540  30.415  0.0190  0.3183  0.0750
30587W        W37037  22.496   2.988   2.488 -0.2302 -0.1319 -0.1783
30588W        W37038  20.375   5.371   1.414  0.2229 -0.1068  0.0567
30589W        W37039  10.576   0.751  27.460  0.0262 -0.0854  0.3072
30590W        W37040  15.155   0.537  28.825 -0.2273  0.1895 -0.1339
30591W        W37041  14.075   4.717  25.724 -0.2298 -0.0618  0.0306
30592W        W37042  23.812   3.156  34.597 -0.1846 -0.1424  0.0275
30593W        W37043   1.919   0.293   6.853 -0.2047 -0.1525 -0.0288
30594W        W37044  13.095   6.272  30.747 -0.1307  0.2609 -0.2321
30595W        W37045  22.430   2.025  35.658 -0.1316  0.3556  0.1344
30596W        W37046  26.276   2.188  20.563 -0.0529  0.0152 -0.1654
30597W        W37047   6.951   5.389  28.089 -0.0821 -0.0514 -0.0196
30598W        W37048  16.917   1.842  26.719  0.1025  0.1163  0.0938
30599W        W37049  10.298   3.784   3.798  0.1293 -0.1169 -0.0031
30600W        W37050  21.665   0.467   3.135  0.4375  0.1642 -0.1531
30601W        W37051   7.607   3.333  12.178  0.0637 -0.1489 -0.0361
30602W        W37052   4.015   2.254   7.283 -0.0964 -0.1039  0.2833
30603W        W37053   1.405   0.276  32.521 -0.1805  0.2460  0.0830
30604W        W37054  15.086   2.749  35.384 -0.1662  0.2469  0.2989
30605W        W37055  22.438   0.570  27.004 -0.1702 -0.1067 -0.1089
30606W        W37056  21.112   0.311  12.217  0.0222  0.1919  0.1371
30607W        W37057  22.480   0.274  15.292  0.0702  0.0553 -0.1210
30608W        W37058  14.917   3.518  22.381  0.1469 -0.1117 -0.0071
30609W        W37059  22.478   1.001  34.178  0.0684 -0.0973  0.0221
30610W        W37060   6.944   0.322   7.917 -0.2440  0.1335 -0.0028
30611W        W37061  11.831   2.501  36.010 -0.1598  0.1539  0.3241
30612W        W37062   9.808   5.080  23.640  0.1558 -0.3136  0.1027
30613W        W37063  17.737   1.348   7.202  0.0849  0.1475  0.0411
30614W        W37064  11.860   4.151  14.879 -0.1792 -0.2078  0.1282
30615W        W37065  26.427   5.817  35.625  0.2139 -0.0197 -0.0124
30616W        W37066   5.228   5.872  25.029 -0.0337  0.1341 -0.0647
30617W        W37067  23.801   5.883  29.666 -0.0928 -0.0521 -0.0074
30618W        W37068  20.683   4.391   8.196  0.0681 -0.1063  0.0912
30619W        W37069   6.778   4.852  12.269 -0.1008  0.1078 -0.0176
30620W        W37070   8.743   3.669  23.607  0.0492  0.0520 -0.0952
30621W        W37071  11.079   3.358   5.013 -0.1727  0.0443  0.0923
30622W        W37072  21.260   6.323  13.926  0.1297  0.0285  0.0783
30623W        W37073  14.915   1.930   1.481  0.2717  0.1405  0.0084
30624W        W37074   6.978   1.679  21.907  0.0556 -0.0912  0.0556
30625W        W37075  15.541   4.756  24.386  0.0292 -0.1985  0.3776
30626W        W37076   2.692   4.952  14.865 -0.3950  0.2540 -0.3936
30627W        W37077   4.305   0.323  20.598 -0.1316  0.0426 -0.0607
30628W        W37078   8.304   4.747  20.980  0.0787 -0.1777 -0.2803
30629W        W37079   8.585   3.224   4.690 -0.0046 -0.1499 -0.1170
30630W        W37080   6.926   3.934  25.576  0.1431 -0.1993 -0.0593
30631W        W37081  25.315   3.911  14.027  0.1561 -0.1391 -0.1861
30632W        W37082  11.991   0.552  28.670 -0.0754  0.0654 -0.0485
30633W        W37083  18.609   5.160   9.962  0.1050 -0.1885 -0.1002
30634W        W37084   4.044   5.049   7.467 -0.1463  0.1077 -0.1815
30635W        W37085  14.970   4.921  22.090 -0.2720 -0.2883 -0.1358
30636W        W37086  17.016   4.444   2.122  0.1188 -0.2170 -0.0239
30637W        W37087  12.444   5.121  15.317 -0.1248  0.0003  0.0241
30638W        W37088  12.664   3.841   4.578 -0.1371 -0.0376  0.1109
30639W        W37089   3.354   4.123   0.757 -0.2669 -0.2377  0.1800
30640W        W37090   2.386   3.979   9.541  0.3194  0.2679 -0.2617
30641W        W37091  23.482   4.237  28.293 -0.3003 -0.0344  0.1924
30642W        W37092  20.993   0.748   2.852 -0.0204 -0.0155 -0.4457
30643W        W37093  14.979   1.562  15.459 -0.1137  0.1822 -0.2540
30644W        W37094  21.483   2.999   0.012  0.0292 -0.0086  0.0418
30645W        W37095  25.444   5.927  27.630 -0.1878 -0.1114 -0.1163
30646W        W37096  15.988   4.893  28.438  0.0389  0.3753 -0.0235
30647W        W37097   4.435   1.723   7.608 -0.0383 -0.1742  0.1568
30648W        W37098  17.949   3.424   9.471  0.1862 -0.0024  0.2905
30649W        W37099  16.723   4.479   7.208  0.0686 -0.4584 -0.2080
30650W        W37100  22.387   4.000   3.803  0.1424 -0.3030  0.0953
30651W        W37101   9.129   2.766  32.769  0.1011  0.1487  0.0092
30652W        W37102   8.366   6.012  10.001 -0.3924  0.0009  0.0147
30653W        W37103   0.404   1.301  26.976 -0.1258  0.0196  0.4069
30654W        W37104   9.879   3.962  15.633  0.3121  0.0023 -0.2634
30655W        W37105   7.993   6.284  24.336 -0.2468  0.1900  0.0027
30656W        W37106  12.699   6.269  31.060  0.4576  0.0613  0.0496
30657W        W37107  15.751   5.494   6.106  0.1981 -0.1243 -0.1180
30658W        W37108   5.932   3.159   8.870  0.1152 -0.2099  0.3105
30659W        W37109  22.392   4.627   0.169 -0.1051  0.1017 -0.1652
30660W        W37110  15.121   1.945  34.259  0.2049  0.3123  0.1340
30661W        W37111   6.464   1.154   6.948 -0.1123 -0.3047 -0.1006
30662W        W37112  12.492   6.548  13.205 -0.0872 -0.2729 -0.0504
30663W        W37113  19.923   1.124   1.581 -0.1191 -0.1347 -0.1162
30664W        W37114   5.410   6.248  34.165 -0.1927  0.1714  0.0099
30665W        W37115   5.501   1.701  27.500 -0.0545 -0.2879 -0.3768
30666W        W37116  19.497   3.576  33.935 -0.1721  0.0797  0.0880
30667W        W37117  23.794   0.473  27.581  0.1805 -0.1247 -0.2583
30668W        W37118   8.094   1.206   4.215  0.0626  0.1425  0.1091
30669W        W37119  13.056   4.502  14.277 -0.1070  0.0520  0.0807
30670W        W37120  22.877   3.586  31.922  0.1488 -0.3779  0.0797
30671W        W37121  13.808   5.467  22.078  0.2944 -0.1894 -0.3025
30672W        W37122   1.679   5.814   8.162  0.2624  0.1018 -0.2313
30673W        W37123   0.865   1.903  13.866  0.1554  0.1239  0.3563
30674W        W37124  11.539   3.657  12.821  0.0083 -0.0201 -0.2170
30675W        W37125   3.640   1.373  13.625  0.1243  0.2164  0.1558
30676W        W37126  16.045   6.306  15.365 -0.2272 -0.0394 -0.2186
30677W        W37127  23.913   0.056  12.415  0.0185  0.1143 -0.0111
30678W        W37128   8.245   4.330  21.684  0.2473  0.4683 -0.2086
30679W        W37129   5.881   1.877  24.262 -0.1560 -0.1391  0.0089
30680W        W37130  23.987   3.612  20.985 -0.0649  0.0185  0.1371
30681W        W37131  10.945   3.117  25.058 -0.2891 -0.2245  0.0318
30682W        W37132   4.635   5.685   3.077 -0.0164  0.0182  0.0424
30683W        W37133  13.668   6.206   6.159  0.0849 -0.0422  0.0716
30684W        W37134  21.768   0.794  28.717  0.1301 -0.0702 -0.2961
30685W        W37135  17.265   4.497  20.400  0.2505  0.1538 -0.0705
30686W        W37136  11.786   0.238  20.844 -0.0545  0.0972 -0.0683
30687W        W37137   7.173   1.582  32.625  0.0928 -0.1147 -0.1344
30688W        W37138  15.865   2.347  12.526 -0.0022  0.0132  0.1651
30689W        W37139   7.255   2.061  31.398 -0.1232  0.2207  0.1076
30690W        W37140  14.811   2.487  23.756  0.2004  0.0477  0.0138
30691W        W37141   2.749   4.360  13.467 -0.2342 -0.1292  0.0193
30692W        W37142  19.382   2.474  22.841  0.1661  0.0448  0.0691
30693W        W37143  12.186   3.053  25.546  0.2550  0.4416 -0.2179
30694W        W37144  14.727   0.397  24.297 -0.0123  0.1343  0.3374
30695W        W37145  19.819   3.679  30.613 -0.2239 -0.0759  0.0084
30696W        W37146   6.055   2.339   4.853 -0.0524  0.0905 -0.0630
30697W        W37147  12.226   5.359  29.820 -0.1050  0.0441  0.0261
30698W        W37148  26.033   2.335  29.472 -0.2187 -0.2661  0.0546
30699W        W37149  11.054   3.504   2.456 -0.0548 -0.0759  0.2391
30700W        W37150  24.225   6.495   1.826  0.1563 -0.1224 -0.0905
30701W        W37151  24.870   1.329  35.926 -0.0826 -0.0217  0.0560
30702W        W37152  23.784   0.614  34.785 -0.0757  0.0407 -0.0387
30703W        W37153  21.510   0.356  35.958 -0.1716  0.1681  0.1832
30704W        W37154  21.581   2.118  26.822 -0.0609 -0.0523  0.0619
30705W        W37155  23.017   1.299  28.726  0.1296  0.0248 -0.1138
30706W        W37156  23.593   1.381  11.091 -0.1665 -0.0262  0.3838
30707W        W37157  22.139   5.750  30.412  0.0005 -0.1448 -0.0341
30708W        W37158   9.027   4.823   2.445  0.0275  0.2752  0.0359
30709W        W37159  14.827   3.841  24.322  0.2385  0.3234 -0.0912
30710W        W37160  11.587   1.995   5.479  0.0237 -0.2408  0.2186
30711W        W37161   3.520   4.221  25.100 -0.0103  0.1172  0.0086
30712W        W37162   3.529   6.440  11.819 -0.0802 -0.1411  0.0227
30713W        W37163  20.057   1.819  28.498 -0.0905 -0.1902 -0.2628
30714W        W37164  16.899   5.573  24.582  0.2022  0.3069 -0.0164
30715W        W37165  14.551   4.422  30.169 -0.0556  0.1674 -0.0733
30716W        W37166  10.774   4.521   6.157  0.0101  0.2122 -0.1959
30717W        W37167  16.053   3.118  25.318  0.4038  0.0476  0.1229
30718W        W37168   2.563   1.837  35.378 -0.1392  0.0792  0.1439
30719W        W37169   1.991   2.333   8.499 -0.0858 -0.1839  0.1796
30720W        W37170  21.045   3.095   9.671 -0.0827  0.0166  0.0573
30721W        W37171   1.672   1.175  20.143  0.1601  0.0523  0.2548
30722W        W37172  17.560   1.004   9.392 -0.3201 -0.0878  0.0483
30723W        W37173  22.307   6.432   7.089  0.2001  0.0051 -0.0179
30724W        W37174  23.099   6.491   3.417 -0.1397 -0.1983  0.2159
30725W        W37175  10.614   4.171  20.660 -0.1587 -0.1511  0.0285
30726W        W37176   8.398   0.031  30.184  0.0073 -0.3576 -0.2149
30727W        W37177  21.893   4.306   7.089  0.0581 -0.0816  0.1606
30728W        W37178   0.479   3.817   3.138 -0.2200  0.2510 -0.1795
30729W        W37179  14.840   3.168   2.934  0.3272 -0.2892  0.0176
30730W        W37180   2.624   5.147  10.751  0.1336  0.0528 -0.4580
30731W        W37181   7.757   2.259  31.484  0.0241 -0.0397  0.1011
30732W        W37182  22.022   4.397  29.726 -0.0891 -0.1593 -0.5147
30733W        W37183   1.133   3.458  33.795 -0.1608 -0.2344  0.1276
30734W        W37184   5.279   3.725  35.281  0.4323 -0.0586  0.1163
30735W        W37185  20.103   2.416  28.766 -0.1286  0.3307  0.1348
30736W        W37186   7.429   5.311   8.765  0.1434  0.0725 -0.2198
30737W        W37187  23.333   0.405  34.581 -0.2200  0.1556  0.0315
30738W        W37188   0.550   3.892  23.189 -0.2151  0.1575  0.1120
30739W        W37189   0.559   1.890   7.366  0.1591  0.0131  0.1308
30740W        W37190   0.732   4.187  10.526  0.0213 -0.0644  0.3078
30741W        W37191   1.926   3.836  13.780  0.2434 -0.0385 -0.3028
30742W        W37192   4.353   5.859  22.625  0.1754 -0.1436 -0.0129
30743W        W37193   7.683   4.380  13.941 -0.3952 -0.0471 -0.4044
30744W        W37194   3.585   5.772  23.215  0.0632 -0.0142  0.1370
30745W        W37195  21.237   1.395  32.475  0.1137  0.0175 -0.1273
30746W        W37196  23.248   0.969  29.960 -0.2526 -0.0120  0.4104
30747W        W37197  19.458   1.500  30.702  0.0258  0.0467 -0.0113
30748W        W37198   5.615   2.655  26.063 -0.1320  0.0610 -0.3960
30749W        W37199  20.576   1.612  25.817 -0.2627 -0.0834  0.0378
30750W        W37200   7.809   0.569  31.575 -0.2459 -0.0141 -0.3719
30751W        W37201  21.296   0.341  14.415  0.0209  0.2093  0.0167
30752W        W37202  21.498   1.507  22.607 -0.0773 -0.1662 -0.2571
30753W        W37203  23.956   2.111  21.153  0.1464  0.0033  0.2206
30754W        W37204   2.395   2.384  30.098 -0.1908  0.2861  0.1717
30755W        W37205  23.559   3.099  23.688  0.3582 -0.3985 -0.0634
30756W        W37206   3.957   1.782  22.654 -0.1878 -0.0094 -0.2109
30757W        W37207   9.145   2.597  30.857 -0.1752  0.1209 -0.1694
30758W        W37208  11.916   0.007  13.755 -0.0812 -0.0056  0.1051
30759W        W37209   9.194   5.276   6.582 -0.1991 -0.0373 -0.0303
30760W        W37210  21.031   0.634   2.359  0.0391  0.1448  0.0296
30761W        W37211   6.863   2.667  14.816  0.0175 -0.3886 -0.0958
30762W        W37212  16.898   0.430  27.963  0.1611 -0.0330  0.0986
30763W        W37213  19.808   0.680  14.333 -0.1061 -0.0218  0.0304
30764W        W37214  16.360   6.559  26.509  0.0353 -0.2366  0.0505
30765W        W37215  13.562   1.820  32.748 -0.2846  0.0739  0.0403
30766W        W37216  12.290   6.314  22.599 -0.1580  0.1588 -0.1472
30767W        W37217  19.762   1.371  29.638  0.1073  0.1964 -0.1475
30768W        W37218   3.492   5.267  13.254  0.0330 -0.0288  0.0221
30769W        W37219  14.740   3.745  11.759 -0.0985 -0.2365  0.3490
30770W        W37220  10.253   4.704   7.960  0.1756  0.3054 -0.2953
30771W        W37221  22.294   2.243   9.781  0.1177  0.0279 -0.2208
30772W        W37222  15.309   3.737  25.208 -0.4909  0.0523 -0.1741
30773W        W37223  17.899   0.697  14.559 -0.0448  0.0038 -0.0821
30774W        W37224   3.487   4.849   0.830  0.1053  0.0583 -0.0292
30775W        W37225  18.407   2.953   3.721 -0.0457  0.4424 -0.2233
30776W        W37226  23.804   0.787  21.338  0.0135 -0.0750 -0.4504
30777W        W37227  21.683   5.709   1.303  0.2833  0.0234 -0.0752
30778W        W37228  21.996   2.668  14.213  0.1322  0.0170 -0.2232
30779W        W37229  23.595   0.506  25.453  0.1028  0.0791 -0.0465
30780W        W37230  13.525   3.847  36.150  0.2598  0.1412  0.1457
30781W        W37231  26.318   3.658  34.674  0.2821 -0.1290 -0.2655
30782W        W37232  15.771   1.041  24.997 -0.0053 -0.2044  0.0960
30783W        W37233   4.830   0.682  26.284  0.1826  0.0917  0.2673
30784W        W37234   4.907   3.242  33.675 -0.1673  0.0728  0.3962
30785W        W37235  21.107   2.712  24.578  0.1245  0.0158 -0.1661
30786W        W37236  16.535   5.330  34.326  0.1368  0.3920 -0.0566
30787W        W37237   1.431   0.371  26.763  0.2051 -0.2354 -0.0419
30788W        W37238   4.793   6.206  11.245  0.2633  0.0531 -0.2091
30789W        W37239   3.054   2.342  30.909  0.1981 -0.0910 -0.1462
30790W        W37240  21.660   4.351  31.352  0.2300  0.0457 -0.0060
30791W        W37241  11.495   5.624  12.667  0.1653  0.0620  0.3744
30792W        W37242   6.025   3.752   5.625  0.2712  0.0296  0.0213
30793W        W37243  10.268   4.572  11.806 -0.0974 -0.2345  0.0001
30794W        W37244  20.717   5.271  26.788 -0.2301  0.1177  0.2058
30795W        W37245   7.060   4.438  10.123  0.0849  0.1104 -0.0784
30796W        W37246  16.795   5.039  11.878  0.4744  0.1850  0.2299
30797W        W37247  24.067   6.483   4.806 -0.1478 -0.2351 -0.2482
30798W        W37248   4.582   4.750  23.560 -0.0811  0.2506 -0.1593
30799W        W37249   0.706   1.208  34.186  0.1439  0.0884 -0.2517
30800W        W37250   6.722   1.131  20.839 -0.0601 -0.2133  0.3153
30801W        W37251   3.206   5.946  10.608  0.1589 -0.2327 -0.0021
30802W        W37252   1.393   6.571   4.466  0.1173  0.1714  0.0866
30803W        W37253   0.441   0.379   7.812  0.0088 -0.0106  0.2190
30804W        W37254   1.330   1.287   8.773 -0.4560  0.1494  0.1663
30805W        W37255  23.292   6.072  33.113 -0.0774  0.1907  0.1748
30806W        W37256  21.913   3.122  33.396  0.2345  0.2341 -0.0196
30807W        W37257  21.988   5.971  35.445  0.0763 -0.1347 -0.1774
30808W        W37258  15.258   6.544  10.453 -0.0325  0.1501 -0.0806
30809W        W37259   6.536   2.482  25.118 -0.0191  0.3635 -0.1736
30810W        W37260  23.035   4.042   6.702 -0.1154 -0.2021 -0.2943
30811W        W37261  24.704   2.642  30.782  0.1639 -0.2154 -0.0289
30812W        W37262  17.393   6.142  26.598 -0.1284 -0.3184 -0.2400
30813W        W37263  20.071   0.262  20.758 -0.1927  0.0276 -0.1019
30814W        W37264  17.620   2.890   3.988 -0.1396 -0.0534 -0.0190
30815W        W37265  20.366   0.602   7.594 -0.1286 -0.1698  0.0174
30816W        W37266   3.226   3.861   2.615 -0.2601  0.0918 -0.2912
30817W        W37267  11.409   5.079  27.021  0.3188  0.1188  0.1175
30818W        W37268  13.054   0.158   3.246  0.1032  0.1860 -0.0749
30819W        W37269   6.753   1.096   4.587  0.0659 -0.2503 -0.1832
30820W        W37270   9.981   0.011  35.284 -0.1443 -0.0027  0.1306
30821W        W37271   8.956   0.463  30.681  0.0713 -0.2616 -0.0633
30822W        W37272  13.975   3.760  33.770 -0.1008  0.1595  0.0558
30823W        W37273  16.167   2.035  24.209 -0.3990 -0.3816  0.4088
30824W        W37274   7.474   5.487  24.491  0.1798  0.2509 -0.0443
30825W        W37275   2.958   2.189  35.325  0.1378 -0.1156  0.0817
30826W        W37276  11.353   4.679  14.250  0.1062 -0.1611  0.0600
30827W        W37277  23.896   3.755  30.238  0.4098  0.0693  0.2377
30828W        W37278   7.115   6.572   9.089  0.0098 -0.0665 -0.1190
30829W        W37279   8.457   3.378   9.306  0.0889 -0.1596 -0.0372
30830W        W37280   3.687   4.368  13.940  0.0820  0.2792 -0.3144
30831W        W37281   0.549   4.591  30.918 -0.0464 -0.1751 -0.0693
30832W        W37282   1.632   2.499  27.182 -0.4043 -0.0714 -0.2163
30833W        W37283  21.219   4.432  11.137 -0.0679  0.1894  0.0009
30834W        W37284   2.108   5.527   7.042  0.3010 -0.0045 -0.1787
30835W        W37285  18.685   1.848   6.580 -0.0976  0.2774  0.2842
30836W        W37286   8.724   0.752  23.436 -0.1071 -0.0479  0.0021
30837W        W37287  14.190   6.606  20.893  0.3028  0.1601  0.3387
30838W        W37288   3.000   6.073  13.562 -0.5490  0.4139 -0.0555
30839W        W37289  18.112   1.710  30.680  0.1789 -0.2494  0.1463
30840W        W37290  14.521   0.060   4.858  0.1067 -0.1255  0.2003
30841W        W37291   3.286   4.011  30.545 -0.2783  0.0257  0.3692
30842W        W37292  12.777   5.042  29.686  0.1175  0.3377  0.1692
30843W        W37293  12.888   4.718  28.873 -0.0756  0.0835 -0.1536
30844W        W37294   6.270   4.906  10.651 -0.2452 -0.0545  0.0373
30845W        W37295   0.925   0.687  21.732 -0.3393  0.0857 -0.2535
30846W        W37296   0.189   2.807  22.665  0.2154 -0.3232  0.0718
30847W        W37297  18.126   5.280  34.729 -0.0957  0.0280  0.0581
30848W        W37298  13.371   5.388  26.733 -0.0908 -0.0623 -0.0482
30849W        W37299  10.789   5.968  21.068 -0.0298 -0.1649 -0.1224
30850W        W37300   4.630   5.529   8.572 -0.0627 -0.0078 -0.1289
30851W        W37301   4.357   6.391  11.773 -0.1009 -0.1897  0.1407
30852W        W37302   2.837   2.037  27.536  0.0473  0.2875  0.1633
30853W        W37303   5.684   2.759  24.076 -0.0384  0.1957  0.3923
30854W        W37304  22.973   1.471  31.849  0.2556 -0.4048  0.0641
30855W        W37305  23.256   2.003  23.255  0.0213  0.1120  0.0359
30856W        W37306  20.431   3.282  14.609  0.0089 -0.1023 -0.0712
30857W        W37307   3.609   5.204  14.277  0.0726 -0.0712  0.2037
30858W        W37308  17.046   6.375  35.346  0.1949  0.0770 -0.1093
30859W        W37309  25.860   6.251  28.543 -0.1697  0.1802 -0.2563
30860W        W37310  15.933   6.555  21.582  0.3766  0.1776 -0.0776
30861W        W37311   1.704   4.501   5.293  0.1354  0.1335 -0.1516
30862W        W37312   0.063   5.815   7.074 -0.0528  0.3255  0.2875
30863W        W37313   7.157   1.347  14.982  0.2462 -0.2100  0.3309
30864W        W37314  19.283   3.690  34.947  0.1043  0.0531 -0.0156
30865W        W37315   6.892   2.955  22.172 -0.2537  0.1773  0.3425
30866W        W37316  22.538   4.317  12.540 -0.1185 -0.0572 -0.0677
30867W        W37317  19.801   0.550   7.495 -0.1869 -0.2516  0.1873
30868W        W37318  10.553   3.571   8.978 -0.1841  0.2522  0.1284
30869W        W37319  25.157   4.811   9.482  0.1895 -0.1101 -0.3062
30870W        W37320   1.209   5.149  26.141 -0.0448  0.3598 -0.0092
30871W        W37321   4.968   6.331  35.199  0.0172  0.0435  0.0653
30872W        W37322  11.786   1.065  20.797  0.2838  0.2759 -0.1627
30873W        W37323  15.779   2.690  34.327  0.0026 -0.0431 -0.1963
30874W        W37324  17.530   2.958  13.946  0.2568  0.0136 -0.0656
30875W        W37325  20.547   4.031   0.733 -0.0231  0.4663 -0.2798
30876W        W37326  16.862   2.169  33.571 -0.0412 -0.2607  0.0827
30877W        W37327  22.989   1.541  23.589 -0.3815  0.1581  0.0080
30878W        W37328   7.969   3.397   0.853  0.1212  0.0729 -0.3133
30879W        W37329  21.527   3.701  12.292 -0.0664 -0.2021 -0.3242
30880W        W37330   3.071   5.613  27.995  0.1662 -0.1176  0.1330
30881W        W37331   4.315   4.831  22.726 -0.1166  0.3022  0.1392
30882W        W37332  11.371   0.966   1.759 -0.1947  0.0617  0.3001
30883W        W37333  15.698   1.465  14.798 -0.0641  0.2482  0.0166
30884W        W37334  11.224   2.065   2.872  0.2961  0.3519  0.0000
30885W        W37335  23.098   5.987   9.893  0.0201  0.1793  0.0016
30886W        W37336  21.697   1.840  22.246  0.3615 -0.2829  0.0804
30887W        W37337  14.511   2.564   8.430 -0.1165  0.0973 -0.3208
30888W        W37338  20.752   0.577  10.644  0.1907 -0.0155 -0.0351
30889W        W37339   9.519   0.903  20.770  0.0037  0.1397 -0.2329
30890W        W37340  14.772   2.277  28.582 -0.0089 -0.2778  0.1162
30891W        W37341   4.947   3.534  22.008  0.1034 -0.0178 -0.0845
30892W        W37342  19.526   0.950  25.674 -0.0481 -0.0707  0.0111
30893W        W37343  15.883   4.761  29.535  0.0489  0.0926  0.0637
30894W        W37344  24.080   2.948   3.108  0.0795  0.3107  0.0149
30895W        W37345  14.397   3.187  23.025 -0.4041  0.2641  0.3564
30896W        W37346  17.091   6.324   9.534 -0.1288 -0.0381 -0.1543
30897W        W37347  22.710   5.643  10.591  0.1687  0.1060  0.2829
30898W        W37348  12.269   5.830   4.798  0.1552 -0.3677 -0.2538
30899W        W37349  15.403   2.194  13.578 -0.1095 -0.0548  0.2658
30900W        W37350  13.689   0.397  22.648  0.0934  0.0357  0.0509
30901W        W37351   1.887   0.041  27.504 -0.0912 -0.0805  0.0394
30902W        W37352   4.749   6.235   7.544  0.2184  0.0224 -0.3047
30903W        W37353  12.867   5.770  33.857 -0.1855 -0.0791  0.0270
30904W        W37354  13.969   0.130  27.635 -0.1842  0.2124  0.2329
30905W        W37355   5.748   0.474   6.182 -0.1121  0.1312 -0.3051
30906W        W37356   7.595   6.491   6.692  0.0140 -0.1267 -0.2087
30907W        W37357  13.453   1.571  28.445 -0.0817  0.0443  0.1199
30908W        W37358  22.111   0.872   7.493  0.0608 -0.0619 -0.0550
30909W        W37359  25.380   3.887   1.178  0.0006  0.0979 -0.4508
30910W        W37360   4.506   4.703  33.643 -0.2012 -0.0499  0.2299
30911W        W37361  26.381   3.764  11.332  0.0497  0.1149 -0.2414
30912W        W37362  25.872   4.498  14.454  0.1819 -0.1171 -0.0051
30913W        W37363   6.899   1.731   9.237  0.2867  0.2103 -0.2795
30914W        W37364  23.620   0.315  23.289 -0.1331  0.0628 -0.0916
30915W        W37365   6.609   4.563  28.027 -0.0021  0.0014  0.2656
30916W        W37366   9.946   0.336  34.864  0.0965  0.2695 -0.4145
30917W        W37367  14.318   2.358   8.965 -0.0533 -0.0004  0.1264
30918W        W37368   1.253   4.086  28.029 -0.0611 -0.0986 -0.4650
30919W        W37369   0.638   2.037  21.687  0.0357  0.0507  0.1245
30920W        W37370  10.398   5.831  11.325  0.0247  0.1178  0.0625
30921W        W37371   2.205   5.975  28.578 -0.0286 -0.0449 -0.0785
30922W        W37372  22.456   4.167  30.198 -0.2179 -0.3858 -0.0831
30923W        W37373  14.995   4.988   2.832 -0.2317  0.0389 -0.0161
30924W        W37374  11.236   1.617  21.481 -0.2667  0.3765  0.2055
30925W        W37375   9.875   1.453  26.820 -0.0916 -0.2508 -0.4001
30926W        W37376   9.108   2.025  30.758 -0.0672 -0.2303 -0.1716
30927W        W37377  25.452   3.123  14.900  0.0188 -0.0358 -0.2402
30928W        W37378  19.889   6.423  33.224  0.0094 -0.2468 -0.3931
30929W        W37379  21.903   2.607  20.501  0.2234 -0.1226  0.1179
30930W        W37380   8.553   5.442  31.999  0.0076  0.2729 -0.1734
30931W        W37381  10.573   1.107  21.592 -0.1205  0.2666  0.2679
30932W        W37382   9.552   5.614  27.056 -0.2956  0.1855  0.0607
30933W        W37383  16.525   3.526   6.297  0.0980  0.0134  0.1334
30934W        W37384  23.225   5.395   6.169  0.0650  0.0214  0.0829
30935W        W37385  21.170   3.147   0.507  0.0574 -0.0560  0.0325
30936W        W37386   5.258   2.124  33.109 -0.1309 -0.0253 -0.0019
30937W        W37387  26.206   2.409  29.013  0.0212 -0.0434  0.1606
30938W        W37388  17.207   2.656  10.948  0.0229 -0.1584  0.2660
30939W        W37389  24.765   2.431  29.633  0.0023 -0.3423  0.1283
30940W        W37390   8.761   5.264   9.599 -0.0465 -0.0978  0.4847
30941W        W37391  24.751   5.923   1.806  0.2230 -0.1643  0.0657
30942W        W37392   1.547   3.220   5.378 -0.0027 -0.0972  0.1235
30943W        W37393  14.878   5.992   2.045 -0.0235  0.3849 -0.1127
30944W        W37394   7.684   0.340   0.263  0.1015  0.4017  0.0758
30945W        W37395   3.573   3.095  22.669 -0.2795  0.0232  0.0872
30946W        W37396  19.220   2.461  24.650 -0.3038 -0.1195 -0.1143
30947W        W37397  14.776   1.416  28.768  0.0518 -0.0216 -0.0374
30948W        W37398   6.828   0.468  11.939  0.2416  0.0305  0.2353
30949W        W37399   7.710   3.257  25.164 -0.0213  0.0826  0.0245
30950W        W37400   2.077   1.074  35.218 -0.0851  0.1082  0.1194
30951W        W37401  19.166   1.356   6.001  0.0549 -0.3774  0.3511
30952W        W37402   3.642   4.205  10.271 -0.1456  0.1796 -0.1167
30953W        W37403  25.971   1.383  24.655 -0.0608  0.0544  0.3815
30954W        W37404  11.092   3.009  12.163  0.1157 -0.1234  0.2479
30955W        W37405  10.127   3.020  32.603  0.0462 -0.1053  0.0732
30956W        W37406  25.691   4.239   2.527  0.0760  0.2150  0.4139
30957W        W37407  21.861   1.233   2.106 -0.1287 -0.0472  0.1228
30958W        W37408   8.390   1.064   6.941 -0.1423  0.2510  0.2508
30959W        W37409   9.229   0.019  12.384 -0.0937  0.3361 -0.0662
30960W        W37410   7.265   0.495  15.516  0.0341  0.0086  0.1674
30961W        W37411  11.953   2.980  36.133  0.1884 -0.0353  0.4115
30962W        W37412   2.041   6.078   2.137 -0.1171  0.0294  0.2184
30963W        W37413  16.456   0.121   7.850 -0.1962  0.1823 -0.0432
30964W        W37414  11.711   1.803  11.937 -0.1446 -0.0294 -0.1574
30965W        W37415   1.307   1.771   9.050 -0.0425 -0.1398 -0.1081
30966W        W37416   0.446   1.452  22.110 -0.2028 -0.3053 -0.2702
30967W        W37417   0.580   3.924  22.664  0.3785 -0.0518  0.3232
30968W        W37418  23.356   3.569   5.476  0.2533  0.3308 -0.1249
30969W        W37419   1.176   2.625  24.813 -0.2009 -0.0895 -0.0353
30970W        W37420   6.570   1.935  28.437  0.1920 -0.2201 -0.0096
30971W        W37421  13.890   2.219  23.760  0.0938 -0.2692 -0.3520
30972W        W37422  25.722   5.057   3.929 -0.1828 -0.3462  0.3340
30973W        W37423  14.912   2.217  21.108 -0.0596  0.2856  0.1905
30974W        W37424  12.477   3.779   5.559 -0.1447  0.0401  0.2771
30975W        W37425  20.756   1.912  31.783 -0.0115  0.1512 -0.1705
30976W        W37426  16.835   5.733   1.912 -0.0450  0.1654  0.0491
30977W        W37427  19.025   0.606   5.301  0.2325  0.1387  0.2229
30978W        W37428  12.330   1.181  10.390  0.0978 -0.0424  0.0269
30979W        W37429   8.038   4.641   9.259  0.1456 -0.1219 -0.1218
30980W        W37430   2.851   3.125  26.256 -0.1036  0.1448 -0.1528
30981W        W37431  17.721   4.185  34.202 -0.0280  0.0413 -0.1439
30982W        W37432  21.503   6.066  27.822  0.1489  0.0748  0.0387
30983W        W37433   9.919   4.841  32.517  0.2253  0.1513 -0.0824
30984W        W37434  24.505   2.722   7.990 -0.0786 -0.0218  0.2941
30985W        W37435  24.335   1.250  31.899  0.1172  0.1450 -0.0133
30986W        W37436  26.404   1.308  26.454 -0.1678  0.1348  0.2631
30987W        W37437   7.251   3.461  33.090  0.0141 -0.1404  0.0241
30988W        W37438  11.750   6.027  27.150  0.0931  0.0440 -0.0763
30989W        W37439   7.679   3.656  33.087  0.2020  0.2778 -0.1216
30990W        W37440   7.028   5.565  22.758  0.0271  0.0326 -0.1126
30991W        W37441  13.896   1.128  34.852 -0.0569  0.0886 -0.0858
30992W        W37442  11.956   4.723  33.717 -0.1685  0.1231  0.1026
30993W        W37443   8.144   1.197  13.028 -0.1412  0.2374  0.0756
30994W        W37444  19.105   1.173  35.183  0.0443  0.0310 -0.3458
30995W        W37445  22.892   0.912   7.095  0.1472  0.2795  0.0915
30996W        W37446  22.490   5.631  22.818 -0.1568  0.0200  0.2512
30997W        W37447  21.740   3.134   1.189 -0.3419 -0.0623 -0.2383
30998W        W37448  23.496   4.012   4.259 -0.1899  0.0630  0.0199
30999W        W37449  12.041   4.166  21.925 -0.0990 -0.1699 -0.2721
31000W        W37450  24.111   1.689  23.354 -0.1214 -0.0456  0.3186
31001W        W37451   0.267   5.826   7.554  0.1423  0.0401  0.0913
31002W        W37452  18.179   4.488   4.426  0.0778  0.1239 -0.0743
31003W        W37453   6.403   1.278   3.119  0.0176 -0.0790 -0.1825
31004W        W37454  25.714   4.775  31.972  0.0240  0.0103 -0.0418
31005W        W37455  21.899   6.473  35.295  0.0269 -0.1652 -0.1861
31006W        W37456  11.865   4.278   9.566  0.0355  0.0351 -0.0105
31007W        W37457  12.513   1.824  23.748 -0.1306 -0.2183  0.0378
31008W        W37458  25.177   0.698   5.531  0.0003  0.0082  0.0770
31009W        W37459  25.289   6.162  35.852 -0.2466  0.0660  0.0670
31010W        W37460   1.390   5.150  35.792 -0.0090 -0.0130 -0.0748
31011W        W37461  21.257   2.100  35.180  0.2491  0.1415  0.0006
31012W        W37462  21.253   0.167  13.387 -0.0474 -0.1938 -0.0715
31013W        W37463  21.127   4.021  12.971  0.0693  0.3775  0.0133
31014W        W37464  22.911   2.277   5.987 -0.0851  0.1995 -0.1414
31015W        W37465  18.887   0.732  13.772 -0.2909 -0.0571  0.2450
31016W        W37466  13.825   5.893  30.867 -0.0073  0.0443 -0.0379
31017W        W37467  23.839   6.498   0.082  0.0101  0.2393 -0.1817
31018W        W37468   0.947   4.789  27.580  0.1079  0.0034 -0.1017
31019W        W37469   5.850   0.917  31.990 -0.0640  0.0320 -0.0864
31020W        W37470  25.061   5.292  27.701  0.2883  0.2575 -0.1174
31021W        W37471  22.424   2.886  31.224 -0.0476 -0.1341 -0.3164
31022W        W37472  21.897   0.731   4.272  0.4537  0.1309  0.0672
31023W        W37473  13.275   3.403  30.067 -0.0211 -0.3135  0.1145
31024W        W37474  11.923   3.078  20.736  0.0058 -0.0778  0.1564
31025W        W37475  25.452   0.494  25.059 -0.1074 -0.0052  0.1465
31026W        W37476  20.661   2.980  22.104 -0.2937  0.2449 -0.1317
31027W        W37477  11.734   1.486   6.168 -0.0360 -0.0729  0.0822
31028W        W37478  22.008   0.151  30.843 -0.0118  0.0218  0.1765
31029W        W37479  12.520   1.665  10.161  0.2769 -0.0655  0.1798
31030W        W37480  14.629   4.605  24.622  0.0532 -0.2164  0.1086
31031W        W37481  18.689   3.102  28.496 -0.2849 -0.2159 -0.3790
31032W        W37482   3.551   5.248  10.580  0.1106  0.0313  0.2067
31033W        W37483  16.653   0.215  15.819 -0.0036  0.1827 -0.1375
31034W        W37484  17.088   4.583   9.274  0.3530 -0.2139 -0.1554
31035W        W37485  15.775   5.270  28.189 -0.0447 -0.2061 -0.2985
31036W        W37486   2.173   2.201  12.584  0.4103  0.0686  0.1384
31037W        W37487  24.078   4.812  22.182 -0.1730  0.0784 -0.0794
31038W        W37488  16.908   5.389  12.579  0.0718 -0.4065 -0.0954
31039W        W37489   5.385   5.404   3.013  0.1560  0.0860 -0.0420
31040W        W37490  19.341   5.452   9.655  0.2880  0.1813 -0.0785
31041W        W37491  17.316   6.534  14.255 -0.2878 -0.1339 -0.3343
31042W        W37492   6.665   6.353  23.010  0.0172 -0.0638 -0.2734
31043W        W37493   1.814   5.135  29.071 -0.0580  0.1755  0.4701
31044W        W37494   2.025   1.334  11.308 -0.0063 -0.1662 -0.1596
31045W        W37495  17.671   6.111  30.141  0.0752 -0.0404  0.0058
31046W        W37496  17.837   3.046  23.419  0.1781  0.0343 -0.1691
31047W        W37497  19.984   1.086   0.515  0.0754 -0.0520  0.0113
31048W        W37498  23.289   4.056  10.914  0.3199 -0.2513 -0.1723
31049W        W37499   9.923   0.404   2.428 -0.0601 -0.3110  0.1342
31050W        W37500  16.440   4.798  24.833  0.4625 -0.1062 -0.3029
31051W        W37501   1.951   3.366   3.007  0.2060 -0.1894  0.2433
31052W        W37502   6.002   5.315  32.791  0.0319  0.1723 -0.2046
31053W        W37503   6.294   1.712  25.924  0.1478 -0.1014 -0.1782
31054W        W37504  25.566   4.108  11.194  0.0449 -0.2010 -0.2226
31055W        W37505  24.147   0.068  31.228 -0.0096  0.0118  0.1950
31056W        W37506  16.840   2.878   8.982 -0.1646  0.0772 -0.1394
31057W        W37507  24.864   4.424  26.526  0.0627  0.1812 -0.4373
31058W        W37508  14.349   3.743  22.338 -0.0344  0.3282  0.0100
31059W        W37509  24.033   0.288   6.551  0.0365 -0.0602 -0.1921
31060W        W37510  17.579   3.930  28.440 -0.0706  0.0812 -0.0034
31061W        W37511   1.717   4.020  23.020  0.2355  0.1342 -0.2872
31062W        W37512  21.696   0.540  32.455 -0.0231  0.2285  0.3832
31063W        W37513  25.771   2.233  33.946  0.2654  0.1262  0.1055
31064W        W37514  11.717   6.564  23.410 -0.1265 -0.1741 -0.3961
31065W        W37515  23.387   4.731   3.416 -0.1608  0.0884  0.0295
31066W        W37516   9.000   3.243   7.633  0.0903 -0.0268 -0.0580
31067W        W37517  14.445   4.778  26.670  0.1089 -0.2077  0.0347
31068W        W37518  13.618   3.796  26.294  0.1567  0.0013  0.0319
31069W        W37519  19.445   4.715  26.651 -0.1856  0.1408 -0.3880
31070W        W37520  15.392   1.024   5.640 -0.0827  0.4060  0.4082
31071W        W37521  24.818   0.030  33.094  0.0942 -0.0790 -0.0938
31072W        W37522  25.198   0.897   8.951  0.0016  0.1721 -0.0676
31073W        W37523  14.899   5.214  29.647  0.0369  0.0558  0.4103
31074W        W37524  14.488   4.613   5.155  0.0438 -0.0317 -0.0346
31075W        W37525  12.398   0.931   5.654  0.0219 -0.0541 -0.1229
31076W        W37526   4.234   1.228  11.264  0.2046  0.3862  0.0332
31077W        W37527  18.374   2.942  28.908  0.0567  0.0851 -0.0687
31078W        W37528   4.887   0.535   7.589  0.0042 -0.0234  0.0234
31079W        W37529  17.891   1.724  13.057 -0.1590  0.3571  0.0583
31080W        W37530   2.879   0.718   4.446  0.1958  0.3676  0.3979
31081W        W37531   4.438   5.341  21.918 -0.1903 -0.1847 -0.0188
31082W        W37532  17.358   4.109  21.872 -0.3805  0.1715 -0.2019
31083W        W37533   2.665   3.487  11.477  0.0262  0.1457 -0.2734
31084W        W37534  14.578   2.574   7.396  0.0096 -0.0881  0.1324
31085W        W37535  16.158   5.400  30.311 -0.0715 -0.2615 -0.0406
31086W        W37536  11.263   3.693  23.145  0.0711 -0.1775 -0.1151
31087W        W37537  23.709   2.007   7.280  0.1287 -0.0317  0.0022
31088W        W37538   9.127   0.121  24.186  0.0215  0.0354 -0.3087
31089W        W37539   5.487   3.496   7.453 -0.1419  0.2273 -0.1364
31090W        W37540  16.948   0.976  34.474  0.0003  0.0534 -0.2012
31091W        W37541   2.839   5.800   5.885  0.0543  0.1043  0.1017
31092W        W37542  17.226   2.887  11.448 -0.1304  0.0188  0.0706
31093W        W37543  21.592   4.161   2.006 -0.3015 -0.0790  0.0440
31094W        W37544  12.837   6.235  31.715 -0.0100  0.0716  0.0381
31095W        W37545   6.627   2.171   0.268  0.0708  0.1796  0.0011
31096W        W37546  12.152   4.894  23.967 -0.2046  0.0410 -0.1388
31097W        W37547  22.720   5.509  26.603  0.1296  0.4364 -0.0967
31098W        W37548  18.536   6.418  34.265 -0.0674 -0.3595  0.2118
31099W        W37549   8.690   2.956  21.403 -0.0715 -0.2895  0.0963
31100W        W37550  17.490   3.962   5.390  0.0959  0.1883 -0.1085
31101W        W37551   3.570   2.079   0.487  0.0932  0.1919  0.3699
31102W        W37552   1.228   6.069  29.725 -0.0434  0.1869 -0.1059
31103W        W37553   1.027   4.151  29.306  0.3676  0.0783  0.2789
31104W        W37554   2.754   6.014  25.942 -0.0979  0.1015  0.0871
31105W        W37555  21.462   1.751   8.723 -0.0129 -0.0499 -0.2404
31106W        W37556  17.690   4.015   3.996 -0.2243  0.2562  0.0792
31107W        W37557  18.651   5.786  26.328 -0.3219  0.2512  0.0243
31108W        W37558   4.158   2.305  24.297  0.2580 -0.1455  0.1281
31109W        W37559  26.330   1.800  34.560 -0.1578  0.2676 -0.2345
31110W        W37560  25.153   6.563   8.407  0.2188  0.1298  0.1263
31111W        W37561   4.300   1.377   6.422 -0.0373 -0.2612 -0.4175
31112W        W37562  14.731   5.641  10.091  0.0174  0.5361  0.0511
31113W        W37563  18.348   2.583   0.686 -0.2068 -0.1999 -0.1479
31114W        W37564   2.938   0.671  15.426 -0.2201  0.2618  0.1370
31115W        W37565  12.464   5.909  22.912 -0.1037  0.0570  0.0646
31116W        W37566  20.718   2.887   1.640  0.0106 -0.1419  0.1385
31117W        W37567   3.358   3.936   6.076  0.0790 -0.2405  0.1622
31118W        W37568  13.667   6.115  31.467  0.0274  0.1762  0.0054
31119W        W37569  25.369   5.172  20.561  0.0805 -0.2218  0.2014
31120W        W37570  17.751   2.789  10.973  0.1152  0.1402  0.2720
31121W        W37571  24.910   6.237   7.433 -0.2766  0.0845  0.4002
31122W        W37572  26.383   1.745  27.853 -0.0956  0.0269  0.1418
31123W        W37573  22.995   5.631  11.501 -0.0669  0.0832  0.1521
31124W        W37574  21.601   0.505  27.497 -0.1345  0.0568  0.0372
31125W        W37575   2.203   2.106  11.810  0.2573  0.2374  0.1648
31126W        W37576  11.579   5.922  13.070 -0.0771  0.1366  0.1016
31127W        W37577  23.515   2.492  32.720 -0.0080  0.1233 -0.0008
31128W        W37578   8.768   6.599   2.470  0.0792  0.0592  0.0288
31129W        W37579  16.287   3.093  29.098 -0.1552  0.0564 -0.0338
31130W        W37580  25.093   3.363  25.968  0.1317 -0.0630 -0.2193
31131W        W37581  11.940   4.368  28.489  0.3100  0.2221 -0.0552
31132W        W37582  21.020   3.010   7.407 -0.0495  0.0606  0.1158
31133W        W37583   3.351   2.657   8.570 -0.2365 -0.1011  0.0280
31134W        W37584   2.867   4.244  35.203 -0.1190  0.0485 -0.0451
31135W        W37585  15.305   6.549   3.372  0.0765 -0.0926 -0.0846
31136W        W37586   5.503   5.950   6.059  0.1790  0.3788 -0.3345
31137W        W37587  18.497   0.332  11.013 -0.1346 -0.2059 -0.1156
31138W        W37588  11.265   0.319   4.929  0.2278  0.0288  0.2887
31139W        W37589  24.272   6.201  10.816  0.0936  0.0935  0.2033
31140W        W37590  10.218   6.318   0.162  0.0339 -0.0130 -0.1877
31141W        W37591   0.255   3.043  23.123 -0.2023  0.1483  0.0022
31142W        W37592   3.978   3.100   1.135 -0.0448 -0.0527  0.0725
31143W        W37593   4.471   5.036   4.769  0.1613  0.0920 -0.1736
31144W        W37594   6.158   6.135   0.584 -0.3161 -0.2812  0.1832
31145W        W37595  24.748   6.075   3.599 -0.1768 -0.2154 -0.0756
31146W        W37596   1.970   4.346  21.646 -0.1923  0.4053  0.3042
31147W        W37597  17.034   4.066  34.983  0.1006 -0.2251 -0.3174
31148W        W37598   6.934   0.797   9.084 -0.0300 -0.1817 -0.0680
31149W        W37599  21.263   5.970   8.879 -0.1621  0.1212  0.1019
31150W        W37600  11.604   0.762   4.923  0.2525 -0.3469  0.0808
31151W        W37601   6.478   5.116   2.968 -0.1989 -0.2303 -0.1369
31152W        W37602  14.012   4.592  26.820  0.1651 -0.0139 -0.0601
31153W        W37603  10.378   1.731  31.425  0.3102 -0.3247 -0.0641
31154W        W37604  26.283   0.225  21.042  0.3446  0.2223  0.1467
31155W        W37605  11.618   4.346   0.871  0.5005 -0.3705  0.1727
31156W        W37606  21.955   4.425  35.272  0.0378  0.1092 -0.1410
31157W        W37607   7.709   3.214   2.411 -0.1113  0.0564 -0.6618
31158W        W37608  10.370   1.768  22.372 -0.1364 -0.4657 -0.2253
31159W        W37609  24.621   2.697   3.902  0.1319 -0.1023 -0.0564
31160W        W37610  19.345   4.670  10.756 -0.1156  0.2539  0.1483
31161W        W37611   6.170   4.916   6.890  0.3839  0.0945 -0.2115
31162W        W37612  23.020   3.098  23.581 -0.1186  0.0189 -0.1202
31163W        W37613  18.541   2.514  35.208  0.0502 -0.0132 -0.0496
31164W        W37614   8.768   3.471  28.207  0.1702 -0.0167  0.3550
31165W        W37615   8.385   6.406   8.287 -0.0733  0.1426 -0.0179
31166W        W37616  19.182   4.895   6.695  0.2464  0.1063 -0.0610
31167W        W37617  16.640   2.144  30.892  0.2602 -0.1862 -0.3045
31168W        W37618   4.089   1.454   0.679 -0.3591  0.1551  0.1701
31169W        W37619  18.598   0.651  21.234  0.0155 -0.2118 -0.1410
31170W        W37620  26.075   4.383   8.203 -0.3285 -0.0184  0.0030
31171W        W37621   5.767   3.526   7.026  0.0918  0.2944  0.0683
31172W        W37622   3.697   2.675  13.867  0.2594 -0.0164  0.1185
31173W        W37623   2.119   3.498  14.161 -0.2919  0.0227 -0.0694
31174W        W37624  12.314   4.058   9.609 -0.1634  0.2529  0.1490
31175W        W37625  11.017   2.075  33.167  0.2996  0.3755  0.1531
31176W        W37626  20.479   3.631  25.368 -0.0988  0.0271  0.2190
31177W        W37627   0.677   0.252  26.050  0.0473 -0.2599 -0.1461
31178W        W37628  20.505   1.629  23.991 -0.2429 -0.0689  0.2330
31179W        W37629  18.911   3.783   8.331  0.2524 -0.1659  0.0856
31180W        W37630  15.463   4.507   8.892  0.1074  0.0467  0.1201
31181W        W37631  17.045   0.052  29.952 -0.1285  0.1881  0.0474
31182W        W37632  22.980   2.656  14.126 -0.2179  0.1374  0.0224
31183W        W37633   4.792   0.153  35.027  0.2717 -0.0769  0.0509
31184W        W37634  23.457   0.386  35.646  0.0669  0.0491 -0.0935
31185W        W37635   2.858   2.819  29.481  0.1387  0.1492  0.0190
31186W        W37636  18.554   4.834   4.439  0.1963 -0.2012 -0.4202
31187W        W37637  22.459   6.494  20.746 -0.3554 -0.1049 -0.0784
31188W        W37638  14.511   4.499  12.396  0.0543  0.2958  0.0343
31189W        W37639  13.472   4.943   1.466  0.2739 -0.0629 -0.0230
31190W        W37640  22.125   4.895  20.430  0.2544  0.0164 -0.2022
31191W        W37641  13.025   2.113  10.847  0.0068 -0.0425 -0.0579
31192W        W37642  23.560   2.327  13.093 -0.0613  0.3918 -0.2392
31193W        W37643  19.719   0.713   2.169 -0.0662 -0.2880  0.1219
31194W        W37644   6.307   4.280  32.673  0.1189 -0.1862 -0.1436
31195W        W37645  20.406   5.691  24.579  0.1009 -0.1928 -0.1056
31196W        W37646  18.124   6.343  27.838  0.2208  0.0603  0.4023
31197W        W37647   3.172   1.623   1.267  0.0416  0.0291  0.0156
31198W        W37648  18.891   3.223   5.902  0.0081 -0.1426 -0.1790
31199W        W37649  26.306   2.698  34.540  0.1674  0.0194  0.0307
31200W        W37650   4.854   3.957  27.095  0.1028 -0.0483 -0.0429
31201W        W37651  13.419   5.653  25.150 -0.1294  0.1495  0.1286
31202W        W37652  15.771   5.547   0.243 -0.0337 -0.1249 -0.2098
31203W        W37653  13.336   5.335  34.557 -0.3094 -0.1481 -0.2038
31204W        W37654  15.008   4.968  31.049 -0.1066  0.1200  0.0284
31205W        W37655   8.341   3.645   6.810 -0.0330 -0.0979  0.1822
31206W        W37656   8.562   2.286  30.927 -0.3306  0.1504 -0.2629
31207W        W37657   6.150   6.343   6.656  0.0889  0.2063 -0.5385
31208W        W37658   6.604   2.131   1.008 -0.1517 -0.3154 -0.1647
31209W        W37659  15.106   1.855  22.455 -0.2110 -0.1976  0.1233
31210W        W37660   7.909   5.719  26.503  0.2077  0.3042  0.2357
31211W        W37661  17.555   4.580  35.678  0.0465 -0.0678 -0.1671
31212W        W37662   1.247   4.600  23.660  0.0490 -0.0587  0.1354
31213W        W37663  13.495   6.379   1.909  0.0852 -0.0131  0.1293
31214W        W37664  10.241   6.460   9.745 -0.1694  0.2211 -0.1385
31215W        W37665  18.012   2.583  33.764  0.3083 -0.1670 -0.1061
31216W        W37666   7.540   0.661  11.170 -0.1228 -0.3138 -0.0129
31217W        W37667   5.074   6.381  26.717 -0.2070 -0.2099  0.0141
31218W        W37668  25.709   1.253   7.738 -0.1348  0.1631 -0.0837
31219W        W37669   9.068   4.718   0.966  0.2444  0.0501  0.2157
31220W        W37670  21.642   4.230  10.902  0.2179 -0.1124  0.3786
31221W        W37671  16.944   5.690  13.654 -0.0382 -0.0930 -0.0820
31222W        W37672  12.272   5.983  27.324 -0.1203 -0.0613  0.3027
31223W        W37673  25.794   1.069  21.077  0.1168  0.1418 -0.1850
31224W        W37674   9.682   5.478  11.867 -0.1048 -0.2365  0.0476
31225W        W37675  24.801   0.594   9.824  0.2654  0.1226  0.1398
31226W        W37676   2.673   6.385   3.740 -0.0017  0.0912  0.1734
31227W        W37677  23.658   5.644  32.364  0.0939 -0.2344  0.3207
31228W        W37678   2.140   6.470  21.106 -0.0002 -0.1320  0.2057
31229W        W37679  14.694   6.505  15.174 -0.0777 -0.1237 -0.3319
31230W        W37680  11.459   1.973  15.219 -0.1630  0.1535  0.2156
31231W        W37681  19.418   4.288   0.160 -0.0146  0.0997 -0.0367
31232W        W37682   1.366   1.826  24.091  0.1090  0.1340  0.2738
31233W        W37683  12.420   0.533  26.527  0.1775  0.0499 -0.1949
31234W        W37684  22.803   1.679   6.167  0.0402  0.0690 -0.1621
31235W        W37685  20.116   5.921   5.797  0.0576 -0.1033  0.2388
31236W        W37686  19.335   0.047  21.074 -0.2886  0.0329  0.2277
31237W        W37687  23.012   3.616  22.354 -0.2813  0.1135  0.2310
31238W        W37688  17.423   3.324  29.154 -0.0176  0.0148 -0.0181
31239W        W37689  11.671   2.501  10.164 -0.0296 -0.0590 -0.0051
31240W        W37690   5.218   0.573   6.161 -0.1396  0.0870  0.0254
31241W        W37691  13.352   1.743  32.271  0.2323 -0.1787  0.1244
31242W        W37692   1.654   5.790  31.041 -0.0459 -0.2097  0.2021
31243W        W37693   9.975   3.324   2.688 -0.0100 -0.0747 -0.1014
31244W        W37694   2.867   0.850  11.352 -0.1706 -0.0817  0.2083
31245W        W37695   1.375   6.601  21.387 -0.1246 -0.2911  0.1716
31246W        W37696   1.792   0.865  34.820 -0.1677 -0.0322  0.0258
31247W        W37697   9.920   3.284  25.395 -0.3300 -0.0935 -0.3119
31248W        W37698   5.205   4.002  28.290  0.2506  0.0580 -0.1227
31249W        W37699  22.800   2.198   2.766 -0.4595 -0.0962  0.0818
31250W        W37700  12.054   4.578   0.723  0.1418 -0.0110  0.1695
31251W        W37701  11.083   0.835   5.879  0.1060  0.1382  0.0397
31252W        W37702  22.137   4.238   0.441  0.0794  0.1306 -0.1530
31253W        W37703  26.044   5.616  12.819 -0.2488 -0.2039 -0.0950
31254W        W37704  18.098   2.484  29.993  0.0262 -0.0489  0.0707
31255W        W37705   8.044   4.765  21.473 -0.0042  0.2326 -0.3760
31256W        W37706   7.904   2.939   7.200  0.0025  0.1579 -0.2220
31257W        W37707  11.995   2.494  27.520  0.2889  0.0625 -0.0647
31258W        W37708   3.924   3.163  13.265 -0.1368  0.0266 -0.1613
31259W        W37709  15.039   4.877   3.437 -0.2752  0.0550  0.1936
31260W        W37710   5.076   5.495  23.267 -0.0347 -0.0938  0.0933
31261W        W37711  22.012   1.425  30.203 -0.1355 -0.1811  0.2071
31262W        W37712  16.835   1.619   9.040  0.3823  0.0645 -0.4419
31263W        W37713  13.367   5.187   8.400  0.0453 -0.0328  0.1840
31264W        W37714  11.261   1.634  35.671  0.0378  0.1374  0.1760
31265W        W37715   1.679   3.815  11.482 -0.1108 -0.2002  0.0249
31266W        W37716  25.488   5.414  24.900  0.1817 -0.1738  0.1413
31267W        W37717   7.459   4.513  36.063 -0.1437  0.2682 -0.0186
31268W        W37718  25.336   5.623  28.057 -0.2835 -0.0546  0.1682
31269W        W37719  17.434   1.900  24.628 -0.2824  0.2063  0.1734
31270W        W37720  20.491   2.170   3.091 -0.3138  0.1953  0.0643
31271W        W37721  24.989   4.439  14.275  0.3169 -0.0556 -0.0284
31272W        W37722   6.988   1.524   4.883  0.0146 -0.3051 -0.1729
31273W        W37723   2.815   5.725  13.269  0.1950 -0.0643 -0.0109
31274W        W37724   5.725   5.712  14.024  0.0619  0.0145 -0.0865
31275W        W37725  18.437   5.726  30.401 -0.2771 -0.0933 -0.0343
31276W        W37726  26.202   6.118  30.606  0.2029  0.1316  0.2918
31277W        W37727   0.311   1.477  26.085 -0.0191  0.2455  0.0439
31278W        W37728  20.122   4.472   3.252  0.2460  0.3509 -0.1182
31279W        W37729  10.731   2.605  32.012 -0.2790  0.0262 -0.0379
31280W        W37730  22.339   2.489  35.264 -0.1511  0.1080  0.2049
31281W        W37731  11.369   0.688  24.269  0.2131  0.0520  0.0944
31282W        W37732  21.382   5.735   0.612  0.4165 -0.0416 -0.1637
31283W        W37733  15.721   0.491  21.117  0.0835 -0.1219  0.1133
31284W        W37734  14.285   3.423  35.254  0.0738 -0.0533 -0.0160
31285W        W37735   1.979   3.283  35.098  0.0349  0.0025  0.0647
31286W        W37736  14.167   5.716  25.851 -0.1170  0.1746  0.0350
31287W        W37737   5.344   2.225  34.523 -0.1544  0.1547 -0.1632
31288W        W37738  24.037   4.993  29.675  0.2822 -0.4643  0.1914
31289W        W37739  24.265   1.272  25.277 -0.2821  0.1314  0.3456
31290W        W37740   6.681   4.000  14.320  0.0132  0.1226  0.1527
31291W        W37741   2.468   5.402   0.585 -0.0386  0.1210 -0.0843
31292W        W37742  13.475   1.311   0.973  0.3921  0.0561 -0.0351
31293W        W37743   8.647   1.063   8.913 -0.4046 -0.1270  0.0849
31294W        W37744  17.176   1.527   7.082 -0.0061  0.1249 -0.0558
31295W        W37745  11.915   5.948  22.654  0.3447  0.1050 -0.1984
31296W        W37746   7.336   4.131  15.011  0.0664  0.0757  0.2486
31297W        W37747  15.164   2.720  13.671 -0.1944 -0.2150 -0.0705
31298W        W37748  22.907   4.745   0.776 -0.1109 -0.0216  0.0340
31299W        W37749  21.967   2.731  10.709 -0.1883 -0.1057 -0.0718
31300W        W37750   6.131   6.058  13.214  0.3187  0.2225  0.0066
31301W        W37751  22.481   4.436  35.397 -0.0675  0.2175  0.1641
31302W        W37752  17.484   0.312  10.249  0.3770 -0.1219 -0.0162
31303W        W37753   4.488   6.269   0.282 -0.0652  0.0015  0.1324
31304W        W37754   3.807   5.840   5.198  0.1727 -0.1132 -0.1236
31305W        W37755  20.139   1.752  22.168 -0.0983  0.1009 -0.1290
31306W        W37756   9.516   5.154  32.331  0.2547  0.1044  0.1666
31307W        W37757   3.323   0.990  20.028 -0.1060  0.1423 -0.0138
31308W        W37758   1.699   0.017  24.610  0.2099  0.0984  0.1330
31309W        W37759  25.878   3.157  13.615 -0.5672  0.1125  0.0768
31310W        W37760  17.668   3.985   7.581  0.0355 -0.1646  0.1286
31311W        W37761   1.824   3.215  29.702 -0.1943  0.0285  0.0610
31312W        W37762   5.428   5.182   8.565  0.0028  0.0170  0.4174
31313W        W37763  16.009   5.381  10.813 -0.0168 -0.2647 -0.2500
31314W        W37764   2.644   4.224   7.144 -0.2066  0.1094  0.2202
31315W        W37765  25.056   5.016  23.685  0.2194 -0.1045  0.0089
31316W        W37766   1.195   2.935   6.345 -0.2773  0.1184 -0.0091
31317W        W37767  13.257   4.114  26.376 -0.0001 -0.1448  0.2970
31318W        W37768   8.416   2.210   1.202 -0.0452 -0.0624  0.1909
31319W        W37769  25.254   5.974   1.096  0.3346  0.1396 -0.1809
31320W        W37770   6.206   1.847  24.611  0.0012 -0.0005 -0.1819
31321W        W37771  22.052   3.969  25.582  0.2142 -0.2032 -0.2150
31322W        W37772  20.818   4.248  20.835  0.2318 -0.1642  0.0972
31323W        W37773   6.920   1.802  15.094  0.1508 -0.3048  0.1505
31324W        W37774  21.978   2.241  14.558  0.0535  0.1301  0.3738
31325W        W37775   6.477   1.417  30.193  0.0960 -0.1905  0.2239
31326W        W37776  21.301   2.624  28.252 -0.0395  0.2042 -0.1066
31327W        W37777  12.772   3.124  26.246 -0.0486 -0.0940  0.1413
31328W        W37778   5.164   4.680   1.700  0.0227 -0.1959  0.1271
31329W        W37779  14.950   4.623  25.249 -0.1707  0.0114 -0.2888
31330W        W37780  22.527   3.098  22.130  0.2927 -0.0039  0.1085
31331W        W37781   5.184   0.463   3.214 -0.1392  0.1152 -0.0896
31332W        W37782  22.538   2.831   0.297 -0.2141 -0.1063 -0.1883
31333W        W37783   9.404   2.289  34.637 -0.1045  0.0851  0.1866
31334W        W37784  11.729   3.698   4.213  0.0976 -0.2415  0.1055
31335W        W37785  18.250   2.969   8.971  0.0867  0.5528 -0.0633
31336W        W37786   9.217   6.156   5.342 -0.1506 -0.0507 -0.2524
31337W        W37787  12.341   4.810  25.978 -0.1302 -0.0957 -0.1630
31338W        W37788  12.633   5.077  24.082 -0.0573  0.1271  0.0003
31339W        W37789  11.597   5.967   3.182  0.0656  0.0135  0.1958
31340W        W37790  17.789   5.468  27.614 -0.0244 -0.0306  0.0037
31341W        W37791  18.992   3.085   9.131  0.2906  0.0185  0.1543
31342W        W37792  20.209   5.155   7.451 -0.0664 -0.2009  0.0661
31343W        W37793   5.987   2.572  27.677 -0.0963  0.1505  0.1687
31344W        W37794  25.901   2.828   7.657 -0.2194 -0.0160 -0.0417
31345W        W37795  22.738   2.033  23.654 -0.0041  0.0629 -0.1465
31346W        W37796  10.408   0.417   5.900  0.1124 -0.1114 -0.1988
31347W        W37797   1.663   0.939  23.205  0.1459  0.0216 -0.3168
31348W        W37798   7.108   1.705   2.025  0.1092  0.4208  0.0979
31349W        W37799  26.396   5.824  27.004 -0.1265  0.1500 -0.2544
31350W        W37800  19.860   4.529  13.634 -0.0440 -0.1528  0.0045
31351W        W37801   0.115   2.573   8.675 -0.0430 -0.1318 -0.0589
31352W        W37802  23.080   2.728   8.207  0.1576  0.1921  0.2274
31353W        W37803   2.927   5.613  21.567 -0.2600 -0.1004 -0.2597
31354W        W37804  23.734   0.296   4.069 -0.0334 -0.0317  0.0809
31355W        W37805  13.859   5.283  31.040 -0.2120 -0.1481 -0.2553
31356W        W37806  20.197   2.374   9.111 -0.3468 -0.1092 -0.0917
31357W        W37807  17.220   2.862  25.987  0.0458 -0.1801 -0.0183
31358W        W37808   6.486   0.924  32.721 -0.2469 -0.1333  0.0263
31359W        W37809   0.251   2.085  15.370 -0.1866 -0.2133 -0.2165
31360W        W37810  13.917   0.242  34.070  0.2074 -0.0373 -0.0708
31361W        W37811   6.698   5.904   7.675 -0.1177 -0.0712 -0.0727
31362W        W37812   6.237   3.433  28.972 -0.0572 -0.0020  0.0796
31363W        W37813  20.547   5.463  12.313  0.4917  0.1035  0.0334
31364W        W37814  16.550   2.160  32.744  0.0334  0.0598  0.0726
31365W        W37815  19.374   4.027  30.519 -0.1526 -0.0757  0.1854
31366W        W37816  14.157   3.697   8.767 -0.1177  0.0173 -0.0074
31367W        W37817  18.219   3.371   3.998  0.2794 -0.1178 -0.0367
31368W        W37818  17.895   3.341  15.665 -0.0180  0.3485 -0.0113
31369W        W37819  10.052   6.519  34.440  0.0588  0.1488 -0.1155
31370W        W37820   6.832   4.480  31.862 -0.2180 -0.1249 -0.0527
31371W        W37821  26.058   2.545  33.606 -0.0207  0.1366  0.3202
31372W        W37822   8.776   6.290  35.266 -0.5191  0.3128  0.2789
31373W        W37823  10.861   0.712  11.102 -0.4939 -0.0902  0.1476
31374W        W37824  20.807   4.056  23.412 -0.2305 -0.1085 -0.1296
31375W        W37825  12.956   3.128  29.195 -0.0753  0.3482 -0.2372
31376W        W37826  11.548   3.193   3.538  0.1065  0.1325  0.3258
31377W        W37827   4.897   5.833  22.388  0.3226  0.2350  0.1862
31378W        W37828  20.788   4.720   1.429  0.1934 -0.2824 -0.0818
31379W        W37829  16.291   6.366  34.506 -0.1139 -0.0911  0.2489
31380W        W37830   8.249   2.574  36.096  0.1181  0.1903  0.0207
31381W        W37831   8.274   0.455  33.375 -0.1922 -0.0363  0.0990
31382W        W37832   1.153   2.023  31.882 -0.2363  0.4252 -0.0547
31383W        W37833   5.919   5.917  31.743 -0.2168 -0.1213  0.2669
31384W        W37834  14.331   2.152   7.320  0.1486 -0.0477 -0.4895
31385W        W37835   3.881   0.437  31.715 -0.3249  0.1416  0.0282
31386W        W37836  14.304   4.614   4.328  0.1396  0.0534 -0.0715
31387W        W37837   4.724   6.413   5.942  0.0429  0.0470 -0.0323
31388W        W37838  21.772   4.655  22.752 -0.0629 -0.1441 -0.0617
31389W        W37839   3.651   4.881   4.407 -0.1646  0.0744 -0.2820
31390W        W37840  15.260   6.534  22.204  0.0319 -0.0475 -0.3224
31391W        W37841  19.993   1.590  30.820  0.0789  0.0257 -0.2666
31392W        W37842  16.555   2.811  25.377  0.0826 -0.0511  0.4125
31393W        W37843   5.059   1.043   2.477 -0.1254  0.0039 -0.0635
31394W        W37844   6.668   5.400  25.940  0.2058  0.1218  0.0539
31395W        W37845   9.612   5.721   7.125  0.0484 -0.1175 -0.1538
31396W        W37846  21.964   0.615  27.825  0.1139  0.2493 -0.0641
31397W        W37847  19.231   2.482  21.761 -0.0369 -0.2097 -0.2593
31398W        W37848   6.261   2.961  24.900 -0.1939  0.0102 -0.1691
31399W        W37849  14.629   3.764   4.286  0.0356 -0.3362 -0.0526
31400W        W37850  11.443   5.224  33.429  0.2555  0.0006  0.1287
31401W        W37851  10.380   5.026  14.340  0.1021 -0.1877  0.0406
31402W        W37852  16.963   0.542  29.991  0.3276  0.1402 -0.0764
31403W        W37853  12.800   4.908  25.774  0.1796  0.0496 -0.0123
31404W        W37854   7.761   3.410   7.436 -0.0206  0.0299  0.0870
31405W        W37855  20.022   4.099   1.407  0.2498 -0.1198 -0.2097
31406W        W37856  10.395   0.265  25.345 -0.0599  0.0239  0.0778
31407W        W37857  16.682   3.966   7.993  0.0336 -0.2012  0.0256
31408W        W37858   0.523   3.784  12.753  0.0410 -0.0293 -0.1173
31409W        W37859  17.946   4.854   5.709  0.1608 -0.0090 -0.1139
31410W        W37860   2.900   4.780  34.300 -0.1365 -0.3091 -0.0652
31411W        W37861   7.280   4.349  19.849  0.0944  0.0356  0.0132
31412W        W37862   4.055   6.028  10.069 -0.0262  0.1172  0.0821
31413W        W37863   2.217   6.252  15.158 -0.0065  0.3095 -0.5222
31414W        W37864   3.366   5.438  12.070  0.0618  0.2175  0.0380
31415W        W37865  18.597   6.295   3.393 -0.0705  0.1933 -0.0083
31416W        W37866  15.856   0.777  31.550  0.0968 -0.0540  0.2264
31417W        W37867   6.267   3.364   6.890 -0.0855 -0.1907 -0.2050
31418W        W37868   7.632   5.274  24.059  0.1259 -0.5857 -0.0013
31419W        W37869  22.900   3.670   0.889 -0.0112  0.0060  0.0062
31420W        W37870   9.974   2.333  23.795 -0.1692  0.0003  0.1697
31421W        W37871  10.595   6.424   4.545  0.0064  0.2105 -0.1193
31422W        W37872   1.402   4.081   4.413  0.1575  0.1556 -0.0618
31423W        W37873  13.972   6.168  21.136 -0.5471 -0.3161  0.3456
31424W        W37874  16.782   0.414  35.748  0.0834 -0.1665 -0.0723
31425W        W37875  19.053   4.426   5.609 -0.2455 -0.1396  0.2124
31426W        W37876  16.207   4.469   9.790 -0.0356 -0.2461 -0.2297
31427W        W37877  24.753   1.967  24.985 -0.1811  0.1792  0.1670
31428W        W37878  13.391   2.178   1.884 -0.1599 -0.1813  0.2065
31429W        W37879  20.646   3.742  13.773  0.5815 -0.1171 -0.0361
31430W        W37880  20.015   0.741  32.480  0.1209 -0.1296  0.1655
31431W        W37881  16.564   1.608  21.231 -0.0078 -0.2587  0.0819
31432W        W37882   3.838   2.619   1.247 -0.0053 -0.0999 -0.2479
31433W        W37883   6.666   4.636   2.112 -0.2134  0.0016 -0.0960
31434W        W37884  17.888   4.889   1.758 -0.0672 -0.1986 -0.0677
31435W        W37885  19.187   2.090  26.955  0.4418  0.0231  0.3393
31436W        W37886  15.404   3.795   8.931  0.1669  0.0815  0.1174
31437W        W37887  20.507   3.650   3.698 -0.4049 -0.2309  0.4198
31438W        W37888   4.210   5.625   8.176 -0.1819 -0.1422 -0.0411
31439W        W37889   1.046   4.262  10.104  0.1897 -0.1540  0.4814
31440W        W37890  17.607   1.903  22.649  0.0697 -0.3299  0.1434
31441W        W37891  14.074   4.840  12.867 -0.0391  0.0754  0.2768
31442W        W37892   2.199   2.639  12.847 -0.1414  0.0819 -0.1857
31443W        W37893  24.390   1.241  35.767  0.0967  0.1289 -0.1060
31444W        W37894   7.609   2.146  20.657 -0.1108  0.0952  0.2596
31445W        W37895  19.263   4.136   4.327  0.2485 -0.1693  0.0734
31446W        W37896   2.979   1.495  13.663 -0.2260  0.1843 -0.0984
31447W        W37897  17.882   6.538   3.938 -0.0401  0.1076  0.1523
31448W        W37898  12.751   2.024   2.468 -0.3464 -0.0106 -0.0144
31449W        W37899  24.396   3.743  20.727 -0.2184  0.1627 -0.1733
31450W        W37900   8.336   4.685   2.019 -0.1827  0.2845 -0.0139
31451W        W37901   1.213   1.985  32.409  0.1152  0.1262 -0.0523
31452W        W37902  12.663   4.607  30.580 -0.0590  0.0633 -0.3082
31453W        W37903   3.932   5.951   7.233  0.0064  0.1192 -0.0586
31454W        W37904   6.532   2.543  25.676 -0.0599  0.0882  0.1259
31455W        W37905  24.702   4.626  10.122  0.2957 -0.2390 -0.2876
31456W        W37906  12.068   0.570  25.510  0.2032  0.0361  0.0891
31457W        W37907  15.934   4.448  33.236 -0.0869 -0.1431  0.0322
31458W        W37908   8.258   3.566  25.797  0.1214  0.0849  0.1645
31459W        W37909  12.178   2.016   4.408 -0.0138  0.1884 -0.0385
31460W        W37910  15.954   6.167  33.686  0.0716  0.2088  0.1922
31461W        W37911  20.583   2.872  25.291  0.1378 -0.0314 -0.1508
31462W        W37912   6.567   6.529  26.866 -0.2084 -0.0327 -0.0235
31463W        W37913   4.140   3.109   8.561  0.4005  0.1641  0.0189
31464W        W37914   5.962   5.526   3.050 -0.1879  0.2248 -0.2460
31465W        W37915   7.885   4.311  23.615 -0.1478  0.1611  0.1572
31466W        W37916  25.252   6.579   1.090 -0.0077  0.1163 -0.2266
31467W        W37917   7.802   6.522  14.919  0.2078 -0.0059 -0.3014
31468W        W37918  11.038   1.263  13.589 -0.0684  0.1222  0.1046
31469W        W37919  13.657   6.003   2.908 -0.0247 -0.3080  0.1206
31470W        W37920   0.603   5.732   5.996  0.0934 -0.0267  0.0673
31471W        W37921  16.983   6.363  27.175  0.1065 -0.0218 -0.5117
31472W        W37922  15.891   0.293   5.957 -0.2923 -0.1930 -0.1783
31473W        W37923  17.213   0.729   4.753 -0.0954 -0.0235 -0.3864
31474W        W37924  21.181   2.482   7.237 -0.0885 -0.2138  0.0072
31475W        W37925   8.861   2.009  29.447  0.0774 -0.0819 -0.2674
31476W        W37926  20.905   4.454  30.712 -0.3954  0.0978  0.0504
31477W        W37927   3.132   2.546  29.077 -0.2391 -0.0733  0.2479
31478W        W37928  26.026   1.756  32.710  0.1915  0.0558  0.1232
31479W        W37929  24.757   1.693  28.349  0.0081 -0.0494 -0.1287
31480W        W37930   3.691   1.492  14.921 -0.2773  0.2539 -0.1177
31481W        W37931  12.616   1.980  29.852 -0.4187  0.1050 -0.0869
31482W        W37932  17.031   4.566  29.818 -0.0260 -0.0625  0.4303
31483W        W37933   1.341   3.350   1.363  0.0611 -0.0855  0.0669
31484W        W37934   3.929   5.747  30.765  0.0462  0.1307  0.1358
31485W        W37935   0.829   5.326  24.147 -0.3049 -0.1057  0.1975
31486W        W37936   1.373   4.966  23.282  0.1410  0.0388  0.0061
31487W        W37937   8.891   1.237  30.747  0.0298 -0.2496  0.2826
31488W        W37938   9.249   2.822  30.398 -0.0582 -0.2391 -0.0166
31489W        W37939  11.517   3.498  21.797  0.0530 -0.0873  0.5016
31490W        W37940  13.154   2.645  35.361  0.2307 -0.3086 -0.1914
31491W        W37941   9.721   2.592  26.299  0.1380  0.0727 -0.0496
31492W        W37942   2.969   6.480  26.102  0.0097  0.1009  0.4127
31493W        W37943  10.720   3.625   3.517  0.2242 -0.0002 -0.1150
31494W        W37944  11.983   3.594   2.844 -0.2302  0.1537 -0.0391
31495W        W37945  19.832   5.327   2.688  0.1856  0.3816  0.2701
31496W        W37946  16.408   1.726  35.612  0.2009  0.2415 -0.1217
31497W        W37947   2.969   5.681  28.838 -0.0287  0.0619 -0.3220
31498W        W37948   9.495   2.641   1.086 -0.0972 -0.2130 -0.1694
31499W        W37949   9.587   0.509  12.905 -0.3215 -0.1924 -0.1636
31500W        W37950  16.660   3.178  34.005 -0.0270 -0.1201  0.0849
31501W        W37951  14.329   5.337  24.879 -0.2847  0.2147  0.1290
31502W        W37952  23.961   3.940   4.000  0.0723  0.1203  0.2849
31503W        W37953   1.054   0.295  33.833 -0.0821 -0.0121 -0.0104
31504W        W37954  20.905   3.577   7.611  0.0272 -0.3613  0.3501
31505W        W37955   0.182   0.329   6.638 -0.1533 -0.0026 -0.0733
31506W        W37956   7.103   1.565  10.680  0.1928  0.0413  0.0272
31507W        W37957  10.820   2.063  14.976  0.1069 -0.0919 -0.2235
31508W        W37958  18.771   1.323  11.058 -0.0384 -0.0300 -0.2390
31509W        W37959  17.349   3.947  26.270 -0.2047  0.2347 -0.2168
31510W        W37960  21.057   3.522   9.286 -0.1660  0.0458  0.1204
31511W        W37961  22.963   5.323   7.054  0.2341 -0.0263 -0.0583
31512W        W37962  21.613   4.155  11.832  0.1364 -0.3837  0.0700
31513W        W37963  16.175   1.721  32.013 -0.5304  0.1177  0.0202
31514W        W37964   7.834   0.649  10.399  0.3298 -0.1131 -0.1936
31515W        W37965   2.777   3.963  31.994  0.1943 -0.1838  0.0896
31516W        W37966   5.221   5.685  11.890  0.3150 -0.1581 -0.0976
31517W        W37967   1.991   4.710  35.814  0.1369 -0.0111  0.0585
31518W        W37968   3.610   1.436  27.144  0.0030  0.0464 -0.1004
31519W        W37969   1.608   0.282  12.656  0.2225  0.2460  0.0369
31520W        W37970   1.127   6.318  21.719 -0.0136 -0.0760 -0.1755
31521W        W37971  22.116   1.381  32.781 -0.3232  0.2181 -0.2173
31522W        W37972  19.032   6.304  30.422  0.1389  0.1541  0.3075
31523W        W37973   8.815   6.265  24.343 -0.1249 -0.1408  0.0001
31524W        W37974   4.367   4.825  28.245  0.1607  0.2035 -0.1973
31525W        W37975   2.259   5.058  21.060  0.3080  0.2004 -0.1376
31526W        W37976  14.254   0.898  33.308  0.0269  0.1285  0.0134
31527W        W37977  21.565   6.400   1.595 -0.0212  0.0572 -0.0078
31528W        W37978  20.721   5.056  32.151 -0.1132  0.2885 -0.1906
31529W        W37979   3.496   3.471   1.525  0.2650  0.0569  0.0290
31530W        W37980  23.681   3.691  33.029  0.3302 -0.0529  0.0059
31531W        W37981  18.364   1.918  14.968  0.2190 -0.0442 -0.1262
31532W        W37982  14.312   4.258   9.904 -0.1101 -0.2178 -0.1179
31533W        W37983  10.048   2.714   2.540 -0.0826  0.3094  0.1833
31534W        W37984  19.228   2.135  30.894  0.1361 -0.1694 -0.1289
31535W        W37985   6.989   3.320   3.942  0.0914  0.2359  0.2153
31536W        W37986  13.705   1.221   8.939 -0.0506 -0.2546 -0.2562
31537W        W37987   6.796   3.778  31.484  0.1908  0.1769  0.3331
31538W        W37988  14.653   2.965   1.003  0.2322 -0.0491  0.0580
31539W        W37989   6.620   6.425  32.963 -0.0222 -0.1839 -0.3617
31540W        W37990   5.143   1.661  33.294  0.0264  0.2776  0.1094
31541W        W37991   3.295   4.901  27.459  0.0344  0.1537  0.3554
31542W        W37992  13.537   6.150  33.543  0.0685 -0.0587 -0.1144
31543W        W37993  24.034   2.251  26.051 -0.0141 -0.2727  0.0331
31544W        W37994  22.354   5.845  35.843  0.1000  0.1757  0.0853
31545W        W37995  22.837   1.679  24.222 -0.1084  0.1337 -0.0156
31546W        W37996  10.194   0.980  12.968  0.0786 -0.1253  0.0731
31547W        W37997  25.529   0.798  12.945  0.2323  0.0042 -0.1602
31548W        W37998  23.330   4.271  35.800  0.2216 -0.0975  0.0066
31549W        W37999  18.076   1.282   6.648  0.3873 -0.2012  0.0804
31550W        W38000  22.947   0.252   9.881  0.1207  0.2140 -0.1083
31551W        W38001   2.325   2.539  10.420 -0.2834 -0.2173 -0.1836
31552W        W38002  12.592   3.003  34.885 -0.1499  0.0264 -0.0489
31553W        W38003  14.664   1.102  13.717  0.0152  0.0661  0.2384
31554W        W38004  15.735   6.365  10.651 -0.1916  0.1008 -0.2288
31555W        W38005  25.173   4.093  33.817  0.0712  0.1712 -0.0243
31556W        W38006  13.716   0.871  21.204  0.0935 -0.0901 -0.0950
31557W        W38007   9.511   5.822  23.102 -0.0567 -0.2400  0.0181
31558W        W38008  20.404   5.212   6.616 -0.1501 -0.1516 -0.2408
31559W        W38009  19.633   1.452  25.573 -0.0789  0.0527 -0.2466
31560W        W38010  20.135   3.920  26.534 -0.2291  0.0685  0.3355
31561W        W38011  12.836   6.289  22.639  0.3721 -0.0050 -0.0193
31562W        W38012  11.925   1.949  33.430  0.3516 -0.1556  0.0014
31563W        W38013  24.490   0.356  24.559 -0.0025  0.0461  0.0825
31564W        W38014   7.459   3.087  30.338 -0.3027 -0.1600  0.0690
31565W        W38015   1.675   0.458  12.212 -0.0829 -0.1477  0.0050
31566W        W38016  13.584   3.826  28.119  0.0951  0.1596 -0.1697
31567W        W38017   9.110   0.284  15.202  0.2857  0.0082 -0.1121
31568W        W38018  10.090   2.116   6.062 -0.3777 -0.0049  0.2327
31569W        W38019  18.134   5.961  31.010  0.0973  0.3264 -0.1907
31570W        W38020  22.400   6.431  26.654  0.1933  0.4189 -0.1759
31571W        W38021   7.681   0.909  33.732 -0.0566  0.3616  0.2390
31572W        W38022  19.055   0.794  30.698  0.1241 -0.1125 -0.0100
31573W        W38023  17.949   3.169  34.392 -0.2519  0.2090 -0.1366
31574W        W38024   5.648   1.008  21.819 -0.3612  0.3368  0.2142
31575W        W38025  24.209   0.052  26.550 -0.4395  0.0753  0.0883
31576W        W38026   5.359   1.553  36.065  0.1566 -0.2297 -0.0912
31577W        W38027  22.188   1.396  28.324 -0.0470  0.0392 -0.0339
31578W        W38028  22.177   2.690  33.236  0.0230 -0.0520 -0.0339
31579W        W38029   4.289   2.095   8.221  0.2182 -0.2117  0.1207
31580W        W38030  24.891   6.032   5.758 -0.0584  0.1323 -0.0509
31581W        W38031   6.219   6.041  21.527 -0.1689  0.3470  0.4715
31582W        W38032   0.063   6.585  24.096  0.2542 -0.1028  0.0350
31583W        W38033   2.040   2.109  35.891  0.0076 -0.0802 -0.1455
31584W        W38034   5.066   1.381  13.485 -0.1813 -0.0939  0.0283
31585W        W38035  18.872   1.905   5.380 -0.3121  0.1023  0.1030
31586W        W38036   9.781   4.259  10.735 -0.0255  0.0971  0.0461
31587W        W38037  24.776   1.185   1.441 -0.1774  0.1964  0.1644
31588W        W38038  25.677   6.087  28.076 -0.0791  0.0797 -0.0723
31589W        W38039  22.217   4.340   6.127  0.2619  0.1557  0.0041
31590W        W38040  16.738   5.685  11.199 -0.0492  0.0189  0.0303
31591W        W38041  23.486   0.396   5.359  0.1717 -0.0954  0.0691
31592W        W38042   8.566   0.715  28.974  0.0617  0.3139  0.0985
31593W        W38043  11.469   2.201   1.682  0.0734 -0.3017 -0.0140
31594W        W38044  13.907   2.418   9.522 -0.0872  0.1954  0.0571
31595W        W38045  16.888   3.595  22.700  0.0069 -0.2470 -0.0745
31596W        W38046  19.944   0.061  29.936 -0.0507  0.0896  0.1424
31597W        W38047  20.180   1.981  21.133  0.0226 -0.1785  0.1146
31598W        W38048  18.680   0.800  34.033  0.2829  0.0442 -0.0839
31599W        W38049  24.100   2.223  23.071 -0.0763 -0.0607  0.0445
31600W        W38050   0.089   2.110  12.229 -0.1576  0.3207  0.1776
31601W        W38051  16.168   4.078  32.284  0.0742  0.2581 -0.0454
31602W        W38052   8.370   3.190  24.675 -0.1879 -0.2620  0.2717
31603W        W38053  15.615   4.786   4.819  0.0253 -0.1970 -0.1887
31604W        W38054  16.112   4.209  32.828 -0.1272 -0.1833 -0.0524
31605W        W38055  25.953   3.386  32.972 -0.1923 -0.2395 -0.0091
31606W        W38056   1.369   4.809   2.737 -0.2598 -0.0022  0.1267
31607W        W38057  14.709   0.532  34.559 -0.0373 -0.2357  0.4275
31608W        W38058  11.627   4.998  23.104 -0.2162 -0.4083  0.1353
31609W        W38059   6.703   4.132  23.649 -0.0231 -0.2716 -0.0537
31610W        W38060  26.240   0.571  23.962 -0.3495 -0.0613 -0.0267
31611W        W38061  12.720   5.127  12.617 -0.0602  0.1447 -0.1143
31612W        W38062  22.931   5.633  31.618 -0.2982  0.3683 -0.0975
31613W        W38063   7.892   5.057   5.718  0.1179  0.0849 -0.3122
31614W        W38064   1.727   4.487   2.768  0.1165 -0.0482  0.3552
31615W        W38065  25.910   1.826  24.937 -0.2310 -0.0353 -0.1083
31616W        W38066  15.721   4.123   9.230  0.2797  0.0274 -0.0510
31617W        W38067   8.963   3.855   3.223 -0.2792  0.3216 -0.1216
31618W        W38068   8.634   6.245  33.079  0.0507  0.0444  0.1768
31619W        W38069   8.904   3.651  34.216 -0.0541  0.0961 -0.2344
31620W        W38070   1.337   0.206  13.133  0.2999 -0.1459  0.0529
31621W        W38071  11.697   5.042  11.434  0.2433 -0.1178 -0.2600
31622W        W38072  18.053   3.346   6.804  0.4188  0.2353  0.2750
31623W        W38073  14.075   2.487   0.014  0.0217  0.1099 -0.0077
31624W        W38074  17.120   5.204  22.336  0.0905  0.0009 -0.2501
31625W        W38075   0.440   0.842   7.409  0.0516 -0.2045 -0.0417
31626W        W38076  25.603   4.046  34.940  0.0321  0.0416 -0.2250
31627W        W38077   5.254   3.356   0.227  0.1211 -0.1814 -0.1158
31628W        W38078  24.827   5.113  24.557 -0.1638  0.2846  0.0758
31629W        W38079  11.068   4.863  30.485 -0.2155 -0.2473 -0.0287
31630W        W38080  12.431   5.993  31.529  0.0781  0.1453  0.2683
31631W        W38081   1.101   1.998  14.232  0.0557 -0.3860  0.0951
31632W        W38082  25.378   3.005  29.704 -0.0928 -0.2485 -0.0453
31633W        W38083   0.132   4.538  13.338  0.2105 -0.3254  0.6250
31634W        W38084  24.755   2.844  25.265  0.1721  0.1328  0.0145
31635W        W38085  17.048   6.148  29.952  0.0471  0.1952 -0.0924
31636W        W38086   6.331   2.811  20.811  0.0863 -0.2510  0.0727
31637W        W38087  25.879   2.105   2.855  0.1604 -0.0225 -0.0693
31638W        W38088  24.261   0.204  28.529 -0.0196  0.0454 -0.0978
31639W        W38089   3.133   5.358  30.775  0.0389 -0.0624 -0.0723
31640W        W38090   6.522   5.050  13.647  0.1497 -0.4987  0.0047
31641W        W38091  19.459   0.589  27.222  0.1243  0.0519  0.2668
31642W        W38092   6.823   4.653  11.817  0.0435 -0.1880 -0.0357
31643W        W38093   3.288   5.965  10.121 -0.1773 -0.1741  0.0483
31644W        W38094   3.724   5.417   8.413 -0.2139 -0.0737 -0.0495
31645W        W38095  20.485   2.491  23.474  0.2525 -0.1382  0.0764
31646W        W38096  20.743   5.051  26.252  0.0997  0.0835  0.2392
31647W        W38097  13.434   1.803  34.126  0.0193  0.2037 -0.2037
31648W        W38098   8.446   6.220  24.775 -0.2198  0.1488  0.1435
31649W        W38099  15.604   2.432  26.457 -0.1019 -0.5016 -0.0242
31650W        W38100  14.223   6.294  30.104 -0.4667  0.0424 -0.1352
31651W        W38101   5.531   3.942  29.373  0.0396  0.0545  0.0985
31652W        W38102   8.744   3.323   8.515 -0.0787  0.1261  0.0777
31653W        W38103   8.411   3.301   4.216 -0.2566 -0.0889  0.1118
31654W        W38104  25.683   0.792  28.381  0.4472  0.1692 -0.0918
31655W        W38105  23.385   2.299  26.479 -0.1726 -0.0407 -0.1468
31656W        W38106  10.353   4.600  26.564 -0.1305 -0.3090  0.0300
31657W        W38107  17.428   2.483  34.906  0.2293  0.2684 -0.0437
31658W        W38108   4.250   0.241  34.998  0.0289  0.0519 -0.3337
31659W        W38109  16.552   3.567   7.591 -0.1596  0.0373  0.1227
31660W        W38110  25.967   1.829  35.035  0.1404 -0.3455  0.3023
31661W        W38111  10.450   0.293  25.900  0.1202 -0.1608  0.1185
31662W        W38112  15.880   0.450  28.478 -0.2401  0.1702 -0.0539
31663W        W38113  18.484   0.908   1.857 -0.0486 -0.0407 -0.2352
31664W        W38114  14.613   5.559  26.074 -0.2475 -0.1491 -0.3044
31665W        W38115  17.088   3.371  24.679 -0.0271 -0.0736 -0.1469
31666W        W38116  25.574   3.380   8.210 -0.1289 -0.2822 -0.2345
31667W        W38117  22.711   3.727  24.801 -0.3745 -0.0747  0.0417
31668W        W38118  10.620   0.318   3.550 -0.0859  0.1505 -0.0724
31669W        W38119   9.071   3.074  31.195  0.3509 -0.1052  0.0599
31670W        W38120  13.962   1.852  24.154  0.2999  0.1560 -0.1362
31671W        W38121  19.118   3.079  29.898  0.0244  0.2001  0.0459
31672W        W38122  14.172   0.889  33.850 -0.1537 -0.4666  0.0557
31673W        W38123  20.128   0.712  27.773  0.0455  0.0463  0.2947
31674W        W38124  16.715   6.536  34.205  0.2286  0.1191  0.0616
31675W        W38125   6.031   1.919  35.221  0.2981  0.0145 -0.1002
31676W        W38126  13.541   4.554   1.081  0.3184 -0.0755  0.2348
31677W        W38127  17.839   4.998  30.093 -0.0737  0.1161  0.3306
31678W        W38128   4.624   4.473  34.177  0.3243  0.0219 -0.2499
31679W        W38129   7.387   4.703  14.218 -0.1793  0.1451  0.1647
31680W        W38130   5.895   5.640   5.489  0.1488  0.1678  0.0031
31681W        W38131  19.353   4.081   5.280  0.1080  0.2346  0.0984
31682W        W38132  24.037   2.692   9.035  0.0081  0.0485 -0.0658
31683W        W38133  12.831   0.524   1.035 -0.0370  0.0496  0.0347
31684W        W38134  16.849   3.260  32.180  0.3751  0.3497  0.0445
31685W        W38135  21.959   2.487   4.239  0.0381  0.0144 -0.2619
31686W        W38136   1.768   2.364  31.233 -0.1032 -0.0209 -0.1958
31687W        W38137  21.667   4.417   0.534 -0.0361  0.0700 -0.0867
31688W        W38138  17.270   2.786   4.392 -0.0371 -0.3120  0.1475
31689W        W38139   0.998   2.476   0.582  0.1619  0.1612 -0.0660
31690W        W38140   5.380   3.356  22.364  0.0880  0.2174  0.0687
31691W        W38141   7.372   3.031  31.537  0.1097  0.0428  0.0385
31692W        W38142  19.582   5.041  28.105 -0.0607 -0.1409  0.0782
31693W        W38143   6.490   5.433  22.746 -0.3675  0.1048  0.2519
31694W        W38144  21.388   2.462  10.858 -0.3181 -0.1007  0.1567
31695W        W38145   8.295   5.881  24.450  0.2063 -0.0210  0.1059
31696W        W38146   1.569   2.105  13.246  0.1089 -0.0379 -0.0666
31697W        W38147  21.617   5.332   6.932 -0.1495  0.2129  0.0204
31698W        W38148  25.080   2.159   9.483 -0.0041  0.0251  0.0281
31699W        W38149  12.442   1.954  26.734 -0.2340  0.1050 -0.0003
31700W        W38150  17.813   4.577  32.694 -0.2257 -0.0292  0.3474
31701W        W38151  21.264   4.500  11.741  0.0152  0.1703  0.2117
31702W        W38152  23.353   1.259   4.023  0.0338  0.0950  0.0515
31703W        W38153  12.853   1.277  29.379 -0.1083  0.0767  0.2510
31704W        W38154   1.418   3.079  11.693  0.2486  0.0304 -0.0513
31705W        W38155  23.488   4.060  31.236 -0.0104  0.0821 -0.1425
31706W        W38156   2.454   5.379  12.484  0.1355  0.0092 -0.0761
31707W        W38157  24.556   6.018  22.838 -0.0560 -0.0092 -0.2003
31708W        W38158  10.324   2.967   4.904  0.2391  0.2924  0.0904
31709W        W38159  11.156   1.688  10.969 -0.1179 -0.0141 -0.0361
31710W        W38160  12.568   5.041  13.084 -0.0594  0.0506  0.1691
31711W        W38161   6.864   3.090  34.539 -0.1182  0.4843 -0.0285
31712W        W38162  26.240   3.637  34.164 -0.0112 -0.0018 -0.0992
31713W        W38163   4.987   1.402   1.685 -0.2007  0.2227  0.1301
31714W        W38164  22.478   2.916  24.756 -0.2271 -0.0818 -0.2190
31715W        W38165  21.870   6.154  29.142 -0.3042  0.1500  0.1098
31716W        W38166  18.570   4.673  35.352  0.0775  0.1659  0.0611
31717W        W38167  23.225   0.006  29.205  0.0396 -0.1076 -0.0225
31718W        W38168  15.091   1.088  25.679 -0.0717  0.0667  0.0279
31719W        W38169  10.190   2.146  32.346 -0.0707  0.1789  0.1349
31720W        W38170   0.698   1.605   4.506 -0.2307  0.2222  0.1994
31721W        W38171   4.370   1.363   1.876 -0.2204 -0.1470 -0.1340
31722W        W38172   1.544   6.271   8.829  0.0258  0.2330  0.3616
31723W        W38173  11.010   6.254   9.228  0.0162  0.2171  0.4716
31724W        W38174   9.440   0.779  24.828  0.0764 -0.1436 -0.1435
31725W        W38175   5.136   3.178  20.761  0.3284 -0.0276 -0.1816
31726W        W38176  19.228   0.704  15.165  0.0369  0.0217  0.1311
31727W        W38177  22.339   0.060   4.597  0.1104  0.2223 -0.2330
31728W        W38178  25.103   2.702  29.978 -0.0877  0.0500  0.0164
31729W        W38179  12.361   6.022  11.674  0.0895  0.1058 -0.0908
31730W        W38180  21.389   0.248  20.929  0.2424 -0.1359  0.0413
31731W        W38181  14.483   6.023  10.532 -0.2239 -0.2475 -0.0754
31732W        W38182  20.896   5.199  20.784  0.0460 -0.2338 -0.1232
31733W        W38183  24.857   4.122   3.819  0.1460  0.0704 -0.1739
31734W        W38184   2.635   2.478  27.336  0.0863  0.0822 -0.1578
31735W        W38185   4.413   6.561   7.118  0.0789  0.0636  0.0786
31736W        W38186  18.806   5.124  15.273 -0.4469  0.1107 -0.1482
31737W        W38187   3.521   4.688  10.726 -0.0551 -0.1700  0.2866
31738W        W38188  19.189   6.414   9.910  0.1448  0.1805 -0.4355
31739W        W38189  24.365   6.018  14.023 -0.0894  0.0133  0.0897
31740W        W38190   1.403   6.180   4.899  0.2040  0.0091 -0.1796
31741W        W38191   0.368   4.918  28.475  0.0370  0.1378 -0.1495
31742W        W38192   8.308   3.774   7.747 -0.2798 -0.0640 -0.2042
31743W        W38193  20.368   4.951  11.490  0.3431  0.2921 -0.1546
31744W        W38194   0.866   2.867  20.560 -0.3616  0.1280 -0.2734
31745W        W38195   3.819   1.986   4.043  0.1658  0.0234  0.1556
31746W        W38196   8.871   2.103   3.655 -0.1853 -0.0172 -0.2298
31747W        W38197  10.052   0.849  27.426  0.1056 -0.3996  0.0639
31748W        W38198  16.291   2.189   0.893 -0.4026 -0.4117  0.4480
31749W        W38199  20.475   4.132   5.988  0.0013  0.0533 -0.0555
31750W        W38200  14.114   1.965  15.742 -0.1872 -0.0717  0.0013
31751W        W38201   1.002   0.486  22.568  0.0820  0.0874  0.1420
31752W        W38202  20.038   3.157  12.539 -0.0304 -0.0856  0.1406
31753W        W38203   3.570   5.426  31.098 -0.1442  0.1663 -0.0209
31754W        W38204   6.225   0.727   9.929 -0.0593  0.1176 -0.1560
31755W        W38205  12.315   2.284  23.484  0.1369  0.1471 -0.0641
31756W        W38206   9.436   4.189  14.032 -0.0885  0.1037 -0.1449
31757W        W38207  10.211   1.203  35.703  0.1538  0.2072 -0.2873
31758W        W38208  24.081   4.296   0.728 -0.1106  0.0970 -0.1913
31759W        W38209  23.684   4.669  32.037 -0.0087 -0.1903  0.4282
31760W        W38210  11.638   1.644  32.127  0.0856  0.1723  0.0163
31761W        W38211   4.764   5.263  34.192 -0.1832  0.3655 -0.0437
31762W        W38212  11.920   2.360   1.029  0.0966  0.1215 -0.2154
31763W        W38213   0.340   3.003  31.513 -0.0126 -0.4783  0.0792
31764W        W38214  20.728   6.096  21.667  0.3709  0.1443 -0.0278
31765W        W38215   0.976   5.560  26.484 -0.0126 -0.1374  0.1616
31766W        W38216   9.448   5.502  14.899  0.0588 -0.0463  0.1112
31767W        W38217   8.770   5.260  31.134 -0.2365  0.2203 -0.0211
31768W        W38218  20.851   1.180  21.928  0.2053  0.0311 -0.0208
31769W        W38219  15.731   5.855   8.360 -0.1723  0.0879 -0.2922
31770W        W38220  18.007   5.181  32.042  0.0958 -0.2041  0.4746
31771W        W38221  14.848   3.079  33.672  0.5185  0.4252  0.0351
31772W        W38222  24.675   4.577  30.210 -0.0786  0.4278 -0.1052
31773W        W38223   2.170   4.332  11.462  0.1233 -0.3122 -0.0125
31774W        W38224  26.324   5.514  26.459 -0.0979  0.1525  0.1083
31775W        W38225  15.587   2.743   2.420 -0.2000  0.0656  0.0079
31776W        W38226   6.763   0.176  33.363 -0.1910  0.1200  0.0950
31777W        W38227   6.564   0.706   2.960 -0.1259 -0.2103  0.0845
31778W        W38228  22.070   3.717  29.140  0.1682  0.0042 -0.1418
31779W        W38229   3.048   0.334   5.039 -0.0019  0.0931  0.0174
31780W        W38230   3.625   0.837  20.768  0.4728 -0.1336  0.0214
31781W        W38231   5.038   2.065  31.331  0.1330 -0.0438 -0.0796
31782W        W38232  10.849   3.866  21.468 -0.3068  0.0142 -0.0789
31783W        W38233   4.214   2.776  11.486 -0.2665  0.0879 -0.2084
31784W        W38234  14.599   3.539  26.177 -0.2144 -0.0721  0.1562
31785W        W38235  12.661   3.919  30.611  0.1330 -0.1390  0.1235
31786W        W38236  20.618   2.048   1.157  0.0536 -0.1659  0.0001
31787W        W38237  19.686   2.627  21.881 -0.1465 -0.0863  0.0327
31788W        W38238   3.580   5.837  13.597  0.0462  0.1390  0.1359
31789W        W38239  22.416   3.017  34.606 -0.1479  0.0138 -0.1458
31790W        W38240  21.798   5.327   6.277  0.2260  0.0919 -0.0385
31791W        W38241   9.700   0.345  31.330  0.1885  0.2037 -0.2276
31792W        W38242  15.961   6.283  30.607  0.0147  0.1035  0.2699
31793W        W38243  10.197   4.486  10.901 -0.2160 -0.0880 -0.2506
31794W        W38244  24.705   5.260  32.114 -0.1409 -0.0626 -0.0325
31795W        W38245   8.505   4.515   4.975 -0.2499 -0.1087 -0.1452
31796W        W38246  12.496   2.525   4.814  0.3192  0.0312  0.1558
31797W        W38247  22.540   3.312  10.859 -0.1499  0.2138 -0.0404
31798W        W38248  13.809   6.304  24.573  0.0364  0.0373 -0.0153
31799W        W38249  19.510   4.696  33.529 -0.1690 -0.0242 -0.2487
31800W        W38250   7.123   3.923  10.228  0.0622 -0.3578 -0.1120
31801W        W38251  14.401   1.136   7.838  0.0290  0.2115 -0.0747
31802W        W38252  25.450   2.612  28.007 -0.1961 -0.0901  0.0673
31803W        W38253  22.881   3.062  34.758  0.3023 -0.1661  0.0501
31804W        W38254  25.498   6.227  21.207 -0.0178 -0.2600 -0.0334
31805W        W38255  17.006   0.642   7.856 -0.3542  0.2591  0.0784
31806W        W38256  18.795   0.010  26.532  0.0492 -0.1254  0.0329
31807W        W38257   5.159   4.400  32.468  0.1706 -0.0846  0.2796
31808W        W38258  25.553   4.705   7.263  0.0714  0.1987 -0.0705
31809W        W38259  20.767   2.830  12.454 -0.1077 -0.0318 -0.0675
31810W        W38260  21.875   4.654  21.844 -0.0837  0.0940  0.3860
31811W        W38261  21.738   1.543  35.272  0.4143  0.0078 -0.1216
31812W        W38262  11.055   1.942  15.511  0.0576  0.1160  0.0747
31813W        W38263  10.121   2.820  33.105  0.2213 -0.1434 -0.0615
31814W        W38264  16.248   0.622  11.169  0.1701 -0.1931  0.2624
31815W        W38265  23.120   6.382   5.895  0.0517 -0.2731  0.1908
31816W        W38266  13.790   4.251  26.274  0.3067 -0.3291 -0.0028
31817W        W38267  19.780   3.181  21.129  0.2166  0.0304 -0.3912
31818W        W38268   8.693   4.595  13.915  0.2075 -0.3060 -0.1109
31819W        W38269  21.647   4.218  20.933  0.2244 -0.1215  0.1545
31820W        W38270   0.029   1.832  27.389  0.4821 -0.0938  0.0887
31821W        W38271   1.914   0.332   8.781  0.1672  0.2714 -0.2935
31822W        W38272  22.669   0.023  10.275  0.2773 -0.0423 -0.1529
31823W        W38273   8.199   1.086   4.745 -0.2623  0.3507  0.3584
31824W        W38274  22.870   4.107   3.013 -0.2547 -0.0159 -0.1853
31825W        W38275  19.012   2.717   5.976 -0.2970  0.0200 -0.0915
31826W        W38276  23.188   0.577  20.140 -0.1073 -0.0593 -0.0088
31827W        W38277  19.190   5.355  28.527  0.3529  0.0423 -0.1505
31828W        W38278  12.932   0.358  34.969  0.1050  0.1784  0.1799
31829W        W38279   4.895   4.174  25.244 -0.0807  0.2098  0.3083
31830W        W38280  12.009   6.285   8.870  0.2491  0.1387  0.1029
31831W        W38281  20.162   2.902  34.439  0.0792 -0.1774 -0.1063
31832W        W38282  22.978   5.220  27.431  0.2860  0.0052  0.0835
31833W        W38283  14.842   3.347  34.583  0.0427  0.3080 -0.1783
31834W        W38284   4.784   6.600   2.219  0.0141  0.1021  0.0444
31835W        W38285  19.119   2.726  25.700 -0.0807  0.2300 -0.4521
31836W        W38286  21.509   2.327  24.680  0.4249  0.0592 -0.1287
31837W        W38287   6.787   4.681  14.855 -0.0841 -0.1514 -0.2619
31838W        W38288   0.986   6.135   2.754  0.1023 -0.1450 -0.0317
31839W        W38289  16.874   3.323  26.700  0.2434 -0.1893 -0.4018
31840W        W38290  18.506   1.822  24.213 -0.0500 -0.2535 -0.0635
31841W        W38291   7.453   2.306  11.771  0.1548 -0.0873 -0.3808
31842W        W38292  15.251   4.554  21.075 -0.4959  0.2778  0.0363
31843W        W38293   1.564   4.039  30.976 -0.1234 -0.0525 -0.2237
31844W        W38294  14.059   0.922  30.500  0.0178  0.2081 -0.0319
31845W        W38295  24.495   1.457  21.275  0.1534 -0.0185  0.2251
31846W        W38296  16.985   2.046   5.035 -0.2056  0.0583  0.2353
31847W        W38297  16.156   1.889  30.721  0.1515 -0.1500  0.3701
31848W        W38298  14.915   1.510  27.533  0.3539 -0.1273  0.1872
31849W        W38299   8.604   5.045  10.034  0.2271  0.3456 -0.1054
31850W        W38300  22.417   0.208   9.904 -0.0241 -0.0093 -0.3006
31851W        W38301   7.477   4.409  30.686  0.3488  0.2778 -0.0818
31852W        W38302  12.468   5.847  13.625  0.0266 -0.1489  0.0094
31853W        W38303  15.856   3.804  14.359 -0.1298  0.1355 -0.0043
31854W        W38304   2.808   3.450  31.199  0.1442  0.1011  0.1689
31855W        W38305  18.784   6.221  33.374 -0.0165 -0.3248 -0.0458
31856W        W38306  23.761   5.115   9.535 -0.2053 -0.1070 -0.0914
31857W        W38307  25.096   1.687  12.207  0.2827  0.0553 -0.2256
31858W        W38308  17.213   2.042   6.790 -0.0991 -0.0351 -0.0432
31859W        W38309  13.825   6.118  32.172  0.0727 -0.1469 -0.4162
31860W        W38310  22.578   3.696  29.311  0.1528  0.1063 -0.0074
31861W        W38311   5.353   6.097  12.520 -0.2362 -0.1580 -0.2266
31862W        W38312  18.406   5.883  20.857 -0.0223  0.0549  0.0991
31863W        W38313  24.513   2.371  30.040 -0.0320  0.0295 -0.2598
31864W        W38314  24.759   3.408   7.889 -0.1935 -0.1307 -0.2830
31865W        W38315  20.579   0.660   8.875  0.1521 -0.0291 -0.0831
31866W        W38316   1.624   5.303   6.999 -0.0620  0.0842  0.2674
31867W        W38317  17.625   3.415   4.187 -0.1271 -0.0144  0.2974
31868W        W38318   0.558   3.317   4.449 -0.1424 -0.1330  0.1625
31869W        W38319  20.349   1.011  23.799 -0.0723  0.0649 -0.1466
31870W        W38320  22.759   5.282   6.234 -0.2300 -0.1088  0.0861
31871W        W38321  22.109   4.467   3.605  0.0548 -0.1087  0.4242
31872W        W38322   4.650   1.308   2.727  0.2437 -0.1031  0.3820
31873W        W38323  12.257   3.943   4.859 -0.0729 -0.2143  0.1363
31874W        W38324  13.906   2.177   2.827  0.2872  0.2009 -0.2834
31875W        W38325  25.116   5.429   9.968 -0.3018  0.0536 -0.0871
31876W        W38326   2.460   4.069  23.451  0.0195 -0.2249 -0.2485
31877W        W38327   6.948   3.512   0.191  0.0228  0.2158 -0.0250
31878W        W38328   0.633   5.904  22.950 -0.0049 -0.1587  0.0810
31879W        W38329   9.478   2.552  28.114 -0.1556 -0.0868 -0.0495
31880W        W38330  13.795   6.177  30.457 -0.0393  0.0963  0.1072
31881W        W38331  23.340   1.772  25.524 -0.0696 -0.1389  0.0515
31882W        W38332  20.701   6.046  21.177  0.2788 -0.0954  0.0928
31883W        W38333   8.069   3.212  20.886  0.0402  0.0932 -0.3167
31884W        W38334  11.887   1.811  24.318  0.0651 -0.1429 -0.0178
31885W        W38335  11.272   2.534  34.675 -0.0687 -0.0872 -0.2322
31886W        W38336  16.428   2.486   9.105  0.2800  0.0651  0.1407
31887W        W38337  15.136   3.350   6.660  0.0857 -0.0787 -0.3276
31888W        W38338  16.866   0.697  15.806  0.0713  0.1357  0.0778
31889W        W38339  15.357   6.000   2.196 -0.2284 -0.1253 -0.0348
31890W        W38340   4.846   0.071  20.756  0.2739 -0.0331 -0.0794
31891W        W38341  25.593   1.401  24.964 -0.1452  0.1890 -0.2319
31892W        W38342   0.600   2.541  25.626 -0.0100 -0.1204  0.0746
31893W        W38343  19.413   2.742  11.759  0.0623  0.0056  0.2163
31894W        W38344  24.087   5.824   3.384  0.1056  0.1956  0.0849
31895W        W38345   5.819   1.774  27.861 -0.0209 -0.1209  0.0306
31896W        W38346   2.408   2.268   1.283 -0.0943  0.0180  0.4754
31897W        W38347  17.720   3.691  29.945 -0.3161 -0.1091 -0.0452
31898W        W38348  22.456   4.926  28.852 -0.0188 -0.1424  0.3698
31899W        W38349  10.840   3.368  29.859 -0.1782 -0.1285  0.3376
31900W        W38350   8.334   5.347   8.649  0.0054  0.1752 -0.2755
31901W        W38351  11.308   0.654  12.818  0.1562 -0.2683  0.3214
31902W        W38352  10.524   6.606  24.532  0.3342 -0.1800  0.1034
31903W        W38353  22.006   0.290  33.746 -0.0194  0.3676 -0.0447
31904W        W38354   2.647   2.534  29.174 -0.1911  0.0935 -0.0438
31905W        W38355  25.345   0.434   8.778 -0.2346  0.0108  0.2147
31906W        W38356  19.784   5.426  27.861 -0.3244  0.1579 -0.1373
31907W        W38357  17.120   4.043   6.379  0.2330 -0.0734  0.1323
31908W        W38358  20.392   0.436  24.955 -0.0506  0.0557  0.0258
31909W        W38359   0.855   3.547  25.405 -0.2757 -0.0827 -0.0633
31910W        W38360  17.493   2.284  34.249  0.3390 -0.0018 -0.0292
31911W        W38361  22.688   0.145  26.901  0.0292 -0.3406 -0.0023
31912W        W38362   6.423   2.177  35.232  0.1248 -0.0958 -0.0135
31913W        W38363   8.502   5.804  10.466  0.2285 -0.1162  0.1927
31914W        W38364   0.844   1.753   5.470 -0.1532  0.0276  0.1055
31915W        W38365   9.176   1.923  13.402  0.0402  0.1152 -0.0187
31916W        W38366   3.524   0.540  11.472 -0.0954  0.1156 -0.2360
31917W        W38367   4.615   1.186  11.957  0.0971 -0.0730 -0.1102
31918W        W38368  19.276   2.096  10.039 -0.0739 -0.1485  0.1087
31919W        W38369  13.380   2.914  32.348  0.0459  0.3749 -0.2268
31920W        W38370   2.492   4.836  11.172 -0.1631  0.2091 -0.0290
31921W        W38371  16.088   2.317  10.885 -0.5021 -0.1929 -0.0035
31922W        W38372  13.272   2.450   7.323 -0.2767  0.4103 -0.2246
31923W        W38373   0.138   1.332   4.558  0.2017 -0.1488 -0.0658
31924W        W38374  15.753   4.128   8.680  0.0865 -0.0453  0.3673
31925W        W38375  25.339   4.536  23.634 -0.2086 -0.1722  0.1722
31926W        W38376   3.092   4.597   5.640  0.0286 -0.1706  0.2673
31927W        W38377   1.310   4.061  21.027  0.2633 -0.2053  0.0497
31928W        W38378   8.321   0.354  32.478 -0.0738  0.1105  0.2702
31929W        W38379  10.580   2.250   1.965 -0.2653 -0.1521 -0.0873
31930W        W38380  13.410   0.784   2.901 -0.1580 -0.2363  0.0680
31931W        W38381   9.654   2.594   2.184 -0.1095 -0.1403  0.3698
31932W        W38382  15.588   1.017   7.944  0.0085 -0.0480  0.2916
31933W        W38383   6.104   5.975  12.266 -0.1268  0.0427 -0.0938
31934W        W38384   8.990   5.291   4.801 -0.2247 -0.1850 -0.1371
31935W        W38385  22.933   2.153  28.238 -0.0855 -0.2174  0.1714
31936W        W38386  21.524   4.437  25.517  0.0753  0.3751 -0.1162
31937W        W38387  20.653   5.592  33.903 -0.2081  0.0950 -0.4521
31938W        W38388  13.103   3.803  10.362 -0.0738  0.1807 -0.0910
31939W        W38389  13.584   2.344   2.501  0.1798  0.1028 -0.0504
31940W        W38390  21.161   2.051   6.513 -0.0374 -0.0371  0.2469
31941W        W38391   6.577   4.386   0.132 -0.0003 -0.0942 -0.2298
31942W        W38392   6.215   2.487   9.507 -0.1070  0.2434  0.0095
31943W        W38393   4.559   5.219  13.830  0.3640  0.4176  0.0324
31944W        W38394  14.073   5.504   7.928 -0.2932  0.0463 -0.4925
31945W        W38395   7.290   1.317   4.408  0.0154  0.1081 -0.0810
31946W        W38396  22.268   3.264  31.504 -0.1706  0.2803 -0.1253
31947W        W38397   7.969   6.469  13.017  0.2935  0.2874 -0.1529
31948W        W38398   3.178   5.172   1.066  0.0500 -0.2296  0.2529
31949W        W38399  14.484   6.094  21.027 -0.1947 -0.1696 -0.2128
31950W        W38400  15.340   4.284   4.724  0.0689  0.2394  0.1801
31951W        W38401  21.583   0.988  12.600 -0.0070  0.0433 -0.3295
31952W        W38402  10.072   4.772  25.622  0.1914  0.0753  0.0681
31953W        W38403   1.645   0.420  14.441  0.0448  0.0822  0.0770
31954W        W38404  16.885   3.535  14.722  0.2417  0.0476  0.2851
31955W        W38405  25.761   1.862  10.228  0.1059 -0.1010  0.2125
31956W        W38406   3.610   2.022  31.072 -0.1247  0.4203  0.0444
31957W        W38407   2.312   3.759  33.611  0.0818 -0.0339  0.2156
31958W        W38408   4.528   4.759  12.386 -0.2900  0.2293 -0.0696
31959W        W38409   1.408   6.005  22.551 -0.1264  0.0734 -0.2733
31960W        W38410   6.901   2.198  12.596 -0.0717 -0.0223  0.1381
31961W        W38411  15.262   1.906   8.410 -0.2433  0.0867 -0.1899
31962W        W38412  11.351   5.903   1.691  0.1523  0.1534 -0.0129
31963W        W38413  11.497   2.613  29.906 -0.0549 -0.5444  0.0372
31964W        W38414  12.174   1.121   1.024 -0.2008  0.0637  0.1102
31965W        W38415   9.507   2.335  31.881  0.1953  0.0645 -0.1091
31966W        W38416  18.784   2.044  27.275  0.1042  0.0139 -0.0589
31967W        W38417  21.203   2.374  28.786 -0.1830  0.0182 -0.2095
31968W        W38418   1.073   2.358  21.667  0.1485 -0.1674  0.1930
31969W        W38419   6.684   2.474   4.076  0.2178 -0.1143  0.0435
31970W        W38420   6.689   0.892  10.030  0.0826  0.1232  0.1151
31971W        W38421  11.369   2.053  34.636 -0.3928  0.1183 -0.2383
31972W        W38422  16.601   5.159   4.999  0.2184  0.0223 -0.0603
31973W        W38423  25.633   0.628  13.904 -0.1566 -0.1607 -0.0182
31974W        W38424   6.232   2.129  27.675  0.2091 -0.0251 -0.0029
31975W        W38425  25.834   5.732   6.514  0.1112 -0.1722  0.1102
31976W        W38426  17.352   1.991  21.380 -0.0778 -0.0359 -0.0340
31977W        W38427  11.776   2.780  32.483  0.0265  0.3909  0.1400
31978W        W38428  12.180   6.528   2.551  0.0856 -0.0995  0.1960
31979W        W38429  13.568   2.092   5.698  0.0498 -0.2593  0.0451
31980W        W38430  10.803   5.698   4.265 -0.0032  0.1425 -0.0012
31981W        W38431  15.456   5.704   4.536  0.3763 -0.2964  0.1745
31982W        W38432  13.270   6.151   4.131  0.0020 -0.0415 -0.4733
31983W        W38433  25.382   0.964  24.289  0.0331 -0.3032 -0.1323
31984W        W38434  20.806   2.509  21.479  0.1408  0.1633  0.2170
31985W        W38435   2.713   4.934  13.157 -0.0350  0.1170  0.2502
31986W        W38436   3.175   3.219  21.676 -0.3185 -0.0239  0.1310
31987W        W38437  20.567   2.167   8.827  0.0028  0.3091 -0.1441
31988W        W38438   1.446   5.290  13.779  0.1983 -0.1265 -0.0592
31989W        W38439   8.765   4.143  11.661 -0.1359 -0.0644  0.0786
31990W        W38440   8.101   1.152  12.261  0.0742  0.1800  0.0455
31991W        W38441  22.870   4.464  21.325 -0.0409 -0.1772  0.1847
31992W        W38442  26.011   5.778   6.980 -0.0339  0.3027  0.0002
31993W        W38443  26.193   3.874  26.471 -0.1886 -0.0938  0.2274
31994W        W38444  13.452   5.655   0.885 -0.1871 -0.2800 -0.0260
31995W        W38445  25.851   1.631  27.635 -0.0414  0.0176 -0.1813
31996W        W38446   0.015   4.739   9.430  0.1087  0.0613 -0.0678
31997W        W38447  19.437   4.280  24.096 -0.0883  0.1173 -0.1178
31998W        W38448  17.433   4.822   5.490  0.0612 -0.1955  0.2314
31999W        W38449   5.802   2.598  34.631  0.0794  0.0125  0.0487
32000W        W38450  12.081   2.994  21.651  0.1824  0.0162 -0.1632
32001W        W38451   3.124   4.424   9.952  0.3188  0.0186 -0.1237
32002W        W38452   6.668   5.505  10.418 -0.0447  0.2770 -0.2242
32003W        W38453   3.893   2.452   7.865 -0.1939  0.0317 -0.3436
32004W        W38454  14.437   5.314  23.852 -0.0322  0.1325  0.1175
32005W        W38455   9.162   3.887  20.304 -0.0558 -0.0208 -0.0878
32006W        W38456  17.203   1.990  27.121 -0.5248 -0.0060  0.1308
32007W        W38457  17.978   1.204  30.939  0.0857 -0.1951 -0.1059
32008W        W38458   5.840   5.383  27.247 -0.0280  0.4413  0.0017
32009W        W38459  23.820   5.295  24.752 -0.0164 -0.0054 -0.2078
32010W        W38460   6.864   1.573   4.392 -0.2096 -0.0750  0.0720
32011W        W38461  14.659   1.036  25.418 -0.0058  0.1797  0.0228
32012W        W38462  18.586   5.378  24.488 -0.0190  0.1050  0.0577
32013W        W38463   2.591   2.747  22.782 -0.1753  0.0362 -0.1682
32014W        W38464  20.944   2.841  32.072  0.1358  0.1437 -0.1851
32015W        W38465  20.393   5.023  25.792 -0.2798 -0.4059  0.0662
32016W        W38466  25.953   6.431   4.330  0.0519 -0.0551 -0.3800
32017W        W38467  18.117   4.861   3.076 -0.0563  0.0390  0.1330
32018W        W38468  21.157   4.118  25.094 -0.3587 -0.1868  0.3103
32019W        W38469   2.657   0.377  32.536 -0.1843 -0.0164  0.0430
32020W        W38470  22.001   1.483   5.397 -0.2069  0.3171  0.1746
32021W        W38471  25.465   0.992  10.283  0.1585 -0.2207 -0.1049
32022W        W38472  21.568   3.354  27.982 -0.2826 -0.0860  0.1543
32023W        W38473  12.767   1.096   4.360  0.2333 -0.3717  0.2279
32024W        W38474  17.566   4.081   9.789  0.2185  0.2929 -0.0937
32025W        W38475  15.866   0.420   5.065 -0.1697  0.2465  0.2111
32026W        W38476  15.473   0.992   3.062 -0.0921  0.2559 -0.0718
32027W        W38477   9.846   2.908   0.883  0.0685 -0.0342 -0.1274
32028W        W38478  13.670   1.735  27.650  0.0387 -0.0141  0.1915
32029W        W38479   2.632   5.497  29.165  0.1859 -0.0795 -0.0831
32030W        W38480  11.535   1.064   2.656  0.1274  0.1232 -0.1932
32031W        W38481  13.993   2.967   3.324  0.0040 -0.0675  0.1152
32032W        W38482  17.838   3.360  11.117 -0.4328  0.1324 -0.0749
32033W        W38483  10.079   4.974   5.496  0.0116 -0.0022 -0.1573
32034W        W38484  14.866   3.127   5.834  0.2980  0.0835  0.0500
32035W        W38485   7.810   1.500  10.932  0.0277 -0.1860  0.0506
32036W        W38486  12.630   4.282  21.549 -0.0322  0.0469 -0.0048
32037W        W38487  10.533   3.997  20.103 -0.2133 -0.1026  0.2941
32038W        W38488   3.012   4.144  24.947 -0.0210 -0.0319 -0.0127
32039W        W38489   4.037   4.054   9.950 -0.2087  0.1287 -0.0996
32040W        W38490   7.737   2.249  32.680 -0.0534 -0.1967  0.1229
32041W        W38491  20.229   3.642   9.993 -0.0393 -0.1128 -0.1252
32042W        W38492  18.670   1.447   8.423 -0.1716 -0.3131 -0.0989
32043W        W38493  13.513   3.154  15.236 -0.0498  0.2065 -0.0256
32044W        W38494  24.083   4.720  32.398 -0.2932  0.0515 -0.1776
32045W        W38495  13.406   0.598   0.637  0.1514 -0.0920  0.1482
32046W        W38496  13.300   5.801  30.992 -0.0430  0.0994  0.1813
32047W        W38497   8.590   1.897  20.684 -0.0026 -0.3375 -0.0856
32048W        W38498   4.921   0.959  29.665 -0.3630  0.0807  0.1748
32049W        W38499   9.806   3.073  23.115  0.0047  0.0021 -0.0176
32050W        W38500   1.743   5.851   7.638 -0.1574 -0.2347 -0.0468
32051W        W38501  24.561   0.417   6.671  0.1682 -0.0826 -0.2051
32052W        W38502   4.361   5.305  29.554 -0.2703 -0.0148 -0.5054
32053W        W38503  13.447   1.322  28.925  0.2220 -0.0366 -0.1867
32054W        W38504   0.285   1.661   7.698  0.2331 -0.2494  0.0098
32055W        W38505  23.713   0.508  15.342 -0.0442  0.0713  0.2532
32056W        W38506  26.326   3.666   8.577  0.0043 -0.0055 -0.1933
32057W        W38507   5.079   2.560  26.356  0.0414  0.1208  0.0933
32058W        W38508  22.944   1.369  14.721  0.1262  0.0319 -0.1237
32059W        W38509  15.902   3.684   2.064 -0.1638 -0.1910 -0.0087
32060W        W38510   4.353   2.682   4.151 -0.1199  0.2405 -0.2466
32061W        W38511  15.992   2.338  32.673  0.0518  0.1552  0.1684
32062W        W38512   6.715   5.656  24.095  0.1456  0.0316 -0.1964
32063W        W38513  20.408   1.300  14.044  0.0734 -0.0819  0.1394
32064W        W38514  14.241   6.513  15.970  0.2815  0.1397  0.1009
32065W        W38515   1.004   5.410   1.634 -0.1823 -0.0196  0.2302
32066W        W38516  14.245   4.551  36.012  0.2567  0.0802  0.2866
32067W        W38517  15.771   3.755   6.907  0.2345 -0.2449 -0.0400
32068W        W38518  15.675   0.752  25.458 -0.1545  0.0929 -0.2254
32069W        W38519   5.452   1.256  25.933 -0.0719  0.1072  0.2084
32070W        W38520  23.129   6.104   1.298 -0.0413  0.0840 -0.1101
32071W        W38521   8.584   1.264  12.509  0.2981  0.1255 -0.1711
32072W        W38522  12.518   5.344   0.741  0.0235 -0.2220 -0.1134
32073W        W38523  18.033   4.234  25.648 -0.3905 -0.0227 -0.3916
32074W        W38524  10.386   1.698  24.766 -0.2019  0.2116  0.1431
32075W        W38525   1.195   1.569  20.634 -0.1807 -0.1270  0.2401
32076W        W38526  18.047   2.254   1.840 -0.1014  0.2237 -0.2277
32077W        W38527  15.373   2.237   3.797  0.3149 -0.0513 -0.0575
32078W        W38528  19.001   1.166  15.240 -0.1120 -0.1160 -0.1699
32079W        W38529  19.359   4.643   5.298 -0.4416  0.3035 -0.1778
32080W        W38530  17.490   1.282  29.111 -0.0519  0.1862  0.2567
32081W        W38531   8.012   0.524  21.649  0.1515 -0.0590 -0.0395
32082W        W38532  17.250   1.903  26.078  0.1110 -0.0537  0.1056
32083W        W38533  25.212   0.698  32.705 -0.0009  0.0774  0.1289
32084W        W38534  22.730   4.020  13.326  0.1535  0.1575  0.6074
32085W        W38535   5.819   6.474  35.402 -0.2899  0.0655 -0.3649
32086W        W38536   6.870   3.655   5.176  0.0884 -0.0455  0.1756
32087W        W38537  14.535   4.083   5.341 -0.3076  0.1149 -0.1346
32088W        W38538  11.484   2.960  24.251  0.3172 -0.2101  0.0814
32089W        W38539   8.417   6.374  13.833  0.0731 -0.1739 -0.0960
32090W        W38540  16.173   1.219   9.996 -0.0641 -0.1987 -0.0476
32091W        W38541   1.736   5.159  11.261 -0.1482  0.0282  0.2068
32092W        W38542  13.842   6.593  28.636 -0.0726  0.0980 -0.0724
32093W        W38543   7.151   4.017  30.841  0.1610  0.2828 -0.2964
32094W        W38544  22.726   0.776   9.126 -0.0313 -0.0593  0.0066
32095W        W38545  12.365   0.577   5.256 -0.0604  0.0258  0.1962
32096W        W38546  26.071   2.591   3.008 -0.1961  0.0548  0.1291
32097W        W38547   2.126   5.682   8.450 -0.0961  0.3350  0.1878
32098W        W38548  21.028   3.123  13.225 -0.2968 -0.0836 -0.0695
32099W        W38549  11.344   2.242  24.271  0.2502 -0.0408 -0.2036
32100W        W38550  12.321   0.410   9.167 -0.1748 -0.0197  0.0031
32101W        W38551   9.495   3.270  33.455  0.2875 -0.0655 -0.0693
32102W        W38552  15.387   1.959  34.739  0.1268  0.1928 -0.1389
32103W        W38553  23.580   4.867  31.522  0.0185  0.2153  0.0372
32104W        W38554  22.536   4.350  14.286 -0.0544 -0.0040 -0.1042
32105W        W38555  13.580   5.171  25.154 -0.5656 -0.0505  0.1049
32106W        W38556  10.858   5.217   2.190 -0.2801  0.2255  0.1754
32107W        W38557   7.314   2.506   8.727 -0.0615  0.2585  0.1881
32108W        W38558  25.412   6.446   3.072  0.0128 -0.0085  0.0653
32109W        W38559   4.658   3.696  35.303 -0.1042  0.0219  0.0265
32110W        W38560  13.154   0.019  31.067 -0.2054  0.1194 -0.1663
32111W        W38561  18.960   5.725   1.912  0.1876  0.2247 -0.0157
32112W        W38562  13.535   4.930   0.285 -0.2147  0.2660  0.1281
32113W        W38563  19.260   2.404  28.993  0.3250  0.0337  0.1643
32114W        W38564   4.799   5.138  12.145 -0.2101  0.1656  0.2347
32115W        W38565  24.622   2.760  24.265  0.2747 -0.0661 -0.0112
32116W        W38566  12.126   4.062   8.252 -0.1501  0.0498 -0.2076
32117W        W38567   1.584   4.767  22.268  0.2696 -0.0507 -0.1050
32118W        W38568   7.733   5.883  29.983  0.2462 -0.1780 -0.0601
32119W        W38569   7.565   6.396  12.055  0.1261 -0.1811 -0.2859
32120W        W38570   2.475   0.352  21.029 -0.4934  0.3269 -0.0992
32121W        W38571   9.865   0.712  21.242 -0.1810 -0.2488 -0.3004
32122W        W38572  11.683   4.489  35.573  0.0566 -0.0495 -0.3599
32123W        W38573   6.097   1.921  10.544  0.2975  0.0414 -0.3068
32124W        W38574   6.834   6.053   8.127  0.2686 -0.0647  0.1218
32125W        W38575   3.775   4.695  30.498  0.1453 -0.1665 -0.0725
32126W        W38576  16.520   5.254  14.887 -0.0033 -0.2235  0.1230
32127W        W38577   6.698   1.049   1.370  0.1256  0.0696  0.2704
32128W        W38578  21.242   4.854   8.802  0.2453 -0.2201  0.1209
32129W        W38579  12.868   6.345   0.360 -0.2102 -0.1826 -0.4857
32130W        W38580  21.828   3.735   9.365 -0.5392  0.4626 -0.1477
32131W        W38581   8.169   3.620  30.257  0.1379  0.1629  0.0550
32132W        W38582   9.260   1.380  35.563  0.0932 -0.2581  0.1581
32133W        W38583  15.052   6.174   1.220 -0.2906 -0.1737 -0.0002
32134W        W38584  19.336   1.382  22.451 -0.0461 -0.2124 -0.1710
32135W        W38585   1.269   1.321   1.195  0.1215  0.0529  0.2651
32136W        W38586   8.314   3.666  33.634 -0.0095 -0.0515  0.0257
32137W        W38587  21.879   0.020   1.286  0.1203 -0.0979 -0.1055
32138W        W38588  22.672   6.326   9.888  0.0842 -0.0885 -0.0329
32139W        W38589   0.317   2.366  24.420 -0.0566  0.4786  0.0844
32140W        W38590  15.273   0.645  14.460  0.2827  0.4925 -0.0896
32141W        W38591   7.161   0.293   6.588  0.1216  0.0865  0.2048
32142W        W38592   3.278   4.255   5.063 -0.1102 -0.2629  0.3005
32143W        W38593   3.931   2.289   6.773  0.0061  0.1600 -0.0510
32144W        W38594  11.137   3.196   3.189  0.0075  0.1533 -0.1399
32145W        W38595   0.402   5.096  15.777  0.0819 -0.2868 -0.1241
32146W        W38596  23.492   0.300  25.028  0.0628 -0.0073  0.0698
32147W        W38597  12.144   5.877   5.560 -0.0856 -0.3142  0.0236
32148W        W38598   7.680   4.891  30.528  0.0490 -0.1207  0.2776
32149W        W38599  16.429   0.998   1.874 -0.0220  0.1302 -0.3340
32150W        W38600  25.543   5.267  31.922  0.0952 -0.0754 -0.0527
32151W        W38601  22.866   0.237   2.535 -0.1043 -0.0683 -0.0539
32152W        W38602  19.040   1.581  24.927  0.0830 -0.3500 -0.2882
32153W        W38603   3.041   0.258  15.779 -0.0835  0.1652  0.0439
32154W        W38604  23.564   0.525   6.558 -0.1974 -0.0530 -0.3484
32155W        W38605  16.204   1.596  13.806  0.0191  0.3336 -0.0043
32156W        W38606   5.229   0.331  32.680  0.0593  0.1064  0.0281
32157W        W38607   9.944   2.908  28.917  0.0701  0.1203 -0.3867
32158W        W38608  12.914   2.956  32.547  0.5499 -0.4542  0.0206
32159W        W38609  12.148   4.380  27.271  0.1710 -0.0240  0.0967
32160W        W38610  15.328   5.782   1.100  0.0660  0.1930  0.0531
32161W        W38611   5.326   0.212  11.453 -0.1829  0.0675  0.0156
32162W        W38612  19.257   3.046  28.692 -0.0290 -0.0710 -0.1626
32163W        W38613  22.413   3.266   8.444  0.0666  0.0629 -0.0075
32164W        W38614   3.909   2.648  30.262 -0.2609  0.2149 -0.2122
32165W        W38615  11.748   0.578   1.673  0.0899  0.1787 -0.2622
32166W        W38616  12.857   5.287  24.438  0.0066 -0.3107  0.0108
32167W        W38617  14.217   5.302   3.980 -0.1589  0.0516  0.0376
32168W        W38618   7.331   0.600  12.128  0.1095 -0.1631  0.0449
32169W        W38619  19.542   1.574  25.038 -0.2074 -0.1423 -0.0024
32170W        W38620  11.798   0.734   1.177  0.0088 -0.1583  0.0411
32171W        W38621   2.855   6.093   6.824  0.0623  0.0140  0.1547
32172W        W38622  13.200   4.857  27.892  0.3459  0.1315  0.1426
32173W        W38623  26.137   4.219  23.599 -0.0705 -0.0551 -0.2967
32174W        W38624  19.091   0.230   4.076 -0.1401 -0.2306  0.0983
32175W        W38625  17.184   5.907  15.864 -0.1875  0.1147 -0.1664
32176W        W38626   4.445   0.082  26.931  0.2046  0.3489 -0.3980
32177W        W38627   5.686   5.448   5.084 -0.0189  0.2797  0.2737
32178W        W38628  21.216   2.092  30.453 -0.2095 -0.0725 -0.0776
32179W        W38629   8.316   6.099  20.557 -0.2736  0.1762 -0.0667
32180W        W38630  15.599   1.748  13.831  0.3552  0.0930 -0.0874
32181W        W38631  10.111   1.570  24.315 -0.0898 -0.2291 -0.0773
32182W        W38632  26.092   6.400   2.521  0.0760 -0.3347  0.4319
32183W        W38633  16.509   5.951  25.933 -0.1563  0.2524 -0.1863
32184W        W38634  18.067   4.167  13.130 -0.0034  0.1407 -0.1729
32185W        W38635   9.017   2.831   3.120 -0.1966 -0.3792 -0.2294
32186W        W38636   4.653   0.484  34.672  0.1254 -0.1194  0.2866
32187W        W38637   2.921   0.673  10.382  0.1597  0.0567 -0.1052
32188W        W38638  17.452   3.293  15.424  0.1608  0.3438  0.0752
32189W        W38639   6.877   5.127  22.886 -0.0268 -0.3285 -0.2450
32190W        W38640  26.122   4.057   4.128 -0.1768  0.6185 -0.2751
32191W        W38641  13.119   6.319  10.465 -0.1087 -0.1899 -0.3538
32192W        W38642  17.584   1.078  22.869  0.0358 -0.1203  0.0556
32193W        W38643  12.224   0.030  23.503 -0.1241 -0.1229  0.1957
32194W        W38644   3.421   5.526  15.326 -0.1538  0.0700 -0.1604
32195W        W38645   2.224   6.244  32.619 -0.0884  0.0859 -0.1508
32196W        W38646   5.573   5.697  32.521 -0.0940  0.0630  0.3406
32197W        W38647   5.982   3.347   0.760  0.0601 -0.0944 -0.0661
32198W        W38648  10.759   3.720  25.470 -0.0070  0.1195 -0.2919
32199W        W38649  25.111   3.755  22.394 -0.0358  0.0813 -0.1196
32200W        W38650  13.514   4.013   0.461 -0.1056  0.1415  0.1769
32201W        W38651   6.937   3.556  23.064 -0.2345  0.1059  0.2177
32202W        W38652   9.070   4.804  27.890 -0.1461 -0.2067  0.2374
32203W        W38653   9.827   2.878  21.394 -0.1241  0.0116 -0.1206
32204W        W38654  20.812   0.267  23.974  0.3029 -0.2517  0.1232
32205W        W38655  12.509   3.611   1.630  0.0186  0.1163 -0.2301
32206W        W38656   2.104   0.366  25.353  0.0806 -0.0496  0.1871
32207W        W38657  16.447   2.014   2.176  0.0646 -0.0879 -0.2754
32208W        W38658   2.801   0.481  25.836 -0.1772  0.3523 -0.1298
32209W        W38659   1.962   0.439  30.434 -0.3438 -0.0035 -0.4290
32210W        W38660  16.899   3.687   6.004 -0.0202  0.1501 -0.0931
32211W        W38661  15.404   2.146   7.359 -0.0009  0.0688 -0.1444
32212W        W38662   6.461   5.360  30.948 -0.2687  0.0873 -0.0589
32213W        W38663  15.317   0.811   6.086  0.0112  0.0635  0.2732
32214W        W38664  22.207   1.683  12.212  0.4483 -0.0339  0.0809
32215W        W38665  15.852   0.927   8.431 -0.0522  0.1115  0.0613
32216W        W38666   8.023   3.532  24.784 -0.0664 -0.0497 -0.2840
32217W        W38667  22.632   4.440  13.830  0.0862  0.2907 -0.1984
32218W        W38668  19.392   5.971  30.872 -0.2795  0.2557 -0.4626
32219W        W38669   9.575   6.344  21.076 -0.0404 -0.3051  0.0793
32220W        W38670  23.480   0.288  32.121 -0.1539  0.1418 -0.1400
32221W        W38671  17.963   2.742   0.319 -0.0060  0.1328 -0.0415
32222W        W38672   8.203   3.610  30.733 -0.1192 -0.2195  0.1681
32223W        W38673  24.311   0.615  27.476  0.1589  0.0807  0.1162
32224W        W38674  16.000   0.613   0.478  0.1466 -0.3193  0.0435
32225W        W38675  23.912   2.925  13.575 -0.2107 -0.2420  0.2317
32226W        W38676  23.207   2.253   1.529  0.1312 -0.0779 -0.3454
32227W        W38677  22.417   0.399  24.339  0.0211  0.1763 -0.5073
32228W        W38678  18.240   2.606  24.696 -0.0342 -0.2314  0.2882
32229W        W38679   0.294   0.023  26.744 -0.2241  0.2173 -0.1110
32230W        W38680  25.208   6.441  13.807 -0.2609 -0.0612  0.1201
32231W        W38681  22.872   3.525   6.216 -0.0302  0.3260 -0.2589
32232W        W38682  20.549   4.942  31.506 -0.0286 -0.0823 -0.0869
32233W        W38683  10.548   0.914  30.868 -0.2214  0.0405 -0.1930
32234W        W38684  11.946   3.447   3.756 -0.0865  0.2258 -0.3084
32235W        W38685   1.136   2.623  28.695 -0.0122 -0.1058  0.0619
32236W        W38686  19.025   1.275   0.798  0.1557 -0.2543  0.1723
32237W        W38687   0.786   3.017  25.496  0.0317  0.1344 -0.0604
32238W        W38688   0.675   2.946  25.998  0.0855 -0.0976  0.1122
32239W        W38689   6.130   1.556  27.572  0.1307  0.5118  0.2680
32240W        W38690  25.077   1.720  33.473  0.1141 -0.0464 -0.1178
32241W        W38691  23.818   1.606  27.039  0.4721 -0.1100 -0.2057
32242W        W38692  18.558   0.114  19.905  0.1526  0.1221 -0.0947
32243W        W38693  17.269   4.621   9.751  0.2021  0.0333 -0.2382
32244W        W38694   6.185   1.346  26.765  0.0070  0.0458 -0.0736
32245W        W38695   0.201   1.308  12.696  0.0895  0.0557  0.0340
32246W        W38696   1.161   4.338  28.846  0.5749  0.1648 -0.0448
32247W        W38697   8.323   2.004  21.664  0.1104  0.1367 -0.0454
32248W        W38698  21.995   2.167  23.110  0.1570 -0.0575 -0.0751
32249W        W38699  15.812   3.845  24.899 -0.1038  0.0167 -0.0848
32250W        W38700  15.836   2.816   8.004  0.1284 -0.0027  0.1938
32251W        W38701   4.827   3.005  32.804  0.0451 -0.0407  0.0209
32252W        W38702   8.197   0.491  25.316 -0.0021  0.2713 -0.0717
32253W        W38703   3.236   3.982   9.055 -0.0205  0.3901  0.4543
32254W        W38704   4.408   5.659  32.632 -0.2511 -0.1543  0.1790
32255W        W38705  18.514   3.343  27.936 -0.3516  0.0497  0.1002
32256W        W38706   8.952   2.321  20.714  0.0424 -0.1462  0.0715
32257W        W38707  21.004   3.266  32.899 -0.4151 -0.0060 -0.1454
32258W        W38708  24.179   2.349  27.798 -0.0345  0.0679  0.2497
32259W        W38709  12.520   3.744   2.774  0.2981  0.1578 -0.2274
32260W        W38710   6.177   2.773  35.440  0.1692 -0.1200 -0.1070
32261W        W38711   5.425   2.107  24.553 -0.1116  0.0968  0.0644
32262W        W38712  22.306   4.285  34.925  0.1446  0.3104  0.1699
32263W        W38713   0.668   6.527  12.494  0.4135  0.2412 -0.1002
32264W        W38714  16.788   5.095   9.971  0.1083 -0.0730 -0.4068
32265W        W38715  18.294   0.643  30.093 -0.1534  0.2373 -0.2127
32266W        W38716  26.094   4.563  21.180  0.1017  0.1811  0.1638
32267W        W38717  24.652   5.043  23.241 -0.1202  0.0111  0.1510
32268W        W38718  20.930   3.442  35.810 -0.0280  0.1300  0.1073
32269W        W38719  17.142   1.983  12.663  0.2010 -0.1457 -0.4201
32270W        W38720   3.627   4.882   7.715 -0.0659 -0.0509  0.1101
32271W        W38721  23.585   3.086  14.784 -0.0145  0.0652  0.2058
32272W        W38722  24.164   2.590  33.230  0.0053  0.0401 -0.0333
32273W        W38723  20.793   4.131  24.712  0.1164 -0.1118  0.2472
32274W        W38724   9.667   4.091  12.655  0.0259  0.0305 -0.1020
32275W        W38725  13.963   2.621  25.938 -0.0318  0.0046  0.1085
32276W        W38726  18.727   0.793  24.718  0.0116 -0.1094 -0.0343
32277W        W38727   0.269   5.215  32.102  0.1071  0.0826 -0.0671
32278W        W38728  12.639   0.077   0.808 -0.4328 -0.0709 -0.0695
32279W        W38729  24.657   1.477   3.515  0.3237  0.4246  0.0778
32280W        W38730  14.113   3.531   3.452  0.0654  0.1825  0.1421
32281W        W38731  11.675   0.025  35.301 -0.2066  0.2030  0.0568
32282W        W38732  17.023   6.263  22.454  0.1529 -0.1918  0.0142
32283W        W38733  23.067   4.733  35.626 -0.3600  0.1027 -0.2031
32284W        W38734  10.562   3.392  27.940  0.3800  0.2032  0.0635
32285W        W38735  25.525   3.843   3.203 -0.0351 -0.4262 -0.0077
32286W        W38736   9.248   0.037  35.962  0.0890  0.3649  0.1144
32287W        W38737   1.671   6.389  35.483  0.0248  0.1105 -0.1067
32288W        W38738   0.889   3.420  20.586 -0.1120  0.3314  0.0110
32289W        W38739  11.812   2.795  13.472 -0.1857  0.1607  0.0626
32290W        W38740   8.054   0.366  22.151  0.0064 -0.2486 -0.0529
32291W        W38741  12.672   5.935  30.693  0.0221  0.0132 -0.0592
32292W        W38742  11.130   4.730  35.321 -0.4222  0.0850 -0.1190
32293W        W38743  20.559   1.308  24.772 -0.1997 -0.0312 -0.0523
32294W        W38744  26.337   6.012   1.030 -0.2091  0.0781 -0.3806
32295W        W38745   0.849   0.570  32.403 -0.0478 -0.2679  0.0942
32296W        W38746   3.024   1.914   2.366 -0.1872  0.0403 -0.0916
32297W        W38747   5.817   0.995  15.060  0.1684 -0.2566 -0.0505
32298W        W38748   3.112   0.618  33.338 -0.2683  0.0214  0.0863
32299W        W38749  17.244   5.497   6.684  0.1064 -0.2071  0.0157
32300W        W38750   0.213   0.074  28.302 -0.0931 -0.1415  0.1114
32301W        W38751   4.021   0.445   6.450 -0.0413 -0.1013 -0.1687
32302W        W38752  16.717   3.620  15.484  0.0578  0.0911  0.3400
32303W        W38753   4.761   5.542  11.800  0.0505 -0.0605 -0.3483
32304W        W38754  19.094   0.495  10.780  0.4323 -0.1304 -0.2756
32305W        W38755  17.021   1.018  13.900 -0.0323  0.3287 -0.2263
32306W        W38756  15.819   2.201   6.480  0.4013 -0.0531  0.0187
32307W        W38757   7.081   1.450  11.599 -0.0101  0.1202  0.0229
32308W        W38758  14.968   5.658  31.999 -0.1917 -0.0718 -0.0061
32309W        W38759  14.067   2.178   7.788 -0.0706  0.0308  0.0581
32310W        W38760   2.281   5.989  24.711 -0.1764  0.1709 -0.0793
32311W        W38761   1.625   5.256   5.749  0.0185  0.0166  0.0499
32312W        W38762  12.554   3.903  22.160  0.0625 -0.0194 -0.0920
32313W        W38763   4.578   4.434  33.100 -0.3303 -0.1806 -0.1254
32314W        W38764   6.407   2.404  23.201  0.1680  0.2994  0.1903
32315W        W38765  13.757   3.640  35.188  0.1493  0.1651  0.3110
32316W        W38766  12.083   4.073  29.001  0.0455 -0.0866 -0.0980
32317W        W38767  14.950   2.575  27.196 -0.0414  0.0667  0.3314
32318W        W38768  14.446   2.764  21.816 -0.0203  0.0111 -0.1921
32319W        W38769  15.155   1.165  29.519 -0.2593 -0.0213 -0.1239
32320W        W38770  14.683   2.528  25.309 -0.1718  0.1185  0.1650
32321W        W38771  10.628   2.915  33.231 -0.1668  0.0380 -0.2440
32322W        W38772  20.905   6.239   9.060  0.0696 -0.0156 -0.1083
32323W        W38773   1.878   2.611  10.188  0.0777 -0.0552  0.0350
32324W        W38774   1.065   1.605   4.943 -0.2085  0.1579  0.0315
32325W        W38775   1.284   4.263  32.197  0.1617 -0.1690 -0.0848
32326W        W38776   2.624   1.484   7.073 -0.1346 -0.0808 -0.2529
32327W        W38777   8.446   5.110  36.112  0.0964  0.0315  0.4037
32328W        W38778  11.946   0.173   3.426 -0.1849 -0.1478  0.2445
32329W        W38779  12.498   3.787  24.502  0.1230  0.1693  0.3684
32330W        W38780   4.880   2.065  12.386 -0.2051 -0.2171 -0.1960
32331W        W38781   3.737   1.998  14.836  0.3912 -0.1014 -0.0474
32332W        W38782  16.203   4.285  10.240  0.0070 -0.1170  0.0794
32333W        W38783   1.095   3.160   8.602  0.1687 -0.1320  0.1316
32334W        W38784  16.029   2.372  27.402 -0.1068 -0.1823 -0.0937
32335W        W38785  19.091   2.957  10.887  0.1218  0.1158  0.0805
32336W        W38786   8.436   2.215  35.759  0.0868 -0.0624  0.2599
32337W        W38787  19.311   5.918   1.590  0.0273 -0.0630  0.2044
32338W        W38788  25.702   5.457  27.410 -0.4834  0.1177 -0.2564
32339W        W38789  23.310   6.126  12.999  0.2592  0.0437 -0.0628
32340W        W38790  25.482   0.454   4.843  0.0786 -0.0805 -0.3472
32341W        W38791  20.268   2.435  26.035 -0.1568  0.0798 -0.0323
32342W        W38792   5.472   2.417  10.782 -0.0234 -0.1757  0.0940
32343W        W38793  18.881   4.845   5.340 -0.0080  0.1880 -0.4222
32344W        W38794  21.134   6.156  29.719 -0.0051 -0.0378 -0.0720
32345W        W38795  11.724   1.508  15.855  0.0747 -0.3016  0.0210
32346W        W38796   2.158   2.730   9.701  0.1677  0.0709 -0.2320
32347W        W38797   8.993   6.446   1.088 -0.0727  0.1776 -0.2328
32348W        W38798   8.321   0.495  23.248 -0.1089  0.1573  0.0093
32349W        W38799   9.526   6.517  35.081 -0.0954 -0.3293 -0.1276
32350W        W38800  18.204   2.772  23.129 -0.0066 -0.1148  0.1174
32351W        W38801  18.094   5.379   9.861 -0.0600  0.1123  0.0826
32352W        W38802  19.757   1.121  32.612 -0.0986  0.2819  0.1337
32353W        W38803  14.717   4.252  32.313 -0.1851  0.1002 -0.1177
32354W        W38804   5.361   1.511  14.553  0.3627  0.1649  0.0111
32355W        W38805  16.716   3.966  13.706 -0.2780  0.2172 -0.0420
32356W        W38806   7.870   2.849   2.062  0.0150  0.2398  0.2485
32357W        W38807   4.998   3.699  32.276  0.1271  0.3037 -0.3070
32358W        W38808  21.735   2.951   6.145  0.2988  0.1377 -0.2807
32359W        W38809  25.113   4.618  30.574 -0.1328  0.2448  0.1006
32360W        W38810  26.217   6.277  26.911 -0.5457  0.0164 -0.0240
32361W        W38811   9.579   4.028  15.158  0.0882 -0.1976 -0.0277
32362W        W38812   8.851   0.202  24.736 -0.1014 -0.0176 -0.2397
32363W        W38813   1.030   4.737  32.951 -0.1799  0.2200  0.1666
32364W        W38814   6.739   1.978  24.401 -0.1988 -0.1276  0.0501
32365W        W38815  23.406   1.268  14.837 -0.0930 -0.0523 -0.1949
32366W        W38816  18.051   5.231  10.333  0.0352 -0.2015 -0.0729
32367W        W38817   3.043   0.058   1.552 -0.0087 -0.3780  0.0917
32368W        W38818  22.058   1.988  26.409  0.1294 -0.0858 -0.1195
32369W        W38819  26.273   0.434  32.333 -0.2211 -0.0317 -0.1599
32370W        W38820  18.642   2.951   9.982 -0.0908  0.2847  0.1166
32371W        W38821  17.222   6.521  23.970  0.1885 -0.0713 -0.1737
32372W        W38822  13.215   6.050  35.360 -0.2725  0.0444  0.1946
32373W        W38823  15.470   3.058  27.381 -0.0508  0.2075 -0.3056
32374W        W38824  25.416   6.335  27.250  0.1354  0.0624 -0.2768
32375W        W38825  11.096   6.495  13.568  0.1029 -0.0117  0.2065
32376W        W38826   0.746   2.591  32.690  0.3249 -0.0756 -0.1222
32377W        W38827  21.249   2.562   5.399  0.0353  0.1709 -0.1614
32378W        W38828   5.288   3.129  15.107 -0.0735 -0.0960  0.1229
32379W        W38829   0.130   0.407  21.464 -0.3122 -0.3343 -0.1991
32380W        W38830   7.590   3.904   3.141 -0.1660 -0.1070  0.2272
32381W        W38831   9.616   4.342  30.379 -0.1806 -0.0651 -0.3058
32382W        W38832  22.633   5.723   6.976  0.2704  0.0524  0.3538
32383W        W38833   7.437   3.839  27.827 -0.1106 -0.1500  0.0923
32384W        W38834  15.245   3.874  10.452 -0.0647  0.1803  0.2482
32385W        W38835  16.338   0.422  26.011 -0.0824  0.3187  0.4248
32386W        W38836  22.521   3.057  22.771  0.0473  0.2337 -0.1481
32387W        W38837  18.800   1.778  22.470 -0.3882  0.4351 -0.0059
32388W        W38838   6.378   2.364   5.219 -0.0555  0.0440 -0.2199
32389W        W38839  17.729   2.060  13.509  0.1099 -0.0303  0.2960
32390W        W38840   3.243   3.437  22.509  0.0102  0.0616  0.1461
32391W        W38841   6.783   5.442   6.886 -0.1454 -0.1881  0.1068
32392W        W38842   3.232   2.592  20.863  0.0631  0.0341 -0.4847
32393W        W38843   3.778   1.628  27.567  0.1166 -0.1511 -0.3098
32394W        W38844  19.330   1.959  28.314  0.0875 -0.0207  0.0593
32395W        W38845   9.494   4.657  32.338  0.1129 -0.0690  0.1441
32396W        W38846   0.341   5.723   3.124 -0.2471 -0.4937  0.2780
32397W        W38847   5.265   2.189  32.619  0.0183 -0.2430 -0.2605
32398W        W38848  10.334   3.225   0.498 -0.1051  0.0655  0.1035
32399W        W38849   8.673   4.544  26.732  0.0786 -0.1340  0.0712
32400W        W38850   5.971   2.372   8.154  0.1347  0.1319  0.2285
32401W        W38851  19.701   5.684   4.196 -0.0063  0.3333  0.0974
32402W        W38852  26.078   4.024   7.795  0.0384  0.1559 -0.0727
32403W        W38853   6.780   4.225   1.892  0.4066 -0.1416  0.2443
32404W        W38854   1.881   6.343  14.184 -0.0233  0.3830  0.1557
32405W        W38855  15.148   3.427  24.365  0.2516  0.1368 -0.0594
32406W        W38856  20.347   6.407   9.952  0.0436 -0.0867  0.0217
32407W        W38857  18.299   2.478  30.657 -0.1436 -0.0439 -0.2362
32408W        W38858  12.310   0.623  24.052 -0.0565 -0.1947  0.1560
32409W        W38859  15.495   1.124   8.782 -0.0552 -0.1097 -0.0887
32410W        W38860  14.130   4.442  10.845 -0.2878 -0.2010  0.0822
32411W        W38861   3.790   6.261  30.783 -0.0277 -0.1987 -0.1646
32412W        W38862  25.589   5.741  35.441  0.0826 -0.0327  0.0531
32413W        W38863  18.614   4.337  32.143  0.1938  0.0317 -0.2631
32414W        W38864  10.964   3.249   7.630  0.1069  0.2624  0.0614
32415W        W38865  13.232   2.748  27.581 -0.0504  0.1322  0.0457
32416W        W38866  12.798   0.583  26.937 -0.2635 -0.1096  0.0709
32417W        W38867  16.545   0.534   0.509 -0.0897 -0.3514  0.2268
32418W        W38868  19.050   3.437  35.320 -0.3606 -0.1154  0.2250
32419W        W38869  20.097   1.248  25.440 -0.1050 -0.0975  0.0950
32420W        W38870  24.816   6.390  23.174 -0.4145  0.4461  0.1367
32421W        W38871  20.351   4.634   1.753  0.4747  0.0805  0.3117
32422W        W38872  10.067   1.677  25.141  0.0718 -0.2455  0.2955
32423W        W38873   0.110   1.849  28.288 -0.0810  0.0911  0.1165
32424W        W38874   8.137   4.699   1.086  0.0656  0.1952 -0.0417
32425W        W38875  26.250   5.330  20.835  0.1570  0.4172  0.2944
32426W        W38876   1.725   2.195  23.034  0.3155  0.1330 -0.2805
32427W        W38877   7.151   3.579  31.747  0.0571 -0.0567  0.3463
32428W        W38878  21.698   5.830  26.410  0.3438 -0.2480  0.0642
32429W        W38879  16.966   4.020  35.571 -0.1076 -0.1306  0.0823
32430W        W38880  13.214   6.223   4.747  0.2519 -0.4064  0.3846
32431W        W38881  20.351   1.705  13.576  0.0967  0.0573 -0.0735
32432W        W38882   8.167   4.786  21.968  0.1959 -0.1556 -0.3310
32433W        W38883  15.266   1.557  30.398 -0.0166  0.0277  0.0202
32434W        W38884  21.285   5.334   8.540  0.0109 -0.0928  0.1896
32435W        W38885  17.710   2.810  34.661 -0.2634 -0.0525  0.0166
32436W        W38886  17.416   4.148   1.979 -0.0274  0.1661 -0.0481
32437W        W38887   2.784   0.934   2.667 -0.0351 -0.1832 -0.1242
32438W        W38888  14.385   2.654  31.589 -0.1324 -0.1846  0.3824
32439W        W38889  19.242   6.344  24.777 -0.0119 -0.1720  0.0282
32440W        W38890  23.751   2.338  34.470 -0.2343 -0.1547  0.0559
32441W        W38891  25.478   3.678  13.127  0.1487 -0.3666  0.4184
32442W        W38892  25.134   0.080   4.690  0.1050 -0.0802 -0.3915
32443W        W38893   5.268   3.478   4.879 -0.1003 -0.1452 -0.2251
32444W        W38894  18.978   0.198  13.644  0.0472  0.0187 -0.3286
32445W        W38895   3.964   5.617  34.811 -0.0109  0.1084 -0.1877
32446W        W38896   1.535   4.388  31.362 -0.0679  0.3240 -0.0700
32447W        W38897   3.685   0.655  24.991 -0.0699  0.1412 -0.2798
32448W        W38898   8.365   2.659   2.712  0.3609 -0.3165  0.1343
32449W        W38899   3.597   5.761  25.969 -0.0647  0.0632  0.0585
32450W        W38900   7.456   3.156  35.777  0.1594  0.2526 -0.1114
32451W        W38901  20.344   4.560  25.095  0.0041 -0.0597  0.1196
32452W        W38902   6.442   6.034  31.662  0.1606 -0.0266 -0.0230
32453W        W38903  23.068   2.883   2.218 -0.1501 -0.0830 -0.1473
32454W        W38904   6.592   4.579   8.216  0.0270  0.0007 -0.0803
32455W        W38905  10.948   3.859   8.316 -0.1688 -0.0951 -0.1373
32456W        W38906  14.891   5.870   6.341 -0.2400  0.1635  0.0808
32457W        W38907  24.376   5.894   9.196 -0.0952 -0.3162 -0.2016
32458W        W38908   7.120   3.947  23.761  0.1050  0.2274  0.0822
32459W        W38909   3.670   1.621   3.681  0.1197 -0.4926  0.1406
32460W        W38910   5.468   0.203  15.823  0.1450  0.2731 -0.0443
32461W        W38911   5.576   0.653   9.344 -0.0202  0.2259 -0.0756
32462W        W38912  25.021   4.268   1.318  0.0409 -0.4683 -0.1556
32463W        W38913  19.554   4.995   2.260  0.0308 -0.1666  0.1577
32464W        W38914  20.168   1.433  15.285  0.1743  0.0827  0.3079
32465W        W38915  24.911   6.299  36.127 -0.3014 -0.1120 -0.0986
32466W        W38916   0.939   2.665  12.629  0.0320  0.1870 -0.0007
32467W        W38917   9.199   2.624  35.866  0.1737  0.0584 -0.2199
32468W        W38918   9.904   6.011  21.019 -0.4085 -0.1328  0.0476
32469W        W38919  15.288   5.813  31.240 -0.1890  0.1439 -0.0364
32470W        W38920  16.898   0.639   2.711 -0.3146  0.1993 -0.0480
32471W        W38921  18.928   5.852  11.887  0.1892 -0.3041 -0.0365
32472W        W38922  22.676   1.425  13.696  0.0695  0.0567 -0.0681
32473W        W38923  20.434   0.893   8.309  0.5377 -0.0129 -0.0406
32474W        W38924  13.869   0.000  33.425  0.1072 -0.0699 -0.0697
32475W        W38925  11.060   0.082   9.461 -0.0187 -0.0116 -0.0429
32476W        W38926  19.428   4.743   7.693  0.2868  0.0848 -0.0992
32477W        W38927  20.343   5.500  29.983  0.1984 -0.2148 -0.1365
32478W        W38928   0.110   3.949  32.741 -0.0657 -0.1057 -0.0236
32479W        W38929  25.530   6.540  28.292  0.1542  0.0336 -0.0193
32480W        W38930  12.641   2.200  30.987 -0.2174 -0.0691  0.2297
32481W        W38931   4.095   2.137   8.714 -0.1609 -0.1599  0.0026
32482W        W38932  15.499   2.484  27.361 -0.3003 -0.2411  0.0102
32483W        W38933  20.388   5.894  25.048  0.2243  0.0701  0.0748
32484W        W38934  11.933   6.518  14.290 -0.0994 -0.1417  0.0029
32485W        W38935  18.633   3.477   4.238  0.0365 -0.1590 -0.3080
32486W        W38936  25.309   4.233  26.917 -0.1055  0.1547 -0.0950
32487W        W38937  20.725   0.014  33.384  0.0519 -0.1863  0.1011
32488W        W38938  25.708   5.713  26.945  0.0236 -0.1644 -0.0383
32489W        W38939   6.025   4.778  28.986 -0.1893  0.3143 -0.0583
32490W        W38940  16.002   4.621  23.635  0.2355  0.2399 -0.2480
32491W        W38941  24.902   2.139   6.134 -0.1734  0.5574  0.0321
32492W        W38942   2.730   2.279  33.050 -0.5287 -0.0476 -0.0164
32493W        W38943  10.711   2.322  25.527  0.1268 -0.0761  0.0175
32494W        W38944   2.489   2.148  14.406 -0.1452 -0.0753 -0.0740
32495W        W38945  10.327   4.752  12.494 -0.1824  0.1698  0.2134
32496W        W38946  22.045   6.241  12.993 -0.1383 -0.0729 -0.0012
32497W        W38947   8.169   0.757   5.828  0.2078 -0.1907 -0.2612
32498W        W38948   9.587   1.912   5.326 -0.1066  0.0060  0.0816
32499W        W38949   4.417   0.299  31.304 -0.1095 -0.1557  0.1385
32500W        W38950  15.054   1.991  13.265  0.1144  0.1285  0.0464
32501W        W38951   7.615   2.342  12.240  0.1433  0.0473  0.3091
32502W        W38952  25.544   0.638   4.019  0.0834 -0.2980 -0.2192
32503W        W38953  22.087   6.587  26.272  0.0852 -0.0667 -0.2730
32504W        W38954  23.748   2.441  13.604 -0.3813  0.2941  0.0408
32505W        W38955  20.282   4.824   5.695  0.0778 -0.2795  0.2163
32506W        W38956  17.282   1.238   4.409  0.2195  0.0176 -0.1567
32507W        W38957  12.262   2.087   3.317  0.0808  0.1002 -0.3854
32508W        W38958  24.374   0.921  13.715 -0.2569 -0.2073  0.3027
32509W        W38959  24.137   0.742  32.707 -0.2520  0.1638  0.0763
32510W        W38960  25.149   2.700  22.832 -0.0614  0.0867 -0.1611
32511W        W38961   5.465   4.995  33.592 -0.0072 -0.0015 -0.3828
32512W        W38962  10.269   2.343  25.041 -0.0877  0.2200 -0.1305
32513W        W38963   2.087   5.589  28.940  0.2758 -0.0031 -0.0737
32514W        W38964  19.534   3.136   5.854 -0.0803 -0.2665  0.0895
32515W        W38965   4.718   5.332  27.204 -0.1807  0.0756 -0.2320
32516W        W38966  16.339   1.965  12.508  0.0035 -0.1683 -0.2191
32517W        W38967  14.705   5.160  26.854  0.0244  0.0417  0.0376
32518W        W38968  26.316   6.173   8.255  0.1135 -0.3264  0.0343
32519W        W38969  15.247   0.700  26.139 -0.1131 -0.0231 -0.0642
32520W        W38970  25.477   1.676  22.646 -0.0806 -0.0856  0.2481
32521W        W38971  11.421   4.847  31.329 -0.0002  0.0336  0.0487
32522W        W38972  21.856   2.624   8.559 -0.1770  0.0393  0.0134
32523W        W38973  10.183   5.816   1.209 -0.0125 -0.0159  0.2068
32524W        W38974  19.005   0.449  21.471  0.2514 -0.1025  0.0382
32525W        W38975   4.469   2.323  34.801  0.0731  0.1674 -0.0358
32526W        W38976  18.658   3.116  32.699  0.0335 -0.1881  0.2753
32527W        W38977  12.432   6.054   0.137 -0.3002 -0.0251  0.0817
32528W        W38978   1.449   4.529  28.446 -0.0554  0.2848 -0.2072
32529W        W38979  23.110   1.462   1.474  0.3127 -0.1012 -0.0360
32530W        W38980  20.246   3.184  29.327 -0.0897  0.1584 -0.4061
32531W        W38981  16.962   5.195   6.973 -0.0013  0.1123 -0.3719
32532W        W38982  14.070   1.099  36.009 -0.2053  0.2010  0.3787
32533W        W38983  11.944   2.997   1.602 -0.2026  0.2557  0.2085
32534W        W38984  22.452   5.661  15.348 -0.1326 -0.0210 -0.1999
32535W        W38985   3.308   4.794   7.288 -0.0329 -0.1341  0.0919
32536W        W38986   4.681   1.995  29.473 -0.4199  0.2399  0.0855
32537W        W38987  25.550   2.096  21.146  0.0766  0.1658 -0.2549
32538W        W38988  13.212   0.553  22.787  0.0771  0.1326  0.0581
32539W        W38989  26.288   1.283  27.232  0.0946  0.0185  0.0966
32540W        W38990   1.710   4.556  23.251 -0.2861  0.0214  0.0800
32541W        W38991   1.921   6.074   9.243 -0.0784  0.1315 -0.0198
32542W        W38992   1.517   4.175  15.176 -0.1509  0.1455 -0.0406
32543W        W38993  15.988   2.399   9.456  0.0038 -0.2658  0.0190
32544W        W38994  18.594   3.667   2.326 -0.0150 -0.0180 -0.1646
32545W        W38995   3.691   3.933  27.364 -0.2520  0.0206  0.1266
32546W        W38996   5.033   4.607  14.356  0.1097 -0.1564  0.2148
32547W        W38997  11.123   1.486  28.079  0.1152  0.2629  0.0259
32548W        W38998  16.801   0.924   0.684  0.0410  0.0597 -0.0135
32549W        W38999  20.879   0.333  21.185  0.0022  0.0747 -0.1328
32550W        W39000   1.021   6.107  30.500  0.0682 -0.2885  0.1105
32551W        W39001  22.510   2.009  33.184  0.1122  0.0397 -0.1098
32552W        W39002   5.203   2.141  25.796 -0.2248 -0.0275  0.0197
32553W        W39003  13.384   4.532   4.566  0.2234 -0.0639 -0.0597
32554W        W39004  23.674   2.045   8.701 -0.3106  0.1841 -0.0814
32555W        W39005  24.849   6.095  24.861  0.0348 -0.0417  0.0142
32556W        W39006  19.576   3.692  25.955  0.0138 -0.0684  0.0222
32557W        W39007   9.363   3.916  12.997  0.0698  0.1045  0.1377
32558W        W39008  25.566   2.302  31.878 -0.1328  0.0158 -0.0694
32559W        W39009   0.377   2.605  27.619 -0.0316 -0.1161 -0.3445
32560W        W39010   2.794   4.531  29.967 -0.4682 -0.2554  0.1902
32561W        W39011  24.315   0.295   5.388  0.1681  0.0849  0.1678
32562W        W39012  13.699   0.350  14.208  0.2734  0.0264  0.0867
32563W        W39013  15.843   2.235  21.340  0.3578 -0.2456 -0.1688
32564W        W39014  20.143   4.945  10.326 -0.1713  0.1119  0.0537
32565W        W39015   0.027   2.701   0.383 -0.1412 -0.1699  0.0424
32566W        W39016  10.338   3.809  14.344  0.4420  0.0811  0.4017
32567W        W39017  19.033   4.001  23.953 -0.0852  0.0104  0.2890
32568W        W39018  20.656   3.914  12.523  0.0400 -0.0956 -0.0111
32569W        W39019   8.907   0.281  31.639 -0.1010 -0.2722 -0.1486
32570W        W39020  19.213   5.688  12.298  0.0300 -0.2161 -0.0233
32571W        W39021  21.986   2.630   5.069  0.0114 -0.1068  0.2401
32572W        W39022  25.107   1.103  26.626 -0.1278  0.0467 -0.3811
32573W        W39023   0.166   5.877  26.288 -0.2156 -0.3346  0.1659
32574W        W39024  19.827   1.607   3.697 -0.2982  0.1120 -0.0385
32575W        W39025  22.343   3.278   0.180  0.0387 -0.0663 -0.0812
32576W        W39026  11.873   0.129  24.664 -0.1276 -0.2152 -0.0791
32577W        W39027  17.700   3.507  28.778  0.0309 -0.1796 -0.0523
32578W        W39028  23.440   3.135  10.744  0.0530  0.1889 -0.5452
32579W        W39029   3.475   3.824  30.982 -0.1440 -0.0904  0.3591
32580W        W39030   5.181   2.697  20.877 -0.0735  0.0800 -0.1520
32581W        W39031  13.537   3.640  21.143 -0.0709 -0.0006 -0.0477
32582W        W39032   0.990   4.040   3.342 -0.1656 -0.3482 -0.0592
32583W        W39033  18.322   3.541  29.686  0.2865  0.2634  0.1223
32584W        W39034   3.640   0.733  28.038 -0.2288 -0.1204  0.2476
32585W        W39035  20.105   1.101   2.020 -0.1607  0.1873  0.2428
32586W        W39036  15.494   0.325  32.591 -0.0398 -0.0611 -0.0229
32587W        W39037  13.725   6.316   7.401  0.0200  0.0400  0.3517
32588W        W39038  14.927   1.501   7.212  0.1032  0.0345  0.1087
32589W        W39039   8.456   5.054   6.134 -0.0633 -0.0644  0.0922
32590W        W39040  23.113   1.958   7.811 -0.0732  0.1452 -0.1942
32591W        W39041   0.168   1.327  23.434  0.2026  0.1446 -0.0149
32592W        W39042  21.951   4.590  27.509 -0.2346  0.0857 -0.4114
32593W        W39043   6.346   5.249  27.460 -0.0749  0.0279 -0.0564
32594W        W39044  23.783   5.281  31.809  0.0931 -0.0556 -0.0641
32595W        W39045  23.429   1.422  13.875 -0.1406 -0.1294  0.2654
32596W        W39046   4.514   2.395   8.623  0.2768 -0.0714  0.0398
32597W        W39047  10.786   1.537   5.157 -0.0440  0.1641  0.3823
32598W        W39048  16.015   5.260  31.266  0.0255  0.2011  0.0869
32599W        W39049   2.658   4.446   2.862 -0.1938 -0.0145 -0.1981
32600W        W39050  15.957   2.723   9.083  0.0773  0.2007  0.1393
32601W        W39051   4.605   1.481   8.010  0.2806  0.0176  0.1567
32602W        W39052  16.431   1.466  22.733  0.1206  0.2882  0.1942
32603W        W39053   2.593   4.427   0.919  0.2025 -0.1472 -0.0222
32604W        W39054  24.727   1.055  12.125 -0.1144 -0.0887 -0.2446
32605W        W39055   4.999   2.047   4.103 -0.0995  0.2780  0.0109
32606W        W39056  17.093   6.519  13.372 -0.4085 -0.4177 -0.3366
32607W        W39057  24.322   5.232   8.754 -0.1372 -0.1792  0.0009
32608W        W39058   9.081   6.027  32.209 -0.1743  0.2561  0.2778
32609W        W39059  24.129   6.445   2.322 -0.0635 -0.3307  0.0947
32610W        W39060   5.460   6.328  24.251  0.0779 -0.1940 -0.2656
32611W        W39061   2.953   3.412   7.405 -0.3411  0.1840 -0.1901
32612W        W39062  12.322   0.806  15.361 -0.0483  0.0877 -0.2814
32613W        W39063  25.402   5.474  29.012 -0.0240  0.0983 -0.0756
32614W        W39064  11.111   2.743  35.715 -0.0551 -0.0410  0.0371
32615W        W39065  20.269   5.455  35.387  0.3292 -0.1019  0.1959
32616W        W39066  15.282   4.358   7.421 -0.0566 -0.2114 -0.0382
32617W        W39067  11.175   0.326  13.788  0.0850  0.0550 -0.1526
32618W        W39068  22.453   5.005  30.304  0.2562 -0.1664 -0.1129
32619W        W39069  21.797   1.238   6.631  0.0241  0.1603  0.2650
32620W        W39070  11.448   3.825  21.313 -0.0978  0.0299  0.1517
32621W        W39071   3.293   3.454   5.854  0.1525 -0.1981 -0.1371
32622W        W39072   3.201   5.498  22.409 -0.0697 -0.0535 -0.0752
32623W        W39073  17.189   1.864  31.250  0.0602 -0.1893 -0.0518
32624W        W39074  15.751   1.709  25.109 -0.2613 -0.5120  0.1161
32625W        W39075  22.947   1.676   3.688  0.0818 -0.1264  0.0611
32626W        W39076  22.639   0.065  27.427  0.3081 -0.0892 -0.4810
32627W        W39077  20.967   4.516  14.249  0.1470 -0.1187 -0.0991
32628W        W39078  13.528   5.643   6.178  0.0134  0.1465  0.3072
32629W        W39079   4.971   5.590  30.651 -0.1332  0.1420 -0.0793
32630W        W39080  21.556   4.068  12.686  0.0888  0.1076 -0.2509
32631W        W39081  20.989   2.705  29.125  0.1535  0.1584  0.0911
32632W        W39082   3.133   2.612  11.675  0.0582  0.0871  0.0063
32633W        W39083   8.410   4.018  31.528 -0.1940 -0.3257  0.2053
32634W        W39084   2.679   6.354   4.423  0.1959 -0.1463  0.0579
32635W        W39085   0.200   6.375   8.714  0.2355 -0.2124  0.0446
32636W        W39086  14.149   3.053  33.902  0.0820  0.1744  0.5193
32637W        W39087  19.487   0.290  31.356  0.0507 -0.1744 -0.1329
32638W        W39088  11.450   3.214   6.161  0.2894  0.0276 -0.1214
32639W        W39089   3.905   1.773  13.664 -0.0669 -0.1121  0.2282
32640W        W39090   4.048   6.238   6.815  0.4133 -0.2604 -0.0371
32641W        W39091   0.921   5.195  35.753  0.3472 -0.0480  0.3092
32642W        W39092  15.984   1.908   2.559 -0.0124  0.1448 -0.1548
32643W        W39093  23.046   0.256  31.091 -0.0926 -0.1520 -0.1798
32644W        W39094  19.297   6.471  22.309 -0.1228  0.0563  0.1344
32645W        W39095  19.093   3.824   1.017 -0.0466 -0.4388  0.1677
32646W        W39096  19.802   6.243  31.638  0.1804 -0.0776  0.2775
32647W        W39097   6.266   0.286   9.633 -0.1881 -0.2236  0.0331
32648W        W39098   1.195   4.820  32.265 -0.4307  0.2774  0.2436
32649W        W39099  19.970   4.582  24.439 -0.1702  0.1819 -0.1067
32650W        W39100  13.035   3.994   2.971 -0.1038  0.1345  0.1021
32651W        W39101  15.031   3.614  21.182 -0.2565 -0.1965 -0.0417
32652W        W39102  16.411   5.597  21.311 -0.0699 -0.0217  0.0244
32653W        W39103  10.410   4.837  13.537  0.0843  0.0010  0.2720
32654W        W39104  18.757   0.227  12.878 -0.0224 -0.0812 -0.0762
32655W        W39105  11.042   0.482  34.618  0.3052 -0.0004 -0.1870
32656W        W39106   9.395   2.987  33.896  0.0642 -0.1236 -0.2881
32657W        W39107   4.602   0.457  12.994  0.1887 -0.2024  0.0278
32658W        W39108   2.043   5.467   6.506 -0.0953 -0.1337 -0.0681
32659W        W39109  25.754   4.180   5.896  0.0525 -0.0482  0.1103
32660W        W39110  21.436   4.306  30.938  0.1802  0.2366 -0.0535
32661W        W39111   7.506   3.980  31.598 -0.3319  0.0898  0.0288
32662W        W39112   3.809   1.147   9.457  0.1321  0.1591  0.0556
32663W        W39113   4.748   1.821  24.950 -0.0461  0.0020  0.1479
32664W        W39114  23.383   3.003  27.275 -0.2868  0.0279 -0.0449
32665W        W39115  15.431   4.036  28.236  0.1701  0.0510 -0.2153
32666W        W39116   9.850   3.979   5.074 -0.2483 -0.2064 -0.1901
32667W        W39117  17.213   1.255   9.830  0.2871  0.0522  0.0349
32668W        W39118   8.190   3.325  22.907 -0.0260 -0.0836 -0.0820
32669W        W39119  21.977   0.134  28.582  0.2944 -0.1603  0.1251
32670W        W39120   5.879   3.142   3.060  0.1678 -0.0589  0.0588
32671W        W39121  18.939   5.123   7.626  0.0912 -0.0820 -0.3549
32672W        W39122   3.796   2.047  26.513 -0.2447  0.1038  0.2806
32673W        W39123  15.008   5.855   7.972  0.1224 -0.1457  0.0791
32674W        W39124   0.553   3.372  24.002  0.0485  0.1408  0.1209
32675W        W39125   5.238   5.252  34.310 -0.0277  0.0384 -0.2167
32676W        W39126  16.951   5.607  30.628 -0.0608  0.0189  0.0116
32677W        W39127  22.082   3.971  27.217  0.1831  0.0459 -0.0995
32678W        W39128  20.538   4.900   3.859 -0.1152 -0.5591  0.1056
32679W        W39129  19.857   5.218  25.580 -0.0475  0.4444 -0.0580
32680W        W39130  23.278   0.910  11.576 -0.0199  0.2695  0.0368
32681W        W39131  19.060   2.045  29.854  0.1839  0.0125 -0.1196
32682W        W39132   6.664   2.737  13.875  0.0518  0.0030  0.0859
32683W        W39133  22.375   6.299  29.106 -0.0200 -0.0100 -0.1068
32684W        W39134   9.128   3.064  20.981 -0.0961  0.0413 -0.3581
32685W        W39135  13.599   4.882   3.838  0.1984 -0.2154 -0.2043
32686W        W39136  12.440   2.084   1.670  0.2350  0.0741  0.1147
32687W        W39137   8.642   1.291  29.331 -0.0314 -0.0539 -0.1062
32688W        W39138   4.963   2.391  21.332 -0.0998 -0.0371 -0.0191
32689W        W39139   1.416   2.547  35.931 -0.2557  0.1378 -0.2604
32690W        W39140  12.011   0.411  11.008  0.1042  0.2081 -0.5584
32691W        W39141  23.988   5.554   7.228  0.0528  0.0286  0.3365
32692W        W39142  14.123   4.897  27.659 -0.0926  0.3287  0.4364
32693W        W39143  15.192   0.286  35.600 -0.1566  0.0648  0.0289
32694W        W39144  13.455   5.489   3.752 -0.0694 -0.0816 -0.0585
32695W        W39145  26.293   0.618  31.384 -0.4666  0.0043 -0.0589
32696W        W39146  14.877   2.803  22.903  0.2652 -0.0223  0.0462
32697W        W39147   0.680   2.712   0.978  0.0546  0.2431  0.1561
32698W        W39148   4.047   1.233  22.537  0.2260  0.2271 -0.1095
32699W        W39149  17.926   1.859   3.101 -0.0433  0.0407 -0.2570
32700W        W39150  16.604   5.800  31.887 -0.1788  0.2244 -0.0581
32701W        W39151  17.846   2.635   6.326 -0.1697 -0.1261  0.1396
32702W        W39152   2.989   2.411  22.684  0.1215 -0.2680 -0.1153
32703W        W39153  24.405   1.395  10.029 -0.1549 -0.0281 -0.0967
32704W        W39154   9.394   3.753   3.503  0.1978  0.0063  0.1137
32705W        W39155   9.888   0.440  14.184 -0.0156 -0.2884 -0.1727
32706W        W39156  21.102   5.987  14.847  0.2782 -0.1005 -0.5063
32707W        W39157  15.268   1.888   2.610  0.5246 -0.0111 -0.1188
32708W        W39158  18.694   1.291  24.647 -0.1851 -0.2984 -0.1112
32709W        W39159  24.904   1.131   5.406  0.2652 -0.0325 -0.1805
32710W        W39160  13.423   0.354  34.168 -0.2090 -0.4860  0.0258
32711W        W39161  24.031   0.510  31.704  0.2391  0.0673 -0.3039
32712W        W39162  13.696   5.884  14.932 -0.0346  0.2723 -0.1992
32713W        W39163   8.368   4.994   6.742  0.0670 -0.0880 -0.0839
32714W        W39164  23.511   1.637   9.754  0.2195  0.3046 -0.0201
32715W        W39165   8.312   0.194  28.793 -0.0342  0.0182  0.1159
32716W        W39166  25.585   0.183  21.254 -0.5881  0.1753 -0.0184
32717W        W39167  24.589   0.763  24.087 -0.3502 -0.0464  0.0940
32718W        W39168  17.856   2.436   8.942  0.1483  0.2283  0.0645
32719W        W39169  21.625   0.535   6.887 -0.0144 -0.1725  0.1404
32720W        W39170  19.308   5.610  22.042  0.3405  0.1993  0.0282
32721W        W39171   2.171   5.455  15.314 -0.2761  0.0120 -0.0323
32722W        W39172   4.173   1.572   4.113 -0.2135 -0.1243 -0.0790
32723W        W39173   3.665   4.745  25.340 -0.0043  0.0218  0.1705
32724W        W39174   2.131   1.394   3.981 -0.1198 -0.1131 -0.1087
32725W        W39175  13.750   0.451   6.515  0.1467  0.1936 -0.0776
32726W        W39176  19.804   3.477  24.437  0.2770  0.0253  0.2916
32727W        W39177  12.902   4.632  22.316 -0.2446 -0.1723 -0.0688
32728W        W39178  19.851   1.888  30.281  0.5177 -0.0323 -0.3369
32729W        W39179  12.876   1.561  14.629  0.1300 -0.2289  0.1133
32730W        W39180   5.122   3.429  21.225 -0.0028  0.2579  0.0319
32731W        W39181  13.843   2.204  10.524 -0.0304 -0.0784  0.0067
32732W        W39182  16.575   6.380  29.749  0.0359  0.1325  0.0151
32733W        W39183  21.560   2.197   1.678 -0.2147  0.1201 -0.4654
32734W        W39184   9.672   5.279  36.134  0.1557  0.0146  0.0479
32735W        W39185   2.980   3.784  34.326  0.4274 -0.0404  0.0918
32736W        W39186  26.021   5.224  27.731 -0.2696 -0.3368  0.2738
32737W        W39187  17.897   0.439   3.691  0.3527 -0.2915  0.1917
32738W        W39188  24.839   5.910  34.781  0.1696  0.3738 -0.0802
32739W        W39189  21.442   4.030  26.353  0.0510 -0.0317 -0.0556
32740W        W39190  24.622   0.174  30.089  0.1647 -0.1755  0.0388
32741W        W39191  14.026   4.866   2.359 -0.0512  0.0820  0.0091
32742W        W39192  22.983   4.025  36.044  0.0476 -0.1646  0.0853
32743W        W39193   3.022   3.310   9.140 -0.0674  0.1378  0.1625
32744W        W39194  15.880   3.019   1.309 -0.1034  0.0315 -0.1986
32745W        W39195   5.591   2.323  25.040 -0.1147  0.1382  0.0059
32746W        W39196  22.063   2.160  13.992 -0.1754 -0.0092 -0.0720
32747W        W39197   9.328   4.377   8.104  0.0904  0.1700 -0.0938
32748W        W39198  10.287   0.774  15.250 -0.3149  0.2305  0.0049
32749W        W39199  18.097   3.089  25.006 -0.2267  0.0699  0.2211
32750W        W39200   0.137   5.036  22.020 -0.0294 -0.0469 -0.0820
32751W        W39201   5.650   2.327  34.966  0.3921  0.1865  0.3133
32752W        W39202  23.165   2.757   4.711 -0.2361  0.2671 -0.0908
32753W        W39203   1.916   6.552  24.147 -0.1380  0.2047  0.0487
32754W        W39204  24.778   0.483  21.282 -0.0305 -0.4982  0.0063
32755W        W39205  25.115   2.289   9.946 -0.1074  0.2098  0.0037
32756W        W39206  17.483   1.849   4.806  0.0518 -0.0705 -0.0276
32757W        W39207  21.547   5.288  35.911 -0.0411  0.1597  0.0536
32758W        W39208   0.107   1.752   6.113 -0.2986  0.0188  0.1666
32759W        W39209  11.990   2.953  11.020 -0.2057  0.2646 -0.0940
32760W        W39210  11.085   2.901   0.021  0.2206  0.0105  0.0384
32761W        W39211  18.533   4.485   0.608 -0.0784  0.0870 -0.1076
32762W        W39212   8.810   0.263  22.521 -0.2850 -0.2125 -0.0248
32763W        W39213  10.715   3.583   7.975  0.1599  0.0758 -0.0575
32764W        W39214  22.336   5.645   7.388 -0.0334  0.0699  0.1110
32765W        W39215  17.282   4.954  34.665  0.2286  0.1530  0.3048
32766W        W39216   8.407   3.631  23.983  0.0129  0.0742 -0.0785
32767W        W39217  17.919   1.419   2.816 -0.1017  0.1179  0.0943
32768W        W39218   2.071   5.712  35.996 -0.0006 -0.0085  0.3119
32769W        W39219  22.703   1.197  10.590 -0.1049  0.0712  0.3634
32770W        W39220  17.652   5.133   4.190 -0.2164 -0.0032 -0.1521
32771W        W39221  24.595   0.052  21.093  0.1251  0.0159  0.0815
32772W        W39222  16.249   4.210  23.875 -0.1648 -0.1803  0.1148
32773W        W39223  10.365   3.280  28.838  0.2049  0.0794 -0.0094
32774W        W39224   9.900   4.586  28.179  0.1205  0.0858  0.2396
32775W        W39225  20.436   5.577  13.555 -0.1398  0.1271  0.1999
32776W        W39226  19.636   0.079  33.687  0.0779 -0.1131 -0.1800
32777W        W39227  14.163   0.224  31.493  0.1551 -0.1566 -0.1293
32778W        W39228  14.488   2.232  23.517  0.0306  0.1508 -0.0554
32779W        W39229  25.573   6.138  32.968  0.0978  0.1254  0.0587
32780W        W39230   6.705   3.265  13.765 -0.0897  0.1119 -0.2615
32781W        W39231   9.068   0.884   1.362 -0.0037 -0.0114  0.1074
32782W        W39232  20.546   2.871  33.071  0.0637 -0.0267  0.1212
32783W        W39233  12.333   2.139   7.067 -0.2491  0.1767 -0.0755
32784W        W39234  22.508   4.978  23.523  0.0049  0.2950  0.1141
32785W        W39235  26.333   0.394  24.474  0.2656 -0.0921  0.2270
32786W        W39236   4.107   1.107  14.928  0.1167 -0.0865 -0.1242
32787W        W39237  16.892   1.329  22.614 -0.1138  0.1548  0.0360
32788W        W39238   7.193   6.259  29.386  0.1776  0.0492  0.1220
32789W        W39239   9.697   5.780  36.020  0.1119  0.3327 -0.2173
32790W        W39240  24.480   1.843  29.061  0.1914 -0.2023  0.0835
32791W        W39241   6.729   3.987  22.273 -0.0909  0.1247  0.0741
32792W        W39242   0.280   2.148  24.870  0.1050 -0.1825  0.0776
32793W        W39243  17.007   0.294  27.037 -0.0194  0.0287 -0.1909
32794W        W39244  24.071   0.168  14.499  0.0902  0.0155 -0.1514
32795W        W39245  15.694   0.287  12.834  0.0004  0.1617  0.0253
32796W        W39246   9.444   3.904  34.223  0.0564 -0.1253  0.1135
32797W        W39247  19.994   5.419  25.057 -0.0850  0.3972  0.3803
32798W        W39248  10.962   3.845  30.712 -0.0902 -0.1032 -0.1189
32799W        W39249  23.738   5.237   9.018  0.0663  0.2776  0.0693
32800W        W39250  15.477   5.092   7.000 -0.3775  0.0429 -0.0927
32801W        W39251  23.586   5.478  25.549  0.1450 -0.2197  0.0172
32802W        W39252  18.280   4.957  14.261 -0.1543  0.2499  0.1747
32803W        W39253  13.992   3.496  26.219 -0.1118 -0.0984 -0.0171
32804W        W39254   7.346   3.843  33.411  0.1738  0.2389  0.1340
32805W        W39255  17.309   5.282  23.404  0.1814 -0.0584 -0.0056
32806W        W39256  14.306   0.978  29.192 -0.0768  0.0406  0.1906
32807W        W39257   1.012   1.613  25.357  0.2195  0.0259  0.3984
32808W        W39258  23.391   5.155  28.660  0.2449  0.2439  0.2190
32809W        W39259  25.412   3.977  21.736 -0.2148  0.1717 -0.0791
32810W        W39260  19.654   0.583  23.291  0.1423  0.1454 -0.0144
32811W        W39261  11.589   2.599  35.561  0.2049  0.0590  0.3578
32812W        W39262  10.109   4.424  12.951 -0.1127  0.1536 -0.0815
32813W        W39263  19.456   0.880  13.898  0.4183 -0.0641  0.1132
32814W        W39264  17.225   6.395   3.399 -0.1217 -0.0864  0.2286
32815W        W39265  26.033   5.266  29.705  0.2836  0.0093 -0.2808
32816W        W39266  17.210   0.936   3.994 -0.0422 -0.1410  0.3153
32817W        W39267  12.274   1.918   4.911  0.1587  0.2092 -0.1412
32818W        W39268   0.749   0.195  29.676  0.0396 -0.1211 -0.0427
32819W        W39269   1.830   3.034  31.177 -0.1877  0.3998  0.1871
32820W        W39270  24.296   4.297  35.292  0.4447 -0.0522  0.1912
32821W        W39271   5.087   1.422   3.101 -0.1485 -0.0765  0.0295
32822W        W39272  15.637   2.199   6.043 -0.0100  0.2101  0.4675
32823W        W39273  11.346   6.131   3.930 -0.0476  0.2062  0.2510
32824W        W39274  12.359   4.370   9.999  0.0063 -0.0478  0.1740
32825W        W39275   4.742   5.075  32.124 -0.0819 -0.0102 -0.1605
32826W        W39276  25.052   3.412  14.076 -0.2462  0.1145 -0.0206
32827W        W39277   8.929   2.652  34.069 -0.1682  0.0870  0.2544
32828W        W39278   0.293   5.017   8.695 -0.0460  0.0244 -0.0770
32829W        W39279   3.390   2.913   7.151  0.1117 -0.0171 -0.1907
32830W        W39280   5.346   2.802  34.546 -0.0238  0.0892  0.0468
32831W        W39281  13.847   4.085   8.564 -0.1006  0.3979  0.0640
32832W        W39282   1.010   3.571  24.770  0.0049  0.2086  0.0263
32833W        W39283   3.141   0.363   0.754  0.0380 -0.1227  0.1029
32834W        W39284   4.665   3.457   0.512  0.0433  0.2098 -0.0533
32835W        W39285  15.343   1.538  22.933 -0.2153 -0.2953  0.0112
32836W        W39286  10.691   5.937  25.755  0.3479  0.0108  0.2036
32837W        W39287  16.767   0.135  22.588  0.1444  0.1981 -0.0817
32838W        W39288  18.316   4.242   0.215  0.1378  0.0628  0.2460
32839W        W39289  21.909   6.532  29.680 -0.0482  0.0486  0.0096
32840W        W39290  18.789   3.014  35.340 -0.0908 -0.2663  0.0329
32841W        W39291  23.799   5.152  32.411 -0.1281 -0.0617  0.1515
32842W        W39292   4.155   0.370  33.530  0.2695  0.0121  0.0295
32843W        W39293  18.806   0.454   0.149  0.1426 -0.0766  0.0210
32844W        W39294   8.575   5.739  31.102  0.0857  0.2567  0.0511
32845W        W39295   4.637   2.994   0.351 -0.1172  0.0950 -0.4214
32846W        W39296  13.983   2.469   3.278  0.2297 -0.0611  0.2771
32847W        W39297   9.901   5.014  21.829 -0.0009 -0.1761 -0.0524
32848W        W39298   3.018   5.216  34.651  0.1384  0.2917  0.0440
32849W        W39299  13.929   4.749   6.319  0.0803 -0.1571 -0.1282
32850W        W39300  15.496   3.329   9.786 -0.0575 -0.1608 -0.0608
32851W        W39301  22.932   1.288   8.969 -0.1347 -0.1068  0.2449
32852W        W39302  22.914   3.257  30.326 -0.0418  0.3357 -0.0543
32853W        W39303  25.493   3.891   5.087  0.1023  0.1334  0.1734
32854W        W39304  16.985   4.752  10.260 -0.1866  0.1591  0.0952
32855W        W39305  24.274   5.081   7.337 -0.1328  0.0437 -0.1453
32856W        W39306   2.189   4.418   0.480  0.0204  0.0857 -0.0537
32857W        W39307  12.615   1.041  14.811 -0.0733  0.0773 -0.2482
32858W        W39308  15.592   1.905  28.727 -0.1344  0.1143 -0.0169
32859W        W39309  14.538   2.169  15.403  0.0103 -0.1088  0.0852
32860W        W39310   6.420   5.247  12.565 -0.0505  0.2802 -0.0322
32861W        W39311  20.597   4.444  29.867 -0.0967  0.1729  0.0363
32862W        W39312  18.944   5.002  30.051  0.0880  0.0686  0.1698
32863W        W39313  23.616   4.215   8.015 -0.0595 -0.0532 -0.2527
32864W        W39314  16.112   5.068  11.524  0.1539 -0.0459 -0.1673
32865W        W39315   7.126   2.476  14.292 -0.2771 -0.1164  0.2026
32866W        W39316   7.336   5.403  34.741  0.1114  0.1303 -0.0571
32867W        W39317  15.779   0.513  25.022 -0.0429 -0.1797 -0.2197
32868W        W39318  14.199   3.072  24.557  0.1005  0.1385  0.2399
32869W        W39319   8.050   5.434  11.740 -0.0499  0.3054 -0.2299
32870W        W39320  17.619   2.029   9.735  0.0648  0.1379 -0.0356
32871W        W39321   6.215   6.255  10.406  0.1255  0.0924  0.0267
32872W        W39322   8.178   1.617  12.538 -0.0293  0.1392  0.1011
32873W        W39323  19.665   1.092  31.873  0.2672 -0.1341  0.0050
32874W        W39324  11.735   5.715   0.330 -0.0192  0.1247 -0.0833
32875W        W39325  23.025   0.490  10.935 -0.0320  0.1918 -0.3498
32876W        W39326   2.209   2.665  14.884  0.1872  0.0420 -0.1962
32877W        W39327  25.702   1.704   3.187  0.1710 -0.3721 -0.3796
32878W        W39328  25.660   2.262  23.446  0.1753  0.0886 -0.0817
32879W        W39329  13.937   3.545  24.897  0.4437  0.4322 -0.0286
32880W        W39330  12.145   0.618  20.903  0.1275  0.1773 -0.2092
32881W        W39331   5.541   2.724  21.995 -0.0491 -0.1002  0.1015
32882W        W39332  18.917   1.004   5.618  0.1998 -0.0904 -0.0712
32883W        W39333  19.627   0.230  35.141 -0.0248  0.0379  0.1938
32884W        W39334   8.857   0.910   9.963  0.2215  0.1211  0.0536
32885W        W39335   8.832   6.094  13.147 -0.0678  0.1907 -0.2600
32886W        W39336   8.071   5.584  21.409 -0.0169 -0.2653 -0.1861
32887W        W39337  25.587   6.007   6.074 -0.2744 -0.1120 -0.4954
32888W        W39338  25.858   4.630  23.545 -0.2587 -0.1293  0.1669
32889W        W39339  19.064   5.398   5.584  0.0841  0.0036  0.1753
32890W        W39340   0.721   2.592  14.921  0.0800 -0.0413 -0.1991
32891W        W39341   9.366   1.233   9.821 -0.2605 -0.0853 -0.1791
32892W        W39342  21.354   0.632  15.450  0.1519  0.4981 -0.0774
32893W        W39343   7.576   6.484   5.188 -0.3062 -0.0382  0.0463
32894W        W39344  19.227   5.975   1.003 -0.3808 -0.0639 -0.0203
32895W        W39345  25.246   4.238   2.229  0.0400 -0.2141 -0.2433
32896W        W39346  21.976   5.045  19.958  0.2107 -0.1330  0.1598
32897W        W39347   6.654   2.835   5.226 -0.0217 -0.1032  0.0280
32898W        W39348   2.495   1.322   0.676  0.0062 -0.2153  0.1381
32899W        W39349  12.864   3.153  35.422  0.2323 -0.0914 -0.2131
32900W        W39350  10.366   3.609   2.655 -0.0209 -0.1917 -0.1581
32901W        W39351   0.629   2.271  31.906 -0.0679 -0.1956  0.4599
32902W        W39352  19.465   0.026  35.664 -0.1849 -0.0306  0.0522
32903W        W39353  13.711   6.192  27.546  0.0263  0.1591 -0.2817
32904W        W39354  18.495   3.851  30.665  0.1487  0.1864 -0.1595
32905W        W39355   2.686   3.004  13.039  0.0180 -0.0242  0.1580
32906W        W39356   1.307   0.148  11.957 -0.1638  0.0447 -0.0271
32907W        W39357   1.903   1.916  30.472  0.0070  0.0565 -0.1454
32908W        W39358  17.565   5.381   3.768  0.3306  0.0509  0.2141
32909W        W39359  12.938   1.132  34.449  0.1841  0.0131  0.0585
32910W        W39360  12.779   1.760   1.496 -0.1335 -0.0428  0.0914
32911W        W39361   0.713   2.911  24.019 -0.0216 -0.2459  0.2752
32912W        W39362   5.816   1.196   5.799  0.0670 -0.0801 -0.2604
32913W        W39363   2.382   0.852  10.452 -0.1139  0.1056 -0.1484
32914W        W39364  12.303   3.762   0.228 -0.0621  0.0525  0.0106
32915W        W39365   4.934   2.064  22.728 -0.0248 -0.0219 -0.0305
32916W        W39366   4.514   3.120   5.881 -0.2364 -0.0226  0.2998
32917W        W39367  17.470   4.774   1.229  0.1028  0.2549 -0.0989
32918W        W39368  13.251   3.922  24.238  0.0041 -0.3997  0.2127
32919W        W39369  24.008   5.735  14.277  0.0921  0.4480 -0.4192
32920W        W39370   7.000   1.462  31.162  0.1393  0.2119 -0.1792
32921W        W39371   3.638   2.517   7.174  0.0214  0.3000  0.0455
32922W        W39372   8.285   2.572  25.673  0.3630 -0.1571 -0.0492
32923W        W39373  21.544   5.886   8.449 -0.0561 -0.1236 -0.2264
32924W        W39374   7.784   4.695  29.255  0.0576 -0.2683  0.1110
32925W        W39375  14.588   0.434  12.660  0.2822  0.1296 -0.0844
32926W        W39376  10.112   1.254  33.266 -0.1446  0.0042 -0.1924
32927W        W39377  23.226   0.836  34.814 -0.1813  0.1775 -0.2156
32928W        W39378  19.865   3.689  22.445  0.2438 -0.0800 -0.2514
32929W        W39379  16.944   2.516   8.528  0.1851  0.1345 -0.2035
32930W        W39380  24.902   5.645   1.395  0.2826  0.1633 -0.1244
32931W        W39381   0.752   3.810   7.511 -0.0053  0.1335 -0.1831
32932W        W39382  19.976   4.735  25.426 -0.1562 -0.0596  0.1496
32933W        W39383   7.613   2.698  35.593 -0.0872  0.3179  0.1371
32934W        W39384   0.330   0.217  15.057  0.0102 -0.0579 -0.0188
32935W        W39385   7.654   4.938  28.594 -0.2324 -0.0500  0.0142
32936W        W39386   0.181   2.848   0.833  0.0649  0.1730  0.0036
32937W        W39387   0.884   4.724  13.780 -0.1818 -0.0813  0.0573
32938W        W39388  25.554   0.761   5.251 -0.0634 -0.0759 -0.0826
32939W        W39389  17.556   4.276  32.362 -0.1715  0.1978  0.2302
32940W        W39390  22.740   3.518  21.974 -0.0854  0.3397 -0.2226
32941W        W39391   3.352   4.503   4.124 -0.1328 -0.0953 -0.0846
32942W        W39392   1.433   2.549  11.534  0.1226 -0.0586 -0.2814
32943W        W39393   4.438   1.966   7.183  0.1919  0.2000  0.3350
32944W        W39394  20.274   3.920   0.302  0.2207 -0.2315  0.2684
32945W        W39395   0.233   2.332   1.622 -0.0436  0.1312 -0.1912
32946W        W39396   0.608   3.714  23.666  0.0357 -0.1341 -0.1212
32947W        W39397  16.050   0.889  26.077  0.1316  0.0266 -0.0906
32948W        W39398  17.633   0.787  36.012 -0.1952 -0.0185  0.0447
32949W        W39399   5.165   0.088   0.413 -0.0826  0.1884  0.0941
32950W        W39400  15.970   6.560   2.769 -0.1588 -0.0390  0.2385
32951W        W39401  22.420   0.078   8.539 -0.0330 -0.1868  0.2873
32952W        W39402  14.571   6.443   2.253  0.4254 -0.1352  0.0007
32953W        W39403   2.854   1.181   3.085 -0.2992  0.1696 -0.1001
32954W        W39404  26.254   5.263   7.603  0.1752  0.1020 -0.0114
32955W        W39405   6.392   1.445  26.310  0.0830  0.1091 -0.0221
32956W        W39406  11.155   1.062  32.906 -0.0603  0.0343  0.3461
32957W        W39407  11.486   0.235   8.663 -0.0851 -0.1978  0.0504
32958W        W39408  23.294   0.347  33.116 -0.1076  0.0435 -0.0740
32959W        W39409  23.289   6.028  32.328  0.1893  0.1318  0.0094
32960W        W39410  11.142   1.612  10.053 -0.3206  0.1653 -0.1595
32961W        W39411  19.116   0.674   9.467  0.1026  0.1326  0.0658
32962W        W39412  18.470   0.456   8.519  0.1497 -0.1130 -0.0226
32963W        W39413   3.693   2.428  28.462 -0.0418  0.0281 -0.2057
32964W        W39414   6.889   5.295  30.578  0.1984 -0.0499 -0.1241
32965W        W39415  15.282   4.465  27.037 -0.0909 -0.3646  0.1698
32966W        W39416  20.899   2.278  11.698 -0.0470 -0.1664 -0.2241
32967W        W39417   9.156   4.267   6.422 -0.2053 -0.1405 -0.2864
32968W        W39418  13.565   4.632   2.470  0.4240 -0.0906  0.0478
32969W        W39419  14.847   2.618  21.441 -0.2973  0.4070 -0.0993
32970W        W39420   7.022   1.717  28.424 -0.0507  0.0973  0.2360
32971W        W39421  25.692   3.028   6.491  0.0074 -0.1017 -0.0969
32972W        W39422   5.654   6.424  11.361 -0.0546  0.2224  0.0200
32973W        W39423  26.399   5.949  27.574 -0.1183  0.0657 -0.1433
32974W        W39424   8.874   6.578  10.355 -0.1113 -0.2220  0.0531
32975W        W39425  22.563   0.440   5.701  0.1064  0.0873 -0.1381
32976W        W39426  23.360   2.283   5.537  0.1361 -0.0908 -0.2192
32977W        W39427  11.364   4.120   7.607  0.0726 -0.1174 -0.0845
32978W        W39428  17.721   4.997  25.643 -0.2985 -0.0236 -0.3237
32979W        W39429  14.557   4.601   8.912  0.0153  0.1673  0.2484
32980W        W39430   5.880   6.277   8.167  0.0028  0.1166 -0.4243
32981W        W39431  15.584   5.559  15.418  0.1251  0.0656  0.2769
32982W        W39432  13.811   2.771  15.075 -0.3258  0.0826  0.1381
32983W        W39433  12.035   3.488  31.227  0.0194  0.0258  0.1771
32984W        W39434   0.447   5.380   3.452 -0.1417 -0.1537 -0.0618
32985W        W39435   1.784   4.995  33.513 -0.0302 -0.0971 -0.2733
32986W        W39436   4.417   5.853  13.829  0.0181 -0.0963  0.0791
32987W        W39437   5.731   5.163  31.130  0.0411  0.1700 -0.0947
32988W        W39438   3.170   3.829  29.677 -0.0966 -0.1793  0.4798
32989W        W39439  11.080   5.486  29.746  0.0638 -0.0844  0.0784
32990W        W39440   8.967   4.456  29.222  0.0762  0.1535 -0.0870
32991W        W39441  19.206   5.330  21.182  0.1159 -0.0639 -0.0314
32992W        W39442  15.403   2.388   6.899 -0.1250 -0.0143 -0.0904
32993W        W39443  15.868   1.971  15.539  0.3063  0.0007  0.2090
32994W        W39444  25.060   4.997  31.836  0.0427 -0.2690 -0.1234
32995W        W39445  13.069   4.838   6.278  0.0213 -0.0180  0.0641
32996W        W39446   3.420   0.546   6.598 -0.1656 -0.1279  0.1693
32997W        W39447  20.688   3.052  23.415  0.0376  0.4010  0.0406
32998W        W39448  19.499   2.229  30.004  0.1519 -0.1859  0.1640
32999W        W39449   8.036   5.868  35.312 -0.1609 -0.0060  0.4662
33000W        W39450   2.653   5.353  29.682 -0.4266 -0.2369  0.2979
33001W        W39451  14.136   1.833   6.796  0.0137  0.4037  0.0943
33002W        W39452   7.961   6.359  29.956 -0.2196 -0.2251  0.0354
33003W        W39453   3.715   3.740  12.095 -0.2343  0.1555 -0.0765
33004W        W39454  18.269   0.066   3.553 -0.1995  0.0646 -0.0039
33005W        W39455  12.619   0.835  29.152  0.0310 -0.2521  0.2835
33006W        W39456  16.644   4.885  14.074 -0.1489 -0.1329  0.3539
33007W        W39457  25.744   5.438   0.923  0.1263 -0.2391  0.0051
33008W        W39458   7.409   1.915  10.983 -0.1498 -0.0938 -0.0376
33009W        W39459   1.925   6.197   8.464  0.1113 -0.0822  0.0846
33010W        W39460   4.162   6.551   6.392  0.0697 -0.0977 -0.1054
33011W        W39461   4.663   2.677   5.634 -0.3880 -0.4410  0.1028
33012W        W39462  22.073   2.265  22.599 -0.2785 -0.1313  0.0782
33013W        W39463  14.524   6.346  30.952 -0.0529  0.1412 -0.3411
33014W        W39464  20.043   1.720  35.463  0.2962 -0.1204 -0.1980
33015W        W39465  20.986   4.430  21.746 -0.1586 -0.0894 -0.1345
33016W        W39466   3.267   4.747  26.929 -0.1475 -0.0232 -0.1545
33017W        W39467   4.657   0.645  27.520  0.2909  0.1957  0.0849
33018W        W39468   9.690   2.547  22.259 -0.2837 -0.0365 -0.1176
33019W        W39469  20.132   1.099  36.020 -0.0206 -0.0414  0.1131
33020W        W39470  18.812   6.259  24.001 -0.2288  0.0311  0.0891
33021W        W39471  23.815   1.097  32.157  0.2805  0.2174  0.0325
33022W        W39472  23.978   6.148  24.658  0.2016 -0.0643 -0.0186
33023W        W39473  17.295   4.656   2.907  0.1105 -0.1135  0.2594
33024W        W39474  20.644   1.650   7.655 -0.0603 -0.0693  0.0554
33025W        W39475   2.387   5.026  23.938 -0.3250  0.2582 -0.1631
33026W        W39476   3.215   2.637   6.243  0.1047  0.3114 -0.0280
33027W        W39477  22.776   5.900   1.023  0.1381 -0.2858 -0.1339
33028W        W39478  12.844   4.384  35.163  0.2940  0.2722  0.2431
33029W        W39479  17.531   5.440  21.232  0.0507  0.2775  0.2657
33030W        W39480   5.681   5.804  24.064  0.3277 -0.2001  0.0235
33031W        W39481  19.460   3.265  10.654  0.0008  0.0588  0.2049
33032W        W39482   0.647   3.378   4.956  0.0258  0.0307 -0.4966
33033W        W39483  26.066   2.081  26.723 -0.0167 -0.3670 -0.2468
33034W        W39484   7.512   1.104   3.028 -0.0723 -0.1541  0.0756
33035W        W39485   2.116   1.049  15.802  0.1875  0.2889  0.1081
33036W        W39486  15.941   3.566  22.652  0.2056 -0.1648 -0.0349
33037W        W39487  26.103   5.335   6.174  0.1962 -0.0003 -0.0895
33038W        W39488  20.749   3.925  14.361 -0.0073  0.1279 -0.1637
33039W        W39489  19.281   2.543   5.004 -0.2418 -0.0718  0.1352
33040W        W39490  10.209   5.452  33.780  0.1070 -0.0380 -0.0675
33041W        W39491  10.643   0.860  33.674 -0.1026  0.2766 -0.5918
33042W        W39492   3.683   2.589  33.240 -0.1659 -0.2547  0.2457
33043W        W39493  10.026   2.457  25.855 -0.0973 -0.1547 -0.2292
33044W        W39494   1.267   5.853   2.384  0.1751  0.0159  0.1392
33045W        W39495  13.538   5.641  22.460  0.3250  0.0012  0.1556
33046W        W39496  21.900   2.183  32.467  0.1515  0.2427 -0.0095
33047W        W39497   2.753   4.742  28.864 -0.0774  0.0468  0.2661
33048W        W39498  16.089   2.441   8.170 -0.0815  0.2019  0.1038
33049W        W39499  23.101   0.778  32.923 -0.0170  0.1102 -0.0106
33050W        W39500  21.612   4.669  21.241  0.1708 -0.0960  0.0289
33051W        W39501   6.347   5.757  21.091 -0.0817  0.1262 -0.1533
33052W        W39502   6.608   3.150   0.070 -0.1761 -0.0717  0.1566
33053W        W39503  24.007   1.410  35.009  0.1973 -0.0566 -0.2068
33054W        W39504  11.824   4.049  20.008  0.1659  0.1525 -0.1287
33055W        W39505   8.916   2.145  24.529 -0.1292 -0.1626 -0.0872
33056W        W39506  20.538   2.034  33.561 -0.3148  0.2211  0.0089
33057W        W39507   0.627   6.371   1.894 -0.1552  0.2225 -0.0157
33058W        W39508   6.841   4.249  32.843 -0.4220  0.0890  0.1372
33059W        W39509   1.343   4.456  32.693  0.0576  0.0664  0.1857
33060W        W39510  24.390   5.049   0.846 -0.0596 -0.3020  0.0124
33061W        W39511  17.776   2.094  35.055  0.1297  0.0753 -0.3058
33062W        W39512   5.397   2.792  30.945 -0.2506 -0.0255 -0.0183
33063W        W39513   2.170   1.584  25.893  0.0877 -0.1275 -0.0856
33064W        W39514  12.744   1.746  29.412 -0.1922  0.2746 -0.2289
33065W        W39515   7.444   1.411  33.850 -0.2109 -0.1833  0.0485
33066W        W39516   1.563   0.883  31.742 -0.0453  0.1614 -0.0062
33067W        W39517  16.270   0.220  15.272 -0.0513  0.1267  0.0508
33068W        W39518   0.927   5.218   1.070  0.0530  0.0944  0.2153
33069W        W39519   0.637   6.147   9.151 -0.1060  0.0305  0.0603
33070W        W39520  25.585   6.027   9.470  0.0559 -0.1486  0.0485
33071W        W39521   7.982   0.618  23.839 -0.0686  0.1168  0.2487
33072W        W39522  12.250   2.032   2.536 -0.3629  0.0883 -0.3071
33073W        W39523   6.805   2.457   2.385  0.1957  0.2831  0.0751
33074W        W39524   6.334   3.849  21.768 -0.0559 -0.0992 -0.0780
33075W        W39525  19.474   6.216  23.175 -0.2227  0.5114 -0.1244
33076W        W39526  21.026   5.943   8.090  0.1416  0.0169  0.0365
33077W        W39527  21.536   3.905  11.288  0.1168 -0.3011  0.2126
33078W        W39528   3.386   0.365  28.274 -0.1074 -0.0765 -0.0214
33079W        W39529  15.084   4.493  22.495 -0.0751  0.0296 -0.0066
33080W        W39530   3.186   1.908  32.985 -0.2388  0.1075  0.0590
33081W        W39531  22.172   5.294   9.030 -0.1234  0.0073  0.0803
33082W        W39532   3.641   6.499  15.548 -0.0745 -0.1878 -0.1006
33083W        W39533   2.341   5.137   8.152 -0.0999 -0.0014  0.2408
33084W        W39534  25.505   2.384   7.229  0.1206  0.3424  0.2404
33085W        W39535  25.717   0.690   8.980 -0.0281 -0.4157  0.4537
33086W        W39536  11.083   1.154  13.119 -0.0408  0.2410 -0.0093
33087W        W39537  14.196   2.997  10.839  0.0024 -0.0915  0.3429
33088W        W39538  16.597   4.008  22.536  0.2946 -0.2693  0.1796
33089W        W39539  14.863   4.010  30.033  0.3751 -0.2372 -0.0305
33090W        W39540   9.291   1.293   8.171  0.2848 -0.2939  0.0505
33091W        W39541  13.778   3.717  12.158 -0.0691 -0.2333 -0.0194
33092W        W39542  23.291   6.513  30.134  0.2595 -0.1132 -0.1048
33093W        W39543   7.084   5.253  20.998 -0.1537 -0.1144 -0.1780
33094W        W39544  16.960   6.127   7.329 -0.1280  0.1935  0.0722
33095W        W39545   0.562   3.863   1.093 -0.0612 -0.0702  0.1397
33096W        W39546  25.720   6.013  12.670  0.0627 -0.1191  0.0223
33097W        W39547  23.336   1.234  29.123  0.0297  0.0320 -0.2574
33098W        W39548   6.583   1.604   0.996 -0.0900  0.0598  0.1776
33099W        W39549   8.060   2.292   2.763 -0.1929 -0.0481  0.2051
33100W        W39550  16.387   2.070  34.781 -0.1902 -0.0797 -0.0476
33101W        W39551  14.536   4.225  28.854 -0.0847  0.0633  0.0714
33102W        W39552   2.717   5.488   0.995 -0.1406  0.3185  0.1335
33103W        W39553  23.529   0.170   6.242 -0.0282 -0.0124 -0.0199
33104W        W39554   3.934   5.254  14.915 -0.1657 -0.1039  0.1915
33105W        W39555  16.164   6.101  34.902 -0.0707  0.1932 -0.0699
33106W        W39556  25.123   3.248  32.709 -0.1826 -0.0102  0.4997
33107W        W39557  16.622   5.160  10.451 -0.1069 -0.2266  0.1859
33108W        W39558  11.089   4.609  33.178  0.0177  0.1338  0.0523
33109W        W39559  10.149   0.273  21.066 -0.0158 -0.1884 -0.1612
33110W        W39560  12.227   2.478  26.540 -0.3919 -0.2377  0.2104
33111W        W39561  10.359   0.455  27.801  0.2376  0.1169 -0.1996
33112W        W39562   1.183   2.639  33.819 -0.0406 -0.1796  0.1485
33113W        W39563   8.795   5.424   8.526 -0.0826  0.2501  0.0188
33114W        W39564  16.027   6.585  22.949 -0.0263 -0.0338 -0.0136
33115W        W39565   3.077   0.762   1.057  0.0136 -0.3101 -0.2420
33116W        W39566  11.739   0.856  27.796  0.1536  0.1012  0.2105
33117W        W39567  13.677   0.121   7.068  0.1979  0.0824  0.0647
33118W        W39568   8.452   3.841  24.437  0.0519  0.0444 -0.0385
33119W        W39569   5.033   5.582  24.622 -0.0711 -0.0666 -0.0889
33120W        W39570  20.358   1.108   4.269  0.0279  0.0266  0.2597
33121W        W39571   2.747   4.123   2.492  0.0526  0.2347 -0.1998
33122W        W39572  12.334   1.502  21.472 -0.0060  0.2048 -0.1197
33123W        W39573  15.451   3.543   3.344 -0.1258  0.3290 -0.1601
33124W        W39574  24.422   0.162  21.553  0.0835  0.2019  0.0441
33125W        W39575  22.428   3.946   7.292  0.0504 -0.2417 -0.3362
33126W        W39576  25.716   4.271   1.294 -0.0437  0.2010  0.0628
33127W        W39577  19.238   2.689   3.422 -0.0544  0.2448 -0.1897
33128W        W39578  10.163   0.255  23.844  0.1542  0.1360 -0.0861
33129W        W39579   5.972   4.369  13.406 -0.0400  0.1437  0.0356
33130W        W39580  15.328   4.658  31.765 -0.1991 -0.0354  0.0767
33131W        W39581  20.004   4.886  33.446 -0.1287 -0.1175  0.0485
33132W        W39582   5.611   2.994   9.196 -0.2196 -0.0960 -0.0128
33133W        W39583  18.702   4.947  12.079 -0.0363 -0.2429  0.0979
33134W        W39584  24.313   5.144  33.781 -0.0018 -0.0359 -0.0484
33135W        W39585   7.479   4.162   5.711  0.0121  0.1382  0.2347
33136W        W39586  20.092   4.639  22.501  0.3786  0.1350  0.0150
33137W        W39587   1.439   0.699  10.310  0.0534  0.1718 -0.1856
33138W        W39588   8.264   0.137   7.067 -0.0322 -0.3333 -0.1031
33139W        W39589   7.208   5.847  21.416 -0.1926 -0.1493 -0.1490
33140W        W39590  15.512   6.106  26.240 -0.3183 -0.0048 -0.0088
33141W        W39591  21.062   3.224  25.959 -0.2825 -0.0850 -0.0703
33142W        W39592  18.260   0.003  35.134  0.1312  0.2671  0.4191
33143W        W39593  24.407   1.154  32.930 -0.1422  0.0070 -0.0765
33144W        W39594   9.119   1.584  30.113 -0.2295  0.1103  0.1589
33145W        W39595  14.172   6.010   8.920 -0.0533  0.0075 -0.3405
33146W        W39596  23.990   0.258  10.562  0.2941  0.1813 -0.1482
33147W        W39597  19.274   1.370   2.195 -0.0590 -0.0508 -0.0664
33148W        W39598   8.185   1.159   3.673 -0.2130 -0.0604 -0.1701
33149W        W39599   6.162   0.590  27.893 -0.5218 -0.0350 -0.0677
33150W        W39600  13.075   0.072  27.575  0.0615 -0.0148  0.0103
33151W        W39601   6.917   4.280   2.601 -0.1574 -0.1186  0.0371
33152W        W39602   6.913   1.112  28.592  0.2241 -0.1922  0.1019
33153W        W39603  16.146   4.240  34.027 -0.1690  0.0703  0.0296
33154W        W39604  13.010   2.075  33.911  0.0728  0.2749 -0.1818
33155W        W39605   7.580   4.659  31.591 -0.2700  0.0951  0.1824
33156W        W39606   8.673   6.059   1.376 -0.2927  0.0061 -0.1805
33157W        W39607  25.437   0.574   1.314 -0.3168  0.1752 -0.2584
33158W        W39608   2.075   1.166  12.413  0.0912 -0.2416 -0.0231
33159W        W39609   1.496   2.936  21.215  0.1442  0.0951 -0.0355
33160W        W39610   3.653   2.923  24.878  0.2908  0.3177 -0.0915
33161W        W39611   4.063   5.287  35.601 -0.0871  0.0958  0.1009
33162W        W39612  21.507   5.379   4.691  0.1504  0.1282 -0.2012
33163W        W39613  15.931   5.953  26.517 -0.0733 -0.1525  0.1239
33164W        W39614   5.903   6.290  14.762  0.0344 -0.2991  0.1177
33165W        W39615  13.006   6.053   7.009  0.1941 -0.3863  0.0882
33166W        W39616  11.032   6.082  31.380 -0.2128  0.0616 -0.1252
33167W        W39617  17.067   1.536  13.804 -0.1820  0.1827 -0.2162
33168W        W39618   8.010   2.063  11.619  0.0713  0.0428 -0.0183
33169W        W39619  11.872   4.496   4.038  0.0984  0.0343  0.3986
33170W        W39620  19.670   5.655  25.359  0.1350 -0.1532 -0.0737
33171W        W39621  20.246   6.452  35.437 -0.1274 -0.0714  0.3079
33172W        W39622   7.504   1.844  22.094  0.3253  0.0583  0.2615
33173W        W39623   6.349   2.625   5.644 -0.0247  0.0056 -0.0817
33174W        W39624   8.642   6.230  31.113 -0.0496 -0.1893 -0.0010
33175W        W39625  22.728   3.093  31.761  0.0540 -0.1531  0.0982
33176W        W39626   5.663   5.514  23.193 -0.1135 -0.2360 -0.0174
33177W        W39627  18.912   3.681  33.371 -0.1983 -0.0148 -0.0960
33178W        W39628   7.087   5.245  20.146  0.0650  0.0434 -0.0870
33179W        W39629   9.181   0.938  31.665 -0.2596  0.3224  0.3168
33180W        W39630  11.135   5.534  28.377  0.2472 -0.0406  0.0040
33181W        W39631  22.088   5.351   8.479 -0.2165 -0.0155 -0.0543
33182W        W39632  23.173   5.119   7.719 -0.0059  0.2213 -0.0329
33183W        W39633   8.118   0.793   8.857  0.1174  0.0238 -0.1347
33184W        W39634  12.188   1.485   8.479 -0.3372  0.2135 -0.0474
33185W        W39635  13.066   0.979  27.195 -0.2424  0.0005  0.1875
33186W        W39636   1.048   2.061  22.138  0.1827 -0.1693  0.0268
33187W        W39637  19.050   6.260  29.771  0.1387  0.0142 -0.2328
33188W        W39638  24.257   0.373  13.757  0.0228 -0.0549 -0.2001
33189W        W39639  22.616   6.562   3.697 -0.2731  0.2783 -0.2570
33190W        W39640  22.798   3.152  11.580  0.1766  0.0579 -0.0852
33191W        W39641  14.420   4.253   1.252 -0.0524  0.0479  0.0020
33192W        W39642  11.246   6.603   6.166  0.0901 -0.2003  0.1050
33193W        W39643   5.048   2.400   4.471 -0.0261  0.0888 -0.0013
33194W        W39644   8.808   1.210  14.992 -0.1326  0.0976 -0.1911
33195W        W39645   7.011   2.256  26.239 -0.1127  0.0461 -0.4176
33196W        W39646   0.893   6.570   2.965  0.2122  0.1777 -0.1433
33197W        W39647   1.824   0.409   2.283 -0.0557 -0.0209 -0.1121
33198W        W39648   3.554   3.230  12.890  0.1906 -0.1012 -0.0123
33199W        W39649  16.076   1.289  10.536  0.1018 -0.0666  0.0372
33200W        W39650   4.888   2.898  13.769  0.1629 -0.0468 -0.0511
33201W        W39651   1.924   3.429  12.192 -0.2092  0.2427 -0.3712
33202W        W39652   8.118   4.599  24.077 -0.1956 -0.0861  0.0341
33203W        W39653  15.069   5.828  12.447  0.0850 -0.0238 -0.1688
33204W        W39654  23.979   0.366  12.805  0.0848 -0.1700  0.3589
33205W        W39655  20.547   3.988   1.385 -0.1407  0.0885 -0.0392
33206W        W39656   6.996   0.645   1.348 -0.1381  0.0033 -0.0979
33207W        W39657  21.465   0.321  23.209  0.0951 -0.0710 -0.1401
33208W        W39658   3.972   1.076   5.104 -0.1728 -0.0092  0.0569
33209W        W39659   3.038   4.153  12.620  0.1146 -0.0403  0.0703
33210W        W39660  16.030   2.039  34.463  0.0279 -0.0262 -0.1888
33211W        W39661  18.676   5.367  12.995 -0.5230  0.4066  0.1583
33212W        W39662   5.502   1.899  31.285  0.1930 -0.2969 -0.1885
33213W        W39663  18.098   1.387  34.894 -0.0002  0.0556 -0.0887
33214W        W39664  23.503   4.404  21.079  0.0852 -0.1061 -0.2372
33215W        W39665   1.786   5.475   9.928  0.0213 -0.1258  0.0865
33216W        W39666  25.745   6.442   1.953  0.1836 -0.1297  0.0257
33217W        W39667   5.667   0.941  13.772 -0.2583  0.1706 -0.2601
33218W        W39668   3.885   2.914  25.310  0.0827 -0.0841  0.2495
33219W        W39669  11.663   3.764   9.570 -0.0024  0.0186 -0.2575
33220W        W39670  11.597   4.898   2.340  0.1917 -0.1559 -0.0752
33221W        W39671  11.143   5.782   3.187  0.1482  0.1719 -0.0179
33222W        W39672  11.634   4.923   8.098 -0.0350 -0.0191  0.3955
33223W        W39673  18.544   0.531  23.765  0.3833  0.2934 -0.1064
33224W        W39674  12.271   4.835  29.764 -0.0985  0.1968 -0.1114
33225W        W39675  11.787   0.914  28.374 -0.1353  0.1146  0.0507
33226W        W39676  19.738   4.828  23.094  0.1238 -0.1273 -0.1256
33227W        W39677  12.697   1.365   5.705 -0.0118 -0.0622 -0.2114
33228W        W39678   9.033   2.245  12.609  0.1152 -0.0766  0.4898
33229W        W39679  18.426   1.365   5.250 -0.1635 -0.0221 -0.2874
33230W        W39680  24.658   4.784   7.290 -0.1683 -0.0071  0.0952
33231W        W39681  14.712   3.593   6.607 -0.6023 -0.0125 -0.2263
33232W        W39682  10.143   1.847   1.156 -0.0656  0.1914 -0.1982
33233W        W39683   3.684   4.777  21.988 -0.0291 -0.0033 -0.3038
33234W        W39684  12.802   3.597  29.385 -0.1889  0.0510  0.0803
33235W        W39685  23.215   4.929   4.858  0.0720 -0.0051 -0.0606
33236W        W39686   9.491   5.732   5.451 -0.0656  0.0792  0.1039
33237W        W39687   2.480   5.157  24.694 -0.0958  0.0211 -0.1544
33238W        W39688  11.797   2.565  33.184  0.0473  0.3389 -0.0748
33239W        W39689   9.636   0.721   9.134 -0.1299 -0.0681 -0.1506
33240W        W39690   5.261   3.693  20.820  0.2169 -0.1706  0.1145
33241W        W39691   1.705   6.296  21.208  0.2222  0.0683 -0.0523
33242W        W39692   0.830   2.359  26.114 -0.1561  0.0748 -0.0368
33243W        W39693  12.526   4.124   4.213 -0.0934  0.5414  0.0272
33244W        W39694   5.671   2.030   4.905  0.1767  0.0454 -0.0415
33245W        W39695  26.136   5.547  22.162  0.0410  0.0542 -0.1556
33246W        W39696  12.368   3.802  21.179  0.0665 -0.1537 -0.0030
33247W        W39697  21.954   3.701   7.486  0.0306  0.1448 -0.1036
33248W        W39698  24.971   4.957  14.486  0.2228  0.1101  0.4037
33249W        W39699   2.305   0.034   0.202  0.1205  0.2248 -0.0214
33250W        W39700  13.041   3.905  12.501  0.2581  0.1697 -0.0933
33251W        W39701  23.889   1.828   6.163 -0.1637  0.0288 -0.0611
33252W        W39702  21.445   0.138   7.239 -0.0613  0.0668  0.0253
33253W        W39703   6.316   1.179  15.114 -0.0418 -0.1596 -0.1890
33254W        W39704  17.899   4.711   6.249  0.0593  0.0287  0.1728
33255W        W39705  17.694   6.449   6.000  0.1661  0.3578  0.0105
33256W        W39706  23.773   6.432  26.517  0.1155 -0.2587 -0.0224
33257W        W39707  19.694   2.313   4.976 -0.1198 -0.0131  0.1998
33258W        W39708  16.123   5.529  36.029  0.2865 -0.0850 -0.1488
33259W        W39709  12.469   2.734   9.777 -0.0483  0.2259  0.0125
33260W        W39710   0.028   1.269  21.951 -0.0574  0.0050 -0.2395
33261W        W39711  18.276   4.274  28.989  0.0507 -0.1529 -0.0949
33262W        W39712  19.728   5.366  26.614  0.2814 -0.0452  0.4717
33263W        W39713  15.355   5.769  30.350 -0.0743 -0.1553  0.0908
33264W        W39714  18.283   5.085  24.855  0.3266  0.2283 -0.0794
33265W        W39715  17.297   3.343   7.585  0.0041  0.0855 -0.0177
33266W        W39716   8.578   5.063   2.240 -0.1111 -0.0157  0.0323
33267W        W39717   5.030   5.530   1.187 -0.4078 -0.1098 -0.0932
33268W        W39718  14.279   3.340  13.434  0.0367  0.1191  0.2093
33269W        W39719   8.271   4.404  27.486  0.1379  0.1004  0.1250
33270W        W39720  13.075   1.353  33.507 -0.0104  0.0325  0.2514
33271W        W39721   3.889   4.444  28.109 -0.0216 -0.0380 -0.2561
33272W        W39722  10.538   2.629  30.083  0.2609  0.1490  0.0767
33273W        W39723   5.943   1.947  22.715  0.1923 -0.1279  0.1887
33274W        W39724  20.393   0.042  13.110 -0.1187 -0.0209 -0.1846
33275W        W39725   1.117   5.597  12.356  0.0399  0.1023  0.0854
33276W        W39726   7.314   1.437  36.051 -0.0095 -0.0263 -0.1313
33277W        W39727   7.115   3.189   5.290 -0.0724  0.2358  0.0474
33278W        W39728  10.524   5.454   9.374 -0.5097  0.1135  0.3608
33279W        W39729   1.745   5.373  14.158 -0.0721  0.0519  0.2860
33280W        W39730  11.451   6.591  32.119  0.0967 -0.3762 -0.3024
33281W        W39731  19.940   5.336   1.178  0.0921  0.2278 -0.3313
33282W        W39732   9.476   3.890  25.788 -0.1741  0.0927  0.0982
33283W        W39733   6.566   4.640   7.062  0.1951  0.0650  0.1339
33284W        W39734  20.036   4.562   6.594 -0.1918 -0.2865  0.0972
33285W        W39735   4.441   4.179   2.186  0.1499 -0.0947 -0.0878
33286W        W39736   6.161   1.927  27.209 -0.2238 -0.5053  0.0830
33287W        W39737   9.201   3.316   3.377 -0.0614  0.1424 -0.1707
33288W        W39738   8.050   2.518  10.063  0.0540 -0.1411 -0.1319
33289W        W39739   3.980   5.615  20.969 -0.1031 -0.1683 -0.0810
33290W        W39740  15.118   0.128   8.634 -0.1100  0.2174  0.1080
33291W        W39741  11.375   2.013  23.419 -0.0421 -0.1815 -0.2518
33292W        W39742  10.483   2.134  33.709  0.2013 -0.1546  0.0496
33293W        W39743  16.980   4.815  21.164 -0.1341  0.2670 -0.1255
33294W        W39744   3.719   5.866   0.075  0.0802 -0.1887 -0.2301
33295W        W39745   1.491   1.617  36.116 -0.3046 -0.0679  0.2950
33296W        W39746  16.983   4.925  12.334 -0.1267 -0.0242 -0.3253
33297W        W39747  12.410   0.416  22.150 -0.1525  0.0251  0.0696
33298W        W39748   5.828   5.017  25.012 -0.2111  0.0709  0.0823
33299W        W39749   6.502   4.308  13.186  0.4056  0.1716 -0.1908
33300W        W39750  25.099   5.388  13.282  0.2047  0.0253 -0.0377
33301W        W39751  13.061   3.635  30.772 -0.1652  0.0634 -0.0064
33302W        W39752   4.270   1.742  29.181  0.1348  0.0798 -0.0377
33303W        W39753   9.324   1.461  30.589  0.0888 -0.0861  0.0912
33304W        W39754   8.294   1.413  20.632  0.1182 -0.1747  0.0773
33305W        W39755  11.632   4.431  14.604  0.1135 -0.2429  0.2441
33306W        W39756  18.987   4.072   6.215  0.0225 -0.1634  0.1761
33307W        W39757   7.788   0.573  30.416  0.0178  0.0088  0.2151
33308W        W39758  26.384   0.210   5.183 -0.1079  0.1016 -0.0345
33309W        W39759  17.212   4.277  10.119 -0.3062 -0.1131 -0.0669
33310W        W39760  19.102   4.288  21.490 -0.3152  0.1632  0.3476
33311W        W39761   6.632   2.916   1.247 -0.1397 -0.0611 -0.0091
33312W        W39762  15.965   0.680  13.723  0.0845 -0.1727  0.0102
33313W        W39763  11.766   4.560   3.121  0.4791 -0.0469 -0.1861
33314W        W39764  19.021   5.488   6.053 -0.1524  0.0198  0.1401
33315W        W39765  23.587   3.967   9.455  0.1720 -0.0765  0.1169
33316W        W39766   6.050   1.346  31.766 -0.1532 -0.0869  0.1492
33317W        W39767  20.739   1.256   5.968 -0.3410 -0.0339  0.0199
33318W        W39768   7.614   4.169   2.436  0.1522  0.0412 -0.0860
33319W        W39769   1.744   0.194  14.000 -0.2140  0.1118 -0.0696
33320W        W39770  14.962   0.591   8.713 -0.3789 -0.0291  0.2507
33321W        W39771  17.213   4.863  31.890  0.1365  0.0446  0.0516
33322W        W39772  18.966   3.964   1.467 -0.1034  0.1415  0.1373
33323W        W39773  24.951   1.850  22.912  0.0675  0.2728  0.1133
33324W        W39774   5.293   6.332  29.969 -0.3064  0.0459  0.0214
33325W        W39775   9.994   5.130  20.836  0.1228  0.0083  0.1104
33326W        W39776  24.373   0.054  11.022 -0.1163  0.0085 -0.1099
33327W        W39777  16.965   4.193  30.230  0.0959 -0.1043  0.1956
33328W        W39778  13.127   4.160   4.868  0.1446 -0.0148 -0.0117
33329W        W39779  21.334   0.743  12.132  0.0069 -0.1431 -0.3616
33330W        W39780  25.357   2.255   8.987  0.0148 -0.1403  0.0418
33331W        W39781  20.346   1.325  31.073 -0.0295  0.1107 -0.0976
33332W        W39782   8.119   2.564   9.545  0.0013  0.0997  0.0407
33333W        W39783  23.454   0.825  20.905  0.3668  0.2076 -0.0737
33334W        W39784  21.654   5.893   9.373  0.0869 -0.0359 -0.2152
33335W        W39785   7.716   3.438  22.116  0.2374  0.1370 -0.0759
33336W        W39786   4.747   2.121  32.729  0.2910 -0.0559  0.3674
33337W        W39787  15.775   4.251  29.633  0.2862 -0.1993  0.3479
33338W        W39788  10.318   5.296  21.919 -0.3064 -0.1734 -0.2492
33339W        W39789   9.415   6.160   9.723  0.0803 -0.0439  0.0794
33340W        W39790  20.898   3.461  10.927  0.1438 -0.0909 -0.2271
33341W        W39791  16.459   1.769  14.445 -0.4062 -0.3071  0.2897
33342W        W39792   8.059   2.058  23.877 -0.0897  0.3858 -0.0978
33343W        W39793   8.813   5.297  22.461 -0.1851 -0.0376  0.1005
33344W        W39794  14.693   5.083   4.253 -0.1481  0.1912 -0.1457
33345W        W39795  21.030   5.233  22.217 -0.0125  0.1528 -0.1790
33346W        W39796   5.858   1.356  26.368  0.0411 -0.0276 -0.2332
33347W        W39797   2.443   3.494  27.541 -0.3163  0.0902  0.0177
33348W        W39798  23.835   3.757   8.076 -0.0012  0.0838  0.1346
33349W        W39799  18.740   4.978  13.949  0.0922 -0.0809 -0.3787
33350W        W39800   4.338   3.488  23.158  0.1967  0.0704 -0.1477
33351W        W39801  17.173   0.123  21.236 -0.1762  0.0252  0.0021
33352W        W39802  19.362   1.802  34.990 -0.1724  0.0990  0.0770
33353W        W39803  11.480   0.202  26.844  0.1045  0.3150  0.1617
33354W        W39804  23.395   1.452   5.575  0.1028  0.0453 -0.1389
33355W        W39805  14.560   0.992  31.373  0.0536 -0.1506  0.3121
33356W        W39806   5.955   5.580   3.582 -0.1061  0.1020 -0.2511
33357W        W39807   7.673   3.165  20.569 -0.0069 -0.1003 -0.0205
33358W        W39808  18.856   0.097  22.484 -0.0184  0.1202  0.1576
33359W        W39809   2.941   3.839  23.499 -0.0221 -0.1255  0.1376
33360W        W39810  22.921   2.364  27.136  0.1306 -0.2288 -0.0317
33361W        W39811  16.642   4.952   9.116  0.1205  0.1583  0.0999
33362W        W39812  21.423   3.871  14.864  0.0680  0.0347 -0.0765
33363W        W39813   8.840   1.788   6.189 -0.2053  0.1031 -0.0337
33364W        W39814  23.910   2.801   6.799  0.0815 -0.0066 -0.1179
33365W        W39815  11.468   5.595   6.543 -0.0417 -0.0864 -0.2294
33366W        W39816  14.407   4.788  20.936 -0.0743 -0.1829  0.0349
33367W        W39817   8.607   1.024  13.145  0.0893 -0.2296 -0.0813
33368W        W39818  24.546   6.269   4.020  0.0539 -0.1362 -0.0524
33369W        W39819   4.282   4.526  13.738 -0.2596  0.2059  0.1257
33370W        W39820   6.476   5.938  15.194 -0.2072 -0.0289  0.0685
33371W        W39821   5.268   1.031  35.493  0.1110 -0.1603 -0.0512
33372W        W39822  17.542   3.836  10.267  0.0632 -0.1861  0.2506
33373W        W39823  19.848   5.887  30.160 -0.0151 -0.2461  0.3129
33374W        W39824  24.333   0.281   4.824  0.0155 -0.2631 -0.1112
33375W        W39825  21.610   0.988  31.152  0.0832  0.0023  0.0100
33376W        W39826   6.867   6.376  34.164  0.0481 -0.1728 -0.0572
33377W        W39827  13.169   4.761  29.595  0.1110 -0.0051 -0.1002
33378W        W39828  21.230   4.154   6.339  0.1225  0.1012 -0.0465
33379W        W39829  20.749   6.402  10.347  0.0326 -0.1643 -0.1288
33380W        W39830  15.175   3.882  29.097 -0.2981  0.1213 -0.1572
33381W        W39831  13.852   1.623  13.915  0.1552  0.1265 -0.1206
33382W        W39832   2.137   3.494  11.288  0.2418  0.1362  0.1302
33383W        W39833  20.509   2.575  29.848 -0.0932 -0.0238 -0.0183
33384W        W39834  13.792   3.300  33.538  0.1168  0.0609 -0.4762
33385W        W39835  10.726   4.558  12.165  0.0289  0.1018  0.1021
33386W        W39836  20.803   3.332   2.926 -0.0872  0.0434  0.0529
33387W        W39837   1.304   0.378  10.957 -0.0045 -0.1775  0.2521
33388W        W39838  16.998   5.391  35.680 -0.0009 -0.0479 -0.1191
33389W        W39839  20.976   1.880  10.869  0.1516 -0.0403  0.0114
33390W        W39840   7.853   4.945   1.846  0.0173 -0.1502 -0.0825
33391W        W39841  10.242   3.802   4.760  0.1131  0.0727  0.0480
33392W        W39842  14.608   6.545  24.248 -0.1635 -0.0812  0.0233
33393W        W39843  23.893   3.755   7.199 -0.0330 -0.0290 -0.0728
33394W        W39844   2.835   2.173   3.906  0.1136  0.3683 -0.1946
33395W        W39845   0.469   5.194  10.041  0.2920 -0.1199 -0.5631
33396W        W39846  19.626   5.852  34.097  0.0744  0.0658 -0.1427
33397W        W39847  26.130   1.640  21.822 -0.0801  0.0342  0.0278
33398W        W39848  19.840   2.342  31.418  0.1766 -0.2364  0.0330
33399W        W39849  22.599   2.328  25.594 -0.0423  0.3771 -0.3211
33400W        W39850   1.462   3.177  34.518  0.2831 -0.0817 -0.2727
33401W        W39851   1.190   5.432  23.230 -0.6539 -0.0634 -0.2267
33402W        W39852  23.003   2.365   3.621  0.0418  0.1022 -0.0263
33403W        W39853  24.775   3.304   2.160  0.1390 -0.2723 -0.0125
33404W        W39854   2.829   5.691  25.235  0.1287 -0.1274 -0.1020
33405W        W39855  19.267   5.263  15.427 -0.0861 -0.1762 -0.1972
33406W        W39856  14.753   5.193   9.838  0.0306  0.0599  0.2047
33407W        W39857  13.397   0.075   6.366 -0.0042  0.0747  0.0078
33408W        W39858   2.981   5.657  35.416 -0.1080 -0.0093  0.3744
33409W        W39859  24.081   6.061   7.045 -0.0547 -0.2080  0.0157
33410W        W39860  24.375   1.434   9.261  0.1188  0.2284  0.2542
33411W        W39861   3.558   3.277  35.280 -0.1415  0.2471  0.2340
33412W        W39862   4.582   1.763  10.146 -0.0300  0.3766  0.2995
33413W        W39863  25.702   0.765  32.581 -0.1568 -0.0109 -0.0797
33414W        W39864  15.072   1.069   3.348 -0.2306 -0.0741 -0.0424
33415W        W39865  12.054   6.322  31.375  0.1158  0.1295  0.2703
33416W        W39866   0.805   5.657   2.670 -0.1862  0.2800 -0.1071
33417W        W39867   2.207   5.637  30.384  0.0891 -0.0440 -0.0416
33418W        W39868  21.553   0.984  13.216  0.0109 -0.2632  0.1252
33419W        W39869   2.663   4.871  33.042  0.0913 -0.0493 -0.0006
33420W        W39870   2.698   0.673   3.299  0.1262  0.0905  0.1785
33421W        W39871  11.617   2.306   8.864 -0.0733  0.0751 -0.2411
33422W        W39872   8.510   1.778   8.006 -0.2344  0.1495 -0.0157
33423W        W39873  21.475   0.912   2.857 -0.0506 -0.1387  0.1418
33424W        W39874  24.391   3.933  11.926  0.0978  0.2868  0.0163
33425W        W39875  17.434   6.162   1.223  0.0430 -0.0819 -0.1750
33426W        W39876  20.097   1.461  24.978 -0.1561  0.3093  0.3339
33427W        W39877   9.038   3.576  10.227  0.1606 -0.1184  0.0768
33428W        W39878  10.776   0.988   1.439 -0.0353  0.2977  0.1939
33429W        W39879   8.692   0.116  34.575 -0.0592  0.2176 -0.2408
33430W        W39880   7.905   4.023  30.098  0.0711  0.0838 -0.0621
33431W        W39881  16.946   1.193   8.852  0.5098 -0.1274  0.1247
33432W        W39882  16.413   1.366   8.761  0.1062  0.2919 -0.0602
33433W        W39883   3.916   3.849   3.990  0.2642 -0.0432 -0.0829
33434W        W39884  24.197   1.393   6.144  0.0270  0.2102 -0.1929
33435W        W39885   5.940   2.385   5.409  0.0486 -0.2606  0.0043
33436W        W39886  24.995   2.640  26.651 -0.0058 -0.0145  0.0582
33437W        W39887  24.143   0.706  10.569  0.0803 -0.0188 -0.1188
33438W        W39888  10.321   3.837  34.248 -0.0616  0.1344 -0.1159
33439W        W39889   4.649   6.421   6.475 -0.0331 -0.1497  0.1028
33440W        W39890  10.183   4.062  22.395  0.0200 -0.2722 -0.0691
33441W        W39891  20.428   0.165  10.529  0.2313  0.2133  0.1470
33442W        W39892  24.975   2.673  12.123 -0.0627  0.2154  0.0173
33443W        W39893  14.366   2.702   3.499 -0.1277  0.0034 -0.0362
33444W        W39894  17.969   5.222  33.817  0.4587 -0.0753  0.0319
33445W        W39895  12.873   2.603   1.888 -0.1452 -0.1032 -0.0182
33446W        W39896  12.075   6.113  12.246  0.2412  0.0396  0.1406
33447W        W39897  22.364   2.271  33.598  0.1252  0.0337 -0.2931
33448W        W39898  11.635   1.833  31.679 -0.2090 -0.1599  0.3066
33449W        W39899   3.812   3.698  13.193 -0.1760  0.1348 -0.0860
33450W        W39900  21.883   4.951  31.661 -0.1728  0.2761 -0.0318
33451W        W39901   7.965   0.730   6.968 -0.3126 -0.1154  0.0290
33452W        W39902   4.912   3.981  30.954  0.0035 -0.2040 -0.1343
33453W        W39903  23.186   0.980  27.148  0.1951 -0.0510  0.0260
33454W        W39904   0.246   4.876   8.215 -0.2698 -0.1414 -0.1108
33455W        W39905  24.957   0.149  35.945  0.2267  0.0013 -0.0021
33456W        W39906   9.512   2.054  12.484  0.2451 -0.1026  0.3333
33457W        W39907   4.712   4.487  29.175  0.1540  0.2360 -0.2353
33458W        W39908  11.736   4.499   9.138 -0.1440 -0.0015  0.2144
33459W        W39909  21.917   5.538  24.173 -0.0455 -0.1149 -0.1923
33460W        W39910  11.007   6.501   3.892 -0.1165 -0.1046 -0.1429
33461W        W39911   5.698   6.107  32.249 -0.2140 -0.0724 -0.1114
33462W        W39912  24.527   6.453  15.392  0.1514 -0.2627 -0.3862
33463W        W39913  14.286   5.156   1.780  0.3851 -0.1196  0.3560
33464W        W39914  19.802   4.212  30.695 -0.3495 -0.0315  0.4423
33465W        W39915  18.123   4.007  29.821  0.3037 -0.1176 -0.2273
33466W        W39916  18.843   3.912  35.192  0.4661  0.0252  0.1236
33467W        W39917   8.576   2.176  11.642  0.0139 -0.0732  0.1272
33468W        W39918   8.755   6.077  31.839  0.0634 -0.0495 -0.2117
33469W        W39919  22.474   0.400   9.414 -0.2803  0.0449 -0.0854
33470W        W39920   4.463   5.869  33.220  0.0253  0.1709 -0.1471
33471W        W39921  15.461   6.463   2.447  0.0938  0.1417 -0.0641
33472W        W39922  24.247   2.743  12.490 -0.0020 -0.0197 -0.1090
33473W        W39923   5.395   4.519  28.492  0.0908 -0.0446  0.2446
33474W        W39924   4.506   6.168   5.477 -0.3015  0.0658  0.0993
33475W        W39925  25.404   5.627  11.936 -0.0273 -0.3629 -0.1251
33476W        W39926   0.095   4.934  15.392 -0.0418  0.1025 -0.0626
33477W        W39927  22.851   3.792  30.144  0.1838  0.2052 -0.0913
33478W        W39928  22.875   0.803  12.864 -0.3863  0.0642 -0.0443
33479W        W39929   6.124   6.264  25.014  0.1772  0.0628  0.0182
33480W        W39930   0.363   2.516  12.220  0.0575 -0.0789  0.1455
33481W        W39931  14.949   4.169  24.986 -0.0925 -0.3256 -0.1005
33482W        W39932   0.203   5.749  22.601  0.0277  0.1285  0.0731
33483W        W39933  15.319   2.092  11.350 -0.0953  0.1288 -0.0232
33484W        W39934  13.397   1.690   9.048  0.0201  0.3000  0.1283
33485W        W39935  25.538   4.703  26.629  0.0669  0.0221  0.1566
33486W        W39936   8.171   5.037   9.025 -0.0006 -0.1077  0.1197
33487W        W39937   8.359   6.562   4.536  0.1103  0.0799  0.0390
33488W        W39938  25.811   4.468   0.018 -0.0754  0.0185  0.2530
33489W        W39939   7.505   0.868   8.795 -0.0803  0.1504  0.2156
33490W        W39940  19.925   2.515  34.688  0.2161  0.1439 -0.2798
33491W        W39941   3.618   6.603   3.906  0.0217  0.0846  0.4684
33492W        W39942   2.798   0.732   0.613  0.1606  0.1108  0.0619
33493W        W39943   8.357   0.271  24.905  0.1135 -0.1118  0.0802
33494W        W39944  25.524   4.473   5.569 -0.2119  0.0714 -0.1037
33495W        W39945  11.197   3.239   7.237  0.0966  0.0177  0.0254
33496W        W39946   1.019   1.682   3.312  0.0788  0.3439  0.1768
33497W        W39947  23.319   0.467  30.273 -0.0586 -0.2167 -0.1112
33498W        W39948  19.892   6.255  33.794  0.1267  0.0973  0.2186
33499W        W39949  12.503   3.301  31.376  0.1050  0.0440  0.0949
33500W        W39950  12.414   5.181  21.197  0.2989  0.0972 -0.0455
33501W        W39951  25.805   4.079   0.829  0.2374 -0.0532 -0.0050
33502W        W39952   6.825   3.606  25.205  0.0267 -0.0318 -0.2394
33503W        W39953   8.556   6.386  26.540  0.0813 -0.1452 -0.1784
33504W        W39954  17.525   3.411  27.028 -0.0637 -0.2034  0.2455
33505W        W39955  25.428   1.500   4.110  0.0078 -0.1294  0.0741
33506W        W39956  25.732   5.780  14.722 -0.0082 -0.0634 -0.1783
33507W        W39957  18.616   3.405   6.766 -0.0604 -0.4930  0.0225
33508W        W39958  26.207   0.048  28.713  0.0522 -0.2946  0.2445
33509W        W39959  21.113   4.956  11.886 -0.1723  0.4224  0.2869
33510W        W39960   2.925   0.467  27.487 -0.0564  0.1331 -0.1021
33511W        W39961  24.665   0.794   4.101  0.3546 -0.4163 -0.1895
33512W        W39962  14.113   0.740   4.690 -0.1692  0.3403  0.0107
33513W        W39963  10.423   6.357  23.845  0.1282 -0.2118  0.0772
33514W        W39964  20.120   5.172  35.928  0.0585  0.1698  0.1573
33515W        W39965  20.730   0.090  11.555  0.0184  0.2159  0.0375
33516W        W39966  22.017   0.644  24.040 -0.2528 -0.1038 -0.3164
33517W        W39967  23.543   0.868   0.470  0.1361  0.1030  0.1088
33518W        W39968  14.306   0.082  22.329  0.0639 -0.2260 -0.1431
33519W        W39969   4.109   4.935  31.362 -0.2036 -0.4075 -0.1981
33520W        W39970   0.159   5.574   8.850 -0.0030 -0.0417  0.0579
33521W        W39971   3.293   4.983  30.450 -0.0515  0.1859  0.1925
33522W        W39972  18.121   6.436  30.884  0.2626 -0.1829 -0.0313
33523W        W39973   1.302   5.184  29.226  0.1233  0.0869  0.0934
33524W        W39974  25.401   5.446   4.136  0.1101 -0.1412 -0.0530
33525W        W39975   1.402   0.332  24.951 -0.0847  0.1281  0.0778
33526W        W39976  16.824   3.136  11.113  0.1268  0.2241  0.1330
33527W        W39977  14.944   3.981  28.637  0.0197 -0.1059  0.1189
33528W        W39978  25.238   6.383  27.880  0.0586 -0.1029  0.0556
33529W        W39979  18.286   2.331   6.341  0.1222  0.0116  0.0337
33530W        W39980  16.508   1.783  33.621 -0.1625  0.0318 -0.0172
33531W        W39981   9.903   4.898   7.209 -0.1434 -0.0375  0.0437
33532W        W39982  10.885   1.305  14.768 -0.1165  0.1853 -0.1564
33533W        W39983  10.700   0.891  20.957  0.2015 -0.2006  0.2152
33534W        W39984   0.064   4.376  31.694 -0.1090  0.2761  0.1861
33535W        W39985   1.960   1.864   5.413  0.2487  0.0402 -0.0712
33536W        W39986  12.729   2.130   6.326 -0.0897  0.0082 -0.0743
33537W        W39987   7.188   4.552  29.731 -0.0781 -0.0777 -0.0898
33538W        W39988   1.389   6.015   1.354 -0.0400 -0.0545  0.0146
33539W        W39989  21.993   2.637   5.856  0.0045  0.0564  0.1804
33540W        W39990   6.521   4.588   1.498 -0.1012  0.1451  0.1522
33541W        W39991   9.719   4.018  22.613 -0.1652  0.1221  0.0882
33542W        W39992  18.188   6.526  25.530 -0.0953 -0.0345 -0.2794
33543W        W39993  24.128   0.359  30.157  0.2383 -0.1108  0.1402
33544W        W39994  20.430   1.633   2.795  0.2472 -0.0775 -0.1906
33545W        W39995  18.569   6.358  10.783 -0.0164  0.0819  0.2679
33546W        W39996  16.535   1.416  34.051 -0.1368  0.2283  0.1358
33547W        W39997  14.692   1.091  23.367 -0.1537 -0.1043  0.0772
33548W        W39998  21.536   2.224  25.817 -0.2033 -0.0732 -0.0364
33549W        W39999   3.720   0.009   6.666 -0.0621  0.0595 -0.1041
33550W        W40000  20.651   5.893  22.528  0.1122  0.1059  0.0358
33551W        W40001  23.294   1.717  31.562 -0.1072  0.2603 -0.2719
33552W        W40002  14.504   4.058  27.851  0.1980 -0.0263 -0.0901
33553W        W40003   2.966   3.061   6.039  0.1207  0.2228 -0.0449
33554W        W40004  14.310   4.087   3.669  0.0662  0.2712  0.0844
33555W        W40005   4.200   4.593  31.961 -0.1355  0.1128 -0.5559
33556W        W40006  17.650   3.891  33.393 -0.1073 -0.0657  0.1585
33557W        W40007   2.269   0.767  29.017  0.1804 -0.1821  0.0841
33558W        W40008  21.822   5.375   9.356 -0.1291 -0.1136 -0.1377
33559W        W40009  14.706   3.389   1.240 -0.1323  0.0594  0.4011
33560W        W40010   7.568   2.151  33.331 -0.1206  0.0652  0.0284
33561W        W40011  10.501   4.997  25.753 -0.0727 -0.1381  0.0551
33562W        W40012  10.030   2.419  32.694  0.2294 -0.0175  0.1124
33563W        W40013  26.182   3.681   1.956 -0.2230 -0.1905 -0.1938
33564W        W40014  25.494   3.143   7.766  0.1905  0.0161  0.0513
33565W        W40015  15.657   0.244  33.135  0.0283  0.0566 -0.0300
33566W        W40016  15.353   3.020  34.137 -0.0008 -0.1848 -0.1295
33567W        W40017  25.746   3.678  12.606 -0.2059  0.2523  0.1192
33568W        W40018  12.355   1.737   2.148  0.1169 -0.0410  0.0566
33569W        W40019  22.091   5.799  10.646 -0.0301 -0.1139 -0.2925
33570W        W40020  24.239   4.464  23.485  0.3364  0.0081 -0.3091
33571W        W40021   0.212   1.857   0.809 -0.1430 -0.1940  0.0631
33572W        W40022  14.807   1.414  24.246 -0.1370 -0.1191  0.1427
33573W        W40023  12.963   1.611  12.005 -0.2361  0.0010  0.1175
33574W        W40024   7.695   4.172  26.788  0.0895  0.0942 -0.1735
33575W        W40025  16.894   3.085  35.595  0.2454 -0.0263  0.3071
33576W        W40026   8.314   4.170   0.915 -0.2800 -0.0129 -0.4488
33577W        W40027  23.894   5.523   2.982  0.1089  0.6561  0.0539
33578W        W40028  17.490   4.040  10.680  0.1469  0.0555 -0.1524
33579W        W40029   2.858   2.743  11.301 -0.0328 -0.1246 -0.1322
33580W        W40030   1.037   3.156   6.805 -0.1083  0.1488 -0.0796
33581W        W40031  19.669   0.800  11.329 -0.0078 -0.0804 -0.0566
33582W        W40032   6.810   3.489   5.651 -0.0066 -0.0782 -0.0565
33583W        W40033  14.506   5.291  13.069 -0.0855 -0.0893 -0.3023
33584W        W40034  23.703   5.893  26.863  0.0637 -0.0089  0.0270
33585W        W40035  10.081   2.169  26.347 -0.0062  0.0598 -0.0260
33586W        W40036   1.219   6.234  35.748  0.0804 -0.0169  0.0293
33587W        W40037  15.096   0.237  23.195 -0.0985 -0.0787  0.1043
33588W        W40038  19.655   4.929  15.564 -0.0351 -0.1350  0.1107
33589W        W40039  14.222   0.318  28.563 -0.4102 -0.1827  0.0285
33590W        W40040  12.557   4.604   0.859 -0.1173 -0.1893 -0.0993
33591W        W40041  12.449   4.136   8.735  0.1053  0.0748  0.0842
33592W        W40042   0.954   6.306  14.186  0.1260 -0.0070 -0.0272
33593W        W40043  25.838   1.728  23.472 -0.1736 -0.2379 -0.3077
33594W        W40044  16.173   0.567  30.225  0.4155 -0.1960  0.0468
33595W        W40045   7.354   6.397  22.695  0.1639  0.1513 -0.0648
33596W        W40046  18.770   0.632  20.706 -0.1461 -0.3556 -0.0521
33597W        W40047   7.703   3.717  24.299  0.3459  0.1254 -0.0368
33598W        W40048  24.755   1.716  25.469  0.1239 -0.1334  0.1182
33599W        W40049   1.431   6.378  24.203 -0.1040  0.0415 -0.0497
33600W        W40050  24.734   3.453  26.888 -0.0560  0.1829 -0.4906
33601W        W40051  12.219   1.315  30.401  0.0863  0.3739  0.0794
33602W        W40052  22.327   0.723   9.849  0.2131 -0.0296 -0.1730
33603W        W40053   3.147   3.228  24.024 -0.2441  0.1162  0.0745
33604W        W40054   4.267   0.183   4.978 -0.1670 -0.0284 -0.1221
33605W        W40055  25.990   6.552   0.323  0.0888  0.0183  0.0145
33606W        W40056   0.015   4.751  14.104 -0.0111 -0.2022  0.0919
33607W        W40057  20.285   1.694  30.397 -0.0227 -0.1302  0.0415
33608W        W40058   9.665   4.049  11.736 -0.1038  0.3004 -0.1613
33609W        W40059  12.110   3.978  10.974  0.1516  0.1804  0.0991
33610W        W40060  13.774   1.724  21.547 -0.1681  0.0372  0.1264
33611W        W40061   8.745   6.111   9.105  0.2437  0.1710 -0.0071
33612W        W40062  13.791   4.473  23.377  0.0744  0.0901 -0.0545
33613W        W40063  25.812   4.330   5.102  0.0197  0.1162  0.0623
33614W        W40064   8.386   5.157   5.568 -0.1339 -0.0478  0.2352
33615W        W40065  15.310   5.158  12.080  0.1348 -0.0798 -0.2567
33616W        W40066   4.858   3.986  12.726  0.2254  0.1172  0.2775
33617W        W40067  19.446   6.381  32.859  0.0516  0.0659 -0.1068
33618W        W40068   5.298   4.732  27.964 -0.5961 -0.1499 -0.2232
33619W        W40069  19.245   0.407  12.900 -0.1947  0.3271  0.0964
33620W        W40070   1.693   5.410  23.535  0.2817  0.2589 -0.0450
33621W        W40071  21.326   3.424  29.631  0.3335 -0.1027 -0.1628
33622W        W40072   9.137   4.832  34.911  0.2163  0.0600 -0.0659
33623W        W40073   8.431   3.732   3.320 -0.1485 -0.0906 -0.1841
33624W        W40074  11.836   2.039  14.900 -0.0172  0.3087  0.1339
33625W        W40075   5.940   6.486   5.288  0.1805 -0.0556 -0.0318
33626W        W40076  13.252   3.174   5.156  0.0360  0.0530  0.1615
33627W        W40077   2.231   1.252  26.900  0.2061 -0.1394 -0.0799
33628W        W40078  14.368   5.265   5.940 -0.3384 -0.2897 -0.0197
33629W        W40079   5.203   1.540   9.044 -0.3234 -0.4375  0.1600
33630W        W40080  12.247   5.346  31.086 -0.0312 -0.2011 -0.0462
33631W        W40081  13.226   4.263  22.413 -0.0752  0.0939 -0.2541
33632W        W40082  19.036   6.262  25.639  0.1823  0.3516 -0.0443
33633W        W40083  17.036   3.944  12.827  0.0753  0.0823 -0.0735
33634W        W40084   3.018   1.435  22.458  0.1580 -0.2282  0.0399
33635W        W40085   2.505   5.308   6.668 -0.0055  0.1597 -0.4059
33636W        W40086   2.906   1.234  30.529 -0.0372  0.2991 -0.0909
33637W        W40087  16.755   5.973  15.149  0.1504 -0.1388  0.0867
33638W        W40088  15.120   0.446   2.179  0.7014  0.0509 -0.0322
33639W        W40089   3.971   2.042  30.156  0.2874 -0.0467  0.2896
33640W        W40090   2.181   0.938  21.246  0.0656  0.1860  0.1126
33641W        W40091  23.140   6.581   0.300 -0.2097 -0.1533 -0.0030
33642W        W40092   6.027   0.627  28.778  0.1126  0.1101  0.1408
33643W        W40093  22.241   6.387  21.274 -0.0834 -0.4605  0.0364
33644W        W40094  24.999   5.750  27.687 -0.1067 -0.0521 -0.1914
33645W        W40095   9.836   1.611  29.251 -0.0505 -0.2741 -0.3723
33646W        W40096   5.291   3.813   1.681  0.3113 -0.2523  0.0255
33647W        W40097  21.892   1.591   8.508 -0.2351 -0.1908 -0.2237
33648W        W40098   8.766   4.418   1.283 -0.0934 -0.0870 -0.0777
33649W        W40099  18.527   3.480  14.866 -0.0762 -0.0027 -0.2066
33650W        W40100  21.770   3.416  14.811 -0.0065  0.0553  0.2886
33651W        W40101  12.298   3.402  24.724  0.0825 -0.0267  0.1434
33652W        W40102  20.234   0.043  11.724  0.0343 -0.0790  0.1282
33653W        W40103  16.084   5.197  25.989 -0.0964 -0.1827  0.2804
33654W        W40104  22.426   3.952  11.808  0.3240  0.0829 -0.0318
33655W        W40105  11.780   6.130   1.871 -0.2969 -0.0878 -0.2275
33656W        W40106  20.495   3.422  28.042  0.2369  0.0465 -0.0435
33657W        W40107   9.239   6.543  29.476  0.4311 -0.0947  0.3131
33658W        W40108   3.643   2.470  27.928  0.1539 -0.2225  0.1869
33659W        W40109  25.384   2.521  26.959  0.0173  0.0896  0.4029
33660W        W40110   1.429   4.660  15.293  0.2666  0.0343 -0.2156
33661W        W40111  21.546   3.262  26.615 -0.1756 -0.2314 -0.0369
33662W        W40112  24.182   4.196  22.796  0.1190 -0.0235  0.0381
33663W        W40113  23.072   4.861  29.406 -0.2289  0.2676  0.0148
33664W        W40114   4.779   5.582  30.158  0.1662  0.0615  0.0482
33665W        W40115  10.550   6.459  12.261  0.0680  0.0452  0.0435
33666W        W40116  25.712   3.335  31.834  0.2356  0.4436  0.0061
33667W        W40117  11.526   2.717   1.615  0.2791 -0.1177 -0.1261
33668W        W40118   5.896   2.366  32.572  0.0135 -0.1612 -0.1365
33669W        W40119   6.633   1.544  14.371 -0.0638 -0.0665  0.0691
33670W        W40120  20.657   3.009  15.408  0.1088 -0.2250  0.0050
33671W        W40121   0.526   3.026   8.645 -0.1799 -0.1552 -0.0697
33672W        W40122  24.052   4.876  34.265 -0.1067 -0.3128 -0.0231
33673W        W40123  19.517   1.588   4.117 -0.1046  0.2169 -0.1288
33674W        W40124  25.514   5.964  29.179  0.1113  0.1375 -0.4367
33675W        W40125   0.180   2.336   5.218  0.1463  0.0361  0.2745
33676W        W40126  10.169   4.924  22.301  0.0042  0.0274  0.2108
33677W        W40127  17.079   2.290   0.535 -0.1157 -0.2070 -0.0208
33678W        W40128   0.214   6.124   2.769  0.1818  0.2282  0.2482
33679W        W40129   6.529   4.629  32.995 -0.1308 -0.0911  0.2155
33680W        W40130   9.474   0.999   7.850  0.2479 -0.0384 -0.2369
33681W        W40131  18.734   3.981   1.989 -0.2098 -0.4039 -0.1955
33682W        W40132  15.272   6.082  28.793  0.2247 -0.1318  0.2174
33683W        W40133  22.690   6.378   2.356 -0.2186  0.0189  0.1654
33684W        W40134  15.346   6.155   6.150 -0.0012 -0.2912  0.1444
33685W        W40135   3.545   5.294  27.446 -0.2010  0.3129 -0.1502
33686W        W40136  15.953   0.631  34.322  0.3154 -0.0357  0.2554
33687W        W40137   1.454   6.563  14.293  0.3045 -0.0134 -0.0933
33688W        W40138   5.222   5.912  32.186 -0.2385  0.0690 -0.2281
33689W        W40139   1.640   2.409   9.743 -0.1993 -0.1741 -0.1077
33690W        W40140  20.364   4.355  12.460  0.0368 -0.2180  0.0248
33691W        W40141  21.303   1.022   1.139 -0.0074 -0.1534  0.0030
33692W        W40142  15.104   5.248  30.480  0.0747  0.1126 -0.1781
33693W        W40143  20.572   0.458  34.085  0.3245  0.2381 -0.2542
33694W        W40144   2.936   2.213  11.466  0.0593  0.0391  0.1051
33695W        W40145   4.351   5.350   3.428 -0.1284  0.1218  0.1856
33696W        W40146   6.672   1.117  24.384  0.1548  0.0306  0.4681
33697W        W40147   5.655   0.045  11.855 -0.0804  0.0009 -0.2233
33698W        W40148  18.647   3.847  24.912 -0.1810  0.2567 -0.1717
33699W        W40149  26.208   2.292  15.234 -0.1131 -0.0447 -0.0877
33700W        W40150   3.054   2.658  26.198 -0.0262  0.0425  0.1398
33701W        W40151  15.135   0.268  21.785  0.0067 -0.0407  0.1384
33702W        W40152  18.729   2.975  33.926  0.1040  0.0627  0.4695
33703W        W40153  25.295   6.086   0.174 -0.2853 -0.2643 -0.2311
33704W        W40154  22.208   5.645  14.427 -0.3695 -0.1474 -0.0826
33705W        W40155   3.406   2.632   9.458 -0.3351 -0.0585 -0.0407
33706W        W40156  12.641   1.124  27.038  0.1654 -0.4432 -0.0722
33707W        W40157  14.999   5.555  26.526  0.0255  0.1650  0.2210
33708W        W40158  24.860   0.294  29.182 -0.0494 -0.0846 -0.0844
33709W        W40159  12.277   5.170  32.209 -0.0641  0.0307 -0.1217
33710W        W40160  14.033   1.032  34.326 -0.1209 -0.4253 -0.2681
33711W        W40161  26.107   2.206   5.454  0.2830  0.1778  0.0072
33712W        W40162  24.245   6.399   8.337 -0.0981 -0.0740  0.0648
33713W        W40163  24.814   3.102   1.279 -0.2714  0.0658 -0.0406
33714W        W40164  18.908   0.697  25.232  0.0260 -0.1604  0.1578
33715W        W40165  17.055   0.861  28.714 -0.1231  0.0480  0.1467
33716W        W40166   2.086   5.948  13.805 -0.0782  0.0845  0.0475
33717W        W40167   9.159   2.131  25.905 -0.4324 -0.0766 -0.2267
33718W        W40168   9.137   6.595  23.716 -0.3135  0.2263  0.2125
33719W        W40169  23.809   0.905   0.897  0.0273 -0.0419  0.1690
33720W        W40170  22.089   0.109  13.271  0.0254  0.0347 -0.3378
33721W        W40171   9.610   4.983  29.198 -0.0004  0.1242  0.0193
33722W        W40172  15.971   5.716   9.971  0.0109  0.2628  0.3078
33723W        W40173  16.440   2.279  33.761  0.2347 -0.1897 -0.2083
33724W        W40174  13.229   5.753   6.571  0.0210  0.0030  0.3147
33725W        W40175  24.579   4.882  30.728  0.0458 -0.0712 -0.0438
33726W        W40176  24.882   1.234   7.018 -0.4065  0.4235  0.0753
33727W        W40177  25.953   5.175   9.571  0.0482  0.2676 -0.1642
33728W        W40178  15.054   2.957   6.342  0.4002  0.0538  0.0400
33729W        W40179  16.010   2.793  11.024 -0.1322  0.0557 -0.1739
33730W        W40180  23.719   3.190  34.071 -0.2770 -0.0556 -0.2106
33731W        W40181   4.786   3.322   4.594  0.2299  0.1143  0.3442
33732W        W40182   5.848   4.244   7.553 -0.4850 -0.0770  0.2006
33733W        W40183   7.980   6.245  10.554  0.0567 -0.0631 -0.1546
33734W        W40184  18.161   4.332  35.072 -0.2702  0.0625  0.0725
33735W        W40185  21.104   0.908   3.837  0.0280 -0.0164  0.1970
33736W        W40186  23.364   3.625   8.154  0.2590 -0.1523  0.1241
33737W        W40187   8.697   5.819  24.107  0.0036 -0.2856 -0.0513
33738W        W40188  19.655   5.754   3.661 -0.1268 -0.1755 -0.1011
33739W        W40189   5.776   3.312  27.665 -0.0979 -0.1424  0.1586
33740W        W40190  21.616   0.228  33.404  0.0064  0.0635 -0.1902
33741W        W40191  16.972   0.270   1.874  0.1172 -0.1591 -0.1676
33742W        W40192  21.255   4.436  23.161 -0.2668  0.3300 -0.0490
33743W        W40193   6.381   2.484  28.997  0.1393  0.1117 -0.0665
33744W        W40194  10.317   4.936   3.650  0.1755 -0.0434 -0.1558
33745W        W40195  24.117   3.456  24.025  0.0358  0.0814 -0.0505
33746W        W40196   8.177   0.026   0.104  0.0722 -0.1739 -0.1570
33747W        W40197  16.775   2.977   8.404  0.0828  0.2117  0.0093
33748W        W40198   7.302   0.125   3.367 -0.0350  0.2982  0.0620
33749W        W40199  10.587   1.856   0.250  0.4700  0.1634  0.0536
33750W        W40200  15.413   2.633   5.339  0.2601  0.0423  0.2071
33751W        W40201  16.370   0.122  28.570  0.2004 -0.2308  0.2245
33752W        W40202   2.219   2.411   5.901  0.2150  0.3756 -0.2363
33753W        W40203  20.502   2.601  11.778 -0.0454  0.1131 -0.0003
33754W        W40204  13.082   2.180  11.328 -0.1012 -0.0015  0.0610
33755W        W40205  20.091   2.924  22.057  0.0668  0.1257 -0.0101
33756W        W40206  16.963   5.145  21.512 -0.0347  0.1081 -0.1897
33757W        W40207  16.054   4.602   1.463  0.2904  0.1874 -0.3128
33758W        W40208  16.025   4.728   0.262 -0.2050  0.1526 -0.0831
33759W        W40209  20.186   2.476  33.194  0.0345 -0.0970  0.0227
33760W        W40210   2.140   4.500  23.509 -0.1627  0.2121  0.0084
33761W        W40211  10.812   1.730  14.438 -0.2519  0.2970 -0.3348
33762W        W40212   4.886   0.741   1.318 -0.2355  0.3181 -0.1007
33763W        W40213   4.203   5.454  12.830 -0.0709 -0.2792 -0.0551
33764W        W40214  11.079   1.403  32.525  0.0880 -0.0606 -0.1461
33765W        W40215  25.351   2.487   0.388  0.1550  0.3596  0.0774
33766W        W40216   0.884   3.131  20.981 -0.2884 -0.1854  0.0016
33767W        W40217  18.121   0.176   6.055 -0.1040  0.1332  0.0861
33768W        W40218  13.050   0.150  28.076 -0.0078  0.0635  0.0367
33769W        W40219  14.728   2.965  30.072  0.0838 -0.0262  0.2812
33770W        W40220   5.709   0.226   1.855 -0.2374  0.0718  0.2681
33771W        W40221   6.240   1.927   0.667 -0.1000 -0.1603  0.4263
33772W        W40222  16.493   1.499  26.282  0.1797  0.1534  0.0174
33773W        W40223   8.050   5.175  20.936 -0.0379 -0.1282 -0.2005
33774W        W40224  10.260   4.186  34.698 -0.1667 -0.0818  0.0515
33775W        W40225   4.750   4.000  29.190 -0.3939  0.0160 -0.3501
33776W        W40226  17.499   3.906  26.914  0.1038  0.0300  0.3416
33777W        W40227  13.179   5.258  32.032 -0.0999  0.0728  0.0175
33778W        W40228  22.804   5.342  21.995 -0.0582 -0.2863  0.0924
33779W        W40229  14.205   6.359  11.373  0.0762 -0.2566  0.1783
33780W        W40230  26.115   2.993  35.877  0.0160  0.1595 -0.1768
33781W        W40231  17.108   2.109  22.785 -0.0641  0.2640  0.0650
33782W        W40232   8.949   0.992   8.402 -0.0504 -0.2404  0.1467
33783W        W40233  20.719   0.601  26.889 -0.1001 -0.0936 -0.0365
33784W        W40234   4.669   1.888  28.968  0.0689  0.1547  0.3572
33785W        W40235   8.150   1.467   7.163  0.2720  0.1538 -0.0411
33786W        W40236   5.181   5.014  25.741  0.2239  0.0926  0.4710
33787W        W40237  20.621   4.761  13.348  0.0854  0.0295  0.1240
33788W        W40238  25.664   0.277   0.554 -0.0360  0.1655  0.2123
33789W        W40239   3.652   6.229   9.128 -0.0201 -0.0421  0.0313
33790W        W40240   4.909   1.812   9.796  0.0643 -0.0751  0.4190
33791W        W40241  16.979   5.919  12.754 -0.0908 -0.0257 -0.1552
33792W        W40242   8.758   4.290  21.726  0.1624  0.1070  0.0398
33793W        W40243  13.157   2.091   8.110 -0.2868  0.1864  0.2271
33794W        W40244   5.862   5.270   4.586  0.0841 -0.2134 -0.0667
33795W        W40245  12.228   0.184  29.808  0.1035 -0.0669 -0.0616
33796W        W40246  11.079   6.405  21.198 -0.2053 -0.2451 -0.1341
33797W        W40247  24.999   0.928  10.690 -0.0251  0.0453  0.0849
33798W        W40248   3.958   5.160   0.625 -0.1571  0.0227  0.0587
33799W        W40249   2.669   4.238  10.201  0.1267  0.0605  0.0843
33800W        W40250  17.597   1.176  10.289 -0.1040  0.3945  0.1205
33801W        W40251  18.126   1.087   4.912  0.0125  0.1588  0.0350
33802W        W40252  16.769   2.918  29.037 -0.2925  0.0515 -0.1832
33803W        W40253  12.518   6.487  11.760  0.0916 -0.0032  0.1477
33804W        W40254  10.149   2.877   7.367  0.0239  0.1358  0.2978
33805W        W40255  24.321   5.602  28.539 -0.2133  0.0107  0.2792
33806W        W40256   8.196   5.974  34.379 -0.0952  0.1764  0.0378
33807W        W40257  16.007   3.413   3.216  0.0203 -0.0656  0.0011
33808W        W40258  20.844   0.029   4.992 -0.0704  0.1096 -0.4088
33809W        W40259  25.073   0.421  15.174  0.0288  0.1235 -0.1337
33810W        W40260  22.436   4.811  35.039 -0.2986 -0.0416 -0.0607
33811W        W40261  26.351   5.137   5.024  0.2200  0.1550 -0.0094
33812W        W40262  13.450   3.397   9.098  0.0494 -0.0680  0.2602
33813W        W40263  15.143   4.463  28.373  0.1995  0.0209 -0.1941
33814W        W40264  10.883   5.810  35.723  0.1269 -0.2352 -0.2487
33815W        W40265  21.181   3.417  15.084 -0.0851 -0.0744 -0.0039
33816W        W40266  23.665   5.097  34.472  0.0274 -0.0887 -0.2174
33817W        W40267  23.544   6.603   3.685 -0.0654  0.1768 -0.0026
33818W        W40268   7.756   0.471  13.538 -0.1492 -0.1025  0.1618
33819W        W40269  12.302   1.961   9.754 -0.2252  0.0801 -0.0875
33820W        W40270  25.753   5.605   2.221  0.2072  0.0735  0.0168
33821W        W40271  10.959   4.370  25.345 -0.0462  0.1448  0.1153
33822W        W40272  12.715   3.452  11.505  0.1954 -0.2842 -0.0741
33823W        W40273  17.915   3.791  10.835 -0.1704  0.2475 -0.1117
33824W        W40274  10.277   2.837   3.151  0.3135 -0.2076  0.1438
33825W        W40275  25.534   2.065  30.691 -0.1019  0.1705 -0.4734
33826W        W40276   9.456   6.367   7.990  0.1302  0.0659 -0.1088
33827W        W40277   2.148   0.167   5.033  0.1460 -0.0675 -0.0333
33828W        W40278   7.869   3.662   5.038  0.0865  0.3233 -0.0880
33829W        W40279  23.229   0.484  24.223 -0.0748 -0.0290  0.2381
33830W        W40280   5.047   5.038  14.664 -0.0655 -0.2783  0.0312
33831W        W40281  21.798   0.271   4.068  0.0381  0.1395  0.3719
33832W        W40282  18.712   1.296  28.928 -0.0664  0.0317  0.0030
33833W        W40283  15.322   4.745  13.786  0.0200  0.2843  0.1913
33834W        W40284   6.384   1.335  30.681 -0.4928 -0.0003 -0.1064
33835W        W40285  14.229   5.779  26.382 -0.0763 -0.3228  0.3695
33836W        W40286   3.359   1.112   5.192 -0.1022 -0.0440 -0.2600
33837W        W40287   2.962   1.843  22.894  0.1511 -0.0347 -0.1188
33838W        W40288   3.057   3.171  35.248  0.2568  0.0294 -0.1635
33839W        W40289   1.964   6.410  10.655  0.2838  0.1773  0.2017
33840W        W40290  25.641   5.748  31.172 -0.2480  0.0988  0.1568
33841W        W40291  16.614   5.654  25.377 -0.1479 -0.0177 -0.4043
33842W        W40292  24.378   4.760   4.154 -0.0019 -0.1820  0.1486
33843W        W40293  19.748   1.127  13.489 -0.0504  0.0202 -0.2329
33844W        W40294   2.535   2.028  34.334  0.0538 -0.3398  0.1280
33845W        W40295  15.539   0.760  24.595  0.2110  0.0624 -0.4169
33846W        W40296   4.330   5.561  26.000  0.2159  0.0322  0.4360
33847W        W40297   1.883   0.126  30.006 -0.2067 -0.0877  0.2131
33848W        W40298  11.649   3.899  24.191  0.0354  0.1172  0.1805
33849W        W40299   5.011   2.859   2.627  0.0474  0.1331  0.1113
33850W        W40300   8.274   6.457  33.308  0.3620  0.0538 -0.1059
33851W        W40301   8.216   6.295   7.401 -0.0133  0.3762  0.4709
33852W        W40302  22.814   5.206   9.699 -0.0190 -0.0933  0.0425
33853W        W40303   7.527   5.884  10.408 -0.0353 -0.0961 -0.2339
33854W        W40304  23.245   4.365  35.193  0.1587 -0.0971  0.1887
33855W        W40305  23.452   0.363   9.575  0.2461 -0.0460  0.0189
33856W        W40306  25.779   2.566   1.162 -0.4782 -0.2483 -0.0155
33857W        W40307  15.447   3.587  32.195 -0.3208 -0.1156 -0.1055
33858W        W40308   8.401   2.513  21.530 -0.2569 -0.0864  0.2249
33859W        W40309  20.431   3.798   8.390 -0.0123 -0.5804 -0.0052
33860W        W40310  26.090   5.174  32.803  0.2878  0.0763 -0.0574
33861W        W40311   3.975   1.732   9.015  0.1829 -0.0624 -0.0829
33862W        W40312   6.091   4.058  12.956  0.2432 -0.1423  0.1099
33863W        W40313  21.000   2.417   1.030 -0.1654 -0.1605  0.0759
33864W        W40314   4.274   5.969  12.162  0.1902 -0.1070  0.1637
33865W        W40315   7.691   1.848  35.996  0.1437  0.0131 -0.0794
33866W        W40316  11.514   2.263  10.582 -0.0738  0.1889  0.2863
33867W        W40317   8.335   4.485   6.249  0.3885  0.0808 -0.4412
33868W        W40318  25.289   6.139   4.792 -0.1270  0.0068 -0.0197
33869W        W40319   1.918   5.842  32.830 -0.1272 -0.0383  0.2217
33870W        W40320  12.517   4.569  24.135  0.0946  0.1979 -0.0925
33871W        W40321  10.169   5.598  32.984 -0.2842 -0.2241  0.1000
33872W        W40322  14.727   3.268   4.931  0.0563  0.0068 -0.0370
33873W        W40323  12.843   2.762  30.336  0.0996 -0.1647  0.1886
33874W        W40324  21.784   1.708  32.360  0.3159 -0.0074  0.1979
33875W        W40325  12.655   5.698  28.278 -0.0766  0.1016 -0.0940
33876W        W40326  16.561   4.448   8.000  0.0835  0.1739 -0.0055
33877W        W40327  20.019   1.823  25.707  0.3125  0.1210  0.1896
33878W        W40328  13.759   3.586   1.994  0.0997  0.1899 -0.2545
33879W        W40329  19.732   4.928   5.897  0.3263 -0.0450 -0.0862
33880W        W40330  21.014   3.371  13.648 -0.1220  0.0574  0.3278
33881W        W40331  25.732   3.232   4.511 -0.1724  0.1850 -0.0371
33882W        W40332  22.029   1.012  13.526 -0.0095 -0.1169 -0.0240
33883W        W40333   0.435   2.327  14.656  0.1642 -0.1183  0.0403
33884W        W40334  18.091   6.048  25.575 -0.0767  0.1128  0.1889
33885W        W40335  12.089   2.333  13.945  0.2482 -0.0623 -0.2708
33886W        W40336  20.409   2.663  30.592 -0.0386 -0.1014 -0.0106
33887W        W40337  19.750   4.094  20.657  0.0027  0.0639 -0.1154
33888W        W40338  24.275   6.558  35.539  0.2714 -0.1182 -0.1025
33889W        W40339  25.923   5.256  28.675 -0.0043  0.5194  0.0152
33890W        W40340  25.799   0.655   4.519 -0.1628 -0.2646 -0.1749
33891W        W40341  10.416   0.143  33.027  0.0498  0.0956  0.0806
33892W        W40342   8.312   3.474   1.374  0.0241  0.1041 -0.3181
33893W        W40343  23.916   4.611  12.742 -0.1228  0.0485  0.3705
33894W        W40344   9.199   3.077  10.339 -0.2479 -0.1426  0.0213
33895W        W40345  17.197   2.819  26.489 -0.3196  0.0769 -0.0895
33896W        W40346  23.810   5.764  35.805  0.1488 -0.1566 -0.0474
33897W        W40347   4.428   4.466  15.149 -0.0488 -0.0775  0.1640
33898W        W40348  22.456   5.250   5.694  0.3332 -0.3714 -0.0523
33899W        W40349  22.821   2.520   0.678  0.1932  0.2101 -0.1928
33900W        W40350  25.248   0.712   4.456  0.0874 -0.3524  0.1481
33901W        W40351  25.398   2.963   2.746 -0.0578  0.2565 -0.2377
33902W        W40352  11.604   2.795   5.364  0.1820 -0.1375 -0.0043
33903W        W40353  22.777   5.698  32.118 -0.3604 -0.0560  0.2254
33904W        W40354   1.413   4.512   7.441  0.2838  0.1774 -0.3537
33905W        W40355   7.887   0.835  24.282 -0.1960  0.1509 -0.2957
33906W        W40356  20.603   5.111  10.176 -0.3207 -0.1039  0.0375
33907W        W40357  23.254   0.395  34.103  0.1119 -0.0629 -0.0629
33908W        W40358  20.846   0.157  27.007 -0.4072 -0.0532  0.1787
33909W        W40359   7.890   0.518   9.348 -0.0379 -0.0905  0.1141
33910W        W40360  19.503   4.473   1.475 -0.1476  0.0398  0.0865
33911W        W40361  24.709   4.026   4.270  0.0951  0.0661 -0.1423
33912W        W40362  26.033   2.147  11.552 -0.0085  0.1095  0.0352
33913W        W40363  16.290   2.066   0.388 -0.0315  0.0933 -0.2326
33914W        W40364   3.877   5.535  28.804 -0.0478  0.0809  0.1391
33915W        W40365  17.213   4.725  24.554 -0.3104 -0.1105  0.2044
33916W        W40366  19.645   5.459  28.924  0.3033 -0.1408 -0.0425
33917W        W40367   3.960   3.513  28.134  0.0794  0.1287  0.1767
33918W        W40368   7.942   3.773  23.696  0.1524 -0.0339  0.0106
33919W        W40369   4.748   2.007   3.638  0.1522 -0.0568  0.2088
33920W        W40370  12.677   6.028   6.620  0.0888  0.3416 -0.0045
33921W        W40371  11.960   2.136  29.216 -0.0032 -0.0176  0.0816
33922W        W40372   7.465   4.120  29.173  0.1447 -0.2166 -0.0035
33923W        W40373   1.943   4.791   0.220 -0.0695 -0.2711 -0.0694
33924W        W40374   5.902   3.032   6.816 -0.2187 -0.0936 -0.0320
33925W        W40375   3.815   1.921  27.019  0.0792 -0.0376  0.0590
33926W        W40376  18.432   3.228  23.461 -0.2192 -0.1250  0.1362
33927W        W40377  14.392   4.689  15.551  0.0959  0.1265  0.0343
33928W        W40378  19.270   5.566   6.875  0.2539 -0.1188  0.1395
33929W        W40379  22.991   6.177  15.315 -0.1815  0.0935  0.2257
33930W        W40380  17.018   2.549  14.688 -0.2582  0.1081  0.2098
33931W        W40381   9.920   4.551  32.033  0.0453 -0.1799 -0.2996
33932W        W40382  17.285   0.460   0.063 -0.2281 -0.0435 -0.1820
33933W        W40383   1.377   2.446   9.174  0.2259 -0.0633 -0.3235
33934W        W40384  14.862   1.754  33.837 -0.1936 -0.0173  0.0919
33935W        W40385  19.223   1.813  12.762 -0.1686  0.1038 -0.1116
33936W        W40386  21.001   1.483  31.583 -0.1967  0.4050 -0.1116
33937W        W40387  19.427   6.485  24.284 -0.1539 -0.0129 -0.2109
33938W        W40388   9.222   6.037  25.276 -0.1875 -0.1879  0.0104
33939W        W40389  13.483   2.670  14.271 -0.0018  0.0014  0.0673
33940W        W40390   8.864   5.068  25.497  0.1548  0.3598  0.2362
33941W        W40391   2.387   4.543  12.237 -0.0602 -0.0805  0.1115
33942W        W40392  24.737   3.006  20.371  0.1792  0.1825 -0.1100
33943W        W40393  20.609   2.796  13.444  0.0847  0.0220  0.1656
33944W        W40394  13.595   4.211   4.139 -0.0236  0.0125 -0.0965
33945W        W40395  24.388   1.438  11.463 -0.1890  0.1359 -0.3069
33946W        W40396  24.538   3.305  29.331 -0.2699  0.0149  0.0164
33947W        W40397   3.497   4.677   6.830 -0.2098 -0.0731 -0.2371
33948W        W40398  20.503   5.862  29.505  0.1332 -0.1321 -0.3946
33949W        W40399  13.996   0.430  25.260  0.0684 -0.1297  0.0748
33950W        W40400   4.206   3.056  21.818 -0.0296 -0.1317  0.0717
33951W        W40401   2.646   0.990  13.698 -0.3060 -0.0058  0.1088
33952W        W40402  24.346   2.861  28.151 -0.0655  0.1370 -0.2448
33953W        W40403   0.481   1.362  29.075  0.1562  0.0151 -0.0038
33954W        W40404   3.200   6.199  23.207  0.2647 -0.1558 -0.1857
33955W        W40405   9.486   3.108   0.241  0.1920  0.2754  0.0225
33956W        W40406  21.949   2.760  30.191  0.1579  0.0378 -0.0284
33957W        W40407  21.804   5.159  22.717  0.1102  0.1131  0.0944
33958W        W40408   7.860   2.295  35.844 -0.1533  0.0561 -0.0342
33959W        W40409  12.098   0.152  35.175 -0.1695  0.0477 -0.0597
33960W        W40410  17.601   0.288  35.784  0.0773 -0.0938 -0.2206
33961W        W40411  21.161   5.484   8.043 -0.0365  0.2793 -0.0945
33962W        W40412   4.197   1.092  10.706 -0.0675 -0.1946  0.0331
33963W        W40413  23.167   3.262   0.766 -0.0947 -0.3660  0.0269
33964W        W40414  23.673   5.521  28.203  0.0931 -0.0539  0.0227
33965W        W40415  17.459   0.058  13.000 -0.1674  0.1515  0.0890
33966W        W40416  25.865   4.809  24.380  0.0963  0.2419 -0.2761
33967W        W40417  18.711   4.746  20.552  0.1099 -0.2023 -0.1413
33968W        W40418  12.769   3.669   3.860  0.1593  0.2442 -0.0613
33969W        W40419   2.861   0.951  30.004  0.0803  0.1070  0.3755
33970W        W40420   6.666   5.228  14.161 -0.0650 -0.2613 -0.1711
33971W        W40421  11.087   1.316   8.058 -0.1413  0.3503 -0.0964
33972W        W40422   5.310   2.768  22.970  0.1559  0.1375 -0.3177
33973W        W40423  12.553   1.522  34.341 -0.0899  0.1335  0.1371
33974W        W40424  18.929   2.128  28.679  0.0359  0.1811  0.1048
33975W        W40425   2.508   4.349  32.106 -0.0278 -0.1010  0.0370
33976W        W40426  22.396   4.722  14.644 -0.0689 -0.2339  0.3312
33977W        W40427  18.806   2.709  10.534  0.1600  0.0547 -0.1467
33978W        W40428  25.219   0.662   6.425  0.1507  0.0413 -0.1291
33979W        W40429   1.840   3.403  11.699  0.0508 -0.3458 -0.1345
33980W        W40430  26.077   5.170  21.879 -0.2186  0.2313  0.0015
33981W        W40431  21.107   3.420  22.062  0.0931  0.1482  0.1079
33982W        W40432  14.726   1.223   0.666  0.0959 -0.0515  0.0690
33983W        W40433  12.837   3.549  12.882  0.1876 -0.0612  0.0490
33984W        W40434  20.228   4.411   0.767 -0.1640  0.0818 -0.1120
33985W        W40435  18.620   0.957   3.777  0.2972  0.1386 -0.1872
33986W        W40436  14.847   1.640   6.134  0.0782 -0.0492 -0.0676
33987W        W40437   0.921   5.880  24.400 -0.1065 -0.3899  0.2575
33988W        W40438  20.355   5.033   9.704  0.3418 -0.1651 -0.1949
33989W        W40439  11.811   0.439  28.091 -0.2557  0.0650  0.1772
33990W        W40440  13.618   4.044   1.232 -0.3031  0.0708 -0.0333
33991W        W40441  12.021   4.423   4.761 -0.2000  0.3139 -0.1725
33992W        W40442  21.630   1.654   4.216 -0.0578 -0.2634 -0.0738
33993W        W40443  14.051   4.687  26.244  0.3085 -0.0240  0.1944
33994W        W40444  13.965   0.017  13.848  0.1917 -0.1277 -0.0349
33995W        W40445  25.231   4.695   1.818 -0.2267  0.3650  0.1468
33996W        W40446   3.087   0.263   6.947 -0.0720 -0.0350 -0.0362
33997W        W40447  23.020   4.876   2.598  0.0475 -0.2140  0.1819
33998W        W40448  22.248   2.432   8.164 -0.0320  0.3121 -0.1970
33999W        W40449   0.396   1.514  32.537 -0.1215  0.2936 -0.1118
34000W        W40450  15.888   5.943   1.583 -0.0863 -0.0713 -0.2385
34001W        W40451  20.079   1.956  31.625 -0.1635  0.0459 -0.1051
34002W        W40452  22.461   4.510   4.968 -0.2670 -0.1506 -0.3389
34003W        W40453  14.408   4.451   9.401 -0.1807 -0.1737  0.0477
34004W        W40454  17.763   0.135  27.820  0.1352  0.3087  0.0331
34005W        W40455   4.079   4.410   8.925  0.0494 -0.1223 -0.0679
34006W        W40456  23.387   6.285  36.130  0.0435  0.1376 -0.0628
34007W        W40457  22.837   0.174  34.565 -0.0423 -0.0491 -0.0060
34008W        W40458  13.334   4.331  27.410  0.2502 -0.0484  0.2115
34009W        W40459   9.088   5.000  20.765 -0.0584 -0.0514 -0.0562
34010W        W40460  13.249   0.066  35.330 -0.2440 -0.1528 -0.1392
34011W        W40461  24.363   0.456  10.115  0.1636 -0.0699  0.0126
34012W        W40462  14.424   5.329  32.717  0.6014 -0.3343 -0.1150
34013W        W40463   0.350   5.471  35.348  0.1006 -0.2345  0.2247
34014W        W40464   1.109   1.565  32.128  0.1777  0.0944  0.3687
34015W        W40465   4.463   4.226  22.281 -0.2404  0.1810  0.0971
34016W        W40466   5.375   1.358   3.507  0.1037 -0.2316  0.0022
34017W        W40467   7.585   3.417  34.434 -0.1007 -0.0465 -0.3469
34018W        W40468   1.466   3.154  33.679  0.1978 -0.3170  0.2862
34019W        W40469  16.724   0.542  28.570  0.0389 -0.0233 -0.0353
34020W        W40470   1.285   5.724  34.984 -0.1248  0.1152  0.0491
34021W        W40471  17.808   5.180  27.212 -0.0621  0.1966  0.2468
34022W        W40472  21.931   1.529  29.655 -0.1365 -0.0109 -0.4776
34023W        W40473  10.906   2.589  30.774 -0.1246  0.2383 -0.0460
34024W        W40474   8.432   3.879  32.022 -0.2026  0.0683 -0.1756
34025W        W40475   0.999   2.004   1.850  0.1291  0.1156 -0.3142
34026W        W40476  22.983   3.835  29.634 -0.2897  0.2099  0.1319
34027W        W40477  16.184   5.848   7.066  0.0990  0.0041  0.5173
34028W        W40478  24.670   1.156   4.494  0.4065  0.1978 -0.1620
34029W        W40479  23.574   4.987  22.335 -0.0054 -0.0544  0.1053
34030W        W40480  22.967   2.860   5.198  0.0037 -0.2248  0.1029
34031W        W40481  21.962   0.534  24.545  0.1073  0.1996  0.1135
34032W        W40482   2.478   0.693  23.592  0.0437 -0.2106 -0.0870
34033W        W40483   3.159   6.138  32.492  0.1272 -0.0151 -0.3430
34034W        W40484   7.813   4.248  20.820 -0.1687 -0.0137 -0.1898
34035W        W40485  12.242   0.884  22.175 -0.1152  0.2565 -0.5101
34036W        W40486   8.084   3.008  10.171 -0.1633 -0.0114  0.2696
34037W        W40487   3.882   5.362   1.861 -0.0171 -0.0155 -0.2647
34038W        W40488   3.002   5.139  29.223 -0.0775  0.1052 -0.1809
34039W        W40489   4.151   4.688  21.315 -0.0036  0.2081  0.2337
34040W        W40490  18.670   4.061  34.234  0.1094 -0.1674  0.0419
34041W        W40491   3.489   4.859  26.095 -0.1603  0.1314  0.3342
34042W        W40492  13.730   5.617  29.259  0.1032 -0.0432  0.2188
34043W        W40493   4.057   2.275  13.899 -0.1224  0.1925 -0.2581
34044W        W40494   0.681   4.404  33.449 -0.1187 -0.1659  0.0633
34045W        W40495   0.188   6.330  29.294 -0.0864 -0.1622 -0.2950
34046W        W40496   4.734   2.438  35.249  0.2897 -0.2378 -0.3581
34047W        W40497  11.628   2.277   3.165  0.2482 -0.0751  0.2956
34048W        W40498  13.790   5.291   4.135  0.0781 -0.1300 -0.0179
34049W        W40499  10.417   5.457  28.782  0.0303  0.0337 -0.2237
34050W        W40500  12.942   4.356  31.282 -0.0829 -0.1093  0.3137
34051W        W40501   3.422   0.973  32.183 -0.0201 -0.2374 -0.0845
34052W        W40502  13.380   4.507  35.699 -0.0290  0.2664  0.1206
34053W        W40503  13.684   3.442  21.555  0.0182 -0.0362 -0.2226
34054W        W40504  17.675   0.156  21.259  0.0773 -0.0328  0.0457
34055W        W40505  10.241   2.506  35.140 -0.0842 -0.2164  0.1279
34056W        W40506   2.944   5.314   0.562 -0.3982  0.4856  0.0292
34057W        W40507   6.833   1.145  20.351 -0.2226 -0.1314  0.0977
34058W        W40508  24.727   0.801  23.304  0.0126 -0.0510  0.2267
34059W        W40509   4.993   1.883   6.722 -0.0879  0.2160 -0.0245
34060W        W40510   7.751   3.654   2.570 -0.1408 -0.0037 -0.1489
34061W        W40511  24.374   0.469  32.242  0.0079  0.0993  0.0830
34062W        W40512  24.179   4.382  14.787  0.2655 -0.0492 -0.0004
34063W        W40513  14.508   6.031   1.527 -0.0829  0.1385  0.1649
34064W        W40514  22.745   1.172  12.520  0.3275  0.0121  0.1300
34065W        W40515  16.990   2.764  31.492  0.0574 -0.2101  0.1212
34066W        W40516   0.900   6.186   7.164 -0.0476  0.1016 -0.2002
34067W        W40517  11.923   2.786  23.550 -0.0630  0.2978 -0.0252
34068W        W40518  10.781   0.838  22.536  0.0230 -0.0292 -0.0644
34069W        W40519  24.014   2.697   5.215  0.0272  0.0753 -0.1364
34070W        W40520  15.780   0.753  33.044 -0.1720  0.0296 -0.0458
34071W        W40521  15.719   4.476  13.045 -0.1980  0.0118  0.2589
34072W        W40522   4.694   3.767   9.253 -0.0218 -0.0201  0.1591
34073W        W40523  22.020   4.229  22.722  0.1974  0.0396 -0.1936
34074W        W40524  14.136   5.693  11.223 -0.2979  0.0853  0.0625
34075W        W40525  10.850   4.587  20.860 -0.0784  0.3223 -0.0348
34076W        W40526  17.573   0.116   1.302  0.1717 -0.0026 -0.3424
34077W        W40527  14.270   6.026  26.804 -0.2514 -0.0499  0.2941
34078W        W40528  16.264   4.044  22.067 -0.1641 -0.2495 -0.0194
34079W        W40529  11.840   4.786  13.605  0.1818  0.1246 -0.2697
34080W        W40530  16.772   3.111  10.057 -0.0418  0.1763 -0.0707
34081W        W40531   0.050   5.055  30.368  0.0548  0.0274  0.3152
34082W        W40532  21.334   1.766   0.478  0.2684  0.3098 -0.1158
34083W        W40533  17.225   3.030   6.097  0.1628  0.0145  0.1144
34084W        W40534  18.223   5.127  12.943 -0.0656  0.0477  0.1490
34085W        W40535   4.117   5.631   5.768  0.0385 -0.0159 -0.2810
34086W        W40536   3.648   2.523  19.923 -0.1936  0.1414  0.1185
34087W        W40537  20.836   1.750  35.483 -0.1693  0.2733  0.0492
34088W        W40538  16.986   4.825   2.459  0.0815 -0.2226 -0.0353
34089W        W40539   2.546   5.294  27.274 -0.1467 -0.1612  0.1190
34090W        W40540   9.349   0.383  27.810 -0.1248  0.3809 -0.0501
34091W        W40541  15.625   3.929  13.362  0.0233  0.0683 -0.0874
34092W        W40542   7.570   1.834  27.131  0.0750 -0.1703  0.2021
34093W        W40543  14.368   0.490  14.613 -0.1559  0.0945 -0.1830
34094W        W40544  25.827   4.744   6.790  0.0034  0.0178 -0.4472
34095W        W40545  12.233   0.954   3.166  0.0797  0.1617  0.1727
34096W        W40546   4.213   5.901   2.294 -0.0005 -0.0519 -0.1994
34097W        W40547  24.039   5.117   0.056 -0.2428 -0.0018  0.2420
34098W        W40548   0.053   2.626   4.755  0.0404 -0.0862 -0.1220
34099W        W40549  19.025   5.514  35.390  0.0190 -0.0811 -0.0356
34100W        W40550   9.319   1.348   4.752  0.1695  0.1257 -0.0686
34101W        W40551  21.668   5.309  26.633 -0.0915  0.0375  0.1139
34102W        W40552   5.034   6.314   1.808 -0.0931  0.1264  0.2429
34103W        W40553   7.414   2.590  33.509 -0.1116  0.1319 -0.2250
34104W        W40554  22.588   2.668  28.856  0.0817  0.2916 -0.1582
34105W        W40555   4.795   5.372  14.454 -0.0165 -0.1642  0.2589
34106W        W40556  11.902   4.509  12.612  0.1114 -0.1303  0.1204
34107W        W40557  10.168   5.193  25.337  0.2481  0.3971  0.0592
34108W        W40558  15.380   4.659  15.324 -0.0794 -0.1940  0.0259
34109W        W40559   9.890   3.597  34.098  0.0558  0.0026 -0.1064
34110W        W40560   1.467   1.101   6.559 -0.1032 -0.0541 -0.0561
34111W        W40561  21.661   3.936  34.217 -0.1995  0.0830  0.1265
34112W        W40562  12.992   3.232  30.480 -0.0024  0.0874 -0.2232
34113W        W40563  12.077   3.470  28.819 -0.1984 -0.3931 -0.2075
34114W        W40564   2.763   3.297  10.637 -0.0548 -0.1948 -0.3447
34115W        W40565  23.266   3.090   5.480  0.1175  0.0765  0.2582
34116W        W40566   0.589   5.422  10.509 -0.0608  0.1936  0.3254
34117W        W40567  17.541   2.657  27.889  0.1751  0.1230 -0.0932
34118W        W40568   5.854   2.726  35.812  0.4930  0.1808  0.1114
34119W        W40569   3.916   3.467  22.364 -0.0111 -0.1728  0.0610
34120W        W40570  22.848   3.968   3.881 -0.2245 -0.3339  0.2114
34121W        W40571   8.584   5.839  26.804  0.1576  0.0232 -0.2127
34122W        W40572   1.189   6.078  27.774  0.3346 -0.1174 -0.2602
34123W        W40573   5.626   3.131  26.765 -0.3672 -0.0349 -0.0523
34124W        W40574  20.949   3.069  35.205  0.0159  0.3268 -0.2157
34125W        W40575   3.675   0.253  33.440 -0.1371 -0.2278  0.0644
34126W        W40576  15.294   2.150   5.625  0.1115 -0.0981 -0.0198
34127W        W40577   5.314   0.970  15.705  0.1484 -0.2321 -0.1544
34128W        W40578  21.136   1.498  11.128  0.0547  0.1557  0.1046
34129W        W40579  23.942   3.315   5.885 -0.0243 -0.0882 -0.2167
34130W        W40580  24.201   3.059  14.325  0.0809 -0.0513  0.1182
34131W        W40581   5.733   5.673  31.134  0.1238 -0.1847  0.0230
34132W        W40582  18.088   2.418  22.005 -0.0929  0.0342  0.2026
34133W        W40583   2.520   1.823   0.858  0.1449 -0.0412 -0.2791
34134W        W40584  11.494   3.243  32.647  0.0184  0.1166  0.1221
34135W        W40585  19.988   1.207  35.533  0.0537  0.0846 -0.0708
34136W        W40586  12.710   4.447   1.549  0.2028 -0.0247  0.1829
34137W        W40587   5.239   2.513  23.876  0.1463 -0.0618 -0.0480
34138W        W40588  22.986   2.577  11.429  0.1535  0.0508 -0.0082
34139W        W40589  18.386   4.844  22.525 -0.1432  0.1862  0.0412
34140W        W40590  12.075   6.412  26.908  0.1243 -0.1838 -0.2883
34141W        W40591   0.643   5.824  24.962 -0.1891  0.2905 -0.1390
34142W        W40592   6.076   2.390  23.963  0.1605 -0.2963  0.0735
34143W        W40593  23.551   4.151  33.309 -0.4166 -0.1207 -0.1449
34144W        W40594  15.145   0.914  13.684  0.0822  0.2102  0.0858
34145W        W40595  20.772   2.631  28.065  0.3012  0.2033 -0.3314
34146W        W40596  14.680   6.177   8.881  0.0151 -0.2861  0.0224
34147W        W40597  12.592   0.941   2.524  0.2073  0.1974  0.1752
34148W        W40598   5.072   0.931  25.927 -0.1906 -0.1967 -0.1524
34149W        W40599  18.681   0.074   4.843  0.2508 -0.1984  0.1156
34150W        W40600  17.122   4.970  12.823  0.0519 -0.2542  0.0101
34151W        W40601  23.431   3.528  22.836 -0.0340 -0.0891  0.1145
34152W        W40602  15.843   5.897   0.960  0.2025  0.2135  0.0634
34153W        W40603  15.775   4.382  12.568 -0.2937  0.2773  0.1760
34154W        W40604  18.462   3.368  24.237 -0.2845 -0.2599  0.0265
34155W        W40605   5.193   4.096   4.379 -0.2319 -0.0395 -0.2146
34156W        W40606  10.369   2.984  10.437  0.0086 -0.1359 -0.0673
34157W        W40607   6.648   6.121  27.798  0.1696  0.0736 -0.0733
34158W        W40608  10.175   2.485  15.485  0.2645 -0.3188  0.2235
34159W        W40609   7.276   5.119   6.105 -0.2152  0.1199  0.1932
34160W        W40610  20.312   2.633  28.342 -0.0812  0.1461  0.0220
34161W        W40611  10.271   0.310  31.102 -0.2529 -0.1185 -0.1311
34162W        W40612  10.011   2.650  30.662 -0.0255  0.0488 -0.1623
34163W        W40613  19.080   2.962  22.769  0.3133 -0.1640 -0.0327
34164W        W40614   1.051   6.435  31.679 -0.0329 -0.3241 -0.0695
34165W        W40615   4.236   2.517  10.574  0.1601  0.1083 -0.0914
34166W        W40616   9.891   4.115   3.779  0.1771 -0.0094 -0.0570
34167W        W40617  11.703   3.100  11.449  0.1283 -0.0649 -0.1598
34168W        W40618   7.515   6.290   4.729  0.0411 -0.1575  0.4246
34169W        W40619  11.938   0.893  21.309  0.1668 -0.1187 -0.1182
34170W        W40620  19.367   4.064   2.887  0.1244  0.0251  0.0389
34171W        W40621  11.189   2.352   9.313  0.3808 -0.1421  0.1476
34172W        W40622   7.986   2.287  13.299 -0.2344 -0.1072  0.4024
34173W        W40623   9.096   2.186  28.233  0.1422 -0.1599 -0.3212
34174W        W40624   8.628   2.848  30.772 -0.1422 -0.1669  0.2471
34175W        W40625  16.753   4.714  31.656 -0.1749 -0.1248 -0.4983
34176W        W40626  10.765   2.850   0.593 -0.0404 -0.1744  0.1518
34177W        W40627  16.256   4.114  11.192 -0.0780  0.0953 -0.2504
34178W        W40628   7.926   2.356   7.380  0.1359 -0.2843 -0.1402
34179W        W40629  19.992   1.605   4.363 -0.3406  0.1498  0.0798
34180W        W40630   5.514   4.568  33.917 -0.0946 -0.3013 -0.2046
34181W        W40631   6.630   2.584   4.787 -0.0952 -0.1627  0.3034
34182W        W40632  20.677   3.753  11.534  0.0899  0.1989 -0.0298
34183W        W40633  14.993   0.279   2.955  0.2646 -0.0921  0.2582
34184W        W40634   7.506   5.160   4.696  0.1428 -0.0000  0.1934
34185W        W40635  15.819   6.068  21.076 -0.0789  0.0561  0.2407
34186W        W40636   5.499   0.356   0.095 -0.1138 -0.0131  0.0220
34187W        W40637  19.236   6.375  26.511 -0.0844 -0.2111 -0.4259
34188W        W40638   8.923   1.581   7.700 -0.1842  0.0384  0.0590
34189W        W40639   0.063   1.142   2.975  0.0447 -0.2143 -0.2190
34190W        W40640  23.203   5.616  12.734  0.1578 -0.1369 -0.0022
34191W        W40641  13.489   5.162  13.486 -0.0200  0.1264 -0.5185
34192W        W40642   5.438   5.835  22.355  0.0747 -0.3708 -0.1763
34193W        W40643  10.149   3.313  34.454  0.0494 -0.0366  0.2886
34194W        W40644  12.984   5.573  23.459  0.0283 -0.1056 -0.3359
34195W        W40645   9.681   5.913   1.094 -0.1512 -0.0216  0.1043
34196W        W40646  21.483   4.641   9.602 -0.2962  0.0921 -0.1453
34197W        W40647   9.475   2.511  14.697  0.0575  0.0444  0.1735
34198W        W40648   6.324   4.803  33.946  0.0081 -0.1899  0.0465
34199W        W40649   2.752   0.735  29.102  0.0862  0.0183  0.0789
34200W        W40650   9.994   0.285  26.341  0.0172  0.2859 -0.0162
34201W        W40651  21.767   5.659  32.437  0.3963 -0.1705  0.0094
34202W        W40652  10.721   4.081  35.681 -0.1207 -0.0540 -0.0679
34203W        W40653  14.462   6.054   9.354 -0.1963 -0.0625  0.2510
34204W        W40654   9.178   1.096  32.183 -0.1210  0.1825  0.0080
34205W        W40655  20.090   6.376   7.068  0.0669  0.0773 -0.2770
34206W        W40656   6.917   4.616  29.300  0.1401  0.0147  0.0806
34207W        W40657  12.339   6.052   2.544  0.2207  0.0464 -0.0919
34208W        W40658  24.253   2.209  24.924  0.1241  0.4176  0.2476
34209W        W40659  22.774   0.040  30.686 -0.1213 -0.1193 -0.0512
34210W        W40660  22.038   1.399   2.653 -0.1151  0.2138  0.0590
34211W        W40661   3.916   6.586   0.349  0.1884  0.1426  0.2997
34212W        W40662  14.686   6.500  26.127  0.1418 -0.2661 -0.2627
34213W        W40663  24.268   0.884   0.073 -0.0605 -0.0444  0.0461
34214W        W40664  11.947   5.852  31.814 -0.0593  0.1126  0.0587
34215W        W40665  20.749   3.139  20.807 -0.0386 -0.1446 -0.1255
34216W        W40666  16.313   1.062   8.405 -0.1462 -0.2260 -0.1819
34217W        W40667   8.809   0.113  29.722 -0.0618  0.0036 -0.2691
34218W        W40668  20.080   1.604   0.371 -0.2354 -0.1011  0.4033
34219W        W40669  12.719   3.432   9.429  0.0347  0.0463  0.0371
34220W        W40670  14.171   0.656  12.836 -0.0826 -0.1802 -0.0361
34221W        W40671   3.925   1.409  23.403  0.1157 -0.0624  0.1534
34222W        W40672   4.639   3.777  13.580 -0.2463  0.0120 -0.1685
34223W        W40673  12.862   4.667   1.978  0.2927  0.0227 -0.0723
34224W        W40674   1.882   5.279  31.666  0.0861 -0.0448 -0.0482
34225W        W40675  22.423   6.462  23.400 -0.1495  0.1303  0.0019
34226W        W40676   4.812   4.658  30.427 -0.0305 -0.3425  0.1861
34227W        W40677  20.532   6.375   7.351  0.1337 -0.0721  0.1713
34228W        W40678   1.993   1.443  31.129 -0.3753  0.1783 -0.0098
34229W        W40679  20.774   2.356   8.432 -0.1738 -0.0282 -0.0656
34230W        W40680  20.839   4.861   9.553 -0.0528 -0.2509  0.0464
34231W        W40681  18.391   4.896   0.792  0.2684  0.2260 -0.0976
34232W        W40682  23.321   3.769  28.678  0.2467  0.0253 -0.3259
34233W        W40683  21.764   3.800  13.225 -0.2113  0.2114 -0.1030
34234W        W40684   7.666   5.443   4.324  0.1183 -0.1249  0.3119
34235W        W40685  17.161   3.320   2.719  0.0650 -0.0430 -0.0389
34236W        W40686  16.731   3.409  13.757 -0.0786 -0.0180 -0.2444
34237W        W40687   0.283   4.607   1.311 -0.0473  0.0495 -0.2252
34238W        W40688   8.405   5.858  28.146 -0.2262  0.2165 -0.0236
34239W        W40689   1.329   3.256  31.182 -0.1400  0.0562  0.1708
34240W        W40690  25.621   1.592  35.408  0.1175  0.2239  0.0064
34241W        W40691  19.804   3.458  33.169  0.2157 -0.0570 -0.0383
34242W        W40692   5.593   2.186   3.446  0.0123  0.0505  0.1939
34243W        W40693  12.107   1.978   9.231  0.3848  0.0241 -0.2411
34244W        W40694  23.791   5.497   3.582 -0.0309  0.1024 -0.0301
34245W        W40695  12.293   0.748   9.541  0.1597  0.2847  0.0219
34246W        W40696  17.345   3.490  31.093  0.0671 -0.2321  0.1532
34247W        W40697  12.269   3.654  11.389  0.2450  0.4750  0.2692
34248W        W40698  11.529   4.595  28.798  0.1962  0.1713  0.2093
34249W        W40699   2.973   0.665  13.642 -0.0284  0.0215  0.0896
34250W        W40700   6.007   1.041   6.867  0.2176  0.2653  0.1720
34251W        W40701  17.250   2.433  12.866 -0.3767  0.2129 -0.0441
34252W        W40702   8.002   0.889  33.234  0.0820  0.0761 -0.2198
34253W        W40703  19.944   0.516  23.666 -0.0143  0.0864 -0.0243
34254W        W40704  20.319   2.332  13.598  0.0267  0.1036  0.0777
34255W        W40705  17.610   1.452  31.840 -0.1682  0.0022  0.0335
34256W        W40706  20.660   1.068   2.693  0.2821  0.0393  0.2854
34257W        W40707  13.230   1.114  11.472  0.1981  0.0437  0.4015
34258W        W40708  14.786   4.689  29.559  0.0048 -0.1216  0.1843
34259W        W40709  19.099   1.130  14.627  0.0883  0.0475  0.0373
34260W        W40710   5.711   4.109  10.116  0.0634  0.0214  0.0199
34261W        W40711  26.256   3.905  31.924 -0.0975  0.0907 -0.2220
34262W        W40712  23.110   2.370  35.101 -0.2497 -0.0029  0.5151
34263W        W40713  20.079   5.009   3.461 -0.2196  0.0315  0.1217
34264W        W40714  21.572   2.180  35.541 -0.1657 -0.1054  0.2109
34265W        W40715  12.370   6.114   3.709  0.0419 -0.1936 -0.1328
34266W        W40716  19.657   0.767  32.934  0.1722  0.0717 -0.0595
34267W        W40717  10.898   6.396  30.037 -0.3258  0.3803  0.1590
34268W        W40718   6.437   4.147  26.737  0.2909  0.1205  0.2461
34269W        W40719  24.077   2.957  21.089 -0.0332  0.1557  0.2460
34270W        W40720   3.299   1.349  12.097 -0.0112 -0.1551 -0.1061
34271W        W40721  17.926   5.664  14.091  0.0796  0.2888  0.2328
34272W        W40722  17.004   4.729  15.871  0.0438 -0.1281  0.0467
34273W        W40723   1.833   5.096  23.210  0.0487  0.0292  0.2872
34274W        W40724   1.528   0.967  14.667  0.3596  0.1145  0.2234
34275W        W40725   2.382   3.173  35.459  0.0887 -0.0220 -0.1863
34276W        W40726   7.526   0.515  19.836 -0.2623  0.0835 -0.1177
34277W        W40727   7.922   0.845   3.072 -0.0827 -0.0261  0.3085
34278W        W40728   0.011   0.716  31.867  0.0308  0.0114 -0.2071
34279W        W40729   7.108   2.135   3.853  0.0901 -0.2168 -0.1467
34280W        W40730   3.843   4.043  28.342 -0.0034  0.0676 -0.2705
34281W        W40731   7.264   0.529   2.399  0.1124 -0.0049 -0.0336
34282W        W40732   8.321   6.251  34.009  0.4241 -0.1782 -0.1378
34283W        W40733   4.343   6.389   2.444  0.0075 -0.0988  0.1188
34284W        W40734  10.414   4.946  10.847  0.2117  0.2906 -0.0430
34285W        W40735  13.766   0.955  29.077  0.2997  0.0168  0.0008
34286W        W40736  12.732   3.837  13.333  0.0136 -0.1392  0.3703
34287W        W40737  23.042   6.215  32.687  0.2841 -0.1319 -0.0723
34288W        W40738   6.441   6.501   3.316 -0.0923  0.0929 -0.2619
34289W        W40739  14.867   2.201  30.862  0.0149 -0.1098 -0.1777
34290W        W40740  18.611   3.285  35.759 -0.1837 -0.0825 -0.0815
34291W        W40741   5.643   3.224  26.093 -0.1076  0.2765  0.1911
34292W        W40742   8.098   1.406  35.161  0.0692 -0.0975 -0.2428
34293W        W40743  23.807   5.595   7.963  0.1978  0.2370 -0.1728
34294W        W40744  23.825   1.177   3.871 -0.2786 -0.0759  0.2717
34295W        W40745   0.956   5.911   5.042  0.2136  0.2844 -0.1926
34296W        W40746   0.619   5.600   5.203 -0.3317  0.1693 -0.0931
34297W        W40747   2.490   1.194   5.102  0.0310 -0.1519  0.1414
34298W        W40748  22.946   0.383  35.545  0.0902 -0.0801  0.4094
34299W        W40749  25.103   6.126  25.556  0.0364  0.0869 -0.2323
34300W        W40750  16.093   6.558  13.730 -0.0620  0.0100  0.2767
34301W        W40751  15.018   5.070  31.963 -0.1228  0.0533  0.0170
34302W        W40752   3.746   2.118  11.762 -0.1422  0.1574  0.0676
34303W        W40753  18.850   1.548  20.659  0.0909 -0.0710 -0.1777
34304W        W40754   0.063   4.296  26.037  0.2720 -0.1035  0.1077
34305W        W40755   1.014   6.426   0.019 -0.2889  0.0831 -0.1626
34306W        W40756   5.254   6.402  35.616  0.3477 -0.0133  0.2660
34307W        W40757   1.798   3.469  32.113 -0.0310  0.0465  0.4304
34308W        W40758   1.209   5.683  30.697  0.0015  0.1969 -0.1170
34309W        W40759   6.863   2.780  20.758  0.3448 -0.0218 -0.1796
34310W        W40760   6.971   3.165  23.963 -0.0819 -0.0025  0.0398
34311W        W40761  14.700   3.560   5.337 -0.1451  0.0654  0.0121
34312W        W40762   0.399   1.880   6.863 -0.0325 -0.1809 -0.1623
34313W        W40763   2.849   1.457  35.148 -0.2328  0.0176  0.2362
34314W        W40764  25.767   1.622  10.821 -0.3306  0.1399 -0.1391
34315W        W40765   4.179   2.854  26.658 -0.2378 -0.0507  0.1404
34316W        W40766   1.529   6.174  29.358  0.0428  0.0379  0.1505
34317W        W40767  14.280   0.349  26.699 -0.0244 -0.1957 -0.1862
34318W        W40768  14.540   0.105   5.373  0.2060 -0.1201 -0.0058
34319W        W40769  11.432   0.251  22.280 -0.2750  0.0296  0.0302
34320W        W40770   2.804   1.593  29.501  0.0769 -0.1686 -0.0207
34321W        W40771   6.939   1.640  26.993  0.0377  0.0833  0.4460
34322W        W40772   3.441   0.902  25.377  0.1136  0.0777 -0.1264
34323W        W40773  21.179   0.432  27.826 -0.3021  0.1200 -0.0968
34324W        W40774   0.190   5.456  15.290 -0.1577  0.1267  0.1930
34325W        W40775  14.165   3.202   8.496  0.2388  0.1097  0.0662
34326W        W40776  14.595   5.893   3.098  0.0370  0.0172  0.1849
34327W        W40777   7.306   2.565  32.428 -0.0457 -0.0184  0.1257
34328W        W40778   4.120   4.288  30.344  0.1269 -0.2399  0.0077
34329W        W40779  11.961   1.268  26.317 -0.3467  0.3988  0.1256
34330W        W40780   5.042   5.061   9.784 -0.0137  0.0774 -0.0527
34331W        W40781  21.056   2.409  33.608 -0.0032  0.1891 -0.3651
34332W        W40782  25.190   1.200  33.690 -0.0419 -0.1960  0.0180
34333W        W40783  24.961   4.489  11.694  0.1397  0.0527 -0.2626
34334W        W40784  21.233   1.679  23.594  0.0056 -0.1740  0.1607
34335W        W40785   0.459   0.951   4.899 -0.0853 -0.2777 -0.1270
34336W        W40786   6.506   3.292  11.369  0.1931  0.1365 -0.0433
34337W        W40787  24.163   1.021  24.068 -0.0413 -0.0144  0.1480
34338W        W40788   2.189   0.831  28.294  0.2734  0.2029 -0.4912
34339W        W40789  26.045   6.096  23.411 -0.1273  0.1223 -0.0657
34340W        W40790  23.649   6.386  11.327 -0.1670  0.2870 -0.0284
34341W        W40791  16.879   6.394  26.579  0.0517  0.0754  0.1157
34342W        W40792  25.824   4.827   5.319  0.0646 -0.0066  0.0383
34343W        W40793   1.000   3.751   9.950 -0.1370  0.0416 -0.1743
34344W        W40794   6.295   0.599   2.543  0.3336  0.0787 -0.0063
34345W        W40795  20.219   5.673  21.971  0.1944 -0.0339  0.0636
34346W        W40796   1.021   2.700  13.474  0.4341 -0.0389 -0.0212
34347W        W40797  25.721   6.260  24.476  0.0967  0.0226 -0.1366
34348W        W40798  10.364   0.505  32.711  0.1452 -0.1745  0.2215
34349W        W40799   7.539   1.412  35.174 -0.3508  0.2008  0.1151
34350W        W40800  13.669   4.582  12.806  0.0056 -0.0614  0.1562
34351W        W40801  20.963   4.711  10.492 -0.0437 -0.3450 -0.1294
34352W        W40802   0.299   4.958   4.038  0.0493  0.1461 -0.1790
34353W        W40803   5.772   6.112   5.589  0.0662 -0.1475  0.0335
34354W        W40804  14.554   1.725  31.897 -0.0613 -0.1059  0.1196
34355W        W40805  25.985   2.692   0.696 -0.0719  0.2038  0.1081
34356W        W40806   6.082   5.029  15.382 -0.4265  0.0920  0.0931
34357W        W40807  23.635   2.155   2.607 -0.0789  0.1246 -0.0271
34358W        W40808  24.530   4.653  28.263  0.0125 -0.0055  0.1341
34359W        W40809  15.366   1.190  13.048 -0.4146 -0.0164 -0.2939
34360W        W40810   0.622   4.918  11.812  0.1486  0.0257 -0.1690
34361W        W40811   1.122   5.612  13.630  0.4775  0.1733 -0.1261
34362W        W40812  13.234   1.035  26.229 -0.0501 -0.0142 -0.1121
34363W        W40813   7.919   4.064  27.740  0.3520 -0.0193  0.0370
34364W        W40814   4.659   4.016  28.224  0.0081  0.1356 -0.2801
34365W        W40815  14.965   3.463   7.113  0.4150 -0.0746 -0.1216
34366W        W40816   9.438   1.237  28.746  0.2287 -0.4371 -0.0092
34367W        W40817  16.668   6.416  26.124  0.0429 -0.0006 -0.1381
34368W        W40818  10.928   5.787   5.785  0.5022 -0.0949  0.3846
34369W        W40819  10.842   1.816  34.663  0.0279 -0.1015 -0.1585
34370W        W40820  11.929   3.333  30.318 -0.0026  0.0340 -0.0645
34371W        W40821  20.657   0.213  27.741  0.0326  0.2114 -0.0142
34372W        W40822   0.496   1.072  23.014  0.1319 -0.4793  0.0154
34373W        W40823   9.477   0.353  25.520 -0.1670  0.0529 -0.1877
34374W        W40824   5.200   5.318  31.093 -0.1437 -0.3684  0.0021
34375W        W40825   5.836   0.827  26.265 -0.0827  0.1259 -0.2191
34376W        W40826  16.490   3.557  25.857  0.1525 -0.0447 -0.0841
34377W        W40827   6.687   1.057   5.558  0.0697  0.0435 -0.0858
34378W        W40828   4.254   5.669  28.507 -0.1533 -0.0523  0.1256
34379W        W40829  20.400   0.123  34.846  0.1176  0.2475  0.1777
34380W        W40830   5.261   4.728   8.240  0.0912 -0.0048 -0.1316
34381W        W40831   8.575   4.797  23.973  0.1615  0.4135  0.1504
34382W        W40832  16.663   4.279  21.826  0.2793  0.0467  0.0061
34383W        W40833  11.362   5.849  11.150 -0.0232  0.0040  0.1837
34384W        W40834  16.777   6.388   3.081  0.0502  0.0519 -0.1476
34385W        W40835   1.266   5.751   3.430 -0.2220 -0.2691  0.0163
34386W        W40836  23.861   2.772  32.465 -0.2329 -0.1432 -0.0025
34387W        W40837   6.283   4.857  30.033  0.1437 -0.1561  0.0576
34388W        W40838  11.197   2.001   4.329  0.0960 -0.3126  0.0293
34389W        W40839   5.863   2.752   6.449  0.1946 -0.2940  0.0261
34390W        W40840  12.063   3.540  24.317 -0.0166  0.0270  0.2673
34391W        W40841  12.027   1.659  21.107 -0.1676  0.1143  0.2568
34392W        W40842  17.028   3.808   5.506 -0.0780  0.1722 -0.2136
34393W        W40843  16.552   1.900  30.243 -0.3998  0.1029 -0.0946
34394W        W40844  14.362   0.521   1.270  0.1472  0.2949 -0.0739
34395W        W40845  22.045   5.304   2.817  0.1324  0.0877  0.1075
34396W        W40846   9.178   4.053  30.467 -0.3186 -0.0051  0.2742
34397W        W40847   6.577   0.637  20.735  0.0805 -0.1559 -0.0929
34398W        W40848  12.406   3.279   9.033 -0.1111  0.1438 -0.1500
34399W        W40849  11.636   2.339   7.262 -0.0075 -0.1617  0.1805
34400W        W40850  14.203   0.254  21.875  0.1072  0.1117 -0.0059
34401W        W40851  16.968   3.790  26.703 -0.0363 -0.0016 -0.1077
34402W        W40852  14.099   5.250  32.333 -0.2277 -0.2338  0.2046
34403W        W40853  16.412   3.406  15.820  0.2106  0.0157  0.2775
34404W        W40854  26.236   3.456   2.731  0.1700 -0.0297  0.0785
34405W        W40855  26.314   0.848  21.719  0.0309  0.1572  0.0404
34406W        W40856  17.480   6.462  28.664  0.0025  0.3810 -0.2750
34407W        W40857  10.345   0.356  12.641  0.0268  0.1951  0.0921
34408W        W40858  12.296   5.173  20.211  0.2425  0.1229  0.0065
34409W        W40859  22.937   3.357  22.811 -0.1296 -0.2150  0.1009
34410W        W40860   6.528   0.098  11.766  0.1654 -0.0242  0.1807
34411W        W40861  12.439   3.653  10.695  0.0581  0.1351  0.2767
34412W        W40862  20.560   2.467   7.998  0.0081 -0.2373 -0.1390
34413W        W40863   0.263   2.677   7.809  0.2809  0.1571  0.3095
34414W        W40864   8.145   6.292  30.409  0.1344 -0.3068  0.0839
34415W        W40865  10.446   3.098   4.380 -0.1021  0.1173 -0.0476
34416W        W40866   0.585   3.842  14.623  0.1021 -0.2803 -0.1462
34417W        W40867   8.280   3.445  14.951 -0.0948  0.0934  0.3214
34418W        W40868  24.554   5.845  34.341  0.3693 -0.1362 -0.0820
34419W        W40869  20.078   1.580  28.963  0.3187  0.2085  0.0656
34420W        W40870  22.714   3.314   0.499 -0.0222 -0.0007 -0.1362
34421W        W40871   2.869   2.988  28.993 -0.0436  0.0153 -0.2248
34422W        W40872  10.601   3.782   4.446 -0.1270 -0.2941  0.0548
34423W        W40873  10.753   1.095   4.577  0.0283  0.0493  0.2013
34424W        W40874   3.675   5.338   7.924 -0.3060 -0.0724  0.2286
34425W        W40875   9.263   2.255  21.472 -0.0994  0.1189  0.0330
34426W        W40876   5.072   5.140  11.718  0.3193  0.3145 -0.0792
34427W        W40877  10.674   0.646   2.185  0.1231  0.1680 -0.0557
34428W        W40878   5.078   3.205   7.327  0.1366 -0.0556 -0.1436
34429W        W40879  10.336   2.164   2.636 -0.4002 -0.1350  0.0612
34430W        W40880   0.531   1.146  31.933  0.0223 -0.0402  0.0974
34431W        W40881   2.746   6.537  34.149 -0.0426  0.1558  0.0005
34432W        W40882  20.663   2.374  10.174  0.2013 -0.1288  0.3817
34433W        W40883  24.479   4.057  26.373 -0.1761  0.0431 -0.1686
34434W        W40884   9.908   1.999  12.067  0.0410 -0.0598 -0.0564
34435W        W40885   3.864   1.020  28.930  0.3241  0.0493 -0.0807
34436W        W40886  16.313   4.413   1.899 -0.3746 -0.1755  0.0061
34437W        W40887   2.236   1.202   7.300  0.0183  0.0400  0.0633
34438W        W40888   9.638   6.199   8.817  0.1194 -0.1159  0.0486
34439W        W40889   5.393   1.076  26.440 -0.0526  0.0879 -0.0010
34440W        W40890  20.529   2.413  28.985  0.0127  0.1319 -0.0097
34441W        W40891  10.479   1.471  21.077 -0.1996 -0.0658 -0.1001
34442W        W40892   2.027   4.369  13.959 -0.3691  0.0470  0.1122
34443W        W40893   8.663   4.496  25.661 -0.1135 -0.1837 -0.0924
34444W        W40894  26.239   1.365  30.534  0.4289  0.2688 -0.1477
34445W        W40895  22.161   4.243   6.623  0.0692 -0.1199  0.0732
34446W        W40896   0.374   5.710  26.729  0.0022 -0.0469  0.2306
34447W        W40897  15.338   1.203   1.991  0.1280  0.1411 -0.2002
34448W        W40898  23.569   1.325  32.568  0.4471 -0.1324 -0.1238
34449W        W40899   6.273   3.666   5.110 -0.0422 -0.0768 -0.0598
34450W        W40900   0.363   6.087   1.347  0.0616  0.0575 -0.0507
34451W        W40901   8.531   3.731  34.654 -0.0685  0.3870  0.0734
34452W        W40902  19.867   2.627  26.746 -0.0666 -0.0606 -0.2331
34453W        W40903  20.716   6.371  29.568  0.2219  0.0307 -0.1076
34454W        W40904  10.415   5.613  25.002  0.4052  0.3330 -0.1896
34455W        W40905  17.519   2.403  22.709  0.1878 -0.2090 -0.3081
34456W        W40906   7.130   2.318   3.192  0.2392 -0.1445 -0.0529
34457W        W40907  25.067   5.699  10.416  0.0419  0.0373 -0.0193
34458W        W40908  23.455   0.921  30.448  0.1518 -0.0241 -0.1707
34459W        W40909   6.333   3.889  10.736  0.4964 -0.0648  0.2318
34460W        W40910  23.675   1.415  25.190  0.1453  0.1420  0.0729
34461W        W40911  17.508   5.102  33.867  0.0965 -0.2519  0.2268
34462W        W40912  24.487   5.976   5.219 -0.0245 -0.0530  0.0918
34463W        W40913   9.326   6.388  15.185  0.1176 -0.0729  0.2805
34464W        W40914  20.815   3.425  22.567 -0.2113 -0.1740 -0.0876
34465W        W40915  20.206   5.564   6.160 -0.1707 -0.1578 -0.0123
34466W        W40916  22.294   3.566   9.254 -0.0161  0.0439 -0.2999
34467W        W40917  22.841   3.435  25.667  0.0209  0.2294 -0.0221
34468W        W40918  23.338   0.544  27.381 -0.0645  0.0276  0.3793
34469W        W40919  20.906   4.733  32.478  0.2222 -0.0635  0.1794
34470W        W40920  21.004   6.407   9.834  0.1346  0.1691  0.0976
34471W        W40921  17.031   0.209   8.821 -0.0764  0.1069  0.2642
34472W        W40922  12.327   4.348  21.057 -0.1599 -0.2635 -0.2601
34473W        W40923  19.547   5.204  27.501  0.1191 -0.3325 -0.0755
34474W        W40924  11.076   0.869  28.502 -0.2218  0.0239  0.2117
34475W        W40925  13.391   1.503  24.072  0.5948  0.0998  0.0142
34476W        W40926  16.286   1.070   3.055  0.0542 -0.0290 -0.1301
34477W        W40927  21.303   0.697  22.683  0.1169  0.0159 -0.1111
34478W        W40928   9.446   6.512  11.839  0.1860 -0.1633 -0.1952
34479W        W40929  20.135   0.403   8.954 -0.0947  0.0509  0.1237
34480W        W40930   1.426   5.221  12.232  0.0335  0.0551  0.0718
34481W        W40931  13.095   3.049   1.817 -0.0770  0.0433 -0.0771
34482W        W40932   2.961   1.794  10.186  0.0808 -0.1149 -0.4686
34483W        W40933  25.408   1.231  28.301 -0.2459  0.0092  0.0332
34484W        W40934  16.349   5.763  14.880  0.1765 -0.2956  0.0079
34485W        W40935   9.983   1.017   2.188  0.2615 -0.0968 -0.0729
34486W        W40936   8.114   5.595  32.395  0.1221 -0.1479 -0.1486
34487W        W40937   5.459   0.599  21.220 -0.2020 -0.1323 -0.2139
34488W        W40938  22.206   1.265  13.931  0.1187 -0.1127  0.3029
34489W        W40939   8.047   5.962  11.189  0.1145 -0.0420 -0.1950
34490W        W40940  23.511   4.042  15.268 -0.2745 -0.3334  0.1018
34491W        W40941  12.646   3.268  22.320 -0.1794  0.0256  0.1826
34492W        W40942  15.439   2.728  36.088  0.1320 -0.1116 -0.1399
34493W        W40943  11.226   3.715   6.269 -0.0486 -0.2236  0.2011
34494W        W40944  19.449   3.628   3.199 -0.2386  0.0474  0.3361
34495W        W40945  17.185   4.920  35.717 -0.1318 -0.0195  0.0801
34496W        W40946   2.034   2.203  31.666 -0.3256  0.0231  0.1553
34497W        W40947   8.597   5.971  29.327  0.2934 -0.0645 -0.0456
34498W        W40948   1.159   0.744  14.344 -0.0391 -0.3037  0.0390
34499W        W40949  22.095   1.065   8.297  0.0973 -0.1969  0.1823
34500W        W40950   7.566   3.176   7.879  0.2128 -0.2387  0.0893
34501W        W40951  15.497   6.266   0.825 -0.1120  0.0662  0.1737
34502W        W40952  24.948   2.389  29.053  0.0091 -0.3116 -0.0279
34503W        W40953   0.406   1.045  24.955  0.0377 -0.3305 -0.0831
34504W        W40954   8.857   4.586   7.918 -0.4303  0.0597 -0.2856
34505W        W40955   7.574   4.267  32.349 -0.1670 -0.1044  0.1007
34506W        W40956  20.540   6.071   5.631  0.0007 -0.2149  0.0206
34507W        W40957  22.373   5.859  11.083  0.0493  0.1645  0.1319
34508W        W40958  15.159   4.901  28.651  0.2126  0.1602  0.1542
34509W        W40959   1.722   5.762  29.726 -0.1734  0.2143 -0.0082
34510W        W40960  13.137   4.528  26.127 -0.1933 -0.0323 -0.0522
34511W        W40961  20.583   2.943  21.221  0.0414 -0.1519  0.1773
34512W        W40962   1.463   5.816   3.950  0.1873  0.1277  0.1222
34513W        W40963   3.004   2.823   2.779  0.2659 -0.0718 -0.2010
34514W        W40964   4.202   3.478   3.434 -0.1532 -0.0121 -0.0585
34515W        W40965  19.882   5.506  12.971 -0.2379  0.0242 -0.1063
34516W        W40966  19.016   1.675  10.205  0.2289 -0.0267 -0.2813
34517W        W40967  16.953   5.565   5.856  0.2532 -0.0360 -0.0346
34518W        W40968  13.317   5.555   8.782  0.1640  0.0925  0.0426
34519W        W40969  25.728   3.927  28.324  0.1813  0.1853  0.0010
34520W        W40970   9.185   6.549   6.175  0.0137  0.3060 -0.1939
34521W        W40971   8.304   2.766  22.290 -0.1008 -0.1564 -0.1023
34522W        W40972   5.968   1.133  13.300  0.2675 -0.0048 -0.0012
34523W        W40973  13.071   5.845   5.477  0.0214 -0.1891 -0.0399
34524W        W40974  24.491   3.245   3.815 -0.1441  0.2133 -0.0763
34525W        W40975   8.467   1.062  19.744 -0.1624  0.0321  0.2403
34526W        W40976   0.785   1.879   8.823  0.0593  0.0966  0.0696
34527W        W40977  22.212   1.873   0.122  0.1584 -0.2169 -0.0850
34528W        W40978  18.440   3.366  21.635 -0.1312  0.1230  0.0718
34529W        W40979  26.167   6.364  33.566 -0.2160  0.1744  0.0193
34530W        W40980   6.609   1.550  24.613  0.1809  0.1855 -0.1866
34531W        W40981   6.094   0.205  34.598  0.0311  0.1407 -0.3382
34532W        W40982   0.059   5.913  32.414 -0.0718  0.1284  0.0688
34533W        W40983   0.129   1.637  20.721 -0.0438  0.2818  0.2313
34534W        W40984  15.843   0.877  13.086  0.3603 -0.1501  0.1012
34535W        W40985  11.695   0.792  12.138 -0.3317  0.2857 -0.0338
34536W        W40986  23.283   5.440  24.688 -0.3339  0.2364 -0.1682
34537W        W40987   0.129   5.593  31.012 -0.1030 -0.1116 -0.0576
34538W        W40988  14.530   5.196   6.726 -0.1770 -0.2546  0.3002
34539W        W40989   7.639   3.557  35.331  0.2831  0.1777  0.0566
34540W        W40990  21.230   1.859   8.270 -0.3748  0.2793 -0.0478
34541W        W40991  22.000   3.159   9.312 -0.1202  0.4088  0.0056
34542W        W40992  12.282   6.499  27.365 -0.1438 -0.0232 -0.1621
34543W        W40993  13.204   1.043  10.478  0.0868 -0.3852 -0.1296
34544W        W40994   8.867   0.315  30.206  0.0320 -0.2655  0.1084
34545W        W40995  10.156   4.284   7.576  0.1942  0.1565 -0.0292
34546W        W40996  24.615   0.170  12.067 -0.0913  0.1222  0.1081
34547W        W40997   1.898   2.128  22.543 -0.4120 -0.2304 -0.0179
34548W        W40998  25.458   2.644   0.825 -0.0704 -0.1898 -0.1614
34549W        W40999   3.001   4.966   6.019 -0.4046  0.0753  0.0340
34550W        W41000  11.008   6.107   3.540  0.0744 -0.2058  0.0954
34551W        W41001  10.051   5.267  24.836  0.0089  0.0701  0.0981
34552W        W41002  19.725   4.041  29.223 -0.0392 -0.4142  0.1611
34553W        W41003  25.300   4.471  31.831 -0.2207  0.2841 -0.4083
34554W        W41004  16.682   5.838  29.676  0.1838 -0.1863 -0.0666
34555W        W41005  14.588   0.117  22.827  0.1354 -0.4258 -0.3242
34556W        W41006  17.024   5.157  34.183 -0.2355 -0.0672 -0.0963
34557W        W41007  21.069   5.816  10.683  0.0046  0.0004  0.0738
34558W        W41008  11.923   4.262  25.479  0.1745 -0.1839 -0.0751
34559W        W41009  21.355   3.064  25.292  0.1282 -0.1521 -0.1471
34560W        W41010   5.004   4.721  36.090  0.0384  0.0797 -0.0011
34561W        W41011  24.725   1.054  25.062  0.4494  0.3096  0.2495
34562W        W41012  16.165   0.506   6.278  0.0767  0.2276 -0.1050
34563W        W41013   8.983   1.249  26.855  0.2122  0.2014  0.3238
34564W        W41014  11.287   6.252  23.967 -0.1562  0.3487  0.0410
34565W        W41015   7.696   2.273  14.881  0.0790  0.0695  0.1593
34566W        W41016  26.223   4.020  31.490 -0.1231 -0.1727 -0.0354
34567W        W41017  14.072   3.048  23.512  0.3747 -0.0187  0.0927
34568W        W41018  26.224   0.089  31.919 -0.0538  0.0117 -0.1739
34569W        W41019  25.076   6.354   5.210 -0.2578 -0.1009  0.0006
34570W        W41020   0.556   5.678  34.795  0.1849 -0.2737 -0.0781
34571W        W41021  13.023   4.986  14.170  0.1209  0.0741  0.0528
34572W        W41022  14.357   3.669  27.002  0.1091 -0.2903  0.0142
34573W        W41023  10.228   0.753  13.949  0.2746 -0.1779 -0.5057
34574W        W41024  11.435   2.809  32.889 -0.0389 -0.1075 -0.0461
34575W        W41025   6.325   6.349  34.800 -0.3538  0.1447  0.0830
34576W        W41026   6.944   3.931  10.737 -0.0340  0.0007  0.0343
34577W        W41027  13.767   4.858  23.073  0.2773  0.3605 -0.4551
34578W        W41028   6.987   5.858  31.722  0.4156  0.3379  0.0422
34579W        W41029  25.922   4.334  32.968 -0.2635  0.3350 -0.0226
34580W        W41030  21.084   2.014  22.088 -0.1878 -0.0897  0.1131
34581W        W41031  25.275   6.537  32.989 -0.4481  0.0649 -0.0620
34582W        W41032   0.291   2.377  26.141  0.2562  0.2307  0.0644
34583W        W41033   9.648   4.004   1.241  0.0971 -0.1041  0.0981
34584W        W41034  10.199   2.040  25.451  0.0365 -0.1393  0.0229
34585W        W41035  12.802   0.256   6.368 -0.2459  0.1723 -0.0195
34586W        W41036  21.049   4.884   5.264  0.0643 -0.0568 -0.1174
34587W        W41037  19.049   0.148  26.083 -0.0037  0.1216  0.0862
34588W        W41038  24.513   4.341  26.912 -0.1823  0.0416  0.1758
34589W        W41039  14.000   0.048   3.394 -0.2144  0.0435  0.0129
34590W        W41040  10.574   6.200  32.244  0.1988 -0.0637  0.1419
34591W        W41041   1.587   4.225  26.950  0.3505 -0.0155 -0.0567
34592W        W41042   1.686   5.348   8.399  0.1163  0.0585  0.2199
34593W        W41043  12.525   2.393  31.819  0.0264 -0.0545 -0.0600
34594W        W41044  16.974   6.013  26.186  0.0315  0.0301 -0.0910
34595W        W41045  23.581   5.608  30.214  0.0926  0.0046 -0.2401
34596W        W41046  17.195   0.474  28.390 -0.0441  0.0462  0.2290
34597W        W41047   8.747   6.328  34.322  0.1903 -0.1267 -0.0661
34598W        W41048  24.751   6.565   1.039 -0.2586 -0.1894 -0.0498
34599W        W41049   2.906   0.287  12.158  0.0478  0.1238 -0.0846
34600W        W41050  14.597   5.655   8.743  0.1933 -0.0843 -0.2900
34601W        W41051  14.385   2.958  13.075  0.0367  0.0168  0.0128
34602W        W41052   6.745   6.325  35.121 -0.2016 -0.2245 -0.0447
34603W        W41053  26.301   0.177  21.852 -0.0372 -0.1707 -0.2050
34604W        W41054  16.269   2.346   6.493 -0.2924  0.0932  0.2238
34605W        W41055  12.625   0.370  27.340  0.0847 -0.3537  0.2079
34606W        W41056   2.548   4.652  35.090 -0.1671  0.1509  0.0514
34607W        W41057  26.151   0.607  26.663  0.0501  0.1249 -0.3065
34608W        W41058   7.946   2.087   5.141 -0.3120 -0.1521  0.2785
34609W        W41059  17.371   4.870  14.221  0.0591 -0.2815 -0.1376
34610W        W41060  25.658   3.575  30.877  0.1241  0.0194  0.0129
34611W        W41061   4.116   4.491  32.976  0.0746 -0.1750  0.4389
34612W        W41062   2.631   0.267  29.208 -0.0642 -0.0393 -0.2273
34613W        W41063   9.851   4.245  33.494 -0.0090  0.2875 -0.1666
34614W        W41064  10.827   0.517  28.076  0.2580 -0.1737  0.0314
34615W        W41065  19.252   3.942  34.193 -0.2348 -0.0827  0.0566
34616W        W41066  24.753   5.428   2.558  0.1235 -0.2252  0.1061
34617W        W41067   0.718   3.932  15.105  0.0621 -0.0779  0.1856
34618W        W41068  17.682   6.479   6.840 -0.1235 -0.1728  0.0687
34619W        W41069   3.197   0.512  25.325 -0.0035 -0.1835 -0.0026
34620W        W41070  25.544   0.148  31.466  0.1687  0.2025 -0.3372
34621W        W41071   4.659   2.335  25.230 -0.2636  0.3510  0.5785
34622W        W41072  19.921   5.872  23.064 -0.0136  0.0398  0.1437
34623W        W41073   0.211   1.721   8.584  0.0616  0.0937  0.0233
34624W        W41074  22.673   6.278   3.292 -0.0022  0.0424 -0.1367
34625W        W41075   7.444   4.726   0.436  0.2617 -0.3612 -0.1306
34626W        W41076  18.674   5.750  13.361  0.1927  0.0371  0.0420
34627W        W41077   0.228   0.588   2.732 -0.0738  0.1550  0.0048
34628W        W41078   9.155   3.723  15.078  0.1247 -0.1572 -0.0269
34629W        W41079  16.156   0.451  14.671  0.0846 -0.2987  0.0143
34630W        W41080   3.852   0.675   0.310  0.2102  0.0961 -0.3504
34631W        W41081  23.465   4.576   2.494 -0.0344  0.0837 -0.0175
34632W        W41082  22.806   2.391  35.506  0.1601  0.1763 -0.0326
34633W        W41083  16.198   1.315  35.388  0.1586  0.4031 -0.2147
34634W        W41084   7.354   1.911   6.622  0.2602 -0.0003  0.1588
34635W        W41085  12.289   4.862  30.302  0.1822  0.3231  0.2057
34636W        W41086  18.974   5.971  23.166  0.0920  0.3698  0.2032
34637W        W41087  20.169   3.808  35.888  0.3699  0.1799 -0.0303
34638W        W41088  12.851   5.465  28.613  0.0920  0.2641 -0.0519
34639W        W41089  24.488   5.060  32.539  0.1075  0.2766 -0.2181
34640W        W41090  19.415   5.715  20.664 -0.2149 -0.0349  0.1962
34641W        W41091  11.870   3.254  32.272 -0.3882 -0.0883 -0.3503
34642W        W41092  14.927   4.491  28.831 -0.4613  0.1814  0.0440
34643W        W41093  16.902   3.302   9.231 -0.1084 -0.1266  0.2444
34644W        W41094   0.652   3.046   3.584  0.0177  0.1090 -0.2182
34645W        W41095  16.489   0.879   4.711 -0.2309 -0.0671  0.3585
34646W        W41096  24.871   1.662  10.786  0.0235 -0.1711 -0.1859
34647W        W41097  11.663   5.644   1.975 -0.1457  0.2144  0.2621
34648W        W41098   7.238   4.317   0.789 -0.1107 -0.0536 -0.0930
34649W        W41099  18.185   0.090  24.373  0.0693 -0.0770  0.1214
34650W        W41100  18.322   4.623  25.065 -0.1898 -0.0809 -0.0912
34651W        W41101  10.696   3.724  33.865  0.3564 -0.0086 -0.2075
34652W        W41102  16.732   5.038  27.268 -0.0394 -0.1113  0.0402
34653W        W41103  20.364   4.467  24.090 -0.1619  0.0412  0.1724
34654W        W41104   0.349   1.343   2.160  0.0786 -0.0199 -0.1926
34655W        W41105   3.385   2.071  10.325  0.0768  0.1073  0.0551
34656W        W41106  22.941   3.488  30.775 -0.0652  0.0000 -0.0805
34657W        W41107   2.945   5.256  22.816  0.0996  0.1802  0.1032
34658W        W41108   6.950   5.753   4.290 -0.0198 -0.1039  0.1783
34659W        W41109  23.935   5.125  27.070 -0.1279  0.0775 -0.1600
34660W        W41110   7.751   1.556   5.413 -0.2014 -0.1677 -0.1414
34661W        W41111   8.034   6.156  26.556  0.1045  0.0902 -0.3676
34662W        W41112  18.360   5.489  11.262 -0.1267  0.2748 -0.0339
34663W        W41113   0.283   1.460  31.505  0.0191 -0.0996 -0.0861
34664W        W41114  18.570   1.261   4.749  0.2449  0.1531 -0.3083
34665W        W41115  16.223   2.159  31.719  0.2994 -0.0104 -0.0074
34666W        W41116   5.655   4.134  24.165  0.3020  0.2346 -0.2014
34667W        W41117  21.849   5.764   2.785  0.0676  0.0391  0.2810
34668W        W41118   0.138   5.900  35.045  0.0445 -0.1613  0.0160
34669W        W41119   9.687   4.938  30.530 -0.3850 -0.0017 -0.1530
34670W        W41120  25.182   4.169   4.181  0.0095  0.1246 -0.0274
34671W        W41121  10.835   5.566  31.586  0.0841  0.0975  0.4173
34672W        W41122  12.509   1.065   9.259  0.1096  0.1325 -0.2431
34673W        W41123   7.055   1.989  22.332 -0.3166 -0.0045  0.1362
34674W        W41124  12.326   1.429  12.674 -0.4097  0.0385 -0.3036
34675W        W41125  15.255   4.366   0.584 -0.1260 -0.0713 -0.0134
34676W        W41126  16.705   1.447   9.943 -0.0316 -0.1139 -0.1108
34677W        W41127   7.345   2.910   6.495  0.0341 -0.3796 -0.3021
34678W        W41128   8.873   4.998  24.337 -0.0677 -0.1641  0.0242
34679W        W41129  19.234   0.428   9.084  0.1735  0.0059 -0.0939
34680W        W41130  24.185   5.513   8.366 -0.2564 -0.0136  0.0641
34681W        W41131  14.209   6.295  27.414  0.2317 -0.0771 -0.0473
34682W        W41132   2.630   2.617   6.074  0.0400 -0.0137  0.0370
34683W        W41133  22.825   5.739   0.045  0.0135 -0.4436 -0.0679
34684W        W41134  12.198   5.004   0.900 -0.1054 -0.0088 -0.0834
34685W        W41135  19.671   6.273   5.776 -0.0937  0.3488 -0.1826
34686W        W41136  12.615   6.003  25.547 -0.0518 -0.2029 -0.1158
34687W        W41137   2.362   0.364   3.650  0.0575 -0.2433 -0.1740
34688W        W41138  13.887   5.731  12.072  0.0560  0.0552 -0.2226
34689W        W41139  22.753   4.960  22.299 -0.0419  0.1076  0.2836
34690W        W41140  24.945   1.771  23.419  0.0828  0.0829  0.0970
34691W        W41141   5.745   3.586   6.130  0.0475  0.2348 -0.1165
34692W        W41142  21.820   5.753   0.819 -0.1629 -0.0133  0.0488
34693W        W41143   7.094   0.460  30.443 -0.1668  0.1839  0.1765
34694W        W41144  20.817   4.150  31.961  0.1179  0.1325 -0.0342
34695W        W41145  13.465   2.656   9.607  0.0488 -0.1759 -0.0406
34696W        W41146  24.268   2.586  31.086  0.3115  0.1408 -0.0011
34697W        W41147  14.713   0.716  23.792 -0.1247  0.3146  0.0104
34698W        W41148  22.033   4.447   2.780 -0.0163  0.0532 -0.2759
34699W        W41149  26.379   3.326   1.707 -0.0470  0.2847  0.2169
34700W        W41150  12.415   5.923  10.229 -0.3656 -0.2261  0.0701
34701W        W41151   2.768   3.035  32.517 -0.2337 -0.0218 -0.3379
34702W        W41152   5.110   5.835  15.278  0.1369  0.2871  0.2093
34703W        W41153  20.501   1.661  23.105 -0.3772 -0.6794 -0.1461
34704W        W41154  23.845   1.091   6.872  0.2050  0.3134 -0.0546
34705W        W41155  12.395   0.879  12.102  0.2014 -0.1592 -0.2879
34706W        W41156  25.102   2.286  12.459  0.1377  0.1533  0.0893
34707W        W41157  24.627   1.235  23.577  0.0164  0.0933  0.1276
34708W        W41158   5.791   3.390  33.230 -0.2846 -0.2110 -0.1982
34709W        W41159   5.893   2.238  24.594 -0.2944  0.0885  0.0995
34710W        W41160   0.297   2.068  29.838 -0.1633 -0.0635  0.0152
34711W        W41161   3.316   4.641  33.999 -0.0641  0.0851  0.0162
34712W        W41162  12.259   4.030   7.505  0.1920  0.0387 -0.1104
34713W        W41163  20.897   0.449  13.787 -0.2516  0.1093  0.0567
34714W        W41164  11.277   5.724   1.193 -0.0624  0.1829 -0.0233
34715W        W41165  12.240   0.552   7.549 -0.2773 -0.1521 -0.2391
34716W        W41166  10.788   3.452  12.922 -0.3095 -0.3292 -0.0324
34717W        W41167  23.345   1.276  11.944  0.3462  0.0568  0.2224
34718W        W41168  14.109   4.243   5.044 -0.0081  0.1955 -0.1960
34719W        W41169   7.566   3.503   4.028  0.2886 -0.0291  0.2063
34720W        W41170  17.262   1.636  22.878  0.0128  0.2942  0.1171
34721W        W41171  18.269   5.360  26.301 -0.3128  0.0374 -0.1338
34722W        W41172   4.244   2.749   1.520  0.2218  0.1316 -0.0337
34723W        W41173   1.017   4.807  21.097  0.1640 -0.0147  0.0503
34724W        W41174   1.569   2.420  28.539  0.1223 -0.2932 -0.1145
34725W        W41175   9.360   3.468   7.201  0.4042 -0.1574 -0.0125
34726W        W41176  20.869   4.313  12.116 -0.0833  0.2298 -0.2171
34727W        W41177   7.122   2.847  35.477  0.1613 -0.0142 -0.0806
34728W        W41178  15.566   0.347  12.324 -0.0551 -0.2194 -0.2973
34729W        W41179   4.486   3.679   7.516 -0.1348 -0.0423  0.4465
34730W        W41180  14.252   1.001   1.403 -0.0179  0.1381 -0.0361
34731W        W41181   9.343   1.776   1.513  0.1407  0.2971  0.2762
34732W        W41182  23.629   3.097   0.471 -0.1389 -0.0974 -0.2643
34733W        W41183  19.073   3.173   9.772  0.0097 -0.1025 -0.2321
34734W        W41184   6.168   3.420   1.950  0.1764 -0.0366  0.0735
34735W        W41185  19.661   5.211  26.100 -0.1278 -0.3565 -0.0466
34736W        W41186  14.973   4.011  28.130  0.0778 -0.0133  0.1399
34737W        W41187   1.475   1.867  25.508 -0.0217  0.1610  0.0089
34738W        W41188  19.351   4.077   3.405 -0.4641  0.0733  0.1894
34739W        W41189  11.155   2.696  24.975 -0.1946 -0.0978 -0.0143
34740W        W41190  22.305   6.340  35.637  0.1727  0.0188  0.6118
34741W        W41191   0.283   5.977  11.786  0.0226 -0.2469 -0.1143
34742W        W41192   3.354   3.377  32.223 -0.1337 -0.0119 -0.2261
34743W        W41193   5.064   3.700   9.644  0.1374 -0.2607 -0.1730
34744W        W41194  18.352   3.760   9.594 -0.2659  0.0143 -0.2317
34745W        W41195   3.107   2.401  34.068  0.1306  0.1974 -0.0119
34746W        W41196   9.672   2.206  29.911 -0.0846 -0.0047  0.0927
34747W        W41197  23.415   3.623  32.110 -0.0741 -0.0829 -0.1337
34748W        W41198   8.998   1.366  34.727 -0.1715 -0.2033  0.0615
34749W        W41199  10.543   5.306   5.516  0.0399 -0.2569 -0.3033
34750W        W41200   6.863   0.363  35.856  0.0672  0.1062  0.0305
34751W        W41201  19.755   3.256  25.764 -0.2888 -0.3064 -0.1239
34752W        W41202   9.890   3.520  31.370  0.0039 -0.1045 -0.3235
34753W        W41203  14.850   1.057  35.850 -0.3520 -0.0400 -0.4085
34754W        W41204  19.524   3.067  26.147  0.1329 -0.0576  0.2988
34755W        W41205   2.467   2.838  33.782  0.2642  0.0432 -0.0724
34756W        W41206   3.436   2.940  25.888  0.1626  0.0791 -0.2939
34757W        W41207  19.925   5.324   2.159 -0.2248  0.0164 -0.1767
34758W        W41208  16.698   1.134   5.311 -0.1936 -0.0606 -0.0613
34759W        W41209  22.002   2.023   7.922  0.1536 -0.3044  0.2579
34760W        W41210  18.485   2.099  21.964  0.2536  0.0284 -0.1005
34761W        W41211   5.850   6.464   3.559  0.1519  0.0165 -0.1307
34762W        W41212   6.755   0.653   8.202  0.0764 -0.1559 -0.0152
34763W        W41213   3.184   3.596  35.543 -0.3000 -0.2049  0.1689
34764W        W41214  21.128   1.427   8.618  0.3407 -0.0672 -0.1422
34765W        W41215   2.659   1.730  22.201  0.3137 -0.2116  0.2137
34766W        W41216   1.365   3.577   8.481 -0.0672 -0.2433 -0.0436
34767W        W41217   4.285   2.949  31.702  0.1746 -0.1952  0.0407
34768W        W41218  17.935   3.714  25.758  0.1649  0.2405 -0.0430
34769W        W41219  12.452   6.298  30.026  0.1656  0.0521 -0.1929
34770W        W41220  11.188   6.174  30.907 -0.1673 -0.2111  0.1693
34771W        W41221   7.837   1.725  32.958 -0.1277 -0.1322  0.0187
34772W        W41222   8.712   2.786   4.950  0.0356  0.0591  0.2395
34773W        W41223  19.336   2.583  26.821 -0.0391 -0.1527  0.0324
34774W        W41224  18.283   5.202   3.819  0.1434  0.0117 -0.3077
34775W        W41225  26.242   5.581  11.616 -0.0015  0.0600 -0.1161
34776W        W41226   7.556   5.481  11.927  0.0396  0.3143  0.0639
34777W        W41227   7.410   4.316  23.801  0.0371 -0.1265  0.0510
34778W        W41228  24.541   0.689   5.189  0.0566  0.1123  0.1356
34779W        W41229   2.991   4.501  31.213 -0.1380 -0.0313  0.0228
34780W        W41230   8.822   6.116  23.591 -0.1284 -0.2561  0.2204
34781W        W41231  15.334   5.775   5.830  0.1520 -0.0192 -0.0597
34782W        W41232  19.324   3.645   6.093 -0.0689  0.1980  0.2982
34783W        W41233  20.900   5.441  28.162 -0.0164 -0.0367  0.2075
34784W        W41234   8.120   1.422  26.387 -0.1301 -0.1222 -0.2234
34785W        W41235  14.579   0.693   3.815 -0.0542  0.1256 -0.0913
34786W        W41236  11.176   6.056  13.405 -0.2618  0.4041  0.0171
34787W        W41237   6.458   6.109  33.927 -0.0359 -0.2223 -0.1207
34788W        W41238   4.733   4.236  11.651  0.1832 -0.1120 -0.0278
34789W        W41239  21.682   0.793   1.469 -0.0557  0.1368  0.1889
34790W        W41240   7.397   3.218  27.006  0.0140 -0.0356 -0.0782
34791W        W41241  10.370   2.256  35.730 -0.0766  0.2821 -0.0579
34792W        W41242  19.365   2.215  31.401  0.1263  0.0180 -0.1188
34793W        W41243  11.069   3.037  24.586  0.1972 -0.0630  0.2343
34794W        W41244  24.800   6.513  33.912  0.1253 -0.0868  0.0288
34795W        W41245  12.920   0.542  31.915 -0.0224 -0.1205  0.1569
34796W        W41246  25.090   2.433  13.059 -0.1101 -0.0143 -0.4876
34797W        W41247  25.887   3.474  22.209  0.0021  0.2475 -0.1397
34798W        W41248   0.166   1.534  28.721 -0.2239 -0.0980  0.4315
34799W        W41249  18.250   5.451  28.073 -0.1812 -0.2354 -0.0593
34800W        W41250  19.352   5.202  31.679  0.2227  0.0427 -0.1573
34801W        W41251  19.706   4.049  12.970 -0.1852 -0.0391  0.2282
34802W        W41252  20.831   3.347  10.185  0.1405  0.0872 -0.1541
34803W        W41253  21.435   3.145  32.050  0.1041  0.2014 -0.1771
34804W        W41254   8.312   0.203  14.078 -0.1324  0.5583  0.0600
34805W        W41255   8.886   3.692  30.394  0.3552  0.0113  0.0475
34806W        W41256  15.923   4.553   3.918 -0.0504  0.0145 -0.0938
34807W        W41257   1.045   5.106  23.683  0.0686  0.0737  0.1349
34808W        W41258  11.365   2.805  14.707 -0.1271 -0.0454 -0.2004
34809W        W41259  23.331   3.136   8.145  0.0059 -0.1229 -0.2993
34810W        W41260  20.752   1.943   3.761  0.2202 -0.0392  0.0295
34811W        W41261   0.712   3.505  35.404 -0.1158 -0.0191 -0.2657
34812W        W41262  17.066   5.567  23.734  0.0814  0.1274 -0.1193
34813W        W41263   4.961   3.519   7.710 -0.1204 -0.2783  0.0259
34814W        W41264   3.250   1.937   4.445 -0.2482  0.3291 -0.1848
34815W        W41265   7.362   5.183  35.258  0.0904 -0.6443 -0.0984
34816W        W41266   2.401   0.214  12.076  0.2001  0.0750  0.0456
34817W        W41267  24.413   2.248   0.129  0.1009  0.1652 -0.1688
34818W        W41268   0.334   5.557  27.666  0.1674 -0.1491  0.0789
34819W        W41269   7.799   6.331   7.762  0.0213  0.0211 -0.0881
34820W        W41270   2.478   1.503  12.147 -0.1219  0.0511 -0.1493
34821W        W41271  23.964   5.738  31.372  0.2751  0.0676 -0.0693
34822W        W41272   3.037   2.931   1.597 -0.4671  0.3609  0.1453
34823W        W41273   8.508   0.209  10.610  0.1018  0.2894 -0.0227
34824W        W41274  19.843   6.478  30.972 -0.0845 -0.1378  0.3156
34825W        W41275   5.547   2.974  28.354 -0.0560 -0.3168 -0.0534
34826W        W41276  17.163   4.497  15.016 -0.0024 -0.2358  0.4235
34827W        W41277  17.442   0.789   9.878  0.4642 -0.0106  0.0145
34828W        W41278  12.215   1.387  30.959  0.1817 -0.3720 -0.1225
34829W        W41279   6.596   2.821  32.084 -0.1172 -0.1432 -0.2185
34830W        W41280   4.723   5.761   4.173 -0.1204  0.1527  0.0007
34831W        W41281   6.929   6.435  26.449 -0.1857 -0.0805 -0.3488
34832W        W41282   5.540   0.081   2.403 -0.0125  0.2540 -0.0607
34833W        W41283  20.680   1.890   6.649  0.2835 -0.1385 -0.1543
34834W        W41284  12.912   4.498   7.087  0.0269 -0.0891 -0.0464
34835W        W41285  14.721   3.281  14.208  0.0063 -0.0142 -0.2633
34836W        W41286  11.186   2.606  25.510 -0.0042  0.0718 -0.0331
34837W        W41287   6.070   3.435  23.678 -0.0606  0.2049 -0.0196
34838W        W41288   3.104   0.777   3.494  0.0135 -0.3469  0.0989
34839W        W41289  10.775   0.789  15.489  0.1353  0.0904 -0.1479
34840W        W41290  25.801   0.033  35.459  0.1836  0.1681 -0.1800
34841W        W41291   5.685   4.705  22.277  0.0118 -0.0115  0.1025
34842W        W41292  16.198   1.994   5.258 -0.0376  0.0333 -0.2508
34843W        W41293  16.460   5.762  13.585  0.1988  0.1974 -0.1056
34844W        W41294  13.574   2.251  24.199 -0.1070 -0.0188  0.2358
34845W        W41295   2.838   6.249  22.851 -0.2408 -0.0832 -0.0888
34846W        W41296  12.117   3.421  22.956  0.0321  0.0789  0.0813
34847W        W41297   8.779   4.622  10.276 -0.0525 -0.1162  0.0106
34848W        W41298   3.710   0.716  24.095 -0.4712 -0.1642  0.0073
34849W        W41299  23.116   1.783  13.711  0.2879  0.1143 -0.2449
34850W        W41300  20.627   1.713  29.144 -0.1800 -0.0372 -0.2495
34851W        W41301  21.646   0.792  11.744  0.3059  0.2343  0.3330
34852W        W41302  12.472   4.438   8.266 -0.1247  0.0324  0.0517
34853W        W41303   4.979   1.980   5.923  0.0966  0.0191  0.0272
34854W        W41304   5.147   3.772   2.237 -0.0450 -0.0165 -0.1009
34855W        W41305  10.039   2.602  26.651 -0.2227  0.3650  0.1148
34856W        W41306   0.739   1.640  21.354  0.0267 -0.0770 -0.0408
34857W        W41307  13.816   0.985  15.344  0.2086  0.1991  0.0877
34858W        W41308  24.355   0.743  28.482  0.1246  0.0286 -0.0841
34859W        W41309  12.460   1.915  21.146 -0.0525 -0.0845  0.1463
34860W        W41310  23.131   3.367  24.742  0.0680  0.2663  0.0854
34861W        W41311   8.084   5.833   4.447  0.1105  0.0030  0.0454
34862W        W41312  10.169   1.571   6.674 -0.1346  0.0651 -0.2467
34863W        W41313  10.151   6.511   6.545  0.0108 -0.0490 -0.4038
34864W        W41314   6.017   3.151  14.227  0.0675 -0.1073 -0.1398
34865W        W41315  15.033   4.583  33.669 -0.1591  0.0537  0.1351
34866W        W41316   2.538   5.366  32.267 -0.0864  0.2653 -0.0509
34867W        W41317  14.152   3.660  34.754  0.0469  0.0984  0.0059
34868W        W41318  24.250   4.773  35.696  0.3882 -0.0756 -0.2689
34869W        W41319   9.978   0.059  33.945  0.2098 -0.2573 -0.0123
34870W        W41320  11.267   1.282  36.083 -0.3885  0.0678  0.2983
34871W        W41321  16.104   4.722  21.143 -0.2487  0.2829 -0.0355
34872W        W41322   8.906   3.609  15.514  0.0408  0.0038 -0.1223
34873W        W41323   9.244   2.837  22.150 -0.1212 -0.0468 -0.0712
34874W        W41324  19.494   1.826  27.844 -0.0955  0.2651  0.2502
34875W        W41325   0.443   2.819  36.142  0.0206  0.1894  0.0614
34876W        W41326   1.114   3.149  21.418 -0.0044  0.1320  0.0535
34877W        W41327   4.219   3.852   9.376  0.2747  0.2385  0.0933
34878W        W41328   1.186   2.516  14.173  0.0138  0.2388  0.1493
34879W        W41329  14.617   0.754  14.922  0.1933 -0.5155 -0.0640
34880W        W41330   2.350   3.047  21.126  0.2871 -0.2497 -0.0010
34881W        W41331   4.626   2.516   8.152 -0.1566 -0.1965  0.1510
34882W        W41332   9.489   6.447   1.326 -0.0127  0.1049  0.0680
34883W        W41333  24.948   3.747  11.141  0.4564 -0.1523  0.1332
34884W        W41334  18.916   1.301   2.556 -0.0006 -0.1219  0.0366
34885W        W41335   5.397   2.339   6.533 -0.1353  0.0941 -0.0093
34886W        W41336  22.326   3.722  10.593  0.2573 -0.0736  0.1190
34887W        W41337  17.675   1.262  14.414  0.0137 -0.2006  0.3064
34888W        W41338  14.544   2.958  11.272  0.2188  0.2305 -0.2746
34889W        W41339  11.580   4.203  32.956  0.0434  0.2541  0.4466
34890W        W41340  25.929   0.976   7.277  0.2743 -0.2645  0.1097
34891W        W41341  20.995   4.254  32.514 -0.0503  0.0429  0.1911
34892W        W41342   7.784   6.423  11.195 -0.3317  0.0399  0.2659
34893W        W41343  10.099   5.466  35.768 -0.1738 -0.0097 -0.4460
34894W        W41344  16.284   2.847   9.477  0.0498  0.1103 -0.3540
34895W        W41345  20.628   1.199  15.908  0.0108  0.2644 -0.0051
34896W        W41346  12.434   0.399  12.644 -0.2860  0.1111 -0.2952
34897W        W41347  23.445   1.673  28.836 -0.0051 -0.0158  0.2936
34898W        W41348  18.562   4.702  29.200  0.1390  0.1406 -0.0225
34899W        W41349   6.274   0.262   7.523 -0.0869  0.0185 -0.0613
34900W        W41350  10.073   1.040  11.473  0.2750  0.1396 -0.0645
34901W        W41351  14.036   5.529   2.082  0.0695 -0.1218  0.1400
34902W        W41352   0.196   5.771   9.979  0.0041  0.3914  0.0671
34903W        W41353  20.718   5.598  27.711  0.1956 -0.4148 -0.0678
34904W        W41354   2.370   6.138  26.237  0.0230  0.1289  0.2118
34905W        W41355  18.051   1.022  31.856  0.3590 -0.1336  0.1219
34906W        W41356   7.728   4.397  21.585 -0.0598 -0.1854 -0.0568
34907W        W41357   2.927   5.576   6.776 -0.1732 -0.1342  0.0482
34908W        W41358   8.292   3.187  33.819  0.0770  0.1994 -0.0187
34909W        W41359   1.160   5.476  25.200  0.3969 -0.2555 -0.0007
34910W        W41360  25.047   4.224  21.333  0.0113  0.0122 -0.0091
34911W        W41361  23.610   5.630  23.828  0.0242  0.2566  0.1798
34912W        W41362  11.354   3.983  13.144  0.0039  0.1315  0.2597
34913W        W41363   6.033   1.467   6.163  0.0786  0.2279  0.0082
34914W        W41364   8.991   1.759  11.875 -0.2111  0.0489 -0.2103
34915W        W41365  16.189   6.008   4.985 -0.2815 -0.0272  0.0687
34916W        W41366  19.199   1.614  33.731  0.1430  0.2367  0.0132
34917W        W41367  15.679   1.788   6.313 -0.1445 -0.0107 -0.0181
34918W        W41368   1.428   3.942   9.319  0.1445 -0.0418  0.0984
34919W        W41369   7.603   4.746  12.536  0.1514 -0.4010  0.1207
34920W        W41370  25.820   6.497  29.556 -0.1100  0.0605  0.0497
34921W        W41371  15.254   0.070  33.361  0.0547  0.4036  0.0148
34922W        W41372  20.045   6.491  26.980  0.2342 -0.2670 -0.1530
34923W        W41373  10.922   5.457  11.034 -0.0992 -0.1809  0.0067
34924W        W41374   5.287   3.412  33.957  0.2134  0.2015 -0.0689
34925W        W41375  12.013   6.052   7.602 -0.4676 -0.1680  0.1492
34926W        W41376   3.068   5.167  15.183 -0.3376  0.0206 -0.2063
34927W        W41377  20.801   1.491  31.124  0.1498  0.0629 -0.0480
34928W        W41378   0.745   3.629  31.872 -0.1147  0.1770 -0.1169
34929W        W41379  20.542   5.245  28.523 -0.1803  0.1303 -0.0140
34930W        W41380  18.714   2.895   0.473  0.5162 -0.1804 -0.2250
34931W        W41381   8.231   6.369  35.234 -0.1672 -0.2795  0.1349
34932W        W41382   3.858   3.482   4.812 -0.3142 -0.2336  0.1684
34933W        W41383  22.552   0.577  29.213  0.2789  0.0363 -0.1541
34934W        W41384   4.580   4.603  16.046  0.0406 -0.1362 -0.3679
34935W        W41385   6.218   1.353   8.788  0.1998 -0.1133  0.0990
34936W        W41386   0.324   4.661  25.743  0.2970  0.0101  0.2486
34937W        W41387  20.332   6.143  12.960  0.0508 -0.0413 -0.2207
34938W        W41388   5.735   1.434  14.839  0.0334  0.0350  0.1920
34939W        W41389  20.874   1.378  35.029  0.0026  0.1641 -0.4151
34940W        W41390  21.509   5.057   5.106  0.0816  0.1058  0.0506
34941W        W41391  18.240   0.760  34.416 -0.0094 -0.0731 -0.1432
34942W        W41392  21.770   0.042  10.104 -0.1854 -0.1634  0.1870
34943W        W41393   4.611   2.198  24.575  0.0986 -0.1182 -0.0606
34944W        W41394  18.856   0.205  34.210 -0.2186 -0.2022  0.0514
34945W        W41395   7.675   1.280  13.186 -0.2062 -0.0111  0.2120
34946W        W41396   4.063   0.334   7.420  0.1977  0.2837  0.3065
34947W        W41397   0.126   3.101   2.141 -0.0726 -0.1327 -0.0866
34948W        W41398  14.984   0.104   7.103  0.4958 -0.0477  0.1467
34949W        W41399  25.342   6.369  30.627  0.0346 -0.0920 -0.0325
34950W        W41400  19.991   1.360  34.973  0.0141 -0.1113 -0.0054
34951W        W41401   7.575   0.830  26.971  0.0528 -0.0789  0.1231
34952W        W41402   5.571   3.556  12.380  0.1203  0.0406 -0.0308
34953W        W41403  11.212   2.123   9.746  0.1608  0.1743  0.1053
34954W        W41404  10.717   3.624  31.185  0.0896 -0.1536  0.1925
34955W        W41405   4.599   3.298  22.800  0.3452 -0.1190 -0.0058
34956W        W41406  24.582   4.870  23.664  0.0191  0.0183 -0.0303
34957W        W41407  20.531   1.223  12.622  0.0649 -0.2504  0.2202
34958W        W41408  17.580   0.570  32.492  0.1182  0.0667  0.2575
34959W        W41409  23.463   2.739   9.979 -0.1810  0.0186 -0.0879
34960W        W41410  16.225   6.411  10.717  0.0126  0.0394  0.1474
34961W        W41411   2.693   0.165   0.533 -0.0784  0.0163 -0.0447
34962W        W41412  12.862   2.794  23.077 -0.0394 -0.0121 -0.0295
34963W        W41413  18.297   6.299   4.113 -0.2489 -0.0319 -0.0790
34964W        W41414  21.345   5.920   3.721 -0.0426 -0.1680  0.0243
34965W        W41415   5.425   0.820  14.232 -0.0076 -0.0032 -0.0069
34966W        W41416  18.068   3.365  14.728  0.2903  0.1735 -0.0111
34967W        W41417   7.251   5.647   7.002 -0.2829  0.1808 -0.3035
34968W        W41418   7.600   6.444   0.205  0.0984 -0.0307  0.0419
34969W        W41419  16.428   5.529  14.423  0.0245 -0.2210 -0.0197
34970W        W41420   4.254   4.064  26.492  0.0778  0.1716  0.0079
34971W        W41421  19.451   5.665  33.654  0.3493  0.2628  0.0818
34972W        W41422  16.949   2.554  25.039  0.0573  0.0569 -0.4531
34973W        W41423  25.604   4.365   1.883  0.0715 -0.0698 -0.0696
34974W        W41424  21.279   2.228  25.380  0.1428  0.0754  0.2020
34975W        W41425  19.474   1.026   0.733 -0.1926 -0.3181  0.3706
34976W        W41426   0.382   3.047  27.869  0.1438  0.0191 -0.1785
34977W        W41427   9.373   4.876   8.755  0.0853 -0.1332  0.1728
34978W        W41428   9.611   3.951  23.311 -0.1276  0.4596  0.0069
34979W        W41429   1.773   5.667  25.324 -0.0500 -0.0916 -0.3298
34980W        W41430  17.953   3.181  25.650  0.0672 -0.2275 -0.0851
34981W        W41431  12.107   6.287  35.128 -0.1655  0.1814 -0.2499
34982W        W41432  10.132   1.613  23.302 -0.1377  0.0277  0.1269
34983W        W41433  24.180   0.361  30.694 -0.1860  0.1005  0.0083
34984W        W41434  25.288   5.869  27.130 -0.0566 -0.0458 -0.1720
34985W        W41435  18.352   0.225   6.586 -0.1575  0.0931  0.2292
34986W        W41436  19.463   1.060   1.882  0.0435  0.0001  0.0721
34987W        W41437   4.986   5.519  28.463 -0.4158 -0.2579 -0.2779
34988W        W41438  19.580   3.329  30.036 -0.1574  0.1472 -0.3489
34989W        W41439  11.188   3.382  15.758 -0.1151  0.2065 -0.1621
34990W        W41440  10.242   2.657  32.298 -0.2657  0.0201 -0.1476
34991W        W41441   9.106   2.879  14.675  0.0803  0.1192  0.0570
34992W        W41442  10.693   1.726  33.966 -0.4017  0.2558 -0.3188
34993W        W41443  14.705   6.008  16.544  0.1292  0.1051 -0.0701
34994W        W41444  13.568   0.331  13.456 -0.0532  0.2490 -0.1732
34995W        W41445  24.417   2.647  23.028 -0.3228  0.2660 -0.0487
34996W        W41446   5.476   1.507  35.582  0.1753  0.3980 -0.2648
34997W        W41447  26.086   2.994  20.878 -0.1436  0.1309  0.0027
34998W        W41448  10.378   1.743   9.168  0.1208 -0.1226 -0.0936
34999W        W41449   0.204   5.532  22.128 -0.2041  0.2725  0.0258
35000W        W41450  22.690   2.053   7.435 -0.0654 -0.1507 -0.0440
35001W        W41451   6.613   1.885  12.866 -0.1472  0.1798  0.0667
35002W        W41452   8.619   2.584   6.853  0.1601 -0.0363  0.0149
35003W        W41453   1.067   0.820  10.743 -0.0816  0.1405 -0.0114
35004W        W41454  15.846   1.963  11.376 -0.0744  0.1812  0.0953
35005W        W41455   2.618   6.539  26.464 -0.0080  0.0631 -0.0793
35006W        W41456   1.090   4.792  11.693  0.0982  0.0601 -0.0735
35007W        W41457   3.671   4.941  35.504  0.2844 -0.0894 -0.0386
35008W        W41458  22.782   0.304  30.239  0.2498  0.3112  0.1335
35009W        W41459   2.819   4.325  34.206 -0.2115  0.0764  0.0501
35010W        W41460  15.499   6.424  26.735 -0.0091 -0.1492 -0.2662
35011W        W41461   4.657   5.095   8.084  0.1410 -0.1437 -0.0530
35012W        W41462  22.282   0.401   4.208  0.1535 -0.0586 -0.1079
35013W        W41463  22.435   1.186  21.812  0.0176 -0.1525  0.0104
35014W        W41464  12.899   2.107  22.577 -0.1058 -0.0081  0.0507
35015W        W41465   7.351   1.294   2.550  0.2271 -0.2142 -0.0621
35016W        W41466  11.547   0.092   8.077 -0.1834 -0.3220 -0.1197
35017W        W41467  17.103   3.870  15.749 -0.0373 -0.1109  0.0870
35018W        W41468  12.586   1.394  27.978 -0.0264 -0.0266 -0.1821
35019W        W41469  23.740   0.744  13.096 -0.1318  0.2455 -0.0149
35020W        W41470  16.105   0.415  21.430 -0.1409  0.0639 -0.1241
35021W        W41471  14.688   3.475  32.780 -0.0020 -0.0756 -0.1531
35022W        W41472   0.674   1.616  25.765 -0.1487  0.2211  0.1598
35023W        W41473  10.177   5.320  11.683  0.2849  0.3559  0.2408
35024W        W41474  13.234   5.873  33.286  0.0565 -0.0088 -0.1572
35025W        W41475  18.099   4.450  32.229  0.0021  0.0209 -0.1508
35026W        W41476  20.426   5.759  34.821 -0.0913  0.0882  0.0733
35027W        W41477   6.233   1.770  29.331  0.0841 -0.0575 -0.0225
35028W        W41478  15.943   4.891   4.455  0.0267  0.1016  0.2600
35029W        W41479  19.057   0.032  10.936  0.2049 -0.0646  0.0208
35030W        W41480   7.789   5.056  33.054 -0.0874 -0.3271  0.2126
35031W        W41481  19.479   0.786  23.744 -0.2940  0.0109  0.0841
35032W        W41482  12.096   4.855   2.169 -0.1328 -0.1294  0.0854
35033W        W41483   5.231   2.975  24.044 -0.0187  0.2607 -0.1291
35034W        W41484  12.609   2.298   9.980  0.1402 -0.0843  0.1589
35035W        W41485   4.382   5.678   5.377 -0.3873 -0.1332  0.0408
35036W        W41486  15.255   5.813   7.557 -0.0732  0.4927  0.1837
35037W        W41487  14.027   2.347   2.190  0.0129 -0.1384 -0.0394
35038W        W41488   3.947   2.976  14.199  0.0120 -0.1419  0.1983
35039W        W41489  10.732   1.714  31.766 -0.1348 -0.0471 -0.4339
35040W        W41490  25.480   5.906  30.466  0.2121 -0.2322 -0.1512
35041W        W41491  13.448   0.767   1.937  0.2793  0.1838  0.0663
35042W        W41492  11.150   5.853  31.864 -0.0455 -0.3170 -0.0171
35043W        W41493  22.307   0.463  13.546  0.0403 -0.3595 -0.0587
35044W        W41494   9.293   5.744  10.943 -0.0903  0.2378 -0.1709
35045W        W41495  11.592   0.018   1.050 -0.0037 -0.2215  0.0139
35046W        W41496   4.906   0.902  32.267  0.3576  0.2551 -0.2856
35047W        W41497  19.656   3.154  34.905  0.0151  0.0568  0.3457
35048W        W41498  11.024   6.593  31.373 -0.0246 -0.0650  0.2802
35049W        W41499  17.259   2.600   9.718 -0.0592  0.0054 -0.3228
35050W        W41500  15.808   5.950   2.469  0.3044 -0.3594 -0.2249
35051W        W41501   0.203   5.160  30.803 -0.0766  0.0172 -0.0347
35052W        W41502  21.762   2.083  20.671 -0.0794  0.2691  0.0971
35053W        W41503  17.154   4.253  12.005  0.1019  0.0800 -0.1005
35054W        W41504   3.642   1.403   6.243 -0.0751  0.0999  0.0362
35055W        W41505  23.596   6.561   5.786 -0.3956  0.0488  0.0855
35056W        W41506  19.034   3.921  14.151 -0.1661  0.0949  0.0238
35057W        W41507  18.544   2.154  28.376 -0.2007 -0.1989  0.1623
35058W        W41508   5.066   3.960  23.444 -0.0302 -0.1076  0.0548
35059W        W41509   5.998   4.983  25.528 -0.0980 -0.0375 -0.1982
35060W        W41510  14.924   1.299  21.132  0.2004 -0.0561  0.0163
35061W        W41511  15.751   2.396  28.300 -0.1456 -0.1420 -0.1258
35062W        W41512   5.126   0.100  30.320  0.1198  0.0446  0.0030
35063W        W41513  14.307   3.553   6.101  0.1848 -0.0086  0.0177
35064W        W41514  11.943   3.851   3.383  0.4188 -0.2567  0.4837
35065W        W41515   0.002   2.835  33.377  0.0495 -0.0599 -0.0205
35066W        W41516  22.892   3.133   7.056 -0.0517 -0.2919 -0.0104
35067W        W41517  11.883   3.338  35.099  0.0844  0.1556  0.0805
35068W        W41518   7.442   5.144  32.242 -0.1540 -0.2848 -0.2081
35069W        W41519   7.623   1.153   4.028  0.3846  0.3450  0.0499
35070W        W41520  24.945   3.836   0.250 -0.2096  0.2021  0.1140
35071W        W41521  20.545   1.295   3.168  0.0466  0.0758  0.1651
35072W        W41522  15.808   1.216  13.905 -0.1651 -0.0634 -0.4024
35073W        W41523  18.542   0.074  30.277 -0.1285  0.1427 -0.1049
35074W        W41524  18.525   1.701  28.615 -0.2348 -0.0472 -0.2092
35075W        W41525   8.486   6.525   5.001 -0.0641 -0.1514 -0.3449
35076W        W41526   4.513   2.410  28.166  0.0093 -0.1231  0.1516
35077W        W41527  12.893   1.275  28.831  0.1067  0.1559  0.0504
35078W        W41528   1.094   4.777   2.301 -0.2902  0.0645  0.2260
35079W        W41529  20.347   5.850  32.873  0.2092  0.0027  0.0524
35080W        W41530  24.357   3.437   7.303  0.1933  0.3484 -0.0395
35081W        W41531  10.330   4.114  10.644  0.1578 -0.1257 -0.0365
35082W        W41532   4.989   5.725  32.933  0.0004  0.0531  0.1123
35083W        W41533  15.319   4.655  26.276 -0.0827 -0.2111  0.0485
35084W        W41534   9.566   5.539  13.466 -0.1088 -0.1225  0.1323
35085W        W41535  13.973   1.342   1.550  0.1056 -0.0309  0.3057
35086W        W41536  23.319   5.722   4.365 -0.1984 -0.1157 -0.2647
35087W        W41537   7.008   1.546  31.666 -0.5265 -0.1927  0.2336
35088W        W41538  10.905   5.641   1.467  0.2963  0.0728  0.1065
35089W        W41539  12.260   0.157  24.292  0.1444 -0.1311 -0.3561
35090W        W41540  21.561   6.568  27.721  0.3685 -0.0283  0.0529
35091W        W41541  19.772   2.350  32.887  0.0459 -0.0920  0.0354
35092W        W41542   9.671   0.245  28.781  0.0119 -0.0223  0.2518
35093W        W41543   6.935   5.671  32.524 -0.0050 -0.0112  0.1074
35094W        W41544   0.321   5.889   5.555 -0.1968 -0.0854  0.1148
35095W        W41545  14.410   2.394  14.501 -0.2426  0.1042  0.2361
35096W        W41546  23.944   3.840  15.264 -0.1176 -0.1546  0.0118
35097W        W41547   0.712   2.118   0.855 -0.0935 -0.4567  0.3187
35098W        W41548   5.970   0.118   0.042 -0.0484 -0.1043 -0.0234
35099W        W41549  14.125   1.889   3.196  0.1845  0.2211  0.1734
35100W        W41550  14.908   4.686  30.030 -0.0506  0.2608  0.1656
35101W        W41551   1.637   4.629  10.539  0.0756 -0.0389 -0.4035
35102W        W41552   8.879   2.367   3.137  0.1021 -0.2250 -0.4283
35103W        W41553  14.691   6.089  26.558 -0.0461  0.2593 -0.0543
35104W        W41554   2.596   2.587   9.555  0.2421 -0.0642 -0.0319
35105W        W41555  12.740   6.123  15.111  0.2448  0.1092  0.0615
35106W        W41556   0.220   3.817  24.115 -0.1892 -0.1150  0.3373
35107W        W41557  16.609   1.225   9.296  0.0446  0.1511  0.1152
35108W        W41558  13.929   5.426  13.222  0.1102 -0.2113  0.2127
35109W        W41559  22.424   0.045  10.727  0.0414  0.0025 -0.1697
35110W        W41560  22.490   4.472   7.483 -0.0286  0.0235  0.0049
35111W        W41561   3.783   0.674  10.599  0.0923  0.0588  0.1131
35112W        W41562  14.748   3.667   2.824  0.1728 -0.0051 -0.2938
35113W        W41563  14.500   1.624   2.861 -0.0115 -0.1300  0.2749
35114W        W41564  19.726   0.560   1.157 -0.1829  0.0436  0.0669
35115W        W41565   4.038   0.514  11.224  0.3257 -0.0404  0.3581
35116W        W41566  26.131   0.811   2.683 -0.1198  0.1174 -0.2186
35117W        W41567  13.386   0.737  30.280 -0.1286  0.0616  0.0757
35118W        W41568   8.272   0.233  22.703 -0.0850  0.1685 -0.3991
35119W        W41569  22.018   4.046   5.755  0.0283  0.1721  0.0183
35120W        W41570  10.177   1.798  13.230  0.0207 -0.1019  0.1200
35121W        W41571  16.348   1.288  13.036 -0.1577  0.4783 -0.0459
35122W        W41572   4.312   2.610  15.093  0.1959  0.0643 -0.1618
35123W        W41573   5.686   3.038  22.809  0.0255  0.1440  0.2845
35124W        W41574  25.175   1.377   7.814 -0.2783  0.3763 -0.1811
35125W        W41575  12.974   4.990  13.588 -0.1681 -0.0602  0.1377
35126W        W41576  12.989   3.746  11.769 -0.0909 -0.1427  0.1610
35127W        W41577  25.993   3.721   5.886  0.1539 -0.0118 -0.1559
35128W        W41578  25.749   2.755   0.083 -0.0246  0.0693  0.0331
35129W        W41579  14.794   2.410   1.733  0.1566  0.0100  0.1235
35130W        W41580  11.942   0.577  31.931 -0.1053 -0.0366  0.0913
35131W        W41581  20.823   5.220  25.360 -0.2742 -0.2013 -0.0719
35132W        W41582   8.855   5.867  30.073 -0.3424 -0.0857 -0.1255
35133W        W41583  22.598   5.397   1.163 -0.0970  0.0476 -0.0640
35134W        W41584   7.515   1.357   4.921 -0.0777 -0.1512  0.1484
35135W        W41585  23.396   1.739  15.337  0.0518  0.1286 -0.2276
35136W        W41586  20.814   0.581  15.228 -0.0505 -0.1337  0.0467
35137W        W41587  25.850   2.197  25.864 -0.2171  0.0331  0.1881
35138W        W41588  14.307   0.098  25.512  0.0915 -0.0559  0.3535
35139W        W41589  23.877   6.539  10.874 -0.0717  0.2378 -0.1862
35140W        W41590  25.503   3.939  30.281 -0.1200 -0.2946 -0.1145
35141W        W41591  17.508   5.909   8.998  0.3857 -0.3468 -0.3735
35142W        W41592   4.270   4.909  12.797  0.0673  0.3138 -0.0113
35143W        W41593  25.435   0.363   7.106 -0.0361  0.0016  0.3933
35144W        W41594  16.271   6.324  11.243 -0.1985 -0.0812  0.0554
35145W        W41595   5.819   0.006   4.443 -0.2085  0.1453  0.2695
35146W        W41596  15.411   6.372  14.310  0.1140 -0.1514  0.0836
35147W        W41597  23.594   1.148  26.853  0.2591  0.0857  0.0149
35148W        W41598  18.726   5.638  34.959 -0.1724  0.1907 -0.1968
35149W        W41599   2.661   1.304  25.251  0.0406  0.1293 -0.3889
35150W        W41600   2.312   3.392  24.502  0.0392  0.0909 -0.2354
35151W        W41601   9.911   0.277  27.807  0.2511 -0.2497 -0.1737
35152W        W41602  13.186   4.269  24.685 -0.3839 -0.1034 -0.0482
35153W        W41603  17.308   0.547   1.670  0.2444 -0.0974 -0.0771
35154W        W41604   2.782   0.276  13.406  0.1246 -0.3258 -0.3755
35155W        W41605   0.104   3.047  10.264 -0.1486  0.3394  0.2579
35156W        W41606   1.525   4.411  13.961 -0.0895  0.3745 -0.1005
35157W        W41607  21.230   2.702  30.015 -0.0852  0.0167  0.3133
35158W        W41608  20.070   3.918  33.197  0.0541 -0.3874  0.0444
35159W        W41609  25.687   0.836   5.881 -0.1353  0.1049  0.4165
35160W        W41610   1.414   1.130  20.697  0.1572 -0.1973  0.2090
35161W        W41611   4.230   0.713  34.885 -0.2011  0.0399 -0.1354
35162W        W41612   8.708   1.170  25.470 -0.0751 -0.0951  0.0108
35163W        W41613   5.892   6.213  33.222  0.1149 -0.1684 -0.0094
35164W        W41614  15.365   5.150  15.556 -0.5107  0.1015 -0.0062
35165W        W41615  11.504   3.992   4.535 -0.2512 -0.2357 -0.4049
35166W        W41616  12.216   1.820   8.034 -0.0387 -0.0483 -0.0171
35167W        W41617  20.560   3.177   7.445 -0.3307  0.0354  0.2221
35168W        W41618  23.756   3.216   5.364  0.1458  0.0905  0.0664
35169W        W41619  23.597   2.969   4.388  0.2697 -0.0162  0.1020
35170W        W41620  24.019   4.590  27.007 -0.2832 -0.2747 -0.1385
35171W        W41621  18.692   0.790  21.774  0.0380 -0.0384  0.1945
35172W        W41622  20.983   3.108   8.374 -0.1004  0.2361 -0.0816
35173W        W41623  19.815   2.561   5.934 -0.1144  0.3215  0.1504
35174W        W41624  17.549   4.664  13.789 -0.1946 -0.0329 -0.0572
35175W        W41625  11.753   5.328  36.114  0.0339  0.1568 -0.3063
35176W        W41626  19.963   3.317  29.694  0.0091 -0.0129 -0.2171
35177W        W41627  20.583   4.223  15.232  0.0686  0.2548 -0.2205
35178W        W41628   8.203   3.257  25.264 -0.2022 -0.0674 -0.0495
35179W        W41629  22.990   5.098  28.280 -0.0580 -0.1459  0.0952
35180W        W41630  11.295   0.414  14.267  0.2749  0.0832 -0.1496
35181W        W41631  15.557   5.808   9.665  0.1176 -0.0388 -0.1654
35182W        W41632   7.545   3.215  10.286  0.0306  0.0655  0.0286
35183W        W41633  19.387   5.461  30.201  0.1434 -0.1847 -0.1842
35184W        W41634  13.155   2.416  12.373  0.0571  0.1773 -0.0778
35185W        W41635   4.923   1.384   1.165 -0.0442 -0.0508 -0.0613
35186W        W41636  16.608   2.534  33.099 -0.0920  0.2735  0.1361
35187W        W41637  17.753   4.844   2.710 -0.1736 -0.3538 -0.1982
35188W        W41638   8.167   4.527  25.874 -0.0373  0.5240  0.0496
35189W        W41639   2.747   5.272  13.551  0.1464 -0.1039  0.0007
35190W        W41640   1.274   0.128  35.506  0.2448  0.4156 -0.3601
35191W        W41641  15.124   0.002  28.787  0.3105 -0.0068  0.3089
35192W        W41642  20.909   2.858  33.940 -0.0843 -0.0100  0.2203
35193W        W41643  14.757   6.391   1.757 -0.0566  0.0424 -0.1958
35194W        W41644   5.861   2.854  12.004 -0.2961  0.1337  0.0461
35195W        W41645  12.087   3.733  28.024 -0.1401  0.0811 -0.2099
35196W        W41646  19.029   6.553  27.876  0.0467 -0.2699  0.1033
35197W        W41647   1.802   1.798   3.324 -0.1673 -0.0371 -0.2673
35198W        W41648   6.880   2.464  32.215  0.0490 -0.0955 -0.0286
35199W        W41649   8.540   1.054  26.590  0.1738 -0.0056 -0.4647
35200W        W41650  21.438   4.772  34.734  0.0355  0.2438 -0.4416
35201W        W41651   0.997   2.014  11.210 -0.1095 -0.0485 -0.0108
35202W        W41652  24.364   6.401   7.336  0.3828  0.1222  0.1356
35203W        W41653   8.321   6.240   3.542 -0.0313 -0.0632 -0.0403
35204W        W41654  26.337   6.400  25.416 -0.1209 -0.0361  0.1143
35205W        W41655   0.374   1.225  33.837  0.0526 -0.2412 -0.0942
35206W        W41656   3.034   6.167  11.662  0.0440 -0.2342 -0.1269
35207W        W41657  25.381   2.356  11.037 -0.0559  0.3826  0.1492
35208W        W41658  13.790   3.343   5.055 -0.1283 -0.1203  0.1461
35209W        W41659  20.749   2.817   1.098 -0.0557 -0.3665 -0.1918
35210W        W41660  20.969   5.624   4.027  0.1986  0.1664 -0.1350
35211W        W41661  16.903   0.858  10.045 -0.1536 -0.4542 -0.0425
35212W        W41662  17.788   4.019   3.348 -0.1222 -0.3999 -0.1539
35213W        W41663  25.754   4.156  27.834  0.2486  0.1008  0.0578
35214W        W41664   4.460   1.908  28.191 -0.0769 -0.0965 -0.0277
35215W        W41665   2.718   3.652   2.322 -0.1323 -0.0574  0.1271
35216W        W41666   7.844   1.370  28.485 -0.1569  0.0045  0.1374
35217W        W41667   0.377   0.716  25.855  0.2583  0.1850 -0.1762
35218W        W41668  18.868   5.414  25.527 -0.1592 -0.3991  0.1988
35219W        W41669  23.685   6.312  26.017 -0.1127 -0.0667  0.4322
35220W        W41670  16.567   5.432  11.699 -0.2550 -0.5145  0.1007
35221W        W41671  25.537   2.914  29.261 -0.3124 -0.0152  0.0443
35222W        W41672  16.146   3.239  22.963  0.0083  0.1587  0.0540
35223W        W41673  10.629   0.151  23.672  0.0287 -0.1017  0.0219
35224W        W41674  16.064   0.292  14.104 -0.0008  0.1898  0.2441
35225W        W41675   9.475   6.581  27.533  0.0776  0.0319 -0.0955
35226W        W41676   8.283   4.920  26.835  0.0619 -0.2221 -0.0789
35227W        W41677  18.546   0.422  27.521  0.3733 -0.2659 -0.0953
35228W        W41678  17.249   3.119   8.034  0.1775  0.0106  0.0057
35229W        W41679  12.397   2.764   7.644 -0.0102  0.1196  0.0315
35230W        W41680  22.250   3.140   1.247 -0.3163  0.2749  0.3190
35231W        W41681  24.310   4.371   9.336 -0.1748 -0.0652  0.0092
35232W        W41682  25.447   0.693  13.463 -0.0204 -0.1904 -0.1077
35233W        W41683  22.343   5.424  11.411  0.1395 -0.1353 -0.0662
35234W        W41684   9.782   1.826  14.942  0.1025  0.0042 -0.1286
35235W        W41685   1.010   1.531  23.112  0.0682  0.0047  0.0062
35236W        W41686   0.734   2.543  34.945  0.0959  0.4495  0.1078
35237W        W41687  23.429   0.224  36.152 -0.1611  0.1146  0.0836
35238W        W41688   8.790   5.884  10.975 -0.0128 -0.3410 -0.2508
35239W        W41689  11.754   0.383   0.681 -0.2900  0.2101 -0.0546
35240W        W41690  12.422   6.384  14.272 -0.0191  0.0319  0.1116
35241W        W41691  14.509   0.957   2.254 -0.0800  0.1755 -0.3358
35242W        W41692  19.747   2.668   8.529  0.1718 -0.2484 -0.0623
35243W        W41693   9.309   4.293  13.538  0.1459 -0.0195  0.2337
35244W        W41694  15.865   5.927   4.007  0.0787 -0.2792  0.3339
35245W        W41695  18.604   4.363  26.301  0.0136  0.0241 -0.0661
35246W        W41696  12.218   1.030  28.799  0.1668 -0.1325  0.1333
35247W        W41697  23.983   6.197  12.273 -0.2172  0.0222  0.0090
35248W        W41698   0.544   0.744  14.982 -0.0998 -0.0405  0.1374
35249W        W41699   8.600   2.451  22.032 -0.0649 -0.0662 -0.2932
35250W        W41700  18.272   0.627  33.922 -0.0949  0.0890 -0.0207
35251W        W41701  18.542   2.412  27.085  0.1422 -0.1244 -0.0848
35252W        W41702   9.989   0.259  23.310 -0.0512 -0.2038 -0.0525
35253W        W41703   2.740   0.795  13.236 -0.1850  0.1798 -0.0829
35254W        W41704  13.102   0.108  28.598  0.0986  0.1598  0.1486
35255W        W41705  26.236   5.141   8.180 -0.2738  0.2643 -0.0383
35256W        W41706   5.270   0.038  25.206 -0.1132  0.2263  0.1491
35257W        W41707  17.735   2.935  26.095 -0.4432  0.0017  0.0257
35258W        W41708  17.311   0.776  24.166 -0.1138 -0.2723 -0.0410
35259W        W41709  15.009   1.725  31.603 -0.0804 -0.0718 -0.2651
35260W        W41710  18.837   4.944  31.014 -0.3154  0.1186  0.0719
35261W        W41711   2.639   0.481  15.029 -0.0797  0.0781  0.1493
35262W        W41712  23.741   3.148   9.811 -0.2880  0.0597 -0.2337
35263W        W41713   6.904   0.412  12.457 -0.1388 -0.1579  0.1012
35264W        W41714   9.063   5.006  10.262  0.1994  0.2642 -0.1186
35265W        W41715  19.385   2.687  23.313  0.2163 -0.1366  0.0267
35266W        W41716   2.692   2.540  28.653  0.0685 -0.0043  0.4245
35267W        W41717  10.611   3.312  15.055 -0.3177 -0.0176  0.1721
35268W        W41718   4.305   5.190  14.625  0.0892 -0.0282 -0.0434
35269W        W41719  10.020   4.543   3.506 -0.1855 -0.1723  0.2884
35270W        W41720  22.978   5.254   9.231  0.1029 -0.2020 -0.1016
35271W        W41721  10.539   6.130   2.171  0.1049 -0.0426  0.1559
35272W        W41722  10.497   4.441  22.115 -0.0078  0.0904  0.3093
35273W        W41723  15.338   2.768  23.096 -0.1193  0.2413  0.1843
35274W        W41724  20.224   0.658  10.531  0.1247 -0.0288  0.0158
35275W        W41725  14.973   3.878   9.954  0.0894  0.0085 -0.1769
35276W        W41726   4.035   6.496  10.286  0.2398  0.1875  0.1194
35277W        W41727  26.134   4.958   2.113  0.1282  0.0579  0.3392
35278W        W41728  24.400   5.607  15.166 -0.1216 -0.1395  0.1069
35279W        W41729  19.712   1.407   7.275  0.1981  0.1058 -0.0134
35280W        W41730   6.255   3.806  20.589 -0.0391 -0.0729  0.0730
35281W        W41731   9.346   1.748  26.703  0.3793  0.1425  0.0077
35282W        W41732  17.516   2.333   9.322 -0.0198 -0.0797  0.1664
35283W        W41733  11.694   5.880  24.718 -0.1463 -0.0811 -0.4074
35284W        W41734   5.797   2.673  29.200 -0.0026 -0.1745  0.0547
35285W        W41735  14.850   4.437   7.170 -0.2250 -0.1358 -0.2508
35286W        W41736   4.707   3.281   9.613  0.0664  0.2580 -0.2831
35287W        W41737   6.244   4.486   6.213  0.2535 -0.1805 -0.3056
35288W        W41738  12.421   0.591  14.929  0.1056 -0.1111  0.0651
35289W        W41739  25.981   0.464  28.110  0.2340  0.0038 -0.0213
35290W        W41740  13.008   5.784  11.442 -0.1489 -0.0240 -0.0947
35291W        W41741   8.134   2.216  29.181  0.0008 -0.4836  0.1122
35292W        W41742   0.789   0.649   6.161 -0.0096  0.1502  0.3305
35293W        W41743  15.567   2.579   6.378  0.1987  0.1162 -0.1161
35294W        W41744  13.948   3.280  15.000 -0.1277 -0.0104 -0.1538
35295W        W41745   8.479   0.778  12.658  0.0783 -0.2029  0.2437
35296W        W41746   9.987   3.319  23.537  0.1050 -0.0382  0.2710
35297W        W41747  24.292   1.445  34.620  0.0286  0.0567  0.4416
35298W        W41748  20.427   6.222  22.071 -0.0602 -0.1923 -0.1033
35299W        W41749   8.100   2.560  31.839  0.1951  0.1366 -0.0908
35300W        W41750   8.633   2.091  14.064  0.0318  0.0787 -0.1847
35301W        W41751   2.313   4.247   1.793  0.1858  0.0482  0.0985
35302W        W41752   3.294   5.714  20.894 -0.1889 -0.1943 -0.0942
35303W        W41753  15.477   1.667   3.848  0.1087  0.0346 -0.0508
35304W        W41754  19.387   2.704   6.272 -0.0084  0.0766  0.2972
35305W        W41755   2.600   0.352   4.167  0.1132  0.1176 -0.0243
35306W        W41756  24.740   0.955  30.665  0.0389  0.0431 -0.3503
35307W        W41757  22.376   5.060  22.999  0.0629 -0.0574 -0.0292
35308W        W41758  21.258   5.967  15.886  0.0462 -0.2834  0.1511
35309W        W41759  19.958   4.221  36.123 -0.0453 -0.2411  0.1100
35310W        W41760   8.634   2.759  12.972  0.0275  0.1919  0.1457
35311W        W41761   5.074   2.569   6.795  0.5639  0.0252  0.1484
35312W        W41762   0.856   1.136  23.459 -0.2268  0.0604 -0.1511
35313W        W41763  12.019   3.680  14.239 -0.1065 -0.2096  0.1219
35314W        W41764  18.854   1.813  28.185  0.1692 -0.0745 -0.0841
35315W        W41765   0.740   4.260   7.793  0.1221 -0.0385 -0.0395
35316W        W41766  14.026   2.220  21.607  0.0004  0.2814  0.4766
35317W        W41767  12.666   3.763   6.509 -0.1674  0.0212 -0.1526
35318W        W41768  18.340   6.216  29.138 -0.1092 -0.3976  0.0739
35319W        W41769  22.035   0.083  24.719  0.2674 -0.0855 -0.0596
35320W        W41770   3.452   4.882   5.818 -0.1608 -0.0258 -0.0687
35321W        W41771   2.336   1.198  22.829  0.1488  0.1803 -0.4961
35322W        W41772   4.224   3.901  29.311 -0.2563  0.3200 -0.3187
35323W        W41773  11.120   1.326   2.961  0.0847 -0.0659 -0.3118
35324W        W41774   3.562   3.925   4.324 -0.2637 -0.1312 -0.0772
35325W        W41775  19.593   6.192   3.980  0.1661  0.1661  0.2996
35326W        W41776   9.870   1.136   3.592 -0.2061 -0.0119 -0.1028
35327W        W41777   8.255   2.593  33.092 -0.0250  0.1329 -0.0518
35328W        W41778  23.498   1.322   2.512 -0.2544 -0.0025  0.3132
35329W        W41779  14.389   2.148  24.448  0.0272  0.1909 -0.5251
35330W        W41780  10.629   2.009  13.027 -0.1914  0.0311 -0.1576
35331W        W41781  23.501   0.791  14.947 -0.1353 -0.1014  0.3186
35332W        W41782  26.180   4.569  11.397  0.1194  0.0193  0.3874
35333W        W41783   3.068   2.095  26.055  0.2234  0.2891 -0.0036
35334W        W41784   6.846   0.495  28.081 -0.1555 -0.0541 -0.2091
35335W        W41785  18.379   3.205   2.403  0.2102  0.0525 -0.1045
35336W        W41786  15.203   1.736  27.836  0.1143 -0.0549 -0.3029
35337W        W41787  12.223   1.718  29.262  0.2716 -0.1459  0.1443
35338W        W41788   2.243   6.326  12.393  0.2018 -0.2109  0.3053
35339W        W41789   0.671   1.718   2.074 -0.3040  0.1971  0.3242
35340W        W41790  23.755   3.447  21.811  0.2728  0.2812 -0.2140
35341W        W41791  20.270   2.957   9.058  0.2505 -0.1081  0.2119
35342W        W41792  12.035   3.532  26.192 -0.0027 -0.1263  0.2458
35343W        W41793  11.265   3.558   0.463 -0.1923 -0.2465  0.4120
35344W        W41794  16.782   6.061  21.882  0.1629  0.2619 -0.1062
35345W        W41795   9.303   6.444   0.294  0.0190 -0.0102  0.1732
35346W        W41796   2.080   1.940   1.142  0.0441 -0.0100 -0.1582
35347W        W41797   2.783   2.754   8.444 -0.0922  0.2469  0.1947
35348W        W41798  11.724   0.866  23.925 -0.3744  0.1891  0.0634
35349W        W41799   3.968   0.629  11.721  0.0035 -0.0289 -0.1410
35350W        W41800   7.687   5.138   6.890  0.0071  0.2955 -0.1469
35351W        W41801   1.297   4.827   3.543  0.1288 -0.1235 -0.3028
35352W        W41802  18.738   5.913  10.479  0.1478  0.1301  0.3677
35353W        W41803  14.259   6.590  15.419  0.1209  0.1024 -0.3521
35354W        W41804  15.707   4.861  31.548 -0.1519  0.1189 -0.0879
35355W        W41805  18.203   2.434  14.144 -0.0953 -0.0051 -0.0572
35356W        W41806  24.681   6.580   8.121  0.0953  0.0708  0.0564
35357W        W41807  15.119   3.352   3.710  0.1821 -0.4451 -0.0008
35358W        W41808  12.858   5.001  21.941 -0.1857  0.1603 -0.1985
35359W        W41809  24.035   0.288   2.955 -0.3494 -0.0070 -0.0246
35360W        W41810   5.822   2.519  20.661 -0.0398 -0.1667 -0.3699
35361W        W41811  12.032   3.593   5.754  0.2344  0.0430 -0.1154
35362W        W41812   6.214   0.281   0.505 -0.4388  0.2548 -0.1840
35363W        W41813  15.409   4.717  31.207  0.1576  0.0579 -0.0227
35364W        W41814  14.081   1.871  12.918  0.0246  0.0713 -0.0442
35365W        W41815   0.591   4.248   9.914 -0.0805  0.1469  0.0039
35366W        W41816   1.608   2.064  10.879 -0.0377 -0.1483  0.1348
35367W        W41817  14.686   1.612   9.412 -0.2250  0.2881 -0.0852
35368W        W41818  23.045   2.425  29.201  0.3056  0.0218 -0.1021
35369W        W41819  23.623   5.973  34.606 -0.1193 -0.2440  0.1052
35370W        W41820  17.015   2.854   0.717  0.0814  0.3145 -0.2097
35371W        W41821  14.047   1.613  13.380 -0.0531 -0.0919  0.0831
35372W        W41822   9.069   5.352  24.741 -0.1104 -0.0285 -0.2876
35373W        W41823   7.675   6.426   9.242  0.1435 -0.0945  0.0203
35374W        W41824  19.300   1.836   5.673 -0.1693 -0.1322 -0.0751
35375W        W41825   3.735   2.096   3.539 -0.1299 -0.0944  0.0223
35376W        W41826  24.423   5.329  29.927 -0.3768  0.1247  0.3113
35377W        W41827  10.638   4.481  29.000  0.2336  0.1122  0.1625
35378W        W41828   9.595   5.149  24.944  0.1331 -0.1214  0.2295
35379W        W41829  21.584   3.334   5.876 -0.0925 -0.0315  0.0713
35380W        W41830  12.591   0.095   5.119  0.1918  0.1749  0.0651
35381W        W41831  15.657   1.038  23.280 -0.1599 -0.0522  0.0733
35382W        W41832  21.008   2.095  14.003 -0.1290  0.0325 -0.0767
35383W        W41833  25.075   4.556   7.252  0.0455  0.1145 -0.1404
35384W        W41834  25.058   3.608   3.089 -0.0181 -0.5377 -0.1553
35385W        W41835  25.706   0.097  14.704  0.2128  0.2154  0.0914
35386W        W41836  17.998   4.724  10.437  0.0637  0.4058  0.3673
35387W        W41837  12.687   5.423  15.572 -0.0620  0.2044  0.2650
35388W        W41838   4.085   6.098  23.604 -0.1255  0.1086 -0.0752
35389W        W41839  24.639   0.030   4.426  0.1754  0.1208 -0.0693
35390W        W41840   9.258   6.350  32.532 -0.3796 -0.0649 -0.2302
35391W        W41841  20.693   4.741  25.450  0.3602  0.0030 -0.1877
35392W        W41842  20.120   5.833   9.818  0.1070  0.5057 -0.3566
35393W        W41843  18.033   3.695  24.371  0.0147  0.0046 -0.0765
35394W        W41844   8.243   2.253  27.220 -0.2753  0.3622 -0.2614
35395W        W41845   1.872   1.489  34.895 -0.0281  0.2013 -0.0882
35396W        W41846   4.546   5.022  29.084  0.2884  0.0049 -0.3551
35397W        W41847  21.112   3.260  32.380  0.3013 -0.0958  0.0453
35398W        W41848   5.568   0.466  14.959 -0.0247  0.3065 -0.1162
35399W        W41849  17.164   0.050  22.906 -0.0170  0.1940  0.1906
35400W        W41850  23.588   5.215  24.236  0.1572 -0.2308  0.0298
35401W        W41851  25.808   4.136  13.128 -0.1359  0.1047 -0.0094
35402W        W41852   1.667   4.753  20.426 -0.2093  0.0558 -0.0981
35403W        W41853  14.704   1.684  11.582 -0.0563  0.1867  0.0126
35404W        W41854  12.126   5.912  34.556 -0.1320 -0.1226 -0.0314
35405W        W41855   1.400   5.805  10.723  0.1844 -0.0790 -0.4449
35406W        W41856  22.923   5.259  30.755 -0.2954 -0.1119 -0.3725
35407W        W41857  12.328   2.566   3.362 -0.1966 -0.0419  0.1458
35408W        W41858  17.731   5.049  29.338  0.1886 -0.0219 -0.0504
35409W        W41859   8.979   6.359   0.637 -0.1823 -0.1037  0.0379
35410W        W41860  25.968   2.795  30.495  0.0375  0.0357 -0.2042
35411W        W41861   8.661   2.910  32.870 -0.0001 -0.0571  0.1237
35412W        W41862  15.366   3.729  26.883  0.0134 -0.3691 -0.1471
35413W        W41863   3.227   4.228   8.552  0.1216  0.0746  0.0292
35414W        W41864  13.328   0.983   7.210  0.3143  0.3295  0.1958
35415W        W41865   5.622   0.854  24.056  0.1967  0.0983 -0.1103
35416W        W41866  23.224   3.311   5.036  0.0301  0.3922  0.0950
35417W        W41867   6.080   1.725  28.465  0.1217 -0.2675  0.3265
35418W        W41868  24.964   5.466  20.676  0.1921 -0.0481 -0.2664
35419W        W41869   2.113   2.256  23.452 -0.2978  0.1258 -0.2001
35420W        W41870  23.648   0.763   4.178 -0.1628  0.0596 -0.0610
35421W        W41871  22.200   2.890  32.324 -0.1631  0.3928  0.0665
35422W        W41872  17.841   3.931  31.995 -0.1849  0.0831 -0.0946
35423W        W41873  15.664   5.775  23.393  0.1739 -0.0962  0.0992
35424W        W41874   0.901   1.096   7.438 -0.0652 -0.0887 -0.0677
35425W        W41875   8.375   3.176   8.114  0.0029 -0.2486 -0.0205
35426W        W41876   2.855   1.700  21.757  0.0042  0.1467  0.1887
35427W        W41877  10.109   0.897  34.234  0.0909 -0.3201 -0.4295
35428W        W41878   8.330   4.897  27.317  0.2283 -0.4186 -0.3338
35429W        W41879  21.059   6.459  12.497 -0.0367 -0.0457 -0.1715
35430W        W41880   9.930   0.554   1.891  0.1445  0.1846 -0.2303
35431W        W41881   7.924   4.147  20.316 -0.1635  0.2248  0.1389
35432W        W41882  15.802   5.763  31.405 -0.2236  0.1111  0.2037
35433W        W41883  23.893   0.491  12.181  0.0887 -0.0855 -0.3013
35434W        W41884  21.323   3.844  10.793  0.0504 -0.0707 -0.0418
35435W        W41885  14.128   2.099   1.011 -0.0725  0.2447 -0.1538
35436W        W41886   0.077   6.603  20.633  0.0161  0.1421 -0.2745
35437W        W41887  14.096   2.762   7.281 -0.4036 -0.0564 -0.0290
35438W        W41888  13.058   5.998  21.805 -0.4849 -0.3661  0.0573
35439W        W41889   4.671   6.145  27.521 -0.0285 -0.0765 -0.0896
35440W        W41890  16.725   1.735  31.173 -0.0223 -0.0294 -0.1144
35441W        W41891   5.968   5.389  24.133 -0.1062  0.0304 -0.0781
35442W        W41892  22.745   5.663  29.587  0.1049  0.1184  0.0494
35443W        W41893   4.240   2.732  11.014 -0.0836 -0.0242  0.2283
35444W        W41894   9.224   0.903  30.888 -0.0584  0.0005  0.0011
35445W        W41895   8.791   1.182  13.615 -0.1329  0.0266 -0.1503
35446W        W41896  23.985   2.942   2.498 -0.1152 -0.2303 -0.0923
35447W        W41897  15.147   2.990  32.122  0.0283  0.1667 -0.1301
35448W        W41898  18.602   0.871  29.246 -0.0834  0.0022 -0.1296
35449W        W41899  11.369   1.887  22.506 -0.1927 -0.2588  0.1595
35450W        W41900  18.960   6.154   9.147  0.2793 -0.0502 -0.0867
35451W        W41901  20.692   3.837  35.814 -0.0507 -0.0866  0.2289
35452W        W41902  18.162   6.167   5.927 -0.4583  0.1969  0.0336
35453W        W41903   6.968   1.057   7.077 -0.0927  0.3110 -0.2644
35454W        W41904  13.019   2.011  13.738  0.1732 -0.0570  0.1814
35455W        W41905   2.583   5.162  15.280 -0.0269 -0.3805  0.0635
35456W        W41906  12.212   2.658  35.496 -0.1497  0.1598 -0.2711
35457W        W41907  20.860   1.000  14.983  0.1809  0.1878 -0.1960
35458W        W41908   7.370   0.056  15.689  0.0113 -0.1266  0.1648
35459W        W41909  17.586   3.372  27.565 -0.1463  0.2730 -0.4154
35460W        W41910  13.625   3.036  14.668  0.3357  0.2049 -0.1006
35461W        W41911  13.117   0.563   9.528  0.0060  0.1493 -0.0666
35462W        W41912  20.050   4.430  34.049 -0.1798 -0.0921  0.2429
35463W        W41913  20.113   5.302  12.111  0.0753 -0.0472  0.0979
35464W        W41914  12.050   0.349  15.437 -0.0630  0.1977 -0.2058
35465W        W41915  13.409   1.852  31.719  0.1195 -0.2138 -0.0470
35466W        W41916  11.350   4.691   3.341 -0.1181  0.1929 -0.0507
35467W        W41917   7.092   5.850  27.405  0.1077 -0.1030  0.2165
35468W        W41918   2.694   3.421   6.668  0.2335 -0.4993  0.0090
35469W        W41919   3.815   4.805  27.551 -0.1267 -0.1125  0.0981
35470W        W41920  26.201   1.858  30.623 -0.1202 -0.0595  0.1805
35471W        W41921  14.105   0.409   0.508 -0.0432 -0.1482  0.1678
35472W        W41922  17.293   2.803   1.399  0.0626 -0.0951 -0.4619
35473W        W41923  14.928   3.505   3.278 -0.1888  0.0588 -0.4122
35474W        W41924   7.268   3.424   4.879  0.1346  0.0780  0.1021
35475W        W41925   7.412   5.487   0.904 -0.0756 -0.0917  0.0126
35476W        W41926  15.418   1.525   8.014 -0.3131  0.5370  0.1253
35477W        W41927   7.703   4.718  14.787 -0.1619  0.0088 -0.0916
35478W        W41928   8.352   4.517  29.971  0.1054  0.0172 -0.0750
35479W        W41929   3.194   1.731   0.392 -0.0590 -0.2191 -0.0923
35480W        W41930  14.153   0.827   6.889  0.1767  0.2195 -0.0168
35481W        W41931  23.800   2.770   3.863  0.0797  0.1547  0.0323
35482W        W41932  21.550   3.906  25.503 -0.2494 -0.3135  0.1845
35483W        W41933  11.504   1.623  30.436 -0.2861  0.0148  0.3147
35484W        W41934   6.217   2.533  14.057  0.1005  0.0244 -0.3238
35485W        W41935  16.747   0.403  16.311  0.0938  0.0069 -0.1337
35486W        W41936  23.237   3.507  33.945 -0.0490  0.1966 -0.0884
35487W        W41937   2.705   0.401  21.780 -0.0152  0.1381  0.0698
35488W        W41938  15.694   6.071  30.995  0.0083 -0.1782  0.0362
35489W        W41939  13.804   3.532   5.923  0.1433 -0.2620  0.1069
35490W        W41940   4.174   3.991  35.401 -0.2350  0.2324  0.0273
35491W        W41941  18.759   2.066  20.737 -0.2616 -0.2877  0.0142
35492W        W41942   4.434   0.550  30.608 -0.2395 -0.0853 -0.1205
35493W        W41943   1.657   4.642  32.218  0.0707 -0.0128  0.0028
35494W        W41944  23.975   1.916  22.259 -0.2093 -0.1765 -0.2091
35495W        W41945  19.318   0.419  12.093  0.1592  0.3244 -0.0521
35496W        W41946  23.852   3.954  25.832  0.1708  0.0557 -0.0936
35497W        W41947   2.015   5.363   0.364  0.4405 -0.0334 -0.1785
35498W        W41948   8.403   2.267   7.866 -0.3409  0.0609  0.0051
35499W        W41949   3.103   1.924  31.244  0.1815  0.0658 -0.0731
35500W        W41950  16.393   1.044  13.908  0.0394 -0.0091 -0.1075
35501W        W41951  12.532   5.097  35.587  0.3534  0.1731 -0.3611
35502W        W41952  11.228   1.763  25.043 -0.3495  0.2481  0.1914
35503W        W41953  10.507   0.442  34.653  0.1688 -0.0610  0.4926
35504W        W41954  23.682   4.670  12.215 -0.2829  0.3473  0.0709
35505W        W41955   7.475   2.613  27.678 -0.0563  0.1996  0.1350
35506W        W41956  15.793   1.183  31.244 -0.0897  0.1131  0.0120
35507W        W41957  11.320   4.438   5.359  0.0251  0.0888 -0.2287
35508W        W41958   4.457   2.226  23.418  0.0914 -0.0266 -0.1786
35509W        W41959   0.656   2.495  33.637 -0.1222 -0.0712 -0.2061
35510W        W41960  23.877   3.217  13.052 -0.0553  0.3414 -0.4242
35511W        W41961  25.237   3.884  24.142  0.0234  0.0410 -0.1554
35512W        W41962   7.474   4.071  24.649 -0.2419 -0.0086 -0.1158
35513W        W41963  17.990   1.408  33.160 -0.1937  0.2454 -0.0263
35514W        W41964  20.993   6.303  32.438 -0.1007  0.2189  0.1589
35515W        W41965  12.722   3.358  14.319  0.2024  0.1491  0.2100
35516W        W41966  26.041   2.093  27.593  0.1401  0.1417 -0.4224
35517W        W41967  12.018   3.531  35.951 -0.0378 -0.0618  0.1306
35518W        W41968  21.895   6.057  36.119 -0.3352 -0.2049  0.3078
35519W        W41969   5.353   1.840  31.736  0.0108 -0.0318  0.2140
35520W        W41970  14.520   1.089   3.478 -0.1334 -0.0482 -0.0081
35521W        W41971   4.236   2.636  14.588  0.2105 -0.1247  0.0661
35522W        W41972  22.183   1.277   1.323 -0.1570  0.0234  0.0871
35523W        W41973   4.428   1.332  24.937 -0.1001  0.1683  0.2191
35524W        W41974  16.255   5.645  26.263 -0.1887 -0.0051 -0.4120
35525W        W41975  21.515   1.206  33.343  0.2330 -0.1118  0.2292
35526W        W41976   3.432   2.569  30.145 -0.0803  0.2007  0.2100
35527W        W41977  20.259   4.772  30.697  0.0839  0.1234 -0.0902
35528W        W41978  21.065   1.862  28.855 -0.0417 -0.1074  0.4527
35529W        W41979   5.448   4.721  32.825 -0.2593  0.4133  0.2703
35530W        W41980   4.277   1.502   9.368 -0.0373  0.0317  0.1710
35531W        W41981  10.909   4.520  27.132  0.0873  0.0772 -0.0655
35532W        W41982  11.411   3.987  14.875 -0.2867 -0.2816 -0.2479
35533W        W41983  19.735   2.382   1.249 -0.3845  0.3729  0.1263
35534W        W41984   4.968   4.554  29.828  0.1037  0.0783  0.1111
35535W        W41985  12.768   3.792  32.414  0.1057  0.1100  0.0511
35536W        W41986  12.761   3.381  32.822 -0.0599  0.0295 -0.3797
35537W        W41987  23.362   2.950  34.887  0.3327 -0.0282  0.0869
35538W        W41988  26.288   4.174  27.873  0.0134 -0.0076  0.0795
35539W        W41989  21.961   2.895  15.450 -0.2028  0.4493  0.1547
35540W        W41990  16.400   4.601  28.187  0.1044 -0.0084  0.1199
35541W        W41991  23.789   4.618  23.210 -0.1066  0.4467  0.1798
35542W        W41992   1.156   1.732   2.848 -0.1783  0.0751 -0.0520
35543W        W41993  24.010   2.827  25.820  0.1039 -0.1269 -0.0864
35544W        W41994  13.926   4.404   9.486 -0.1023 -0.1089  0.2215
35545W        W41995   1.502   3.418  10.213 -0.0286  0.0213 -0.0194
35546W        W41996  10.124   3.351  21.074 -0.1227  0.1762  0.0342
35547W        W41997  18.640   0.550   5.690  0.0265  0.0946 -0.1276
35548W        W41998  20.834   4.411   5.100  0.3319  0.0703 -0.2591
35549W        W41999  12.282   3.411  32.662 -0.1404 -0.2715 -0.2332
35550W        W42000   8.331   0.384   1.493  0.1755 -0.1875  0.0756
35551W        W42001  11.997   5.583  27.143  0.1448  0.2503 -0.0755
35552W        W42002  20.956   1.515   6.450  0.1118 -0.0891  0.1121
35553W        W42003   3.874   5.331  24.001  0.1175 -0.0510  0.0735
35554W        W42004  26.223   4.912  35.785  0.1463 -0.0409  0.2255
35555W        W42005  15.932   4.978   9.116 -0.1340 -0.2672  0.2184
35556W        W42006   7.454   2.850   2.795 -0.1527  0.1785 -0.0859
35557W        W42007   3.058   2.781  21.334  0.1141 -0.1200  0.1140
35558W        W42008   0.306   1.538  21.603  0.0627 -0.2455  0.2154
35559W        W42009   8.223   4.400  32.786 -0.0579 -0.6202 -0.4447
35560W        W42010   6.307   1.016  34.757 -0.2238 -0.0842  0.3168
35561W        W42011   5.634   2.815  10.273  0.3716  0.0092  0.1793
35562W        W42012  22.826   4.575  26.195 -0.0382  0.2318 -0.1644
35563W        W42013  23.385   0.198   2.943  0.0618  0.1308  0.1592
35564W        W42014   5.453   5.015   9.035 -0.2654  0.2362  0.3085
35565W        W42015   5.714   4.069   1.431  0.1099  0.3193  0.2443
35566W        W42016  21.716   3.410  28.901  0.0132  0.0024 -0.0753
35567W        W42017  26.379   0.708  10.280 -0.1011  0.1064  0.1113
35568W        W42018  22.274   5.548  23.328  0.0553  0.5176  0.1584
35569W        W42019  19.278   5.976   0.019  0.0120  0.3468 -0.0745
35570W        W42020  17.398   0.799   6.673  0.1286  0.0716  0.0324
35571W        W42021  18.452   6.537  33.177 -0.4360  0.0323  0.0241
35572W        W42022  12.056   2.822   1.124  0.0438  0.1976  0.0901
35573W        W42023   7.175   4.347   2.206 -0.1824  0.2999  0.1070
35574W        W42024  20.820   3.986  27.140 -0.0266 -0.0191 -0.1411
35575W        W42025   3.636   5.323  26.286  0.2499  0.0965  0.1755
35576W        W42026  23.925   5.933   1.075 -0.1005  0.1239 -0.0194
35577W        W42027   0.466   5.129  12.792 -0.1123 -0.0668  0.1945
35578W        W42028  26.093   1.314  21.408 -0.0532  0.1556 -0.2606
35579W        W42029  18.185   0.572  22.030  0.0320 -0.3032  0.2090
35580W        W42030  26.346   0.658   0.987 -0.2448  0.2146 -0.0807
35581W        W42031  13.913   0.202  23.628  0.0248 -0.0973 -0.1225
35582W        W42032  11.645   6.507  27.323 -0.0748 -0.0878  0.0124
35583W        W42033  16.625   6.411   6.283 -0.1345 -0.1373 -0.1599
35584W        W42034  20.850   3.516   8.122  0.1987  0.0073  0.0959
35585W        W42035  10.708   1.187  14.262 -0.1160 -0.0239 -0.0748
35586W        W42036  13.975   2.354  35.165 -0.1345 -0.1853 -0.1894
35587W        W42037  18.355   2.788  32.841 -0.1794  0.2250  0.0483
35588W        W42038   5.128   5.918   1.538 -0.0234  0.2144  0.0263
35589W        W42039   1.290   1.539  35.285 -0.1480 -0.0510  0.0859
35590W        W42040  20.499   1.018  34.854  0.3299 -0.1419  0.0245
35591W        W42041  20.238   1.084  10.141  0.1437 -0.0164 -0.0517
35592W        W42042  17.681   4.087  22.765 -0.3410 -0.0022  0.0237
35593W        W42043   2.809   0.468   5.964  0.0427 -0.2745 -0.0061
35594W        W42044  17.237   0.304  24.487  0.1645  0.1377 -0.0024
35595W        W42045  10.521   4.675  14.787  0.3462 -0.0798 -0.2857
35596W        W42046   2.042   4.410  31.578  0.1377 -0.2473 -0.0919
35597W        W42047  15.604   4.814  28.021  0.2201 -0.0406 -0.2719
35598W        W42048  13.405   1.453   3.834  0.1478 -0.0206  0.2661
35599W        W42049   5.739   4.776  28.232 -0.1833  0.0996 -0.2707
35600W        W42050  17.124   3.429  34.014  0.0445 -0.1102 -0.1009
35601W        W42051  23.112   1.787  33.906 -0.0886  0.2796  0.1387
35602W        W42052   9.093   5.035   9.783  0.2465  0.5361  0.0230
35603W        W42053  22.851   3.671  33.586  0.1205  0.0188  0.1384
35604W        W42054   1.904   1.158  11.764 -0.2761 -0.0137 -0.1586
35605W        W42055  24.730   5.359   8.463  0.0669  0.0242  0.0073
35606W        W42056   0.036   3.178  22.067 -0.0696 -0.0602  0.0651
35607W        W42057  23.787   6.163  32.211 -0.2802 -0.0318  0.2981
35608W        W42058  18.747   1.935   2.657 -0.2387  0.4143  0.0110
35609W        W42059   9.487   0.485  30.850 -0.3105  0.1702 -0.0226
35610W        W42060   8.142   3.118  28.146  0.0286  0.0732 -0.2292
35611W        W42061  14.011   2.902   6.769  0.1375  0.0905  0.0440
35612W        W42062  12.234   2.391  13.467 -0.0562 -0.0182  0.3311
35613W        W42063   3.928   6.346  31.952 -0.0725  0.4624  0.0326
35614W        W42064   5.861   5.788   4.605 -0.1235 -0.1087 -0.2636
35615W        W42065  25.753   4.321  21.466 -0.1639 -0.0461  0.0056
35616W        W42066  10.562   6.051  26.178 -0.1869 -0.1528 -0.2207
35617W        W42067  14.728   3.605  30.857 -0.1428 -0.1555 -0.0449
35618W        W42068  25.356   5.616  26.488  0.1040  0.0905 -0.0627
35619W        W42069   8.970   2.402  14.881 -0.1158 -0.0482  0.0030
35620W        W42070  10.604   3.060   8.844 -0.0203 -0.1383  0.0758
35621W        W42071  16.865   4.470  25.048  0.0273 -0.0140  0.1806
35622W        W42072  13.562   1.159  15.756  0.0683  0.0537 -0.0373
35623W        W42073  24.507   0.191   9.675  0.0342 -0.3121  0.0711
35624W        W42074  26.057   0.920  29.606 -0.3597  0.0698 -0.5158
35625W        W42075   7.438   0.183  25.082  0.0142 -0.2832  0.2791
35626W        W42076  17.684   6.334  23.759  0.2779 -0.2050 -0.1440
35627W        W42077  25.521   2.197  34.809  0.0734 -0.0513  0.0342
35628W        W42078   7.183   4.301  33.231  0.2751  0.0661  0.2168
35629W        W42079  26.333   3.981  27.403  0.0399  0.0117 -0.2975
35630W        W42080  19.122   5.615   0.497 -0.0490  0.2706 -0.3425
35631W        W42081  16.523   3.357  26.291 -0.0741  0.1570 -0.0241
35632W        W42082   1.398   1.741  14.528  0.0091  0.0105 -0.0923
35633W        W42083  15.500   3.310  26.459 -0.2199  0.0708 -0.1379
35634W        W42084  15.144   1.420   8.413  0.1041 -0.1518  0.1367
35635W        W42085   5.060   6.193   4.762 -0.2432 -0.2642 -0.0472
35636W        W42086  24.075   5.334  25.168  0.2282  0.1597 -0.0820
35637W        W42087   1.476   6.138   2.972 -0.0876 -0.0335 -0.1696
35638W        W42088   0.415   3.859  11.036  0.0211 -0.2196  0.1571
35639W        W42089   3.289   2.767  31.001 -0.0942 -0.1510  0.0220
35640W        W42090  16.021   3.311  12.718  0.0188  0.0927 -0.0098
35641W        W42091  25.316   0.584  21.176  0.1412  0.1303 -0.0921
35642W        W42092   1.160   5.715  28.493  0.0747 -0.2766 -0.0984
35643W        W42093   5.279   4.247  11.910 -0.4165  0.1277 -0.4305
35644W        W42094  16.818   4.293  15.765  0.2479  0.0792  0.1218
35645W        W42095   9.816   4.913  24.118  0.1519 -0.0169  0.2052
35646W        W42096   1.347   4.940  14.129 -0.0621 -0.0014  0.0489
35647W        W42097   1.268   6.306  15.088  0.0220 -0.0283  0.1644
35648W        W42098  22.352   3.263  11.897 -0.0283  0.1035  0.0763
35649W        W42099  25.578   1.398   9.616  0.1374  0.0171  0.1262
35650W        W42100   9.571   2.875  25.143 -0.3147  0.0708 -0.1066
35651W        W42101   5.788   0.089  10.526  0.4228 -0.1839  0.0197
35652W        W42102   3.366   5.337  28.894  0.0026  0.0096  0.2632
35653W        W42103   3.261   0.965  11.729 -0.0452 -0.0557  0.0875
35654W        W42104   3.505   3.874   1.210  0.0782  0.0442  0.0494
35655W        W42105   9.284   1.970  27.504  0.0550  0.0401 -0.3085
35656W        W42106  23.620   6.468  21.118 -0.2244  0.2455 -0.1344
35657W        W42107  14.087   4.321  24.144  0.1247  0.1761  0.0818
35658W        W42108  22.737   3.807  31.075  0.2258  0.1021 -0.2066
35659W        W42109  11.898   3.125  35.658 -0.4759  0.0680  0.1550
35660W        W42110  23.535   3.433   9.444  0.0358 -0.2457 -0.0663
35661W        W42111  11.343   5.795   8.359 -0.1168 -0.1869  0.1361
35662W        W42112  17.327   5.575  26.154  0.2864  0.1046  0.1409
35663W        W42113   4.931   4.274  25.742  0.0140 -0.1061  0.1205
35664W        W42114  10.280   6.601  27.575  0.1872  0.3554  0.0811
35665W        W42115  24.376   1.856  12.964  0.1200  0.0715  0.0036
35666W        W42116  15.872   1.138   4.508 -0.0137  0.2725 -0.0707
35667W        W42117  12.648   4.418  25.893 -0.0905 -0.1055 -0.2999
35668W        W42118  21.289   4.578  14.668 -0.1143  0.4789 -0.1233
35669W        W42119  26.028   5.812  10.165  0.1220  0.0070 -0.0423
35670W        W42120   1.582   4.716  33.048 -0.4520  0.2351 -0.1385
35671W        W42121  26.347   4.326   5.176 -0.1503  0.3900 -0.0970
35672W        W42122   9.793   2.370  10.759 -0.1437  0.0775 -0.2586
35673W        W42123  19.306   3.998   9.704  0.1011  0.0779  0.2696
35674W        W42124  25.883   5.844  10.659 -0.2881 -0.1336 -0.2353
35675W        W42125  17.124   3.311   9.772 -0.2062 -0.1354 -0.0147
35676W        W42126  13.512   1.450  26.317  0.1972 -0.0689 -0.3158
35677W        W42127   1.786   5.453  35.619  0.0346 -0.0185  0.0125
35678W        W42128   2.251   5.110   1.688 -0.1661  0.0428  0.2625
35679W        W42129   2.220   3.919  27.438  0.3166  0.0434  0.0471
35680W        W42130  15.438   5.215   7.505  0.0234  0.0814 -0.2204
35681W        W42131   3.147   2.753  30.512  0.1648 -0.0224 -0.1879
35682W        W42132   2.782   5.345   9.102  0.3448  0.0698  0.0710
35683W        W42133  23.055   0.496  26.920  0.0050 -0.1644  0.3832
35684W        W42134   9.566   0.092   8.417 -0.3132 -0.1783 -0.0996
35685W        W42135   5.382   4.983  35.967 -0.1410  0.0253 -0.2499
35686W        W42136  19.475   4.745  33.018  0.1344  0.1367 -0.0674
35687W        W42137  25.372   0.602  27.041  0.0808 -0.0842  0.0302
35688W        W42138  13.469   4.960   7.986 -0.0648  0.3445 -0.0474
35689W        W42139  14.167   4.860  31.981  0.1014 -0.1615 -0.1103
35690W        W42140   7.815   4.452   6.322 -0.0943  0.2074 -0.0230
35691W        W42141  10.700   0.055  25.029 -0.1543  0.0611 -0.0758
35692W        W42142   9.033   4.144  10.440  0.1487 -0.1624 -0.2153
35693W        W42143  24.120   4.162   7.987 -0.0058 -0.0131  0.1617
35694W        W42144  13.873   4.820  22.270 -0.0467  0.2377 -0.0335
35695W        W42145  18.263   6.409  23.723 -0.0295 -0.0156 -0.1310
35696W        W42146  20.311   6.367  10.751  0.2252 -0.0601 -0.0296
35697W        W42147   6.262   2.434  27.158 -0.0895  0.0972  0.2067
35698W        W42148  25.387   1.471  30.141 -0.0682 -0.1035  0.0487
35699W        W42149   0.504   6.034  33.292  0.0824 -0.2909 -0.0442
35700W        W42150   1.439   1.780  30.550  0.0931 -0.0313 -0.1675
35701W        W42151  16.044   5.653   5.314 -0.0607  0.2384 -0.0493
35702W        W42152  18.795   4.006   4.367 -0.1810 -0.1791 -0.2650
35703W        W42153   1.945   2.363  25.181  0.0923  0.0330 -0.0601
35704W        W42154  17.175   2.363  28.091 -0.0046 -0.1839  0.2662
35705W        W42155  23.688   2.550  21.275 -0.0132 -0.0397  0.1725
35706W        W42156  10.409   3.947  25.882  0.0113  0.1598 -0.2061
35707W        W42157   0.968   5.172   9.827  0.1463 -0.1179  0.1892
35708W        W42158   6.134   1.984  22.222 -0.1496 -0.0565  0.2511
35709W        W42159   0.493   3.688   5.830  0.1541  0.2157 -0.1349
35710W        W42160  23.196   5.823  25.364  0.1897  0.3145  0.1497
35711W        W42161   7.421   1.841   9.626 -0.0623  0.2214  0.0201
35712W        W42162   3.210   5.449  10.260  0.0688 -0.1655 -0.0977
35713W        W42163   3.435   6.159  14.804 -0.3502  0.4783  0.0428
35714W        W42164  10.671   1.315  12.350 -0.1399  0.1475  0.0953
35715W        W42165  19.839   2.033  24.843  0.1532 -0.2421  0.0957
35716W        W42166  20.947   4.693  31.810 -0.0014 -0.3925 -0.1405
35717W        W42167  24.471   2.288  34.680  0.1691  0.0580  0.4354
35718W        W42168  18.314   2.511   9.793  0.2112  0.3513  0.0942
35719W        W42169  19.145   1.543  25.903 -0.2655 -0.0312  0.0220
35720W        W42170  23.730   3.542  29.834 -0.2977 -0.1882 -0.0428
35721W        W42171   4.057   4.304   9.484  0.0153  0.2200  0.3510
35722W        W42172  10.355   3.911  36.090 -0.0250 -0.0170  0.0756
35723W        W42173  10.046   0.450   8.472  0.1186 -0.0998 -0.1396
35724W        W42174  22.543   4.908  29.467  0.2306 -0.1090  0.0730
35725W        W42175  17.777   4.630  11.218 -0.4290  0.1357 -0.1418
35726W        W42176   9.528   2.496  25.836 -0.0493  0.3178 -0.1399
35727W        W42177  21.668   3.446   0.208 -0.0821 -0.3762  0.0212
35728W        W42178   9.498   3.425  22.640  0.0632  0.0241 -0.2995
35729W        W42179  16.191   4.218  13.805 -0.1689 -0.1257 -0.0468
35730W        W42180   0.809   1.248   5.245 -0.1176 -0.0986 -0.0219
35731W        W42181   4.169   2.397   2.555  0.0848  0.2875 -0.0597
35732W        W42182  13.052   4.812  10.248  0.1273  0.1834  0.0715
35733W        W42183   2.349   2.899  29.556 -0.0693 -0.0953 -0.0715
35734W        W42184  10.266   1.384  25.940 -0.1085 -0.0242  0.2093
35735W        W42185  13.989   4.455   1.236  0.2298 -0.0619 -0.0814
35736W        W42186  20.296   0.581  11.842  0.0791  0.1791 -0.1083
35737W        W42187   3.363   2.847  10.295 -0.0313  0.0547 -0.2691
35738W        W42188  22.516   6.044  31.453 -0.0030  0.1891  0.3200
35739W        W42189  15.180   1.969  24.945  0.3551  0.0492 -0.1173
35740W        W42190  14.641   1.914  15.958 -0.2383 -0.0569 -0.1108
35741W        W42191   7.847   2.615   3.959  0.0488  0.0030 -0.1880
35742W        W42192  25.089   5.736   7.262  0.3349 -0.1872  0.0193
35743W        W42193  19.675   6.327   2.437 -0.0693  0.0899  0.0149
35744W        W42194  18.707   2.415   3.376 -0.1986  0.1196  0.0631
35745W        W42195   9.117   1.990  25.467 -0.0155  0.1419  0.3238
35746W        W42196  18.932   0.450  11.246  0.0797 -0.0438 -0.0127
35747W        W42197  10.031   0.024   2.722 -0.2021 -0.0063  0.1976
35748W        W42198  19.236   0.284  32.821  0.1723  0.1186  0.0205
35749W        W42199   9.607   0.241   0.327  0.1943 -0.1184 -0.2350
35750W        W42200  10.110   2.402   7.674 -0.0023 -0.1378  0.3336
35751W        W42201  17.029   5.285  25.513  0.0826 -0.3370 -0.0844
35752W        W42202   4.814   4.751  27.866  0.2938 -0.0622  0.1241
35753W        W42203  10.928   6.277   2.355  0.0098  0.3676 -0.3054
35754W        W42204   5.082   1.220  31.943  0.2178  0.0834 -0.0559
35755W        W42205  19.709   6.259  14.750  0.1989  0.3372  0.1606
35756W        W42206   2.481   2.881  25.885 -0.2623 -0.1755  0.0607
35757W        W42207  13.730   2.504   7.480  0.3097  0.0047 -0.2120
35758W        W42208  17.396   5.702  24.834 -0.0776  0.2558  0.1725
35759W        W42209  13.726   1.002  12.635  0.1436 -0.3206 -0.2948
35760W        W42210  25.892   6.325  25.061 -0.0224 -0.0967 -0.0107
35761W        W42211  24.712   4.133  13.894 -0.1433  0.1573 -0.2229
35762W        W42212  12.980   4.492  21.845 -0.0950 -0.0570 -0.0786
35763W        W42213   3.494   3.642  30.013  0.2132 -0.3401 -0.1229
35764W        W42214  11.950   2.975  10.198 -0.0784 -0.0208  0.1748
35765W        W42215  19.365   0.508  28.584  0.6082 -0.0151  0.0189
35766W        W42216  14.464   5.227   7.783  0.0779 -0.0127 -0.1039
35767W        W42217   3.113   3.227  30.412  0.1960 -0.0916 -0.1040
35768W        W42218  25.974   2.214  30.939  0.2473  0.2695 -0.0522
35769W        W42219  12.093   0.409  11.775  0.3186  0.1995  0.2715
35770W        W42220  22.427   0.248  35.537  0.4367  0.1642 -0.0653
35771W        W42221  10.402   2.349  21.839 -0.1497  0.2996 -0.0536
35772W        W42222  13.629   5.141  31.949  0.0457 -0.0726 -0.2893
35773W        W42223   8.078   2.539   3.538 -0.0238 -0.1183 -0.0070
35774W        W42224  19.268   1.229  28.718  0.0495  0.0084 -0.0317
35775W        W42225   0.196   4.506  26.484 -0.0205  0.0408  0.0542
35776W        W42226  11.646   4.305  29.218  0.0241  0.1088  0.2649
35777W        W42227  23.061   4.970   8.265  0.0663  0.2974  0.1588
35778W        W42228   4.562   5.617   1.226  0.0645 -0.0520  0.0254
35779W        W42229  10.979   4.317  21.541  0.2734  0.1147  0.0904
35780W        W42230  12.533   2.863  14.239  0.2185 -0.0161 -0.5320
35781W        W42231  20.914   4.103  22.937  0.0845  0.3023  0.2588
35782W        W42232   1.338   5.885  24.073 -0.0953  0.3295  0.0289
35783W        W42233  18.347   6.155  10.223  0.2559 -0.4817  0.2196
35784W        W42234   9.361   0.202  22.514 -0.1788  0.1839 -0.0768
35785W        W42235  22.971   5.895   4.712  0.0993 -0.3297  0.1623
35786W        W42236   4.231   6.379  15.083  0.1250  0.0607 -0.1443
35787W        W42237  26.348   5.611  34.035  0.0870  0.2652  0.0783
35788W        W42238   8.019   2.167  10.428  0.2818 -0.0688  0.4292
35789W        W42239  20.682   0.789  24.747  0.2093 -0.0382 -0.1301
35790W        W42240   2.914   6.435  32.941  0.0161 -0.1104  0.0274
35791W        W42241  13.371   0.041   4.525  0.2657 -0.2065  0.1561
35792W        W42242   5.491   2.438  13.950  0.1953  0.1673 -0.2066
35793W        W42243  10.452   1.177  34.034  0.0234 -0.0370  0.2089
35794W        W42244  21.427   2.788  14.893  0.0132  0.0163  0.3137
35795W        W42245   3.238   6.027  22.246 -0.0635 -0.0270  0.1704
35796W        W42246  12.463   1.639  27.174  0.0897  0.1496  0.0092
35797W        W42247  12.904   4.725  11.221 -0.2302 -0.1077  0.0479
35798W        W42248  11.245   3.615  11.210  0.2455  0.1281  0.0090
35799W        W42249  11.890   4.568  30.331 -0.0757 -0.3746 -0.2229
35800W        W42250   4.269   2.084  28.736  0.1637 -0.0488 -0.1777
35801W        W42251  21.957   4.144  26.323  0.0645  0.3267 -0.1987
35802W        W42252  13.105   2.326   9.760  0.1255  0.0821 -0.0052
35803W        W42253   2.728   5.449  25.708 -0.2147 -0.1261  0.1782
35804W        W42254  24.309   5.160  22.926 -0.0062 -0.1542  0.1114
35805W        W42255   9.598   0.698  35.061 -0.0739 -0.0504 -0.1318
35806W        W42256  25.062   4.407   9.776 -0.0820  0.1637  0.1861
35807W        W42257   3.514   3.922  32.681 -0.0715 -0.2564 -0.0646
35808W        W42258  19.808   3.736  33.585  0.0730 -0.1048  0.0651
35809W        W42259  23.492   4.130   5.626 -0.0567 -0.2160 -0.0750
35810W        W42260  24.980   0.418   1.076  0.0228  0.0402  0.1143
35811W        W42261  12.312   0.631  26.988  0.0385 -0.1403 -0.0016
35812W        W42262  19.791   6.062   4.475  0.3727 -0.0695 -0.3848
35813W        W42263  11.755   1.681  33.001 -0.0040 -0.3286 -0.0641
35814W        W42264   0.423   0.597  26.945 -0.1727  0.2336 -0.1215
35815W        W42265  20.037   2.878  22.684  0.1480  0.0023 -0.5000
35816W        W42266  10.047   0.098  14.514 -0.3492  0.0135 -0.4215
35817W        W42267  22.569   1.227  22.661  0.1254 -0.0923  0.0881
35818W        W42268  14.676   1.324   5.547  0.1606 -0.0597  0.0174
35819W        W42269   5.321   0.278  12.810 -0.0302 -0.0543 -0.0395
35820W        W42270   9.034   0.709  34.940  0.0455 -0.2716  0.0208
35821W        W42271  12.817   1.092  27.628  0.1124  0.4351  0.1683
35822W        W42272  15.214   5.897   3.180 -0.2683  0.0734 -0.0226
35823W        W42273   5.055   2.971  23.572  0.1623  0.1295 -0.1483
35824W        W42274   6.537   2.942  34.006 -0.3954 -0.1862 -0.0852
35825W        W42275  19.446   0.989   8.543 -0.1729 -0.0797  0.3356
35826W        W42276  23.699   2.745  33.259  0.1391 -0.2566  0.1007
35827W        W42277  20.255   1.612  29.860  0.2895  0.2881 -0.1549
35828W        W42278  12.093   3.996  31.231 -0.2727 -0.0415 -0.0745
35829W        W42279  18.792   5.099   8.200 -0.2580 -0.0994  0.1556
35830W        W42280  20.891   6.066  12.773 -0.0622  0.0218  0.0587
35831W        W42281  24.527   1.962  22.528 -0.0377  0.3083 -0.1106
35832W        W42282   6.001   0.225   9.238 -0.1002  0.1640  0.0632
35833W        W42283   5.040   1.048   0.373 -0.1118  0.0571 -0.1347
35834W        W42284  15.107   5.043  25.085 -0.2741  0.2761  0.0942
35835W        W42285   2.623   2.748  30.475 -0.1834  0.1221 -0.1390
35836W        W42286  22.607   0.033   0.316 -0.2598 -0.2697  0.1537
35837W        W42287   3.314   1.573  10.560  0.3322  0.1329  0.0328
35838W        W42288   9.296   5.446   0.483  0.1461  0.0815 -0.2172
35839W        W42289  20.861   2.491   2.859 -0.4690  0.0231  0.3702
35840W        W42290   8.266   1.092  34.752 -0.0466 -0.1740 -0.0420
35841W        W42291   5.959   5.603  35.292 -0.1891 -0.2467 -0.1698
35842W        W42292  21.302   4.220  24.626 -0.0886 -0.0603 -0.1703
35843W        W42293   8.446   0.903   3.182 -0.2342 -0.1222 -0.2472
35844W        W42294   7.107   0.821  23.454 -0.0283 -0.0050  0.3933
35845W        W42295  25.290   2.168   4.630 -0.2236 -0.0256 -0.2418
35846W        W42296  14.234   2.423  12.030  0.1316 -0.0154  0.0648
35847W        W42297  26.107   0.584   9.882 -0.2711  0.2828  0.1663
35848W        W42298   6.809   0.353   6.171  0.2830 -0.1216 -0.2303
35849W        W42299  17.801   3.333  29.510 -0.3557  0.0958 -0.0832
35850W        W42300   4.605   0.153   7.628 -0.0099  0.1127  0.1831
35851W        W42301  19.051   6.011  13.161  0.1732  0.2308 -0.3087
35852W        W42302  17.405   1.510  12.878 -0.1148  0.1497  0.1449
35853W        W42303  16.035   2.428  29.537 -0.3620 -0.0527 -0.0368
35854W        W42304   0.122   3.405  11.021 -0.4873 -0.0772 -0.1506
35855W        W42305   4.114   3.738  22.698  0.3640 -0.2056 -0.0389
35856W        W42306  16.885   3.068  14.546  0.0441  0.2052 -0.0510
35857W        W42307   5.361   2.506  30.514  0.1304 -0.0015 -0.0417
35858W        W42308  12.420   6.024  32.064 -0.0201  0.0754 -0.2169
35859W        W42309   5.498   4.210  22.827  0.0026  0.0181  0.1140
35860W        W42310   2.222   2.665   9.190 -0.2015 -0.1740  0.0067
35861W        W42311  19.298   4.857   1.761 -0.0647  0.1443 -0.0165
35862W        W42312  14.048   1.887  21.980 -0.1652 -0.2181 -0.3782
35863W        W42313   9.407   4.895  28.748  0.0183 -0.0893  0.0389
35864W        W42314  11.098   3.028  33.386  0.0332  0.1841 -0.0625
35865W        W42315  14.210   4.400   2.470  0.0435  0.0526  0.3102
35866W        W42316  19.390   3.615  32.915  0.0670  0.1743  0.1725
35867W        W42317  15.347   3.014  25.193 -0.0152  0.0929 -0.1825
35868W        W42318  18.629   5.436  14.933  0.3715 -0.0042  0.2080
35869W        W42319   8.304   0.979  27.839  0.3745  0.0495  0.2511
35870W        W42320  21.411   4.735  31.579  0.0245  0.1495  0.0135
35871W        W42321   9.118   6.388  21.323 -0.1207  0.2297 -0.0608
35872W        W42322  18.726   0.659   8.107 -0.1812 -0.1348  0.0787
35873W        W42323  24.140   5.046  12.457 -0.1392 -0.1486  0.1303
35874W        W42324  19.027   5.885  23.710 -0.1172  0.0789  0.0559
35875W        W42325  12.871   6.269   5.194  0.0483 -0.3270 -0.3932
35876W        W42326  22.052   0.886  26.346 -0.0780 -0.1466 -0.2493
35877W        W42327  17.714   5.859  21.302  0.1166 -0.0668 -0.0106
35878W        W42328  18.231   6.261  26.085  0.0923  0.1859  0.2719
35879W        W42329   0.218   3.388  31.929 -0.1793 -0.0341  0.0102
35880W        W42330   2.207   1.914  30.108  0.1872 -0.1552 -0.3713
35881W        W42331  19.756   2.026   5.767  0.0894 -0.2252 -0.1281
35882W        W42332   9.761   0.990  26.990  0.1362  0.1460 -0.1846
35883W        W42333  25.345   5.070  35.821 -0.1520 -0.2563  0.1583
35884W        W42334  24.079   4.255  25.504  0.1215  0.1623  0.0415
35885W        W42335  21.624   6.492  36.030 -0.2621 -0.1318  0.1199
35886W        W42336  24.926   1.663  13.647  0.1091  0.0668  0.0887
35887W        W42337   5.605   1.486  13.490 -0.0127 -0.1237  0.1024
35888W        W42338  21.819   4.373   9.426  0.1888  0.0866  0.2409
35889W        W42339  11.246   5.885  28.710  0.0735 -0.3132  0.1597
35890W        W42340  25.804   3.785  32.273  0.0922 -0.2090 -0.0137
35891W        W42341   1.310   6.196  13.814 -0.0061 -0.0984  0.1470
35892W        W42342   9.396   4.471   9.102 -0.0566  0.1378  0.0296
35893W        W42343   0.766   6.340   8.702 -0.0425  0.1286  0.1770
35894W        W42344  23.308   5.022  10.480  0.0198 -0.1043 -0.0741
35895W        W42345  26.216   6.097  36.018  0.2514  0.3108  0.0028
35896W        W42346   0.683   1.062   6.978  0.1871 -0.2428 -0.1752
35897W        W42347   3.821   5.564   3.537 -0.1089 -0.2083 -0.1476
35898W        W42348  16.796   6.424  28.841 -0.0172 -0.0603  0.0197
35899W        W42349   9.447   2.972  32.366 -0.0190  0.0599  0.0813
35900W        W42350  24.490   6.369   9.363  0.2398 -0.2215  0.1768
35901W        W42351  23.064   0.018   2.106 -0.0705 -0.0324 -0.1085
35902W        W42352   8.123   2.116  24.563 -0.1762 -0.2424 -0.4365
35903W        W42353   2.705   0.758  32.086  0.4846 -0.1608 -0.0771
35904W        W42354  17.861   4.520  30.272 -0.1916  0.1731 -0.1149
35905W        W42355   4.398   2.666  31.226  0.0376  0.3320 -0.0976
35906W        W42356   6.396   3.889  27.482  0.2303  0.0809  0.2310
35907W        W42357  13.672   3.413   3.529  0.1593  0.1328  0.0486
35908W        W42358  15.153   4.336   3.361  0.3769 -0.3271  0.2742
35909W        W42359   6.996   4.381  25.358  0.1492 -0.0497 -0.1806
35910ION     NA42360   9.363   5.186   5.011 -0.4002 -0.1585 -0.0943
35911ION     NA42361  10.225   3.124  22.927  0.2229  0.0106  0.0660
35912ION     NA42362  26.354   4.411   4.735 -0.0111 -0.0138  0.6247
35913ION     NA42363  21.491   1.852   6.258  0.0273  0.2407  0.0927
35914ION     NA42364   0.730   4.814  35.721  0.1112  0.3658 -0.3531
35915ION     NA42365  19.352   0.263  11.617 -0.1419 -0.2252 -0.2073
35916ION     NA42366   4.591   1.854  34.067  0.5513 -0.1963 -0.2172
35917ION     NA42367  19.646   5.588  29.814 -0.3318  0.0694  0.4359
35918ION     NA42368   6.866   6.046  23.372  0.0721 -0.1676 -0.3264
35919ION     NA42369  14.782   2.319  13.150 -0.0421 -0.1521 -0.3349
35920ION     NA42370  21.322   6.089  12.596  0.0195 -0.0357  0.5730
35921ION     NA42371   0.426   3.053   4.804  0.0421 -0.0899  0.2129
35922ION     NA42372  13.700   0.507  31.387 -0.0244  0.5094  0.1530
35923ION     NA42373   3.211   6.060  32.947 -0.1827  0.0061 -0.2115
35924ION     NA42374  22.933   3.265   5.319  0.3376 -0.0436 -0.1307
35925ION     NA42375   5.964   2.247  12.505 -0.1427  0.0398 -0.4321
35926ION     NA42376  12.740   2.269   8.173 -0.1319  0.6926 -0.0721
35927ION     NA42377   6.281   2.131  11.409  0.1963 -0.3675  0.2440
35928ION     NA42378  17.547   3.811  32.331 -0.4494 -0.0689  0.1768
35929ION     NA42379   8.329   4.764  11.246  0.2458 -0.4872 -0.4621
35930ION     NA42380  17.407   4.871  25.372  0.3923 -0.0953 -0.0773
35931ION     NA42381   0.998   2.413   1.003 -0.1788 -0.3195 -0.0198
35932ION     NA42382  15.179   5.947  24.264  0.1498  0.0892 -0.5223
35933ION     NA42383  10.522   3.649   0.384  0.2318  0.1021  0.0050
35934ION     NA42384   1.892   1.159  14.587 -0.5955  0.1724  0.1338
35935ION     NA42385  26.046   6.077   5.358 -0.1170 -0.0832 -0.2195
35936ION     NA42386  20.153   0.684   2.238 -0.0871 -0.1954 -0.0777
35937ION     NA42387   0.956   2.251  12.753 -0.1197 -0.0089 -0.1622
35938ION     NA42388  24.776   0.390  23.195  0.1514 -0.4903 -0.1927
35939ION     NA42389  22.032   6.542  12.638 -0.1958  0.1656  0.3704
35940ION     NA42390  24.610   6.364  28.324  0.4682 -0.3598 -0.4662
35941ION     NA42391   4.540   5.134   9.239 -0.1828 -0.6939 -0.2440
35942ION     NA42392  12.760   0.156  20.538  0.3542  0.2419  0.1308
35943ION     NA42393  17.330   0.119   6.065  0.0281 -0.0803 -0.1954
35944ION     NA42394  19.634   2.732  26.348  0.0877  0.2341 -0.0820
35945ION     NA42395   0.066   0.247  31.202 -0.0426 -0.4673 -0.0657
35946ION     NA42396  26.284   4.566  34.621  0.1082 -0.4245  0.0271
35947ION     NA42397   0.729   4.398   6.140 -0.6028  0.2851  0.4902
35948ION     NA42398  15.493   2.216  12.360  0.1790 -0.4269 -0.3541
35949ION     NA42399   6.147   0.581  34.252 -0.2581  0.2920  0.6113
35950ION     NA42400  10.674   5.398  13.675  0.3363  0.0143 -0.2684
35951ION     NA42401   6.567   0.458  23.016 -0.3780  0.2581 -0.1202
35952ION     NA42402  21.607   5.138  32.956  0.0244  0.3731  0.4879
35953ION     NA42403  10.100   1.975   6.469  0.0931 -0.1403  0.1348
35954ION     NA42404  14.741   1.208  35.156 -0.0070  0.0936  0.1783
35955ION     NA42405  21.938   4.751   5.498 -0.2069  0.0988 -0.5368
35956ION     NA42406  24.763   1.237   2.286  0.1723 -0.2752  0.1358
35957ION     NA42407   1.985   5.557  33.132 -0.0683  0.0474  0.2658
35958ION     NA42408   0.914   5.978  35.748  0.1364  0.3327 -0.2878
35959ION     NA42409  11.863   5.289  14.124 -0.0420 -0.4798 -0.5089
35960ION     NA42410  11.779   2.432  13.678  0.1792 -0.1006 -0.3295
35961ION     NA42411   4.225   3.322   5.692 -0.0228 -0.0562  0.3968
35962ION     NA42412  23.174   5.425   4.039  0.0231  0.1115 -0.1633
35963ION     NA42413  25.451   4.511  25.404  0.0144  0.0182 -0.3451
35964ION     NA42414   6.179   4.278   7.149 -0.3177 -0.2750  0.1380
35965ION     NA42415  13.860   4.880  31.704  0.4672  0.2263  0.3764
35966ION     NA42416   1.247   4.155  27.623  0.4930 -0.1028  0.1157
35967ION     NA42417  22.318   0.738  24.506  0.2334 -0.2487 -0.1325
35968ION     NA42418  10.319   3.210   5.754  0.1795  0.2608  0.0599
35969ION     NA42419  24.894   3.463  14.525 -0.3131  0.4533  0.0837
35970ION     NA42420   5.965   3.897  33.391  0.0950  0.1004 -0.1964
35971ION     NA42421  21.892   6.049   8.618 -0.2002 -0.0181 -0.4957
35972ION     NA42422  17.586   0.869  20.712 -0.1562  0.3038  0.0015
35973ION     NA42423  14.418   0.677  28.549 -0.4493  0.1778  0.0650
35974ION     NA42424   5.897   2.200  33.448  0.3571  0.3135 -0.0027
35975ION     NA42425  19.871   4.828   4.482  0.0539  0.3000 -0.3149
35976ION     NA42426  21.788   6.183   4.993 -0.2588 -0.4936 -0.0361
35977ION     NA42427  23.118   0.051   6.900  0.2060  0.3911  0.1131
35978ION     NA42428  11.185   0.326   0.054 -0.1484 -0.2617 -0.3356
35979ION     NA42429   0.416   6.163  26.034 -0.2589  0.1724 -0.5635
35980ION     NA42430  22.871   5.189  33.553 -0.1874  0.1458  0.2443
35981ION     NA42431   8.003   3.166  15.097 -0.0671 -0.3218  0.2784
35982ION     NA42432  20.509   6.276   9.156  0.2016  0.2343 -0.1147
35983ION     NA42433  20.842   3.464  26.205 -0.0620  0.2099  0.2521
35984ION     NA42434  15.246   4.367   4.303  0.2614  0.2399  0.3673
35985ION     NA42435   8.457   5.002  14.890 -0.3654  0.0774 -0.2798
35986ION     NA42436  21.493   4.301  11.430 -0.2453 -0.0284 -0.2982
35987ION     NA42437   2.340   3.810  25.779 -0.0556 -0.0982  0.0902
35988ION     NA42438  13.248   2.766   3.022 -0.3049 -0.1663  0.3220
35989ION     NA42439  15.595   0.508  32.232  0.0810 -0.3506 -0.6216
35990ION     NA42440   9.065   4.703  25.579  0.0871 -0.2237  0.1631
35991ION     NA42441  15.838   5.231  15.617  0.1936 -0.3769 -0.1618
35992ION     NA42442   9.330   5.757  22.466 -0.1115 -0.5080 -0.3279
35993ION     NA42443  12.349   2.337   0.329  0.2539 -0.4677  0.0361
35994ION     NA42444  21.903   2.059   9.825 -0.1656 -0.2234 -0.4870
35995ION     NA42445   3.224   1.523  22.985 -0.2141  0.0186  0.0889
35996ION     NA42446   1.956   0.057  31.256  0.2162 -0.0267  0.0765
35997ION     NA42447  10.531   2.515   0.601  0.1041  0.1625 -0.2046
35998ION     NA42448   0.624   4.160  31.809  0.0246  0.9434  0.0417
35999ION     NA42449   4.137   4.925  32.201  0.3085  0.0902 -0.0141
36000ION     NA42450  16.348   3.328  24.223 -0.3938  0.4010  0.6335
36001ION     NA42451  25.932   0.948  14.018  0.0567 -0.1237 -0.0159
36002ION     NA42452   4.747   2.823   8.813 -0.0828 -0.0002  0.1786
36003ION     NA42453  26.020   3.037  32.706  0.1371 -0.1042 -0.1296
36004ION     NA42454  20.608   5.730  31.421  0.3453  0.3396  0.3516
36005ION     NA42455  13.479   3.827   9.264  0.1804  0.0167  0.1256
36006ION     NA42456  14.373   6.027  29.819 -0.7033  0.2385 -0.1285
36007ION     NA42457  13.585   0.276   9.220  0.2870  0.1765 -0.0400
36008ION     NA42458  24.726   0.141  21.839 -0.0369 -0.4454  0.2095
36009ION     NA42459  10.631   1.063  12.891 -0.0007 -0.1709 -0.2488
36010ION     NA42460  25.191   0.956  11.419 -0.0794  0.3102 -0.0544
36011ION     NA42461   9.180   4.878  29.929  0.1586 -0.1875 -0.0066
36012ION     NA42462  10.605   4.472  21.711 -0.0027  0.1146 -0.0603
36013ION     NA42463  19.144   3.512  32.116  0.2553 -0.0235 -0.1054
36014ION     NA42464   6.521   3.513  27.199 -0.2360 -0.1962  0.3328
36015ION     NA42465  21.665   6.453  15.208  0.1496 -0.1389 -0.0400
36016ION     NA42466  25.881   5.108  20.879 -0.1955 -0.3504 -0.2596
36017ION     NA42467   3.199   5.387   4.141 -0.0953 -0.6690  0.2509
36018ION     NA42468   4.219   3.818  28.367  0.2121  0.1856  0.0139
36019ION     NA42469  17.660   0.710  22.644  0.0705  0.0854 -0.0538
36020ION     NA42470   0.420   0.901  29.169  0.1397 -0.0171 -0.3573
36021ION     NA42471   1.351   4.479  35.155  0.1505  0.0899 -0.2201
36022ION     NA42472  14.932   0.815  31.372  0.1217  0.2049  0.3265
36023ION     NA42473   5.832   1.322  21.134  0.2827  0.1963 -0.1699
36024ION     NA42474  11.965   2.320  10.450 -0.4912  0.0743 -0.2043
36025ION     NA42475   4.953   6.451   1.405 -0.1969 -0.1658  0.0545
36026ION     NA42476  22.441   3.611  33.789 -0.2301 -0.1992 -0.0880
36027ION     NA42477   3.568   0.810   9.370  0.1292 -0.0586 -0.2027
36028ION     NA42478   0.793   5.447  23.728 -0.2004 -0.3899 -0.2327
36029ION     NA42479  24.719   3.235  20.709 -0.2353 -0.1379 -0.0777
36030ION     NA42480   9.963   2.566   6.114  0.3054  0.1947 -0.0227
36031ION     NA42481  23.994   1.834  21.867 -0.0930  0.2428  0.1203
36032ION     NA42482  18.387   0.412  34.992  0.1965  0.0143 -0.3366
36033ION     NA42483  13.131   4.629   1.649  0.3685  0.4384 -0.4453
36034ION     NA42484  10.542   3.580  35.065  0.0101  0.0398 -0.2268
36035ION     NA42485  24.339   0.495   6.327 -0.2228  0.3009 -0.0148
36036ION     NA42486  15.978   1.168  26.608 -0.0261 -0.1979 -0.4956
36037ION     NA42487   4.625   1.349   7.526  0.2502 -0.1623  0.2591
36038ION     NA42488  26.387   5.168  14.017  0.0318 -0.3981 -0.3690
36039ION     NA42489  22.220   6.453  27.963  0.0988 -0.0973 -0.2985
36040ION     NA42490   3.414   5.129   8.615  0.3033  0.0025  0.2250
36041ION     NA42491  26.097   3.190   7.836 -0.0029 -0.0294 -0.1744
36042ION     NA42492  12.286   2.704  29.356 -0.0941 -0.0228 -0.4014
36043ION     NA42493  13.412   5.871  21.620 -0.1584  0.1036 -0.4775
36044ION     NA42494   3.913   5.112  33.458 -0.1234 -0.1203  0.0008
36045ION     NA42495   4.335   3.035   6.413 -0.1185 -0.0143  0.1704
36046ION     NA42496  12.264   3.056  26.883 -0.2809 -0.2764 -0.2931
36047ION     NA42497  25.375   6.540  13.299  0.1144  0.0392  0.2062
36048ION     NA42498  13.832   6.489   2.165  0.0202 -0.1127  0.0602
36049ION     NA42499   0.143   5.950  20.140 -0.0801 -0.0694  0.3569
36050ION     NA42500   0.050   2.686   1.412 -0.1497 -0.2132  0.1373
36051ION     NA42501  10.679   0.159  32.672 -0.5957  0.7031  0.0208
36052ION     NA42502   9.186   1.428  23.555 -0.4095  0.0183  0.5232
36053ION     NA42503  16.273   5.985  15.228 -0.5029  0.4248  0.1568
36054ION     NA42504   7.744   5.419  23.254 -0.0995 -0.0604 -0.2341
36055ION     NA42505  21.210   4.399   2.488  0.4249  0.1431  0.1865
36056ION     NA42506  22.231   6.478   0.367 -0.2025  0.1941 -0.1926
36057ION     NA42507  19.374   1.447  32.571 -0.4100  0.3260  0.0718
36058ION     NA42508   4.239   1.938  21.337  0.1314 -0.0524 -0.3768
36059ION     NA42509  20.795   1.971  31.053 -0.0506 -0.0335 -0.2613
36060ION     NA42510  23.671   3.287  31.863  0.1578  0.0943 -0.4376
36061ION     NA42511  20.273   4.058  22.706  0.1782  0.1064  0.0403
36062ION     NA42512  21.627   0.346  27.905 -0.2062 -0.1413 -0.0049
36063ION     NA42513  11.072   3.419  28.574  0.1620  0.1311 -0.1466
36064ION     NA42514  20.973   2.712   0.704 -0.5259  0.0078 -0.0222
36065ION     NA42515   1.032   2.741  11.378  0.2949  0.3365 -0.3439
36066ION     NA42516   9.753   5.815   4.645 -0.0319  0.5355  0.0373
36067ION     NA42517  21.056   5.911   2.740 -0.0619  0.0164 -0.3090
36068ION     NA42518  17.217   1.326  23.713 -0.3504  0.0448  0.1220
36069ION     NA42519  18.134   6.137   1.870 -0.0085 -0.3718  0.4504
36070ION     NA42520   3.369   1.218  24.453  0.3561  0.1005 -0.5097
36071ION     NA42521   4.544   5.996  27.923 -0.4295  0.1568 -0.1597
36072ION     NA42522  10.441   2.293  24.367  0.3168  0.0924  0.1938
36073ION     NA42523   6.784   2.588  26.463  0.0778 -0.3390 -0.0136
36074ION     NA42524   8.693   1.639  26.250 -0.2063  0.1208  0.3994
36075ION     NA42525  15.610   3.439   9.110  0.3695 -0.2343  0.5501
36076ION     NA42526  24.417   4.789   4.646  0.0785 -0.6159  0.2517
36077ION     NA42527   7.776   1.570   9.649 -0.2256 -0.1100 -0.5492
36078ION     NA42528   1.411   1.787   3.628 -0.1389 -0.2832  0.3316
36079ION     NA42529  23.217   5.426  30.081  0.1378  0.1206  0.0008
36080ION     NA42530  16.915   1.412  34.324  0.3338  0.2779 -0.8726
36081ION     NA42531   7.589   3.981  23.872 -0.2278 -0.2199  0.0198
36082ION     NA42532  21.324   3.235  23.044  0.4568 -0.2481 -0.0681
36083ION     NA42533  19.715   4.163   2.677 -0.2473  0.4251  0.0573
36084ION     NA42534  10.124   1.241   1.854  0.2133  0.4989  0.1970
36085ION     NA42535   4.871   0.891  14.756  0.0584  0.0319  0.2810
36086ION     NA42536  13.707   5.390  33.660 -0.0265  0.4329 -0.0093
36087ION     NA42537  16.788   1.158  26.213  0.0143  0.5006  0.0157
36088ION     NA42538  24.078   4.375   3.081 -0.4697 -0.1995  0.0356
36089ION     NA42539   4.368   3.081  23.166  0.3108  0.3754  0.0747
36090ION     NA42540  16.917   5.904  28.240  0.2051 -0.2397  0.0788
36091ION     NA42541   9.896   3.608   4.926 -0.2766  0.1627  0.0244
36092ION     NA42542  17.304   3.551  34.390  0.1678 -0.4001  0.6053
36093ION     NA42543  14.813   3.271  22.032  0.2105  0.0510 -0.1269
36094ION     NA42544  15.621   3.676  22.963 -0.1172 -0.3736  0.3061
36095ION     NA42545   6.353   1.665   9.710 -0.5700 -0.1441 -0.2457
36096ION     NA42546  14.392   3.494  33.117  0.2918  0.0600 -0.2715
36097ION     NA42547   6.153   6.180  15.128  0.2573 -0.0960 -0.2726
36098ION     NA42548  19.560   3.505  11.751 -0.2141  0.0621  0.0947
36099ION     NA42549   6.753   2.278  22.437  0.0117  0.3621  0.0966
36100ION     NA42550  13.845   1.140  33.959 -0.0235  0.3370 -0.0705
36101ION     NA42551   1.688   3.766  34.359  0.0434  0.0758  0.0544
36102ION     NA42552  14.433   6.204   0.159 -0.0474 -0.1419 -0.0684
36103ION     NA42553   3.821   1.077  32.185 -0.1072  0.3421  0.0223
36104ION     NA42554  24.121   0.184   2.573 -0.1610  0.1492 -0.4179
36105ION     CL42555  25.084   1.278  22.219 -0.1282  0.2879 -0.0457
36106ION     CL42556  10.656   6.296  23.490  0.1415  0.0046 -0.3645
36107ION     CL42557   8.880   1.226  29.914 -0.4846  0.1967  0.3848
36108ION     CL42558  11.561   3.196  10.095 -0.4828  0.1200  0.1969
36109ION     CL42559  20.712   4.296  24.304 -0.3559 -0.1372 -0.2387
36110ION     CL42560  24.024   4.563  30.783  0.2989 -0.0683 -0.3668
36111ION     CL42561   9.544   3.174  15.235  0.4070 -0.0430  0.0127
36112ION     CL42562   1.871   4.112  25.506  0.0807 -0.2230  0.5720
36113ION     CL42563   3.180   6.255   8.179 -0.1512 -0.4750 -0.1320
36114ION     CL42564   4.680   2.048   1.167  0.0487 -0.0615  0.0138
36115ION     CL42565  15.990   1.770  28.802  0.0765 -0.2395  0.2129
36116ION     CL42566   9.281   2.409  33.147  0.2412 -0.1831  0.1596
36117ION     CL42567  24.096   0.145  22.685 -0.2266  0.1890  0.2935
36118ION     CL42568  20.304   2.058  11.230  0.1629  0.4509  0.0183
36119ION     CL42569  23.655   0.148   3.303 -0.0069  0.0202  0.0599
36120ION     CL42570   1.981   4.569  26.379 -0.2402  0.0774  0.2943
36121ION     CL42571  19.447   5.579  10.160 -0.4876 -0.0381 -0.0143
36122ION     CL42572  11.570   5.140  22.628  0.0350 -0.1253 -0.3415
36123ION     CL42573   7.407   5.217  31.077 -0.3609 -0.2041  0.1712
36124ION     CL42574  20.418   1.207   6.279  0.1329  0.1604 -0.0698
36125ION     CL42575   0.675   2.669  32.222 -0.0164 -0.0007 -0.0316
36126ION     CL42576  13.479   5.083  27.091  0.4624  0.2325 -0.0178
36127ION     CL42577  23.705   5.148   1.263  0.1878 -0.1264  0.2221
36128ION     CL42578   4.180   4.793   0.602  0.1194 -0.1511  0.0088
36129ION     CL42579  21.801   3.143  32.285  0.1845  0.2790  0.1068
36130ION     CL42580  23.370   6.043  27.625 -0.0270  0.3992 -0.2844
36131ION     CL42581  24.584   6.091  29.023  0.3583 -0.3441  0.1297
36132ION     CL42582   4.345   1.829  21.027 -0.2665 -0.3026 -0.1760
36133ION     CL42583   3.059   1.614  34.716 -0.0416  0.1292 -0.2227
36134ION     CL42584  20.513   2.570   8.892  0.3287 -0.2561 -0.2666
36135ION     CL42585  11.941   2.367  23.635 -0.2585 -0.1168  0.1064
36136ION     CL42586   7.166   2.395  13.392  0.3404  0.0067 -0.1449
36137ION     CL42587   8.150   5.809   4.921  0.0340  0.4203  0.3273
36138ION     CL42588   1.397   6.300   2.532 -0.0681  0.3170 -0.6110
36139ION     CL42589  22.071   3.848  26.022  0.2927  0.0012  0.5250
36140ION     CL42590  18.956   3.194   6.607 -0.2082  0.4641 -0.2905
36141ION     CL42591  21.457   5.999  15.113  0.0178 -0.1207  0.4077
36142ION     CL42592   6.553   5.088  23.603  0.1308  0.1252  0.1068
36143ION     CL42593  17.322   4.257  34.195  0.0075  0.3264  0.1142
36144ION     CL42594  17.324   3.613  25.999 -0.0765 -0.0399 -0.3024
36145ION     CL42595  20.096   3.680   3.034 -0.1068  0.1589  0.3135
36146ION     CL42596   7.316   4.564  24.172  0.0237 -0.0317 -0.1916
36147ION     CL42597   0.762   6.286  10.035 -0.2949  0.1141  0.0490
36148ION     CL42598  10.044   4.168   0.112 -0.1044 -0.3384  0.1718
36149ION     CL42599  21.867   0.186  27.620  0.1737 -0.2542 -0.0733
36150ION     CL42600   4.833   1.803  31.602 -0.1092 -0.1336  0.2191
36151ION     CL42601  16.667   1.240   8.330 -0.3692 -0.0783  0.2570
36152ION     CL42602  25.951   2.961  34.180 -0.3369  0.2470 -0.2689
36153ION     CL42603  25.893   3.215  26.943 -0.3152 -0.0149  0.0159
36154ION     CL42604   2.367   0.167  30.938 -0.3711 -0.0177  0.4118
36155ION     CL42605  26.047   4.768   4.509 -0.1246 -0.1089  0.0832
36156ION     CL42606  12.567   3.055   4.125 -0.2168  0.0095 -0.0627
36157ION     CL42607  24.794   1.617  11.313 -0.0866  0.3537  0.0544
36158ION     CL42608   1.714   0.613   6.078  0.5326 -0.1130  0.0823
36159ION     CL42609  17.131   0.129  33.121  0.5741  0.1766  0.3255
36160ION     CL42610  25.954   2.867  22.407 -0.2853  0.1629 -0.2344
36161ION     CL42611  15.074   6.144  29.721 -0.0546 -0.3065  0.0597
36162ION     CL42612  13.424   2.128  32.058  0.4403 -0.0434  0.0382
36163ION     CL42613  23.233   1.988  14.489 -0.1961 -0.3558 -0.2235
36164ION     CL42614  17.165   4.196   5.600 -0.2812  0.1722  0.0103
36165ION     CL42615   4.015   5.218  14.270 -0.3002 -0.2094  0.3980
36166ION     CL42616   1.498   5.888   5.220  0.1025 -0.3057  0.1401
36167ION     CL42617  14.253   4.842   7.513  0.0727  0.1166  0.4944
36168ION     CL42618   8.805   0.750  22.394 -0.1424  0.5540  0.0430
36169ION     CL42619  22.880   0.255   3.618 -0.0747 -0.2861  0.2217
36170ION     CL42620  20.702   0.245   5.336  0.4201  0.0851  0.3847
36171ION     CL42621  15.855   4.850   3.122 -0.2560 -0.5082  0.1667
36172ION     CL42622   7.292   1.480  24.827 -0.2869 -0.1949 -0.1415
36173ION     CL42623  26.129   1.076  14.354 -0.2476  0.1343 -0.1541
36174ION     CL42624   2.509   0.606  21.451  0.2983  0.2166  0.0420
36175ION     CL42625   8.332   6.436  34.407 -0.3540 -0.1364  0.1460
36176ION     CL42626   4.537   2.804  34.775 -0.3061  0.4565 -0.2991
36177ION     CL42627  12.225   4.759  27.465  0.0323 -0.2486  0.1913
36178ION     CL42628   8.313   2.714   5.157  0.2019  0.0774 -0.2679
36179ION     CL42629   0.339   2.801  33.866 -0.3617 -0.1499 -0.1996
36180ION     CL42630   6.678   4.118  25.196 -0.3581  0.0150 -0.3519
36181ION     CL42631  19.863   0.051   9.689 -0.1184  0.1420 -0.2545
36182ION     CL42632   8.403   2.278  26.487  0.3867  0.0540 -0.4445
36183ION     CL42633   0.665   6.135  27.185 -0.1047  0.0214  0.2204
36184ION     CL42634  24.357   0.879  26.148  0.5174  0.1353 -0.3267
36185ION     CL42635   6.058   5.807   8.354  0.0922 -0.2326  0.4935
36186ION     CL42636  19.832   5.152  13.261  0.3512  0.0039 -0.2105
36187ION     CL42637  13.801   2.353  15.068  0.6501  0.2794  0.6256
36188ION     CL42638  12.287   2.945   3.196  0.1373  0.2904 -0.1566
36189ION     CL42639  16.808   1.216  25.538  0.0806 -0.1944 -0.2920
36190ION     CL42640   8.563   3.080  14.912 -0.2592  0.0105  0.1628
36191ION     CL42641  21.308   2.090  11.612  0.1782 -0.1364  0.0290
36192ION     CL42642   0.599   3.359  34.447 -0.0162 -0.0541  0.0358
36193ION     CL42643   4.187   1.922  10.238  0.0742  0.2228 -0.1814
36194ION     CL42644   2.108   3.944  11.298  0.4971 -0.3732  0.3944
36195ION     CL42645   4.771   6.055  33.704 -0.2375  0.0408  0.1567
36196ION     CL42646   8.979   5.019   8.613  0.2174  0.0288 -0.0166
36197ION     CL42647  18.087   0.301  14.609 -0.1567  0.4637 -0.5830
36198ION     CL42648  19.612   1.967  11.927  0.3318  0.1232  0.3215
36199ION     CL42649  14.022   2.068  13.312  0.1836  0.0438 -0.0544
36200ION     CL42650  18.613   4.164  30.428  0.3004  0.0912 -0.1315
36201ION     CL42651   4.313   5.955  24.458 -0.3229  0.2660  0.1916
36202ION     CL42652   4.921   4.077   8.866  0.1804  0.0626  0.5331
36203ION     CL42653  13.631   4.456  33.564  0.0079  0.1125  0.3108
36204ION     CL42654  24.747   5.040   5.115  0.0460 -0.0495 -0.0417
36205ION     CL42655   7.717   0.337  27.914 -0.0184  0.2709  0.0157
36206ION     CL42656  16.950   0.878   9.089 -0.1410  0.4335 -0.3813
36207ION     CL42657  18.258   1.444   5.644  0.1125  0.0448  0.0279
36208ION     CL42658  24.597   0.011  23.448  0.0629 -0.1657 -0.1503
36209ION     CL42659   1.890   5.306  25.644  0.4663 -0.2102 -0.3330
36210ION     CL42660  16.191   3.307  28.778 -0.6145  0.1773 -0.2613
36211ION     CL42661   9.061   6.338  32.970  0.2826 -0.2610 -0.1375
36212ION     CL42662   8.628   1.676   4.510  0.2832 -0.2079  0.3681
36213ION     CL42663  22.216   5.348  33.188  0.1363  0.5123 -0.1830
36214ION     CL42664  23.378   0.707  25.070  0.0105 -0.0506  0.0839
36215ION     CL42665  19.158   4.921  13.846 -0.6505 -0.4131  0.3972
36216ION     CL42666  19.806   1.150  11.895  0.0952  0.3449 -0.1502
36217ION     CL42667  20.615   5.085   7.594 -0.0316  0.0064  0.1575
36218ION     CL42668   4.257   4.813   8.721 -0.0515 -0.1705 -0.2053
36219ION     CL42669   5.036   0.711  29.005 -0.0820 -0.2501  0.5046
36220ION     CL42670  14.554   4.099  31.930 -0.1512  0.2241 -0.1145
36221ION     CL42671   2.475   5.944  21.970  0.6009 -0.3146 -0.3865
36222ION     CL42672  23.689   4.107  34.649 -0.2414  0.0993 -0.1480
36223ION     CL42673   8.385   6.592  33.720  0.1095  0.1072  0.2228
36224ION     CL42674   6.188   2.081  30.154 -0.0995  0.1064  0.0986
36225ION     CL42675  10.335   1.339  13.183  0.4657  0.3844  0.5367
36226ION     CL42676   3.910   0.399   7.864  0.2048  0.4476  0.0181
36227ION     CL42677  10.885   1.167  31.157 -0.3201  0.4268 -0.3141
36228ION     CL42678   7.352   4.936  26.062 -0.2627 -0.1118 -0.1704
36229ION     CL42679  25.423   4.110  25.468  0.2914  0.1699  0.0196
36230ION     CL42680  11.379   5.922   3.532  0.6317 -0.2438  0.1294
36231ION     CL42681  11.191   5.662  30.733  0.2776  0.2410 -0.0357
36232ION     CL42682  21.919   2.097   5.148 -0.1821  0.1710 -0.3982
36233ION     CL42683  18.609   1.490  28.039 -0.1153 -0.4254  0.3939
36234ION     CL42684  19.682   1.824   7.367 -0.6808 -0.1630  0.2518
36235ION     CL42685   2.013   0.738  27.316 -0.0411 -0.2995  0.0147
36236ION     CL42686  23.339   5.035  35.746  0.1546  0.1601  0.3585
36237ION     CL42687  18.439   2.442  13.774 -0.4289  0.2355 -0.4078
36238ION     CL42688  20.600   3.751  10.216  0.5374 -0.2634 -0.0622
36239ION     CL42689  20.837   1.840  31.357  0.2909 -0.1410 -0.2874
36240ION     CL42690  20.930   3.685  25.989  0.0396 -0.0954  0.2263
36241ION     CL42691  24.273   3.932   1.610  0.0480 -0.2717 -0.2066
36242ION     CL42692  19.659   5.773  36.083 -0.1109  0.0361 -0.3538
36243ION     CL42693   7.701   3.202   4.285  0.1073 -0.2286  0.0845
36244ION     CL42694  23.295   3.182   1.702 -0.0366  0.1791  0.0412
36245ION     CL42695   6.549   3.262  12.969  0.1657 -0.0341  0.0136
36246ION     CL42696   0.337   4.854  14.566 -0.2056  0.2661 -0.3739
36247ION     CL42697  21.528   2.901   0.470  0.1649 -0.0564 -0.0017
36248ION     CL42698  21.976   2.353  24.794 -0.2161  0.0958 -0.0056
36249ION     CL42699  15.539   4.312  33.343 -0.1424  0.3834 -0.2969
36250DPPC   NC342700  25.392   6.354  20.741  0.1300 -0.1668 -0.1307
36250DPPC   PO442701  25.259   6.166  20.375 -0.3088 -0.3401 -0.1822
36250DPPC   GL142702  25.366   5.964  20.005  0.1504  0.0994 -0.2091
36250DPPC   GL242703  25.187   5.736  19.972 -0.1045  0.1257 -0.3168
36250DPPC   C1A42704  25.395   6.263  19.761  0.0018 -0.3242  0.2155
36250DPPC   C2A42705  25.563   6.461  19.410 -0.0077 -0.2086 -0.0822
36250DPPC   C3A42706  25.648   6.506  18.976  0.0853  0.2806 -0.0174
36250DPPC   C4A42707  25.563   6.550  18.496  0.1597  0.1717  0.0504
36250DPPC   C1B42708  24.959   5.987  19.820 -0.0893  0.2980 -0.2985
36250DPPC   C2B42709  24.884   5.958  19.393  0.2712 -0.3659 -0.3357
36250DPPC   C3B42710  24.871   5.936  18.929 -0.0618 -0.4076 -0.4085
36250DPPC   C4B42711  24.881   5.919  18.439 -0.0169  0.1136  0.2877
36251DPPC   NC342712  22.838   3.889  20.475  0.0097  0.1692  0.0357
36251DPPC   PO442713  23.093   4.084  20.253  0.0619 -0.1070  0.1581
36251DPPC   GL142714  23.338   4.133  19.879 -0.0403  0.0354 -0.2336
36251DPPC   GL242715  23.016   4.078  19.741 -0.0524 -0.3313 -0.2531
36251DPPC   C1A42716  23.601   3.984  19.663 -0.0767  0.0781  0.0156
36251DPPC   C2A42717  23.635   3.949  19.326 -0.0888  0.2280  0.2022
36251DPPC   C3A42718  23.686   3.937  18.885  0.2163  0.3410  0.1457
36251DPPC   C4A42719  23.643   3.955  18.391  0.3256  0.1233 -0.1099
36251DPPC   C1B42720  22.946   4.187  19.415  0.3555  0.3411 -0.0698
36251DPPC   C2B42721  22.835   4.301  19.024  0.2054  0.0515 -0.1029
36251DPPC   C3B42722  22.886   4.235  18.581  0.0918 -0.0812  0.0398
36251DPPC   C4B42723  22.828   4.308  18.069 -0.0782  0.1033  0.1205
36252DPPC   NC342724  25.120   4.085  20.247  0.2692 -0.0378 -0.2828
36252DPPC   PO442725  25.317   4.379  20.037 -0.0978 -0.2608  0.2506
36252DPPC   GL142726  25.616   4.479  19.939  0.0873  0.1980  0.2577
36252DPPC   GL242727  25.800   4.295  19.817 -0.2910 -0.0189 -0.1065
36252DPPC   C1A42728  25.497   4.638  19.561  0.0692 -0.3246 -0.0552
36252DPPC   C2A42729  25.345   4.768  19.221 -0.1071  0.0152 -0.2071
36252DPPC   C3A42730  25.313   4.720  18.759  0.0712 -0.1220 -0.1869
36252DPPC   C4A42731  25.273   4.713  18.261  0.1862  0.1509 -0.0184
36252DPPC   C1B42732  25.769   4.277  19.434 -0.4794  0.1699 -0.0169
36252DPPC   C2B42733  25.677   4.332  19.085  0.0077  0.1421 -0.1723
36252DPPC   C3B42734  25.570   4.361  18.617  0.0111 -0.0917  0.0537
36252DPPC   C4B42735  25.603   4.361  18.104  0.1544  0.2086 -0.3967
36253DPPC   NC342736  19.066   5.047  20.385  0.0158 -0.3011 -0.0510
36253DPPC   PO442737  19.438   5.282  20.323  0.1003  0.2584  0.1635
36253DPPC   GL142738  19.529   5.325  19.898 -0.0127 -0.1342 -0.2107
36253DPPC   GL242739  19.798   5.444  19.909 -0.2726  0.0686  0.3321
36253DPPC   C1A42740  19.508   5.293  19.555 -0.2082  0.1051  0.1790
36253DPPC   C2A42741  19.592   5.290  19.185  0.1565  0.0557  0.0848
36253DPPC   C3A42742  19.511   5.258  18.693 -0.0625 -0.0791 -0.1467
36253DPPC   C4A42743  19.499   5.287  18.179  0.1656  0.1042  0.1778
36253DPPC   C1B42744  19.773   5.639  19.604  0.1052 -0.1203 -0.0519
36253DPPC   C2B42745  19.745   5.747  19.200  0.0091 -0.3645 -0.0896
36253DPPC   C3B42746  19.683   5.713  18.770  0.1302 -0.0903  0.2659
36253DPPC   C4B42747  19.618   5.763  18.296 -0.0353  0.1036  0.1022
36254DPPC   NC342748  26.231   4.328  20.428  0.4509  0.0544  0.0463
36254DPPC   PO442749  26.137   4.632  20.222  0.0219 -0.0863  0.2014
36254DPPC   GL142750  25.940   4.719  19.768 -0.3600  0.1088 -0.1499
36254DPPC   GL242751  25.754   4.973  19.933 -0.0934  0.3479  0.0703
36254DPPC   C1A42752  25.938   4.760  19.402 -0.2170 -0.3460  0.4813
36254DPPC   C2A42753  25.832   4.795  18.985 -0.0256  0.0154 -0.3695
36254DPPC   C3A42754  25.711   4.827  18.508 -0.1351 -0.0769  0.0481
36254DPPC   C4A42755  25.700   4.885  18.053  0.2732  0.0462 -0.3066
36254DPPC   C1B42756  25.627   5.087  19.623 -0.1060  0.2703  0.1834
36254DPPC   C2B42757  25.544   5.194  19.221 -0.2035  0.3337  0.0454
36254DPPC   C3B42758  25.442   5.240  18.711  0.2148 -0.3257 -0.1282
36254DPPC   C4B42759  25.437   5.252  18.250  0.2360 -0.0951 -0.1248
36255DPPC   NC342760  20.734   5.125  20.225 -0.1262 -0.0083 -0.0954
36255DPPC   PO442761  20.714   4.741  20.128 -0.4520 -0.1756  0.4715
36255DPPC   GL142762  20.642   4.609  19.745 -0.0990 -0.0703  0.0337
36255DPPC   GL242763  20.475   4.835  19.823 -0.0576 -0.0442  0.2606
36255DPPC   C1A42764  20.677   4.667  19.414 -0.0732  0.0040  0.0878
36255DPPC   C2A42765  20.760   4.689  19.015  0.0699 -0.2043  0.1568
36255DPPC   C3A42766  20.714   4.650  18.527 -0.1572  0.0294 -0.0863
36255DPPC   C4A42767  20.735   4.708  18.070 -0.1884  0.1903 -0.1262
36255DPPC   C1B42768  20.401   5.047  19.514 -0.0087  0.4442  0.1843
36255DPPC   C2B42769  20.440   5.114  19.111 -0.0332 -0.2993  0.1902
36255DPPC   C3B42770  20.379   5.030  18.670 -0.2657 -0.0464  0.0028
36255DPPC   C4B42771  20.338   5.019  18.183 -0.1691  0.0935  0.0010
36256DPPC   NC342772  24.982   3.309  20.050 -0.1943  0.2138 -0.1239
36256DPPC   PO442773  25.094   3.662  19.967 -0.0845  0.1663  0.0812
36256DPPC   GL142774  25.287   3.775  19.595 -0.0081  0.1648 -0.3445
36256DPPC   GL242775  25.429   4.048  19.716  0.0257 -0.3027 -0.4132
36256DPPC   C1A42776  25.108   3.729  19.309 -0.1671 -0.3474  0.2502
36256DPPC   C2A42777  25.058   3.771  18.895  0.1182 -0.1638  0.0983
36256DPPC   C3A42778  25.057   3.817  18.412  0.2682 -0.1175 -0.0661
36256DPPC   C4A42779  25.069   3.846  17.871 -0.0857 -0.3014 -0.1900
36256DPPC   C1B42780  25.278   4.193  19.428 -0.1010 -0.1563  0.6235
36256DPPC   C2B42781  25.123   4.303  19.060  0.1519 -0.1926  0.2784
36256DPPC   C3B42782  25.118   4.262  18.618 -0.0299  0.2224 -0.0859
36256DPPC   C4B42783  25.162   4.237  18.156  0.0665 -0.1287 -0.1478
36257DPPC   NC342784  23.311   0.097  20.352 -0.1781  0.0459 -0.1503
36257DPPC   PO442785  22.919   0.206  20.299 -0.0627 -0.0647  0.0573
36257DPPC   GL142786  22.916   0.313  19.841 -0.0060 -0.2874  0.0310
36257DPPC   GL242787  22.762   0.035  19.884  0.0440  0.4546  0.3246
36257DPPC   C1A42788  22.922   0.280  19.487  0.0580  0.2546  0.5675
36257DPPC   C2A42789  22.851   0.244  19.101  0.1563  0.1557 -0.0631
36257DPPC   C3A42790  22.857   0.254  18.648  0.3704 -0.2674  0.1977
36257DPPC   C4A42791  22.881   0.294  18.163 -0.1983  0.2589  0.0152
36257DPPC   C1B42792  22.784  -0.129  19.582 -0.0452 -0.2692  0.1681
36257DPPC   C2B42793  22.743  -0.222  19.168 -0.2678 -0.0682 -0.0163
36257DPPC   C3B42794  22.746  -0.262  18.737 -0.0356  0.3214 -0.2966
36257DPPC   C4B42795  22.751  -0.230  18.254 -0.0290  0.1203 -0.1666
36258DPPC   NC342796  20.508   3.366  20.401  0.0818 -0.0292 -0.2188
36258DPPC   PO442797  20.223   3.132  20.566  0.1609  0.0349 -0.0717
36258DPPC   GL142798  20.065   3.150  20.156 -0.1155 -0.0731 -0.0198
36258DPPC   GL242799  19.880   3.008  20.246  0.0149 -0.4862 -0.0030
36258DPPC   C1A42800  20.174   3.127  19.815 -0.1598  0.1742 -0.0744
36258DPPC   C2A42801  20.226   3.147  19.392  0.2316 -0.0614  0.1966
36258DPPC   C3A42802  20.210   3.200  18.944  0.2560 -0.5111 -0.4267
36258DPPC   C4A42803  20.221   3.185  18.478 -0.0478 -0.0820  0.1389
36258DPPC   C1B42804  19.690   3.098  19.918  0.0569 -0.5049 -0.1674
36258DPPC   C2B42805  19.708   3.102  19.530 -0.1164 -0.5166  0.2634
36258DPPC   C3B42806  19.710   3.099  19.022 -0.0210  0.1715  0.0170
36258DPPC   C4B42807  19.722   2.987  18.548  0.1914 -0.0300 -0.2457
36259DPPC   NC342808  21.254   4.606  20.757 -0.0134 -0.3550  0.1696
36259DPPC   PO442809  21.599   4.611  20.620 -0.4186  0.0523  0.3899
36259DPPC   GL142810  21.740   4.631  20.227  0.5710  0.0846  0.0708
36259DPPC   GL242811  21.585   4.814  20.120  0.0028 -0.0330 -0.0875
36259DPPC   C1A42812  21.857   4.458  19.924  0.0141 -0.1463  0.1310
36259DPPC   C2A42813  22.002   4.436  19.546 -0.3428  0.2339 -0.1327
36259DPPC   C3A42814  22.012   4.522  19.086 -0.0550  0.2969 -0.2763
36259DPPC   C4A42815  22.025   4.554  18.608 -0.0847  0.4217 -0.1868
36259DPPC   C1B42816  21.660   4.788  19.711 -0.1910  0.3063  0.1426
36259DPPC   C2B42817  21.687   4.844  19.310  0.1284  0.2149  0.0865
36259DPPC   C3B42818  21.628   4.905  18.833 -0.0132  0.1921  0.0007
36259DPPC   C4B42819  21.711   4.894  18.330  0.0925 -0.0078  0.3351
36260DPPC   NC342820  24.323   2.186  20.051  0.0420  0.2120  0.2177
36260DPPC   PO442821  24.040   2.348  20.294  0.2308 -0.4079 -0.3000
36260DPPC   GL142822  23.789   2.465  19.993 -0.0952  0.0314 -0.3415
36260DPPC   GL242823  23.717   2.198  19.895 -0.5386 -0.0353  0.1594
36260DPPC   C1A42824  23.855   2.656  19.669  0.1351 -0.0174 -0.0501
36260DPPC   C2A42825  23.766   2.717  19.272 -0.1589 -0.1522  0.1858
36260DPPC   C3A42826  23.741   2.694  18.786 -0.1644  0.3743 -0.2342
36260DPPC   C4A42827  23.681   2.741  18.294 -0.0051  0.0601 -0.2549
36260DPPC   C1B42828  23.609   2.128  19.523  0.0361  0.1823  0.0678
36260DPPC   C2B42829  23.600   2.212  19.090  0.0319  0.0944 -0.0598
36260DPPC   C3B42830  23.549   2.159  18.563  0.0178 -0.0818 -0.2075
36260DPPC   C4B42831  23.524   2.155  18.023  0.0627 -0.1943 -0.3007
36261DPPC   NC342832  24.916   0.829  20.657 -0.0737  0.0274 -0.0677
36261DPPC   PO442833  24.820   1.081  20.440  0.1777  0.2492  0.0731
36261DPPC   GL142834  24.812   1.146  19.969  0.0564  0.0674  0.3277
36261DPPC   GL242835  24.725   0.937  19.883 -0.0645 -0.1360 -0.2932
36261DPPC   C1A42836  24.771   1.384  19.672 -0.0849 -0.0472  0.0090
36261DPPC   C2A42837  24.753   1.567  19.321 -0.1313  0.0807  0.0281
36261DPPC   C3A42838  24.789   1.545  18.882  0.2702 -0.2913 -0.0058
36261DPPC   C4A42839  24.697   1.488  18.385  0.2168 -0.1478  0.0705
36261DPPC   C1B42840  24.626   0.960  19.567 -0.3821 -0.1615  0.2994
36261DPPC   C2B42841  24.612   1.086  19.183  0.1517 -0.1524 -0.1261
36261DPPC   C3B42842  24.562   1.083  18.665 -0.0055  0.2199  0.1562
36261DPPC   C4B42843  24.575   0.943  18.141 -0.0128 -0.1799 -0.0040
36262DPPC   NC342844  25.113   0.868  20.120 -0.0337 -0.3084 -0.3857
36262DPPC   PO442845  25.209   0.562  20.341 -0.2039  0.0884 -0.0213
36262DPPC   GL142846  25.122   0.372  20.035 -0.0599 -0.0785  0.2481
36262DPPC   GL242847  25.355   0.214  19.978  0.0543 -0.3931 -0.2252
36262DPPC   C1A42848  25.049   0.574  19.746 -0.2343  0.2196 -0.3803
36262DPPC   C2A42849  24.984   0.700  19.379 -0.2399 -0.2211 -0.2583
36262DPPC   C3A42850  24.917   0.631  18.888 -0.0273 -0.2612  0.2520
36262DPPC   C4A42851  24.963   0.638  18.411  0.0369  0.0420  0.1768
36262DPPC   C1B42852  25.373   0.231  19.624 -0.1416  0.3126 -0.0486
36262DPPC   C2B42853  25.234   0.279  19.252  0.1342 -0.1344  0.1304
36262DPPC   C3B42854  25.237   0.273  18.728 -0.2993  0.1970  0.1810
36262DPPC   C4B42855  25.266   0.265  18.235 -0.0131  0.2151 -0.2472
36263DPPC   NC342856  23.301   4.482  20.459  0.0604 -0.1923 -0.1552
36263DPPC   PO442857  23.595   4.452  20.205 -0.1002  0.0744  0.0108
36263DPPC   GL142858  23.735   4.418  19.820 -0.1909  0.0364  0.1408
36263DPPC   GL242859  23.980   4.436  19.812  0.1105  0.1167 -0.0129
36263DPPC   C1A42860  23.722   4.436  19.454 -0.3608 -0.1517  0.4185
36263DPPC   C2A42861  23.788   4.439  19.067 -0.0766 -0.0847  0.0264
36263DPPC   C3A42862  23.767   4.401  18.604  0.0211  0.1831 -0.0239
36263DPPC   C4A42863  23.882   4.484  18.157  0.0637  0.0606  0.0252
36263DPPC   C1B42864  24.193   4.445  19.490 -0.0989 -0.2829 -0.1848
36263DPPC   C2B42865  24.320   4.531  19.116 -0.1337  0.1756  0.0855
36263DPPC   C3B42866  24.274   4.517  18.615  0.0444  0.0440  0.0180
36263DPPC   C4B42867  24.347   4.521  18.156 -0.1388  0.3988  0.0405
36264DPPC   NC342868  20.105   6.412  20.474 -0.0226  0.1208 -0.0276
36264DPPC   PO442869  20.466   6.567  20.475  0.2144  0.2045  0.2253
36264DPPC   GL142870  20.455   6.518  20.129 -0.3198  0.2444 -0.1894
36264DPPC   GL242871  20.326   6.257  20.042 -0.3021  0.0559  0.3552
36264DPPC   C1A42872  20.584   6.717  19.837 -0.0049  0.0158  0.0054
36264DPPC   C2A42873  20.615   6.836  19.445  0.1681 -0.4121 -0.0251
36264DPPC   C3A42874  20.589   6.797  18.975  0.0356  0.0398  0.1355
36264DPPC   C4A42875  20.629   6.879  18.473 -0.0189  0.1028  0.1181
36264DPPC   C1B42876  20.416   6.330  19.686  0.0187  0.0225 -0.1144
36264DPPC   C2B42877  20.372   6.425  19.269 -0.0983  0.1831 -0.1524
36264DPPC   C3B42878  20.364   6.381  18.801 -0.0834  0.0020  0.1381
36264DPPC   C4B42879  20.359   6.401  18.302  0.0639  0.0611  0.0160
36265DPPC   NC342880  24.903   4.205  19.826  0.3464 -0.1933  0.0994
36265DPPC   PO442881  24.682   3.981  20.033 -0.0078  0.0060  0.1599
36265DPPC   GL142882  24.392   3.952  19.669  0.0673 -0.0600  0.1831
36265DPPC   GL242883  24.204   4.031  19.679 -0.0767 -0.1772 -0.0980
36265DPPC   C1A42884  24.505   3.740  19.414 -0.1301 -0.3327  0.1135
36265DPPC   C2A42885  24.576   3.663  19.007  0.0401 -0.2946 -0.1522
36265DPPC   C3A42886  24.517   3.714  18.480 -0.1293  0.0469 -0.2004
36265DPPC   C4A42887  24.559   3.682  18.041 -0.0468  0.2823 -0.0656
36265DPPC   C1B42888  24.128   4.079  19.351 -0.0092 -0.2492 -0.2838
36265DPPC   C2B42889  24.179   4.023  18.931 -0.0749 -0.2098  0.3550
36265DPPC   C3B42890  24.123   4.096  18.425  0.4952  0.1138  0.1119
36265DPPC   C4B42891  24.151   4.047  17.923  0.0712  0.2260 -0.1803
36266DPPC   NC342892   0.099   0.372  20.261 -0.0565 -0.1315  0.2037
36266DPPC   PO442893  -0.271   0.442  20.172  0.3564  0.2565  0.0484
36266DPPC   GL142894  -0.445   0.730  19.937  0.1063  0.1541  0.2221
36266DPPC   GL242895  -0.333   0.979  20.034  0.1904  0.1523 -0.0427
36266DPPC   C1A42896  -0.511   0.651  19.598 -0.0171 -0.3182  0.0489
36266DPPC   C2A42897  -0.535   0.785  19.206 -0.0094 -0.0497  0.3085
36266DPPC   C3A42898  -0.594   0.859  18.738 -0.3897 -0.0582  0.0971
36266DPPC   C4A42899  -0.490   0.910  18.278 -0.1236  0.0318  0.3787
36266DPPC   C1B42900  -0.246   1.235  19.798 -0.2065  0.0436  0.0020
36266DPPC   C2B42901  -0.381   1.273  19.395 -0.1024  0.1436 -0.2291
36266DPPC   C3B42902  -0.400   1.357  18.958 -0.0461  0.2378 -0.1603
36266DPPC   C4B42903  -0.418   1.389  18.431  0.0507 -0.1813  0.0658
36267DPPC   NC342904  22.347   3.665  20.659  0.0395  0.1935  0.0769
36267DPPC   PO442905  22.379   4.039  20.507 -0.3994  0.1107 -0.1167
36267DPPC   GL142906  22.452   3.882  20.174 -0.1840  0.1422  0.1168
36267DPPC   GL242907  22.616   3.969  20.002 -0.3098 -0.1715  0.1334
36267DPPC   C1A42908  22.293   3.720  19.855 -0.2332 -0.2273  0.0643
36267DPPC   C2A42909  22.189   3.603  19.499  0.1096  0.2937  0.1294
36267DPPC   C3A42910  22.184   3.634  19.037 -0.0519 -0.1128 -0.1074
36267DPPC   C4A42911  22.186   3.702  18.541 -0.0472  0.0998 -0.1944
36267DPPC   C1B42912  22.619   3.893  19.638  0.1721  0.1115  0.0885
36267DPPC   C2B42913  22.711   3.821  19.183 -0.0971 -0.2255 -0.0040
36267DPPC   C3B42914  22.770   3.771  18.736 -0.1966  0.2612 -0.1426
36267DPPC   C4B42915  22.696   3.783  18.263 -0.2313 -0.0518 -0.0064
36268DPPC   NC342916  22.067   0.787  20.593 -0.5488 -0.0103  0.0017
36268DPPC   PO442917  22.182   0.761  20.229 -0.0748  0.4822  0.2980
36268DPPC   GL142918  22.219   0.696  19.907 -0.1941  0.1327 -0.0406
36268DPPC   GL242919  22.411   0.889  19.823 -0.3186  0.3087 -0.1686
36268DPPC   C1A42920  22.087   0.567  19.615  0.2686  0.0374  0.1515
36268DPPC   C2A42921  22.119   0.415  19.209  0.1632  0.2830  0.1165
36268DPPC   C3A42922  22.107   0.453  18.696  0.0006 -0.0189 -0.1426
36268DPPC   C4A42923  22.107   0.470  18.203 -0.3085  0.0464  0.1291
36268DPPC   C1B42924  22.329   1.019  19.520  0.0173 -0.0753  0.1757
36268DPPC   C2B42925  22.258   0.886  19.113  0.2719  0.0216  0.0485
36268DPPC   C3B42926  22.220   1.023  18.659 -0.0700 -0.2349  0.1965
36268DPPC   C4B42927  22.179   1.041  18.161 -0.2755  0.1272  0.1531
36269DPPC   NC342928  23.136   2.580  20.670  0.0922 -0.0137 -0.0042
36269DPPC   PO442929  23.180   2.237  20.474  0.1093 -0.3154  0.1270
36269DPPC   GL142930  22.938   2.120  20.107  0.1188 -0.1235  0.1537
36269DPPC   GL242931  23.225   1.942  20.064 -0.2708 -0.2355  0.0619
36269DPPC   C1A42932  22.938   2.352  19.798  0.1945  0.1539 -0.3999
36269DPPC   C2A42933  22.759   2.432  19.473 -0.0082  0.0015  0.0089
36269DPPC   C3A42934  22.718   2.485  19.058  0.0456  0.0368 -0.1166
36269DPPC   C4A42935  22.811   2.506  18.592  0.2355  0.1197 -0.1980
36269DPPC   C1B42936  23.205   1.990  19.715 -0.2901  0.2694 -0.1065
36269DPPC   C2B42937  23.104   2.074  19.301 -0.2619 -0.4427 -0.2527
36269DPPC   C3B42938  23.111   2.106  18.835  0.1065 -0.2583 -0.1605
36269DPPC   C4B42939  23.043   2.089  18.329 -0.1915 -0.3067 -0.1557
36270DPPC   NC342940  18.744   3.340  19.983  0.1182  0.2664  0.2911
36270DPPC   PO442941  18.936   3.068  20.180  0.0017  0.0035 -0.1189
36270DPPC   GL142942  19.056   2.690  19.893  0.0627  0.1368  0.1212
36270DPPC   GL242943  19.332   2.815  19.983  0.1071  0.1329  0.1291
36270DPPC   C1A42944  19.150   2.575  19.522  0.0405 -0.2573  0.0015
36270DPPC   C2A42945  19.063   2.519  19.113 -0.0537  0.0720 -0.2918
36270DPPC   C3A42946  19.078   2.550  18.653  0.0117  0.0389 -0.1322
36270DPPC   C4A42947  19.086   2.540  18.124  0.0163  0.0243  0.0861
36270DPPC   C1B42948  19.504   2.695  19.663 -0.4126  0.1321  0.1864
36270DPPC   C2B42949  19.522   2.657  19.266 -0.0808 -0.1453  0.0672
36270DPPC   C3B42950  19.576   2.594  18.787 -0.2876  0.1431 -0.0611
36270DPPC   C4B42951  19.599   2.595  18.261 -0.1086  0.1902 -0.1514
36271DPPC   NC342952  24.230   2.834  20.448 -0.1046  0.0946 -0.3033
36271DPPC   PO442953  24.260   3.098  20.169 -0.1992 -0.0144 -0.3089
36271DPPC   GL142954  24.145   2.919  19.890 -0.2522  0.3512  0.0225
36271DPPC   GL242955  24.158   2.651  19.986  0.1973 -0.0518 -0.1992
36271DPPC   C1A42956  24.239   2.954  19.576  0.2645  0.0744 -0.2899
36271DPPC   C2A42957  24.241   2.745  19.217 -0.0930  0.0254  0.1987
36271DPPC   C3A42958  24.207   2.742  18.719 -0.0422  0.0829 -0.0612
36271DPPC   C4A42959  24.185   2.736  18.181 -0.1110  0.1114  0.2425
36271DPPC   C1B42960  24.305   2.491  19.730  0.2554  0.1902  0.1056
36271DPPC   C2B42961  24.033   2.292  19.477 -0.4005  0.1376  0.0412
36271DPPC   C3B42962  24.064   2.281  19.000  0.1041  0.2065  0.2896
36271DPPC   C4B42963  24.082   2.297  18.478  0.1694 -0.1045 -0.3121
36272DPPC   NC342964  24.231   6.291  20.620  0.1710 -0.1474 -0.1034
36272DPPC   PO442965  24.155   5.977  20.386  0.2794  0.2235 -0.0319
36272DPPC   GL142966  24.188   5.893  19.885  0.1370  0.0528 -0.3284
36272DPPC   GL242967  23.998   6.145  19.946 -0.1173 -0.1634 -0.2237
36272DPPC   C1A42968  24.319   5.861  19.535  0.1396  0.0784  0.2300
36272DPPC   C2A42969  24.410   5.830  19.181 -0.1041 -0.3148 -0.1714
36272DPPC   C3A42970  24.402   5.834  18.680 -0.0870 -0.2258  0.1451
36272DPPC   C4A42971  24.404   5.817  18.198  0.1851 -0.2898  0.1014
36272DPPC   C1B42972  23.972   6.106  19.557  0.3671 -0.2353  0.1546
36272DPPC   C2B42973  24.059   6.159  19.155 -0.0793 -0.1561  0.1830
36272DPPC   C3B42974  24.041   6.204  18.660 -0.2240  0.0768 -0.1690
36272DPPC   C4B42975  23.975   6.277  18.158 -0.5910  0.0281  0.1080
36273DPPC   NC342976  21.854   0.299  20.649 -0.1758  0.3560  0.2398
36273DPPC   PO442977  22.243   0.302  20.508 -0.0355  0.0985  0.3313
36273DPPC   GL142978  22.196   0.239  20.106 -0.2446  0.3179 -0.0694
36273DPPC   GL242979  21.961   0.323  20.056  0.0769 -0.1882 -0.1294
36273DPPC   C1A42980  22.384   0.116  19.819  0.0832  0.0937  0.0778
36273DPPC   C2A42981  22.388   0.082  19.419 -0.1716  0.0974 -0.0122
36273DPPC   C3A42982  22.384   0.099  18.922  0.4923  0.0238  0.0793
36273DPPC   C4A42983  22.436   0.102  18.412  0.3476  0.0949 -0.1746
36273DPPC   C1B42984  21.927   0.087  19.787 -0.3274  0.0919  0.0959
36273DPPC   C2B42985  21.904   0.011  19.423  0.1552 -0.0656  0.2490
36273DPPC   C3B42986  21.894   0.004  18.976 -0.1027 -0.2931  0.2357
36273DPPC   C4B42987  21.951   0.050  18.469  0.1144  0.0123  0.2882
36274DPPC   NC342988  22.403   1.969  20.225  0.0107  0.0808 -0.0423
36274DPPC   PO442989  22.032   1.921  20.238 -0.0096 -0.1140 -0.2086
36274DPPC   GL142990  21.760   1.798  20.042  0.0393 -0.1950 -0.1237
36274DPPC   GL242991  21.571   2.004  20.141 -0.2216 -0.2432 -0.1435
36274DPPC   C1A42992  21.717   1.802  19.685 -0.0511  0.0756 -0.1223
36274DPPC   C2A42993  21.663   1.780  19.280  0.1511 -0.0984 -0.1248
36274DPPC   C3A42994  21.577   1.801  18.765 -0.2042 -0.0120  0.0630
36274DPPC   C4A42995  21.579   1.684  18.244  0.1350 -0.0809  0.2195
36274DPPC   C1B42996  21.514   2.148  19.813 -0.0985 -0.1489 -0.2549
36274DPPC   C2B42997  21.745   2.249  19.484  0.1317  0.1914 -0.2541
36274DPPC   C3B42998  21.708   2.225  18.966 -0.2129  0.1972  0.3304
36274DPPC   C4B42999  21.699   2.205  18.485  0.0457 -0.0570 -0.1853
36275DPPC   NC343000  20.037   4.123  20.245 -0.0468  0.1215 -0.0769
36275DPPC   PO443001  20.268   4.415  20.057 -0.2026  0.0655  0.1983
36275DPPC   GL143002  20.158   4.553  19.672 -0.0797 -0.2018  0.0661
36275DPPC   GL243003  20.022   4.789  19.737  0.2731 -0.0708  0.0190
36275DPPC   C1A43004  20.149   4.528  19.309  0.0789  0.0426 -0.2270
36275DPPC   C2A43005  20.231   4.590  18.914 -0.0119 -0.0117 -0.1821
36275DPPC   C3A43006  20.225   4.584  18.399  0.0528  0.3212 -0.0390
36275DPPC   C4A43007  20.284   4.498  17.932  0.1393  0.0473  0.1401
36275DPPC   C1B43008  19.958   4.979  19.461 -0.1395  0.3171  0.3109
36275DPPC   C2B43009  19.938   4.931  19.052  0.2201 -0.0144 -0.1064
36275DPPC   C3B43010  19.852   4.906  18.583 -0.2467 -0.0604  0.0443
36275DPPC   C4B43011  19.807   4.932  18.052  0.2606 -0.2941  0.0602
36276DPPC   NC343012  25.799   1.373  20.116 -0.1538  0.1111 -0.1043
36276DPPC   PO443013  25.655   1.725  20.200  0.1251 -0.2602  0.0492
36276DPPC   GL143014  25.591   1.895  19.837  0.0915 -0.0969  0.0384
36276DPPC   GL243015  25.660   1.626  19.722 -0.3953  0.0727 -0.0354
36276DPPC   C1A43016  25.452   2.008  19.502 -0.0310  0.2276  0.1815
36276DPPC   C2A43017  25.387   2.146  19.114 -0.1965 -0.1748  0.1964
36276DPPC   C3A43018  25.360   2.119  18.620  0.1120 -0.2030  0.0159
36276DPPC   C4A43019  25.341   2.050  18.117 -0.1462  0.1956  0.4264
36276DPPC   C1B43020  25.634   1.671  19.317 -0.2610  0.2931  0.1418
36276DPPC   C2B43021  25.612   1.710  18.876  0.0029  0.3335  0.1290
36276DPPC   C3B43022  25.644   1.690  18.323 -0.2742  0.0091 -0.3507
36276DPPC   C4B43023  25.592   1.626  17.818 -0.2896  0.0499 -0.0611
36277DPPC   NC343024   0.688   1.583  20.623 -0.4338  0.2516  0.1588
36277DPPC   PO443025   0.755   1.582  20.241 -0.3001 -0.0626  0.1611
36277DPPC   GL143026   0.640   1.533  19.853 -0.3166 -0.2184  0.2516
36277DPPC   GL243027   0.423   1.598  19.830  0.2902 -0.2048 -0.0914
36277DPPC   C1A43028   0.626   1.394  19.484  0.0639  0.0811  0.0021
36277DPPC   C2A43029   0.617   1.464  19.081 -0.2482 -0.0501  0.1067
36277DPPC   C3A43030   0.613   1.533  18.548 -0.2022 -0.4168 -0.1307
36277DPPC   C4A43031   0.567   1.478  18.031  0.2875 -0.2183 -0.2355
36277DPPC   C1B43032   0.353   1.775  19.565  0.0550  0.0093 -0.0329
36277DPPC   C2B43033   0.275   1.796  19.124 -0.1386  0.1544  0.0674
36277DPPC   C3B43034   0.197   1.893  18.635 -0.0772 -0.2540  0.1615
36277DPPC   C4B43035   0.170   1.917  18.139 -0.0341  0.0764 -0.3331
36278DPPC   NC343036  24.069   2.039  20.657 -0.2683  0.0425 -0.4251
36278DPPC   PO443037  24.374   1.906  20.412 -0.1190 -0.3913 -0.0243
36278DPPC   GL143038  24.009   1.847  20.132 -0.0668  0.0343 -0.4662
36278DPPC   GL243039  24.050   1.502  20.148  0.1699  0.2234 -0.0131
36278DPPC   C1A43040  23.940   1.870  19.756  0.2287  0.0562 -0.3144
36278DPPC   C2A43041  23.936   1.842  19.333  0.2344  0.1407  0.1728
36278DPPC   C3A43042  23.852   1.734  18.859 -0.2073  0.0570  0.2527
36278DPPC   C4A43043  23.816   1.822  18.327  0.0035 -0.0979  0.1183
36278DPPC   C1B43044  23.933   1.405  19.805 -0.0807  0.5115  0.1684
36278DPPC   C2B43045  23.738   1.297  19.428 -0.1353 -0.1385 -0.1013
36278DPPC   C3B43046  23.678   1.267  19.009 -0.1084  0.0410 -0.0602
36278DPPC   C4B43047  23.697   1.332  18.516  0.0174  0.0773 -0.0698
36279DPPC   NC343048  21.910   2.338  20.022  0.1591  0.0653 -0.0634
36279DPPC   PO443049  22.254   2.408  20.135  0.0898 -0.1302  0.1682
36279DPPC   GL143050  22.409   2.283  19.820 -0.1147  0.0937 -0.4645
36279DPPC   GL243051  22.203   2.000  19.814  0.3823 -0.0944  0.1027
36279DPPC   C1A43052  22.282   2.435  19.489  0.1649 -0.4768 -0.1693
36279DPPC   C2A43053  22.206   2.390  19.129  0.2142  0.0118  0.3310
36279DPPC   C3A43054  22.204   2.381  18.633  0.1409 -0.0323  0.1304
36279DPPC   C4A43055  22.174   2.297  18.129 -0.0325 -0.1543  0.1363
36279DPPC   C1B43056  22.104   1.916  19.496  0.2293  0.0600 -0.1382
36279DPPC   C2B43057  22.145   1.862  19.088  0.2563  0.0125  0.1865
36279DPPC   C3B43058  22.079   1.869  18.612  0.0862 -0.3230 -0.0515
36279DPPC   C4B43059  22.103   1.780  18.163 -0.3600 -0.0096 -0.1998
36280DPPC   NC343060  22.024   5.726  20.429 -0.0369 -0.1708  0.0948
36280DPPC   PO443061  22.008   5.380  20.299 -0.0367 -0.4112 -0.2561
36280DPPC   GL143062  21.936   5.522  19.929  0.2819  0.0120  0.0380
36280DPPC   GL243063  22.281   5.550  19.935 -0.1326 -0.2151 -0.0374
36280DPPC   C1A43064  21.892   5.507  19.526  0.1510  0.1256 -0.1864
36280DPPC   C2A43065  21.783   5.373  19.158 -0.0471 -0.1898 -0.0773
36280DPPC   C3A43066  21.823   5.423  18.702 -0.3630  0.0950 -0.3227
36280DPPC   C4A43067  21.868   5.363  18.229  0.0494  0.6821 -0.1865
36280DPPC   C1B43068  22.373   5.533  19.583 -0.3918 -0.2643 -0.0146
36280DPPC   C2B43069  22.340   5.474  19.176  0.0101 -0.0983 -0.1899
36280DPPC   C3B43070  22.349   5.460  18.732 -0.2064  0.0273  0.1302
36280DPPC   C4B43071  22.362   5.397  18.289 -0.1934 -0.1111  0.4857
36281DPPC   NC343072  23.536   3.677  20.129 -0.0810  0.0021  0.1830
36281DPPC   PO443073  23.560   3.307  20.273 -0.3466  0.2655  0.1359
36281DPPC   GL143074  23.422   3.242  19.938 -0.0253 -0.2981 -0.2742
36281DPPC   GL243075  23.405   2.898  19.922  0.1519 -0.0611 -0.1650
36281DPPC   C1A43076  23.568   3.422  19.646  0.1066  0.0583 -0.1308
36281DPPC   C2A43077  23.537   3.503  19.253 -0.3444  0.3163 -0.1427
36281DPPC   C3A43078  23.504   3.497  18.782  0.1263  0.3734  0.0925
36281DPPC   C4A43079  23.590   3.473  18.302  0.0601  0.0425 -0.0326
36281DPPC   C1B43080  23.401   2.874  19.496  0.0813  0.0333 -0.0175
36281DPPC   C2B43081  23.413   3.036  19.102  0.0514  0.0036 -0.1933
36281DPPC   C3B43082  23.396   3.047  18.583  0.1861 -0.1006 -0.2026
36281DPPC   C4B43083  23.360   3.032  18.099 -0.1114  0.1514  0.0374
36282DPPC   NC343084  22.014   4.389  20.508  0.1056  0.1128  0.2503
36282DPPC   PO443085  21.861   4.026  20.515  0.3012 -0.0804 -0.3276
36282DPPC   GL143086  21.844   3.996  20.077 -0.1108 -0.2314 -0.0488
36282DPPC   GL243087  22.114   4.118  20.076  0.1791 -0.0445 -0.1737
36282DPPC   C1A43088  21.840   4.002  19.707 -0.1314 -0.3127 -0.1107
36282DPPC   C2A43089  21.859   4.018  19.271  0.0061  0.1087 -0.0452
36282DPPC   C3A43090  21.828   3.999  18.790  0.1686 -0.1263 -0.1265
36282DPPC   C4A43091  21.819   4.046  18.309  0.3161  0.2585  0.0831
36282DPPC   C1B43092  22.265   4.175  19.728 -0.0235  0.3074 -0.1415
36282DPPC   C2B43093  22.376   4.153  19.353  0.1372 -0.0093  0.1838
36282DPPC   C3B43094  22.371   4.106  18.893  0.3433  0.1708 -0.2687
36282DPPC   C4B43095  22.375   4.144  18.407 -0.1542 -0.0888  0.1191
36283DPPC   NC343096  23.185   1.478  20.294 -0.1629  0.0372 -0.2175
36283DPPC   PO443097  22.814   1.571  20.302  0.1435  0.0472 -0.3743
36283DPPC   GL143098  22.752   1.758  19.933 -0.0887 -0.2480  0.2114
36283DPPC   GL243099  23.047   1.603  19.843 -0.4485  0.1668  0.0877
36283DPPC   C1A43100  22.721   1.947  19.664 -0.1507  0.0952 -0.0735
36283DPPC   C2A43101  22.553   2.026  19.305  0.0630 -0.2301  0.1160
36283DPPC   C3A43102  22.580   2.050  18.839  0.3194  0.0357 -0.2330
36283DPPC   C4A43103  22.533   1.995  18.357 -0.1090 -0.1160  0.0933
36283DPPC   C1B43104  22.965   1.616  19.473  0.0780 -0.0445  0.3208
36283DPPC   C2B43105  22.946   1.623  19.053 -0.1101 -0.0032  0.2671
36283DPPC   C3B43106  22.890   1.606  18.541 -0.0154 -0.5857 -0.1545
36283DPPC   C4B43107  22.929   1.575  18.029  0.0360 -0.0166 -0.0983
36284DPPC   NC343108  22.934   5.879  20.325 -0.1512 -0.3240 -0.0447
36284DPPC   PO443109  22.670   5.576  20.232 -0.3156 -0.0482 -0.1892
36284DPPC   GL143110  22.751   5.501  19.840  0.1847  0.0079 -0.0538
36284DPPC   GL243111  22.736   5.198  19.843  0.0107 -0.0431  0.0241
36284DPPC   C1A43112  22.848   5.692  19.596 -0.1099 -0.1942  0.0689
36284DPPC   C2A43113  22.879   5.610  19.185 -0.3261  0.0847 -0.1249
36284DPPC   C3A43114  22.860   5.520  18.757  0.1633 -0.0426  0.1744
36284DPPC   C4A43115  22.838   5.583  18.250 -0.0425  0.1899  0.0464
36284DPPC   C1B43116  22.635   5.145  19.433 -0.1009 -0.0150 -0.0681
36284DPPC   C2B43117  22.675   5.080  19.040  0.0632 -0.3017 -0.2419
36284DPPC   C3B43118  22.668   5.058  18.594  0.0603 -0.0009  0.2006
36284DPPC   C4B43119  22.759   5.075  18.121 -0.1741 -0.1274  0.2378
36285DPPC   NC343120   0.757   6.498  20.265  0.2347  0.0016 -0.1256
36285DPPC   PO443121   0.662   6.805  20.016  0.0143  0.0792 -0.2827
36285DPPC   GL143122   0.703   6.592  19.691  0.1065 -0.2999 -0.0407
36285DPPC   GL243123   0.846   6.342  19.779 -0.2027  0.0570  0.0875
36285DPPC   C1A43124   0.660   6.667  19.311 -0.3421 -0.5320  0.2374
36285DPPC   C2A43125   0.659   6.745  18.902 -0.2385  0.0193 -0.2206
36285DPPC   C3A43126   0.566   6.800  18.428 -0.2242 -0.1775 -0.1735
36285DPPC   C4A43127   0.617   6.906  17.936  0.0383 -0.1157  0.0580
36285DPPC   C1B43128   0.919   6.306  19.406 -0.0024  0.2923 -0.0190
36285DPPC   C2B43129   0.953   6.330  18.996  0.1360 -0.1991  0.0963
36285DPPC   C3B43130   0.899   6.439  18.495 -0.0082  0.0004  0.2305
36285DPPC   C4B43131   0.914   6.420  18.004  0.0887 -0.1657 -0.1713
36286DPPC   NC343132  24.701   5.038  20.090 -0.0042  0.1043 -0.1777
36286DPPC   PO443133  24.912   5.351  20.167 -0.1871  0.0780  0.0835
36286DPPC   GL143134  24.881   5.167  19.711 -0.0749  0.1216  0.1060
36286DPPC   GL243135  25.162   5.374  19.738 -0.1819 -0.1669 -0.2736
36286DPPC   C1A43136  24.962   5.058  19.395 -0.0311  0.0514  0.0787
36286DPPC   C2A43137  24.983   5.092  18.976  0.0410  0.1718 -0.0798
36286DPPC   C3A43138  25.042   5.060  18.515  0.1809  0.0611 -0.0411
36286DPPC   C4A43139  25.001   5.091  18.068  0.0669 -0.0819  0.0199
36286DPPC   C1B43140  25.254   5.539  19.440 -0.1918  0.1982 -0.1089
36286DPPC   C2B43141  25.181   5.526  19.034 -0.1191 -0.2329 -0.0409
36286DPPC   C3B43142  25.106   5.533  18.566  0.2718 -0.3444  0.2421
36286DPPC   C4B43143  25.061   5.619  18.084 -0.2334 -0.1916  0.1490
36287DPPC   NC343144  25.590   2.839  19.894  0.2783 -0.0575 -0.0340
36287DPPC   PO443145  25.524   3.168  20.184 -0.2024  0.1328 -0.1437
36287DPPC   GL143146  25.542   3.479  19.841  0.2483 -0.2134 -0.2662
36287DPPC   GL243147  25.423   3.270  19.695  0.1357 -0.1103  0.0591
36287DPPC   C1A43148  25.696   3.691  19.566 -0.0742 -0.1544  0.2289
36287DPPC   C2A43149  25.562   3.851  19.201  0.0300 -0.1168 -0.3912
36287DPPC   C3A43150  25.486   3.862  18.690  0.1266  0.1113  0.1114
36287DPPC   C4A43151  25.543   3.897  18.233 -0.0333 -0.2722  0.1432
36287DPPC   C1B43152  25.476   3.414  19.366 -0.3649  0.1757 -0.1928
36287DPPC   C2B43153  25.423   3.403  18.963  0.0818 -0.0613 -0.1326
36287DPPC   C3B43154  25.428   3.414  18.513  0.0364 -0.0633  0.2567
36287DPPC   C4B43155  25.367   3.408  18.019  0.1690 -0.1317  0.0301
36288DPPC   NC343156  23.576   5.381  20.321 -0.0215  0.4548 -0.1161
36288DPPC   PO443157  23.730   4.992  20.306 -0.0036  0.1133 -0.2169
36288DPPC   GL143158  23.622   4.814  19.909  0.0516  0.0606  0.1431
36288DPPC   GL243159  23.464   5.060  19.980 -0.2264 -0.0663 -0.0502
36288DPPC   C1A43160  23.519   4.824  19.530 -0.2136 -0.3107 -0.0784
36288DPPC   C2A43161  23.437   4.821  19.100  0.0339 -0.2522  0.2183
36288DPPC   C3A43162  23.508   4.873  18.631  0.0635 -0.0105  0.1380
36288DPPC   C4A43163  23.462   4.925  18.125 -0.0403  0.2133 -0.0679
36288DPPC   C1B43164  23.302   5.181  19.685  0.0738  0.1022 -0.1108
36288DPPC   C2B43165  23.106   5.240  19.352  0.0349  0.1490 -0.0116
36288DPPC   C3B43166  23.182   5.179  18.864 -0.3357 -0.2735 -0.2462
36288DPPC   C4B43167  23.176   5.244  18.400  0.0273  0.2757  0.0809
36289DPPC   NC343168  22.532   6.540  20.250 -0.1120  0.0120  0.0622
36289DPPC   PO443169  22.189   6.350  20.298  0.0867 -0.0036  0.1878
36289DPPC   GL143170  22.044   6.302  19.942 -0.0007  0.4280 -0.1319
36289DPPC   GL243171  21.761   6.309  19.902  0.2382  0.1729  0.3918
36289DPPC   C1A43172  22.265   6.324  19.632 -0.1336 -0.1023  0.0968
36289DPPC   C2A43173  22.224   6.311  19.202 -0.2105  0.1445 -0.2540
36289DPPC   C3A43174  22.217   6.269  18.720  0.2379  0.0453 -0.0798
36289DPPC   C4A43175  22.207   6.243  18.216  0.4211  0.1595 -0.2732
36289DPPC   C1B43176  21.665   6.187  19.587  0.3404  0.0257  0.0521
36289DPPC   C2B43177  21.678   6.195  19.148 -0.0148 -0.1144  0.1335
36289DPPC   C3B43178  21.704   6.180  18.662 -0.1099 -0.1057  0.3425
36289DPPC   C4B43179  21.651   6.189  18.244  0.1585 -0.2430  0.0628
36290DPPC   NC343180  18.742   5.065  20.897  0.0279 -0.0955  0.1434
36290DPPC   PO443181  18.414   5.290  20.763  0.1105  0.1294 -0.0443
36290DPPC   GL143182  18.570   5.367  20.391  0.1532  0.2674 -0.0504
36290DPPC   GL243183  18.556   5.142  20.346 -0.1123 -0.1009  0.1340
36290DPPC   C1A43184  18.664   5.510  20.045  0.0340  0.2186  0.0462
36290DPPC   C2A43185  18.749   5.557  19.632 -0.0183  0.2352  0.2343
36290DPPC   C3A43186  18.778   5.607  19.184  0.2075 -0.2147  0.0039
36290DPPC   C4A43187  18.746   5.547  18.701  0.0995 -0.0752 -0.1642
36290DPPC   C1B43188  18.590   5.041  19.941 -0.0748 -0.2247  0.3167
36290DPPC   C2B43189  18.590   5.032  19.511 -0.0092 -0.3394  0.1057
36290DPPC   C3B43190  18.600   5.115  19.053 -0.1467  0.1135 -0.0950
36290DPPC   C4B43191  18.545   4.920  18.598  0.1230 -0.0335  0.1268
36291DPPC   NC343192  20.819   5.727  20.621 -0.2949  0.1683  0.2048
36291DPPC   PO443193  20.931   5.572  20.286 -0.1288  0.2924  0.0344
36291DPPC   GL143194  20.900   5.574  19.873 -0.2488 -0.1915 -0.1145
36291DPPC   GL243195  20.696   5.456  19.737  0.1340  0.1273  0.2232
36291DPPC   C1A43196  21.061   5.722  19.569  0.4016 -0.4830  0.0570
36291DPPC   C2A43197  21.038   5.641  19.172 -0.3520  0.0824 -0.2944
36291DPPC   C3A43198  21.061   5.618  18.719 -0.0741  0.0640  0.3240
36291DPPC   C4A43199  20.969   5.580  18.248 -0.2134 -0.3734 -0.2813
36291DPPC   C1B43200  20.595   5.606  19.393  0.6234 -0.3960  0.3019
36291DPPC   C2B43201  20.551   5.592  18.979  0.0625 -0.1918 -0.0081
36291DPPC   C3B43202  20.507   5.512  18.506 -0.1572  0.0103 -0.3276
36291DPPC   C4B43203  20.552   5.455  17.992 -0.1010  0.0622  0.1089
36292DPPC   NC343204  23.206   3.094  20.484 -0.2406  0.1087 -0.2010
36292DPPC   PO443205  22.847   2.926  20.375  0.2946  0.3272 -0.2047
36292DPPC   GL143206  22.682   2.980  20.051  0.1520  0.0747 -0.2196
36292DPPC   GL243207  22.592   2.716  19.940 -0.0931 -0.0480 -0.5736
36292DPPC   C1A43208  22.563   3.285  19.816 -0.0556  0.3389  0.1644
36292DPPC   C2A43209  22.628   3.328  19.408  0.1737 -0.1121  0.3075
36292DPPC   C3A43210  22.543   3.303  18.976 -0.2330  0.0385  0.1768
36292DPPC   C4A43211  22.500   3.330  18.507 -0.1830 -0.1807 -0.2653
36292DPPC   C1B43212  22.408   2.857  19.618 -0.0216  0.0116  0.1283
36292DPPC   C2B43213  22.349   2.826  19.236  0.1680  0.2587  0.0623
36292DPPC   C3B43214  22.380   2.834  18.753 -0.0724 -0.1171  0.0180
36292DPPC   C4B43215  22.372   2.786  18.237  0.0531 -0.1303  0.2056
36293DPPC   NC343216  25.264   1.969  20.232 -0.0083 -0.3242 -0.1357
36293DPPC   PO443217  25.507   2.251  20.164 -0.0009  0.1152 -0.0407
36293DPPC   GL143218  25.297   2.481  19.813 -0.4031 -0.0191 -0.0377
36293DPPC   GL243219  25.036   2.409  19.910 -0.4625  0.1432 -0.2989
36293DPPC   C1A43220  25.196   2.452  19.465  0.1755  0.0939 -0.1297
36293DPPC   C2A43221  25.073   2.535  19.073 -0.0458  0.1725  0.2179
36293DPPC   C3A43222  25.009   2.490  18.639 -0.3144  0.0834  0.2913
36293DPPC   C4A43223  25.028   2.530  18.159 -0.0597  0.0394  0.2395
36293DPPC   C1B43224  24.780   2.417  19.621  0.0238 -0.1074 -0.3165
36293DPPC   C2B43225  24.548   2.407  19.266 -0.0015 -0.1334  0.2553
36293DPPC   C3B43226  24.519   2.300  18.743 -0.3029  0.3356  0.0543
36293DPPC   C4B43227  24.558   2.341  18.277  0.3063 -0.0964 -0.2625
36294DPPC   NC343228  24.247   3.839  20.227 -0.0193 -0.3737 -0.0047
36294DPPC   PO443229  23.952   4.033  20.058  0.0106 -0.2589  0.2448
36294DPPC   GL143230  23.928   3.687  19.849  0.1493 -0.0954 -0.1029
36294DPPC   GL243231  23.936   3.500  20.081 -0.4402  0.1986  0.1300
36294DPPC   C1A43232  23.950   3.618  19.508 -0.2282 -0.2299 -0.0030
36294DPPC   C2A43233  24.091   3.538  19.110  0.0340  0.2111  0.2159
36294DPPC   C3A43234  23.963   3.570  18.599 -0.2680  0.2217 -0.3171
36294DPPC   C4A43235  24.015   3.647  18.129  0.1606  0.1977  0.0433
36294DPPC   C1B43236  23.933   3.272  19.819 -0.1231 -0.2157  0.1348
36294DPPC   C2B43237  23.867   3.149  19.421 -0.2626  0.2585 -0.0631
36294DPPC   C3B43238  23.833   3.135  18.939 -0.0400  0.2139  0.3074
36294DPPC   C4B43239  23.923   3.098  18.492  0.1056  0.2180  0.3481
36295DPPC   NC343240  24.037   4.574  20.258  0.0381 -0.2000  0.1488
36295DPPC   PO443241  24.357   4.352  20.200 -0.0042 -0.1780 -0.0848
36295DPPC   GL143242  24.489   4.431  19.819  0.1204 -0.3297 -0.2596
36295DPPC   GL243243  24.331   4.703  19.937  0.0684  0.1326 -0.3511
36295DPPC   C1A43244  24.640   4.365  19.490  0.1534 -0.1440  0.6389
36295DPPC   C2A43245  24.702   4.097  19.249  0.3390  0.0527 -0.1243
36295DPPC   C3A43246  24.677   4.088  18.765 -0.3620  0.0533 -0.0549
36295DPPC   C4A43247  24.695   4.129  18.280  0.3293  0.3700  0.0929
36295DPPC   C1B43248  24.089   4.795  19.675 -0.3404 -0.0096 -0.1864
36295DPPC   C2B43249  23.946   4.809  19.278 -0.0989 -0.0800 -0.1588
36295DPPC   C3B43250  23.977   4.891  18.808 -0.3186  0.1959 -0.2908
36295DPPC   C4B43251  23.987   4.947  18.336 -0.1905 -0.0055 -0.0789
36296DPPC   NC343252  25.462   4.785  20.224  0.0165 -0.3509 -0.0722
36296DPPC   PO443253  25.184   4.912  19.985 -0.0768 -0.4077 -0.0543
36296DPPC   GL143254  25.033   4.694  19.563  0.1367  0.3565  0.0956
36296DPPC   GL243255  24.776   4.730  19.734 -0.3613  0.2949 -0.1168
36296DPPC   C1A43256  24.872   4.656  19.222 -0.0712 -0.1852 -0.0060
36296DPPC   C2A43257  24.780   4.574  18.839 -0.0557 -0.0012 -0.4378
36296DPPC   C3A43258  24.791   4.588  18.368  0.1497 -0.0287 -0.1433
36296DPPC   C4A43259  24.758   4.615  17.921 -0.0533 -0.1082  0.6305
36296DPPC   C1B43260  24.546   4.811  19.475 -0.0318  0.0203  0.1417
36296DPPC   C2B43261  24.497   4.981  19.106 -0.0989 -0.0912 -0.1674
36296DPPC   C3B43262  24.503   4.987  18.646 -0.2626  0.1992  0.0845
36296DPPC   C4B43263  24.482   4.984  18.151 -0.1309 -0.0625  0.0920
36297DPPC   NC343264  23.766   0.664  20.471 -0.1829 -0.0449 -0.2493
36297DPPC   PO443265  23.728   0.342  20.302  0.1492  0.2975  0.2420
36297DPPC   GL143266  23.629   0.213  19.929  0.3475  0.0633 -0.0370
36297DPPC   GL243267  23.387   0.307  19.839  0.1674  0.3154  0.2669
36297DPPC   C1A43268  23.891   0.115  19.691 -0.1606 -0.0516  0.0663
36297DPPC   C2A43269  23.836  -0.029  19.329  0.2202 -0.1426 -0.3205
36297DPPC   C3A43270  23.759  -0.072  18.887 -0.4369 -0.2127  0.0964
36297DPPC   C4A43271  23.728   0.053  18.392  0.2584  0.0843 -0.0496
36297DPPC   C1B43272  23.330   0.333  19.490  0.1415  0.2606 -0.2012
36297DPPC   C2B43273  23.323   0.367  19.110  0.3082 -0.1414  0.1660
36297DPPC   C3B43274  23.360   0.369  18.673  0.1157  0.0051  0.1968
36297DPPC   C4B43275  23.391   0.361  18.193 -0.1043  0.0307 -0.0079
36298DPPC   NC343276  19.874   5.524  20.421 -0.0162  0.0095 -0.1284
36298DPPC   PO443277  19.643   5.741  20.197  0.1091 -0.1048  0.0656
36298DPPC   GL143278  19.604   5.885  19.890  0.0298  0.0005 -0.0702
36298DPPC   GL243279  19.946   6.017  19.877  0.3037  0.1311  0.0608
36298DPPC   C1A43280  19.510   6.027  19.531  0.0738  0.2038 -0.3019
36298DPPC   C2A43281  19.465   6.110  19.098 -0.4103  0.0157  0.5123
36298DPPC   C3A43282  19.495   6.141  18.634 -0.0080  0.0686  0.0502
36298DPPC   C4A43283  19.455   6.270  18.161  0.0453  0.0386  0.0950
36298DPPC   C1B43284  20.163   5.914  19.590 -0.0277 -0.0867  0.0020
36298DPPC   C2B43285  20.258   5.961  19.205  0.0317  0.3016 -0.3049
36298DPPC   C3B43286  20.203   5.819  18.725 -0.0134  0.2968  0.0358
36298DPPC   C4B43287  20.252   5.883  18.232  0.0121  0.2310 -0.5371
36299DPPC   NC343288  26.271   3.198  19.966 -0.1704 -0.2940 -0.1487
36299DPPC   PO443289  25.919   3.238  19.791 -0.1774  0.0519 -0.0882
36299DPPC   GL143290  25.977   3.369  19.443  0.2490 -0.0310  0.0206
36299DPPC   GL243291  25.806   3.145  19.349 -0.2251 -0.1716  0.1120
36299DPPC   C1A43292  25.909   3.521  19.102  0.1029  0.0659 -0.2227
36299DPPC   C2A43293  25.916   3.464  18.733  0.1388 -0.1005  0.2749
36299DPPC   C3A43294  25.911   3.457  18.202 -0.0173  0.1137  0.0836
36299DPPC   C4A43295  25.801   3.485  17.764 -0.0689  0.4929  0.1946
36299DPPC   C1B43296  25.776   3.111  19.004 -0.1862  0.1421  0.2227
36299DPPC   C2B43297  25.719   3.008  18.624  0.0909 -0.1865  0.1031
36299DPPC   C3B43298  25.680   3.020  18.132 -0.2051 -0.1935 -0.0500
36299DPPC   C4B43299  25.696   2.994  17.634  0.0560  0.0155 -0.1305
36300DPPC   NC343300  23.180   6.044  20.750  0.0064 -0.0477 -0.0558
36300DPPC   PO443301  23.020   6.368  20.583 -0.0159 -0.0601  0.1742
36300DPPC   GL143302  22.936   6.324  20.129  0.1976  0.0664 -0.4201
36300DPPC   GL243303  23.117   6.487  20.056  0.5072  0.2446  0.0767
36300DPPC   C1A43304  22.956   6.117  19.808 -0.1427 -0.1933  0.0240
36300DPPC   C2A43305  23.121   6.039  19.442  0.1918  0.1973  0.3316
36300DPPC   C3A43306  23.049   6.052  18.977  0.2302 -0.1242 -0.2479
36300DPPC   C4A43307  23.031   6.029  18.506 -0.0428 -0.2103  0.0567
36300DPPC   C1B43308  23.289   6.497  19.752  0.1446  0.2942  0.1324
36300DPPC   C2B43309  23.320   6.507  19.329  0.0541  0.3675 -0.1925
36300DPPC   C3B43310  23.248   6.535  18.896  0.0261  0.0413  0.0826
36300DPPC   C4B43311  23.224   6.525  18.429  0.2277 -0.2846  0.3578
36301DPPC   NC343312  24.267   0.312  20.091  0.3496 -0.1390 -0.0281
36301DPPC   PO443313  24.233   0.608  20.359  0.0736 -0.1451  0.0514
36301DPPC   GL143314  24.244   0.822  20.035  0.1046  0.0395  0.1635
36301DPPC   GL243315  24.340   1.092  20.223 -0.1488 -0.1477  0.2010
36301DPPC   C1A43316  24.367   0.640  19.740 -0.2834  0.0106 -0.1889
36301DPPC   C2A43317  24.435   0.570  19.351 -0.0222  0.0599 -0.0114
36301DPPC   C3A43318  24.372   0.592  18.848  0.1766  0.1216 -0.2993
36301DPPC   C4A43319  24.439   0.570  18.360 -0.0017 -0.1826 -0.3064
36301DPPC   C1B43320  24.405   1.252  19.871  0.1406  0.0400 -0.0777
36301DPPC   C2B43321  24.291   1.375  19.485  0.1648  0.3415  0.0344
36301DPPC   C3B43322  24.192   1.409  19.014 -0.0729  0.0089 -0.1042
36301DPPC   C4B43323  24.199   1.353  18.578  0.2624  0.0687 -0.1506
36302DPPC   NC343324  22.375   2.842  20.407  0.0448  0.0824  0.0416
36302DPPC   PO443325  22.070   3.096  20.434 -0.1943 -0.0054  0.1463
36302DPPC   GL143326  21.916   3.289  20.004  0.0922  0.1196  0.3195
36302DPPC   GL243327  22.180   3.277  19.955  0.0963 -0.0453 -0.0918
36302DPPC   C1A43328  21.812   3.579  19.771 -0.3261 -0.0574 -0.1812
36302DPPC   C2A43329  21.650   3.539  19.391 -0.2581 -0.2297 -0.0539
36302DPPC   C3A43330  21.679   3.559  18.918 -0.2368  0.2955 -0.0431
36302DPPC   C4A43331  21.690   3.529  18.447  0.1304  0.3689  0.3494
36302DPPC   C1B43332  22.045   3.170  19.641 -0.1002 -0.0902 -0.0809
36302DPPC   C2B43333  21.994   3.211  19.231  0.0520  0.1742 -0.1823
36302DPPC   C3B43334  22.017   3.183  18.759  0.3556 -0.0359  0.1296
36302DPPC   C4B43335  22.018   3.228  18.287 -0.2461 -0.1784  0.0590
36303DPPC   NC343336  23.786   2.889  20.150 -0.0102  0.2200 -0.0555
36303DPPC   PO443337  23.581   2.642  20.428 -0.1392 -0.0212 -0.0038
36303DPPC   GL143338  23.332   2.375  20.041 -0.1669  0.1040  0.0555
36303DPPC   GL243339  23.108   2.583  20.095 -0.3220 -0.0411 -0.2688
36303DPPC   C1A43340  23.332   2.457  19.656  0.1317  0.3152 -0.0955
36303DPPC   C2A43341  23.251   2.554  19.253  0.0559 -0.0573 -0.0653
36303DPPC   C3A43342  23.272   2.611  18.763  0.1428  0.0810  0.0804
36303DPPC   C4A43343  23.145   2.595  18.276 -0.1683 -0.1991  0.2746
36303DPPC   C1B43344  23.009   2.742  19.750  0.1023 -0.0712  0.1529
36303DPPC   C2B43345  22.860   2.905  19.359  0.2855  0.0459  0.0651
36303DPPC   C3B43346  22.919   2.968  18.868  0.0228 -0.1007 -0.0410
36303DPPC   C4B43347  22.852   2.977  18.458 -0.1052 -0.1411  0.1253
36304DPPC   NC343348  24.589   1.456  20.279  0.0892 -0.5349 -0.0351
36304DPPC   PO443349  24.992   1.550  20.254 -0.1403 -0.1120 -0.0270
36304DPPC   GL143350  25.279   1.581  19.936 -0.0030 -0.2740 -0.0192
36304DPPC   GL243351  25.350   1.274  19.980 -0.0035 -0.0902  0.2452
36304DPPC   C1A43352  25.247   1.550  19.568  0.1042 -0.2575  0.2003
36304DPPC   C2A43353  25.221   1.671  19.160 -0.0769 -0.0609  0.6938
36304DPPC   C3A43354  25.170   1.617  18.638 -0.1446 -0.0891  0.1234
36304DPPC   C4A43355  25.093   1.589  18.151  0.0050  0.2816  0.0777
36304DPPC   C1B43356  25.191   1.059  19.711  0.2970  0.1133 -0.0401
36304DPPC   C2B43357  25.114   1.156  19.332  0.0042  0.0589 -0.1361
36304DPPC   C3B43358  25.083   1.141  18.843 -0.0877 -0.0482 -0.0727
36304DPPC   C4B43359  25.049   1.102  18.361 -0.2287  0.1832 -0.2956
36305DPPC   NC343360  24.496   5.262  20.535  0.1490  0.0864  0.2481
36305DPPC   PO443361  24.431   5.547  20.207  0.0154 -0.3352 -0.1846
36305DPPC   GL143362  24.562   5.457  19.851  0.4788 -0.1701  0.3584
36305DPPC   GL243363  24.319   5.262  19.745  0.0949 -0.0580 -0.0190
36305DPPC   C1A43364  24.841   5.614  19.633 -0.1035 -0.1233  0.2782
36305DPPC   C2A43365  24.657   5.390  19.303  0.2283 -0.0292 -0.0641
36305DPPC   C3A43366  24.654   5.430  18.801 -0.3484 -0.0788  0.0091
36305DPPC   C4A43367  24.656   5.435  18.315  0.2604 -0.0324 -0.0531
36305DPPC   C1B43368  24.176   5.430  19.450 -0.0417  0.4145  0.0070
36305DPPC   C2B43369  24.196   5.361  19.067 -0.0599 -0.0774 -0.0577
36305DPPC   C3B43370  24.153   5.389  18.564  0.3058 -0.1535 -0.3346
36305DPPC   C4B43371  24.192   5.408  18.082  0.0866  0.0498 -0.0362
36306DPPC   NC343372  26.409   2.518  20.193 -0.1834 -0.1746 -0.1871
36306DPPC   PO443373  26.120   2.695  19.962  0.0410  0.2832 -0.1528
36306DPPC   GL143374  25.982   2.783  19.632  0.0151 -0.0405  0.0942
36306DPPC   GL243375  26.225   2.971  19.582 -0.1277 -0.2129 -0.2945
36306DPPC   C1A43376  25.771   2.666  19.337  0.2514 -0.3347 -0.1355
36306DPPC   C2A43377  25.605   2.667  18.952  0.3004 -0.1176  0.1563
36306DPPC   C3A43378  25.474   2.601  18.495 -0.3564 -0.3700  0.0115
36306DPPC   C4A43379  25.488   2.558  17.945 -0.1487  0.1618  0.4660
36306DPPC   C1B43380  26.276   3.169  19.256  0.1165 -0.4485 -0.0226
36306DPPC   C2B43381  26.224   3.082  18.834 -0.1610  0.1814 -0.1531
36306DPPC   C3B43382  26.189   3.104  18.380  0.0233  0.2754  0.2009
36306DPPC   C4B43383  26.153   3.137  17.888  0.3342  0.3978  0.3872
36307DPPC   NC343384  22.528   1.125  20.240 -0.0051  0.0622 -0.0128
36307DPPC   PO443385  22.884   1.050  20.366 -0.1917 -0.0080  0.3348
36307DPPC   GL143386  23.051   1.195  19.977  0.1453  0.1294  0.0696
36307DPPC   GL243387  22.757   1.192  19.866 -0.0571 -0.0680  0.3578
36307DPPC   C1A43388  23.224   1.224  19.634 -0.3608 -0.0656 -0.2098
36307DPPC   C2A43389  23.292   1.147  19.266  0.1172 -0.2230 -0.0394
36307DPPC   C3A43390  23.247   1.264  18.778  0.1686 -0.1158 -0.3305
36307DPPC   C4A43391  23.282   1.229  18.261  0.0870  0.3135 -0.0573
36307DPPC   C1B43392  22.812   1.201  19.522  0.0053  0.1646 -0.1417
36307DPPC   C2B43393  22.774   1.129  19.102  0.2686 -0.2230 -0.0585
36307DPPC   C3B43394  22.729   1.121  18.604 -0.3097 -0.1977 -0.0018
36307DPPC   C4B43395  22.730   1.064  18.127 -0.1135 -0.0226  0.1812
36308DPPC   NC343396  21.518   4.270  20.236  0.0146  0.0188 -0.2571
36308DPPC   PO443397  21.253   4.514  20.253  0.0973 -0.3706 -0.0969
36308DPPC   GL143398  21.049   4.465  19.932  0.0860 -0.4913 -0.2211
36308DPPC   GL243399  21.167   4.763  19.911  0.4770 -0.0399 -0.0585
36308DPPC   C1A43400  20.973   4.364  19.645  0.0976 -0.1087 -0.1078
36308DPPC   C2A43401  20.992   4.364  19.233 -0.1990 -0.0547 -0.1298
36308DPPC   C3A43402  21.043   4.339  18.766  0.0711  0.1780 -0.0335
36308DPPC   C4A43403  21.072   4.315  18.307 -0.2064  0.0330  0.0061
36308DPPC   C1B43404  21.276   4.739  19.554  0.0240  0.2457  0.0703
36308DPPC   C2B43405  21.217   4.810  19.163  0.0406 -0.2010  0.0366
36308DPPC   C3B43406  21.182   4.837  18.673  0.1240 -0.0427 -0.2242
36308DPPC   C4B43407  21.176   4.842  18.196 -0.1523  0.3688  0.1542
36309DPPC   NC343408   0.444   3.080  20.578  0.1116  0.0621  0.1564
36309DPPC   PO443409   0.166   2.968  20.260 -0.3971  0.1965 -0.0150
36309DPPC   GL143410   0.167   2.774  19.873  0.1066 -0.1813 -0.1652
36309DPPC   GL243411   0.296   3.067  19.761  0.1943  0.0451 -0.1112
36309DPPC   C1A43412   0.035   2.654  19.568 -0.0432  0.0588  0.1449
36309DPPC   C2A43413   0.139   2.669  19.141  0.1062 -0.0637 -0.1074
36309DPPC   C3A43414   0.151   2.731  18.628 -0.1410  0.2175 -0.0913
36309DPPC   C4A43415   0.121   2.730  18.144 -0.2934  0.0086 -0.3330
36309DPPC   C1B43416   0.279   3.148  19.404  0.0782 -0.0176  0.2138
36309DPPC   C2B43417   0.293   3.192  18.995  0.0775  0.2131 -0.0173
36309DPPC   C3B43418   0.247   3.222  18.523 -0.2442 -0.2164 -0.0813
36309DPPC   C4B43419   0.172   3.199  18.049  0.0894 -0.3298 -0.0647
36310DPPC   NC343420  22.913   5.190  20.326 -0.3041 -0.1654  0.3987
36310DPPC   PO443421  23.226   4.947  20.320 -0.1355  0.1137  0.1169
36310DPPC   GL143422  23.069   4.870  20.000  0.2047 -0.1471  0.0769
36310DPPC   GL243423  23.211   4.649  19.963 -0.0203  0.3142  0.0413
36310DPPC   C1A43424  22.874   4.828  19.696 -0.1908 -0.0245 -0.2086
36310DPPC   C2A43425  22.997   4.774  19.265  0.1302  0.0604  0.0940
36310DPPC   C3A43426  23.002   4.720  18.788 -0.0806 -0.0555  0.0090
36310DPPC   C4A43427  23.044   4.733  18.289 -0.1520 -0.1466  0.0405
36310DPPC   C1B43428  23.251   4.446  19.665 -0.0900 -0.4576  0.0051
36310DPPC   C2B43429  23.312   4.360  19.275 -0.1251  0.4648 -0.2340
36310DPPC   C3B43430  23.320   4.365  18.839  0.0536  0.1430  0.0899
36310DPPC   C4B43431  23.305   4.354  18.400 -0.2287  0.0681  0.4301
36311DPPC   NC343432  23.767   1.204  20.751 -0.0288 -0.2981 -0.2480
36311DPPC   PO443433  23.896   1.134  20.404 -0.0107  0.0903 -0.1373
36311DPPC   GL143434  23.877   0.991  19.962  0.5284  0.2133  0.0083
36311DPPC   GL243435  23.788   0.717  20.023 -0.0995  0.0323 -0.1659
36311DPPC   C1A43436  24.057   0.985  19.629  0.0314  0.2382  0.0704
36311DPPC   C2A43437  24.087   0.919  19.229  0.0925  0.0789 -0.0402
36311DPPC   C3A43438  24.028   0.971  18.784  0.0827 -0.0426  0.2221
36311DPPC   C4A43439  24.030   0.982  18.339 -0.0367 -0.0838  0.1353
36311DPPC   C1B43440  23.853   0.525  19.735  0.3467  0.1684  0.2644
36311DPPC   C2B43441  23.946   0.439  19.345  0.2875 -0.1222  0.0399
36311DPPC   C3B43442  23.886   0.451  18.836 -0.1921  0.0933 -0.0537
36311DPPC   C4B43443  23.939   0.473  18.335  0.1214 -0.1548  0.0285
36312DPPC   NC343444  21.048   2.604  20.369 -0.1041  0.2985  0.1357
36312DPPC   PO443445  20.680   2.807  20.362 -0.0028  0.0682 -0.0378
36312DPPC   GL143446  20.483   3.004  20.074 -0.0242  0.0703 -0.1084
36312DPPC   GL243447  20.364   2.789  19.911  0.0706  0.0555  0.1187
36312DPPC   C1A43448  20.635   3.172  19.763  0.1720 -0.0622 -0.1549
36312DPPC   C2A43449  20.678   3.314  19.385  0.0541  0.3963  0.0343
36312DPPC   C3A43450  20.742   3.328  18.899 -0.0757 -0.0642  0.1038
36312DPPC   C4A43451  20.673   3.319  18.427  0.0460 -0.0662  0.2707
36312DPPC   C1B43452  20.435   2.733  19.535 -0.1043  0.2447  0.2180
36312DPPC   C2B43453  20.479   2.796  19.148 -0.3850  0.0767  0.0052
36312DPPC   C3B43454  20.615   2.850  18.676  0.3725  0.1015 -0.1571
36312DPPC   C4B43455  20.613   2.755  18.210  0.0123 -0.0881 -0.0958
36313DPPC   NC343456  19.450   4.746  20.384 -0.0977 -0.0362  0.0497
36313DPPC   PO443457  19.500   4.322  20.263  0.0634  0.0425 -0.0264
36313DPPC   GL143458  19.324   4.476  19.959  0.0367  0.0488  0.0997
36313DPPC   GL243459  19.102   4.694  20.094 -0.2262 -0.0774 -0.0769
36313DPPC   C1A43460  19.282   4.462  19.602  0.3110 -0.1248 -0.0254
36313DPPC   C2A43461  19.293   4.351  19.205  0.2529 -0.1667  0.1878
36313DPPC   C3A43462  19.259   4.320  18.704  0.0695  0.2718  0.3456
36313DPPC   C4A43463  19.253   4.344  18.186 -0.1535 -0.0915 -0.0265
36313DPPC   C1B43464  18.946   4.723  19.730 -0.2450 -0.0068 -0.0410
36313DPPC   C2B43465  18.910   4.735  19.299 -0.2064  0.1776 -0.2055
36313DPPC   C3B43466  18.913   4.668  18.833  0.1637  0.1001  0.0937
36313DPPC   C4B43467  18.898   4.739  18.343  0.2235 -0.0410  0.0601
36314DPPC   NC343468  22.741   0.270  20.746  0.0824  0.0549  0.0280
36314DPPC   PO443469  22.664   0.647  20.567 -0.2853  0.1586 -0.2384
36314DPPC   GL143470  22.730   0.646  20.133  0.3981  0.1546  0.0539
36314DPPC   GL243471  22.533   0.425  20.107  0.1666  0.0582 -0.1295
36314DPPC   C1A43472  22.875   0.743  19.828  0.0062  0.1533  0.0493
36314DPPC   C2A43473  23.012   0.737  19.396 -0.1864 -0.0253 -0.1511
36314DPPC   C3A43474  23.086   0.763  18.911 -0.3166  0.1635  0.1320
36314DPPC   C4A43475  23.119   0.769  18.426 -0.2914 -0.0347  0.0613
36314DPPC   C1B43476  22.529   0.488  19.760 -0.1974  0.0336  0.1915
36314DPPC   C2B43477  22.566   0.579  19.366 -0.1842 -0.2505 -0.2558
36314DPPC   C3B43478  22.582   0.591  18.891 -0.0206  0.2529  0.0207
36314DPPC   C4B43479  22.525   0.645  18.426  0.0593 -0.1138 -0.1694
36315DPPC   NC343480  18.714   1.951  20.267 -0.0006  0.0818  0.2231
36315DPPC   PO443481  19.121   1.943  20.430  0.3269  0.1773  0.0991
36315DPPC   GL143482  19.316   2.006  20.093 -0.1663  0.3851  0.0203
36315DPPC   GL243483  19.131   2.248  19.934 -0.4929 -0.1806 -0.0776
36315DPPC   C1A43484  19.294   1.740  19.836 -0.1718 -0.0302  0.0460
36315DPPC   C2A43485  19.310   1.719  19.421 -0.0423 -0.3898  0.0250
36315DPPC   C3A43486  19.343   1.643  18.964 -0.2439  0.0266  0.0865
36315DPPC   C4A43487  19.384   1.683  18.492 -0.3480 -0.0151  0.0458
36315DPPC   C1B43488  19.048   2.171  19.615 -0.2150  0.1605 -0.1418
36315DPPC   C2B43489  18.949   2.067  19.221 -0.1234  0.1347 -0.0852
36315DPPC   C3B43490  18.958   1.968  18.778  0.0524 -0.4875  0.3060
36315DPPC   C4B43491  18.987   1.972  18.277  0.1305 -0.0086 -0.0949
36316DPPC   NC343492  19.971   1.777  20.655  0.3386 -0.3248 -0.1604
36316DPPC   PO443493  20.207   1.853  20.317  0.0354 -0.0151 -0.2427
36316DPPC   GL143494  20.021   1.834  19.922 -0.0659  0.3754 -0.3229
36316DPPC   GL243495  19.774   1.950  19.985  0.3428 -0.1277 -0.0050
36316DPPC   C1A43496  20.220   1.872  19.617  0.0007  0.1969 -0.1029
36316DPPC   C2A43497  20.276   1.843  19.201 -0.0410 -0.1755 -0.0290
36316DPPC   C3A43498  20.240   1.932  18.706  0.2061  0.0166 -0.0157
36316DPPC   C4A43499  20.307   1.919  18.209  0.3105  0.0946 -0.1232
36316DPPC   C1B43500  19.668   1.855  19.654 -0.3249  0.1461  0.0893
36316DPPC   C2B43501  19.786   1.826  19.257 -0.1782 -0.0699  0.0456
36316DPPC   C3B43502  19.744   1.855  18.775 -0.0659  0.3325  0.1062
36316DPPC   C4B43503  19.772   1.871  18.264 -0.0775 -0.2334 -0.0635
36317DPPC   NC343504   0.313   4.936  20.124  0.1853  0.0819  0.0432
36317DPPC   PO443505  -0.025   5.115  20.325 -0.0695  0.3183 -0.0964
36317DPPC   GL143506  -0.123   5.064  19.945 -0.1786 -0.2666 -0.1522
36317DPPC   GL243507  -0.003   4.816  19.838  0.2210 -0.1997  0.3454
36317DPPC   C1A43508  -0.296   5.207  19.706  0.2190 -0.1923 -0.1027
36317DPPC   C2A43509  -0.381   5.265  19.277 -0.0149  0.3375  0.2183
36317DPPC   C3A43510  -0.479   5.245  18.841  0.1943 -0.2499 -0.1097
36317DPPC   C4A43511  -0.453   5.310  18.330  0.1079  0.2485 -0.3981
36317DPPC   C1B43512  -0.082   4.895  19.455  0.2626 -0.1216 -0.2551
36317DPPC   C2B43513  -0.125   4.838  19.023 -0.2430 -0.1818 -0.2101
36317DPPC   C3B43514  -0.199   4.914  18.552 -0.0395  0.2631  0.1999
36317DPPC   C4B43515  -0.181   4.950  18.082  0.0044 -0.1306  0.1096
36318DPPC   NC343516  20.885   0.973  20.642 -0.1433  0.1376 -0.3229
36318DPPC   PO443517  21.106   0.658  20.703 -0.1913  0.0128 -0.1896
36318DPPC   GL143518  20.951   0.632  20.252 -0.1497  0.2155 -0.3602
36318DPPC   GL243519  21.234   0.634  20.200 -0.1874 -0.1753 -0.1932
36318DPPC   C1A43520  20.820   0.646  19.897  0.1274 -0.1022 -0.4494
36318DPPC   C2A43521  20.770   0.680  19.475 -0.2182 -0.3458 -0.0564
36318DPPC   C3A43522  20.762   0.716  19.014 -0.0069  0.0488  0.0470
36318DPPC   C4A43523  20.759   0.796  18.514 -0.0595  0.3700 -0.2177
36318DPPC   C1B43524  21.355   0.774  19.873 -0.4134  0.0243 -0.0882
36318DPPC   C2B43525  21.347   0.841  19.492  0.0860 -0.1656  0.1344
36318DPPC   C3B43526  21.293   0.792  18.973 -0.0206  0.0240 -0.2640
36318DPPC   C4B43527  21.319   0.768  18.492  0.0373 -0.2402 -0.0855
36319DPPC   NC343528   0.417   6.293  20.627 -0.1240 -0.2036 -0.1552
36319DPPC   PO443529   0.542   6.049  20.317 -0.1288 -0.1518 -0.0680
36319DPPC   GL143530   0.385   6.132  19.884 -0.2336 -0.3113  0.0498
36319DPPC   GL243531   0.428   5.791  19.867  0.2814  0.1078  0.1699
36319DPPC   C1A43532   0.478   6.184  19.538 -0.0126  0.0876 -0.2326
36319DPPC   C2A43533   0.454   6.299  19.168 -0.0920  0.0244  0.1819
36319DPPC   C3A43534   0.406   6.271  18.728 -0.0464  0.1102  0.2733
36319DPPC   C4A43535   0.425   6.319  18.232 -0.1751 -0.0607 -0.0816
36319DPPC   C1B43536   0.343   5.778  19.536  0.1462  0.0830  0.2674
36319DPPC   C2B43537   0.277   5.806  19.136  0.1041  0.0913  0.0011
36319DPPC   C3B43538   0.214   5.788  18.657  0.0659 -0.1065 -0.2734
36319DPPC   C4B43539   0.229   5.853  18.123  0.3908 -0.2618 -0.0574
36320DPPC   NC343540  22.122   1.737  20.779 -0.2170  0.3160  0.1234
36320DPPC   PO443541  22.345   1.519  20.515 -0.0079 -0.1872  0.2055
36320DPPC   GL143542  22.176   1.442  20.126  0.1339  0.1803 -0.1759
36320DPPC   GL243543  22.410   1.542  20.074 -0.0055  0.2457  0.1997
36320DPPC   C1A43544  22.034   1.433  19.798 -0.3562 -0.1910 -0.1540
36320DPPC   C2A43545  21.948   1.337  19.388 -0.0720 -0.2443  0.1578
36320DPPC   C3A43546  21.924   1.417  18.884 -0.0211  0.1330 -0.2018
36320DPPC   C4A43547  21.928   1.415  18.400  0.0460  0.1838 -0.4246
36320DPPC   C1B43548  22.501   1.598  19.667 -0.2480 -0.0209  0.3621
36320DPPC   C2B43549  22.421   1.521  19.270 -0.1984  0.1111  0.2418
36320DPPC   C3B43550  22.455   1.571  18.819 -0.0435  0.1725  0.0101
36320DPPC   C4B43551  22.452   1.473  18.351  0.1610 -0.0559 -0.1169
36321DPPC   NC343552  20.933   6.272  20.636  0.0292 -0.1906 -0.1830
36321DPPC   PO443553  20.774   6.126  20.278 -0.0222  0.3861  0.2311
36321DPPC   GL143554  20.814   6.357  19.878  0.0830  0.0423  0.1519
36321DPPC   GL243555  20.951   6.136  19.916 -0.2359 -0.0757  0.0846
36321DPPC   C1A43556  20.890   6.512  19.581  0.1164  0.0145  0.3610
36321DPPC   C2A43557  20.890   6.488  19.161  0.1247 -0.1313 -0.2427
36321DPPC   C3A43558  20.844   6.460  18.682  0.2364  0.0058  0.0475
36321DPPC   C4A43559  20.897   6.569  18.135 -0.1260  0.1340 -0.0301
36321DPPC   C1B43560  21.207   6.129  19.663 -0.0613  0.1248  0.1076
36321DPPC   C2B43561  21.221   6.166  19.248  0.1638  0.1911  0.0890
36321DPPC   C3B43562  21.216   6.107  18.763 -0.0260 -0.0751  0.1215
36321DPPC   C4B43563  21.149   6.160  18.292  0.0072 -0.1055 -0.0569
36322DPPC   NC343564  20.186   5.091  20.037  0.0441  0.0604 -0.3030
36322DPPC   PO443565  19.832   5.012  20.205 -0.1022 -0.0863 -0.2733
36322DPPC   GL143566  19.674   4.785  19.997  0.0579  0.1352 -0.0548
36322DPPC   GL243567  19.807   4.504  19.925  0.2205 -0.1638 -0.4399
36322DPPC   C1A43568  19.464   4.873  19.770  0.2208 -0.2139  0.1341
36322DPPC   C2A43569  19.510   4.833  19.366  0.1589 -0.1089 -0.1064
36322DPPC   C3A43570  19.460   4.819  18.959  0.0846 -0.0836  0.3157
36322DPPC   C4A43571  19.387   4.745  18.466  0.2449 -0.0113 -0.0929
36322DPPC   C1B43572  19.741   4.435  19.534  0.1202  0.1236  0.0849
36322DPPC   C2B43573  19.783   4.419  19.119  0.2018 -0.1628  0.0990
36322DPPC   C3B43574  19.741   4.385  18.642 -0.0735 -0.0632  0.1689
36322DPPC   C4B43575  19.799   4.408  18.164  0.1500 -0.1428  0.1437
36323DPPC   NC343576  25.996   2.136  20.097  0.1074  0.0468 -0.1319
36323DPPC   PO443577  26.394   2.035  20.129 -0.1718 -0.1962 -0.2010
36323DPPC   GL143578  26.545   2.145  19.703  0.1324  0.2252 -0.0551
36323DPPC   GL243579  26.217   2.301  19.705 -0.2901 -0.0189 -0.3108
36323DPPC   C1A43580  26.504   2.084  19.370  0.0931  0.2423  0.1107
36323DPPC   C2A43581  26.355   2.206  18.958  0.1163 -0.0136  0.2222
36323DPPC   C3A43582  26.317   2.257  18.498  0.0600  0.3483  0.0082
36323DPPC   C4A43583  26.312   2.277  17.966  0.1240  0.0421  0.0037
36323DPPC   C1B43584  26.121   2.457  19.411  0.2214 -0.2767  0.0294
36323DPPC   C2B43585  26.101   2.585  19.003  0.0667  0.1613 -0.0278
36323DPPC   C3B43586  25.997   2.648  18.559  0.1417  0.4136 -0.1456
36323DPPC   C4B43587  26.027   2.624  18.075  0.5324 -0.0755  0.1776
36324DPPC   NC343588  24.867   5.799  20.331  0.1905 -0.0226  0.2126
36324DPPC   PO443589  24.725   6.118  20.482  0.1631 -0.0952 -0.0846
36324DPPC   GL143590  24.566   6.102  20.123  0.0487  0.2931 -0.0526
36324DPPC   GL243591  24.408   6.330  20.134  0.4513 -0.0112 -0.0632
36324DPPC   C1A43592  24.646   6.237  19.758  0.2027 -0.0373  0.1086
36324DPPC   C2A43593  24.578   6.318  19.346 -0.0661  0.3098 -0.0833
36324DPPC   C3A43594  24.503   6.332  18.860  0.6426 -0.0980 -0.0649
36324DPPC   C4A43595  24.542   6.394  18.366 -0.3039  0.1206  0.0340
36324DPPC   C1B43596  24.294   6.456  19.811 -0.2023 -0.2493  0.2103
36324DPPC   C2B43597  24.281   6.665  19.502 -0.1885  0.0678  0.3118
36324DPPC   C3B43598  24.208   6.749  19.081  0.2230  0.1173  0.0431
36324DPPC   C4B43599  24.154   6.701  18.632  0.1351  0.3191  0.2468
36325DPPA   PO443600  26.149   6.049  20.140 -0.0825  0.1074  0.1823
36325DPPA   GL143601  26.301   6.361  19.875 -0.2348  0.0719 -0.1097
36325DPPA   GL243602  26.396   6.105  19.758 -0.2145  0.1415  0.0268
36325DPPA   C1A43603  26.213   6.506  19.612  0.2846 -0.0143 -0.0002
36325DPPA   C2A43604  26.133   6.514  19.212 -0.0401  0.1510 -0.0364
36325DPPA   C3A43605  26.045   6.614  18.701  0.0503  0.4086  0.0334
36325DPPA   C4A43606  26.043   6.645  18.182  0.1506  0.4108 -0.1287
36325DPPA   C1B43607  26.369   6.074  19.371  0.0561  0.6550 -0.2734
36325DPPA   C2B43608  26.369   6.124  18.961 -0.1335  0.0839  0.1510
36325DPPA   C3B43609  26.405   6.200  18.451 -0.0786  0.0372  0.0364
36325DPPA   C4B43610  26.369   6.205  17.989 -0.0526  0.1373  0.3073
36326DPPA   PO443611  23.716   1.645  20.498 -0.0493  0.0090 -0.2320
36326DPPA   GL143612  23.565   1.445  20.061  0.4894  0.1737  0.2843
36326DPPA   GL243613  23.603   1.645  19.956 -0.1102 -0.2773 -0.1238
36326DPPA   C1A43614  23.492   1.119  19.905 -0.0906 -0.4843  0.0361
36326DPPA   C2A43615  23.483   0.795  19.605 -0.1569  0.1977 -0.4604
36326DPPA   C3A43616  23.616   0.772  19.106  0.0008 -0.1706 -0.0394
36326DPPA   C4A43617  23.645   0.759  18.577  0.0604  0.1858  0.0503
36326DPPA   C1B43618  23.527   1.715  19.614 -0.0477 -0.1306 -0.3095
36326DPPA   C2B43619  23.462   1.719  19.172  0.0278 -0.0067 -0.3128
36326DPPA   C3B43620  23.401   1.714  18.687 -0.0871 -0.0404  0.1800
36326DPPA   C4B43621  23.338   1.714  18.222 -0.2387 -0.2110 -0.3579
36327DPPA   PO443622  25.485   5.418  20.078 -0.2595 -0.0049  0.1376
36327DPPA   GL143623  25.734   5.480  19.757  0.0247 -0.1437  0.2526
36327DPPA   GL243624  25.816   5.836  19.815 -0.5875  0.0952 -0.0775
36327DPPA   C1A43625  25.755   5.601  19.384 -0.0473  0.0849 -0.3669
36327DPPA   C2A43626  25.683   5.669  18.959 -0.0662  0.0471  0.0951
36327DPPA   C3A43627  25.648   5.676  18.455 -0.0684 -0.0072  0.0986
36327DPPA   C4A43628  25.674   5.698  18.035  0.1613 -0.0303  0.0318
36327DPPA   C1B43629  25.565   5.922  19.579  0.0602 -0.2012 -0.0878
36327DPPA   C2B43630  25.387   6.032  19.243 -0.0060  0.1052  0.0117
36327DPPA   C3B43631  25.350   5.991  18.777 -0.0410  0.0225 -0.1465
36327DPPA   C4B43632  25.374   6.058  18.318 -0.1646  0.6354  0.0951
36328DPPA   PO443633  25.870   0.216  15.836  0.0277 -0.1191 -0.0094
36328DPPA   GL143634  25.683   0.389  16.127  0.3229  0.0762 -0.0673
36328DPPA   GL243635  25.790   0.657  16.020  0.1129  0.1009 -0.0957
36328DPPA   C1A43636  25.648   0.328  16.526 -0.2022 -0.0073  0.0887
36328DPPA   C2A43637  25.630   0.345  16.934 -0.0460 -0.0932  0.2671
36328DPPA   C3A43638  25.641   0.308  17.402  0.1140  0.0819  0.2284
36328DPPA   C4A43639  25.676   0.370  17.884  0.0413 -0.1348 -0.0146
36328DPPA   C1B43640  25.790   0.806  16.385  0.1901  0.1465  0.0880
36328DPPA   C2B43641  25.752   0.801  16.786  0.0443  0.0718  0.0065
36328DPPA   C3B43642  25.818   0.765  17.266  0.2182 -0.1963 -0.1598
36328DPPA   C4B43643  25.863   0.814  17.743 -0.2318 -0.0409 -0.0224
36329DPPA   PO443644  22.485   6.010  20.523 -0.0589  0.0589 -0.1200
36329DPPA   GL143645  22.527   6.088  20.109  0.0307  0.0646  0.1473
36329DPPA   GL243646  22.190   5.927  20.091  0.1232 -0.0471 -0.2863
36329DPPA   C1A43647  22.559   5.996  19.760 -0.4024  0.1439  0.1214
36329DPPA   C2A43648  22.550   5.950  19.366 -0.3391  0.1181 -0.1866
36329DPPA   C3A43649  22.602   5.948  18.923 -0.0510 -0.2559 -0.0328
36329DPPA   C4A43650  22.548   5.909  18.468 -0.1575 -0.3368  0.3269
36329DPPA   C1B43651  22.116   5.900  19.723  0.0008 -0.3422 -0.2649
36329DPPA   C2B43652  22.050   5.900  19.337  0.2466 -0.2300 -0.1883
36329DPPA   C3B43653  22.000   5.877  18.908 -0.3022  0.2550  0.2653
36329DPPA   C4B43654  22.016   5.836  18.463  0.1366  0.3088  0.1176
36330DPPA   PO443655  24.519   3.486  20.320  0.0938 -0.3184  0.0015
36330DPPA   GL143656  24.666   3.598  19.810 -0.2732  0.0236 -0.2963
36330DPPA   GL243657  24.432   3.546  19.875  0.2243  0.3484 -0.2007
36330DPPA   C1A43658  24.878   3.423  19.530 -0.2305  0.2334 -0.1208
36330DPPA   C2A43659  24.961   3.273  19.174 -0.2841 -0.3032 -0.2686
36330DPPA   C3A43660  24.930   3.307  18.708 -0.1780  0.0020 -0.0226
36330DPPA   C4A43661  24.897   3.375  18.215  0.0743  0.1414  0.1830
36330DPPA   C1B43662  24.330   3.364  19.586 -0.0305 -0.1495  0.2200
36330DPPA   C2B43663  24.434   3.208  19.243  0.1266 -0.4600 -0.1312
36330DPPA   C3B43664  24.400   3.261  18.778  0.2187 -0.2381  0.0072
36330DPPA   C4B43665  24.334   3.235  18.296  0.2230 -0.0387 -0.0574
36331DPPA   PO443666  20.534   3.849  20.321  0.0124 -0.3394  0.0810
36331DPPA   GL143667  20.423   3.952  19.994  0.1280  0.0567  0.2277
36331DPPA   GL243668  20.593   4.140  19.946  0.1503 -0.1589  0.0578
36331DPPA   C1A43669  20.124   3.992  19.774  0.1369 -0.0031 -0.2097
36331DPPA   C2A43670  20.048   4.011  19.349  0.0397 -0.1441 -0.4750
36331DPPA   C3A43671  20.095   4.063  18.883 -0.2462 -0.0152  0.2121
36331DPPA   C4A43672  20.174   4.071  18.396  0.1707 -0.0978  0.0200
36331DPPA   C1B43673  20.485   4.241  19.581 -0.6008  0.2640 -0.1631
36331DPPA   C2B43674  20.513   4.225  19.185  0.1853  0.0111 -0.3298
36331DPPA   C3B43675  20.593   4.231  18.718 -0.1983  0.0401 -0.0991
36331DPPA   C4B43676  20.591   4.246  18.218 -0.2715 -0.1357 -0.2150
36332DPPA   PO443677  24.803   2.044  20.118 -0.0339 -0.1657  0.3209
36332DPPA   GL143678  24.808   1.858  19.761 -0.2273 -0.0317  0.0573
36332DPPA   GL243679  25.078   1.897  19.688  0.1897 -0.3451  0.0507
36332DPPA   C1A43680  24.527   1.932  19.528  0.0387  0.1492  0.3042
36332DPPA   C2A43681  24.407   1.891  19.155  0.1876  0.1567  0.0081
36332DPPA   C3A43682  24.274   1.818  18.704 -0.4397 -0.2011 -0.2787
36332DPPA   C4A43683  24.310   1.869  18.215  0.0603  0.3396  0.1299
36332DPPA   C1B43684  24.986   1.996  19.354 -0.2202  0.1006 -0.1513
36332DPPA   C2B43685  24.876   2.024  18.976 -0.0546  0.0498 -0.0402
36332DPPA   C3B43686  24.857   1.984  18.482  0.1141  0.0355  0.0851
36332DPPA   C4B43687  24.795   2.036  18.010 -0.1768  0.0421 -0.1198
36333DPPA   PO443688  25.996   3.949  20.464  0.0763 -0.0359 -0.3650
36333DPPA   GL143689  26.131   3.895  20.085 -0.0241  0.2132  0.0113
36333DPPA   GL243690  26.179   4.200  19.977  0.3120  0.0636  0.2960
36333DPPA   C1A43691  26.076   3.782  19.731  0.3705 -0.4219 -0.3929
36333DPPA   C2A43692  26.027   3.862  19.339  0.3066  0.1442  0.1280
36333DPPA   C3A43693  26.014   3.991  18.878 -0.0729  0.1807  0.0058
36333DPPA   C4A43694  26.021   3.997  18.368  0.0525  0.2423 -0.3008
36333DPPA   C1B43695  26.167   4.273  19.629 -0.1739  0.2912  0.0195
36333DPPA   C2B43696  26.258   4.373  19.242  0.1197  0.0869 -0.0126
36333DPPA   C3B43697  26.140   4.441  18.768 -0.0338  0.0492 -0.2269
36333DPPA   C4B43698  26.049   4.523  18.319  0.1767  0.2483  0.1686
36334DPPA   PO443699  21.501   2.383  20.387  0.2887  0.2176 -0.0054
36334DPPA   GL143700  21.430   2.586  20.039 -0.4638  0.1659 -0.4232
36334DPPA   GL243701  21.196   2.411  19.955 -0.2144 -0.0611 -0.1912
36334DPPA   C1A43702  21.685   2.606  19.713  0.1620  0.0366  0.2022
36334DPPA   C2A43703  21.863   2.697  19.345 -0.0388 -0.4466 -0.0810
36334DPPA   C3A43704  21.892   2.709  18.830 -0.1951  0.0897 -0.0427
36334DPPA   C4A43705  21.861   2.666  18.359  0.3059  0.1781 -0.0440
36334DPPA   C1B43706  21.222   2.551  19.646 -0.1419 -0.1965  0.0671
36334DPPA   C2B43707  21.382   2.578  19.253  0.0404  0.0565  0.0254
36334DPPA   C3B43708  21.394   2.530  18.701 -0.0500  0.0884 -0.0023
36334DPPA   C4B43709  21.378   2.544  18.214 -0.0612  0.1884 -0.0842
36335DPPA   PO443710  21.295   5.936  20.565  0.1807  0.0520  0.0475
36335DPPA   GL143711  21.228   5.823  20.121 -0.3939 -0.3200  0.1003
36335DPPA   GL243712  21.320   6.177  20.171 -0.1920 -0.3190  0.2583
36335DPPA   C1A43713  21.405   5.599  19.846  0.1461  0.1668 -0.1356
36335DPPA   C2A43714  21.520   5.738  19.453  0.1189  0.0910  0.0743
36335DPPA   C3A43715  21.481   5.779  18.991 -0.1935 -0.0441 -0.1537
36335DPPA   C4A43716  21.508   5.755  18.509 -0.1216  0.0192  0.1591
36335DPPA   C1B43717  21.265   6.514  19.921 -0.0247 -0.2825 -0.2141
36335DPPA   C2B43718  21.357   6.628  19.490  0.3060 -0.0824  0.2415
36335DPPA   C3B43719  21.406   6.593  18.969  0.3448  0.2123 -0.1434
36335DPPA   C4B43720  21.292   6.613  18.490 -0.0128 -0.0506 -0.2852
36336DPPA   PO443721  24.582   0.045  20.387  0.1813  0.1847 -0.0675
36336DPPA   GL143722  24.773  -0.050  20.040  0.0099  0.0067  0.1569
36336DPPA   GL243723  24.643   0.176  19.839  0.1970 -0.2154  0.0201
36336DPPA   C1A43724  25.045  -0.076  19.874 -0.0512 -0.0124  0.1733
36336DPPA   C2A43725  25.049  -0.168  19.489  0.2384  0.0137  0.0062
36336DPPA   C3A43726  25.035  -0.223  19.010  0.5353  0.1379  0.1428
36336DPPA   C4A43727  25.049  -0.174  18.501 -0.1662 -0.2775  0.4378
36336DPPA   C1B43728  24.857   0.257  19.516  0.3816 -0.0048 -0.3515
36336DPPA   C2B43729  24.746   0.192  19.145 -0.1641 -0.4382 -0.0269
36336DPPA   C3B43730  24.724   0.234  18.663 -0.2206 -0.1261 -0.1274
36336DPPA   C4B43731  24.750   0.227  18.177  0.1437 -0.3925 -0.1057
36337DPPA   PO443732  21.334   0.256  20.377  0.0783  0.0436  0.0839
36337DPPA   GL143733  21.543   0.287  19.984  0.1803 -0.2383 -0.0505
36337DPPA   GL243734  21.226   0.336  19.922 -0.0836 -0.1590  0.1832
36337DPPA   C1A43735  21.642   0.421  19.663 -0.1634 -0.0546 -0.1034
36337DPPA   C2A43736  21.573   0.404  19.225 -0.0159 -0.3589 -0.2555
36337DPPA   C3A43737  21.633   0.373  18.704 -0.0606  0.1374  0.2534
36337DPPA   C4A43738  21.598   0.337  18.203 -0.1229 -0.2515  0.0788
36337DPPA   C1B43739  20.993   0.326  19.634  0.1610 -0.3883  0.4303
36337DPPA   C2B43740  21.085   0.373  19.210 -0.0095 -0.1562  0.2796
36337DPPA   C3B43741  21.071   0.391  18.742 -0.2866  0.2599  0.0497
36337DPPA   C4B43742  21.053   0.426  18.265 -0.0625  0.0174 -0.0503
36338DPPA   PO443743  23.425   6.107  20.284 -0.0135 -0.0851 -0.2391
36338DPPA   GL143744  23.423   6.082  19.891 -0.1231  0.1211  0.2474
36338DPPA   GL243745  23.358   5.835  19.838  0.0950 -0.4831 -0.0666
36338DPPA   C1A43746  23.549   6.152  19.564  0.1763  0.3303  0.0929
36338DPPA   C2A43747  23.541   6.112  19.138 -0.0312  0.1900 -0.1064
36338DPPA   C3A43748  23.500   6.159  18.670  0.0364  0.3385 -0.3063
36338DPPA   C4A43749  23.472   6.161  18.198 -0.1329  0.0630 -0.2166
36338DPPA   C1B43750  23.425   5.682  19.506  0.1904 -0.0111  0.0753
36338DPPA   C2B43751  23.436   5.612  19.068 -0.0931 -0.0654 -0.1454
36338DPPA   C3B43752  23.410   5.674  18.633  0.0620 -0.1334 -0.3040
36338DPPA   C4B43753  23.296   5.646  18.135 -0.0375 -0.3349 -0.1824
36339DPPA   PO443754  21.058   1.417  20.528 -0.0709 -0.1073 -0.1066
36339DPPA   GL143755  21.019   1.514  20.114  0.0539 -0.0545 -0.0420
36339DPPA   GL243756  21.213   1.334  19.962  0.1412  0.0154 -0.4068
36339DPPA   C1A43757  20.853   1.692  19.794  0.2765  0.0687  0.1176
36339DPPA   C2A43758  20.624   1.585  19.473  0.1051 -0.2995 -0.5094
36339DPPA   C3A43759  20.665   1.499  19.010  0.4200 -0.1627 -0.3335
36339DPPA   C4A43760  20.594   1.536  18.515  0.1245 -0.1628 -0.0207
36339DPPA   C1B43761  20.957   1.185  19.696  0.1592 -0.3435  0.0470
36339DPPA   C2B43762  21.043   1.144  19.283  0.1203 -0.2295 -0.0328
36339DPPA   C3B43763  20.998   1.170  18.765 -0.0671  0.2141  0.0481
36339DPPA   C4B43764  20.960   1.140  18.278  0.1526  0.2491 -0.0348
36340DPPA   PO443765  21.517   5.468  20.460  0.1068 -0.3103 -0.1382
36340DPPA   GL143766  21.251   5.291  20.107  0.2629 -0.0842 -0.1161
36340DPPA   GL243767  21.580   5.274  20.087 -0.1027 -0.1372  0.1879
36340DPPA   C1A43768  21.026   5.198  19.770 -0.0043  0.3098  0.1829
36340DPPA   C2A43769  20.882   5.223  19.375 -0.0761 -0.0374  0.4641
36340DPPA   C3A43770  20.886   5.156  18.903  0.1325  0.1988 -0.1258
36340DPPA   C4A43771  20.841   5.099  18.404 -0.0004 -0.2648  0.0290
36340DPPA   C1B43772  21.492   5.166  19.774  0.0267 -0.3225 -0.0686
36340DPPA   C2B43773  21.388   5.255  19.412  0.1195 -0.0466 -0.0366
36340DPPA   C3B43774  21.374   5.273  18.952  0.3064  0.0374 -0.1356
36340DPPA   C4B43775  21.394   5.241  18.466 -0.2028 -0.5133 -0.4492
36341DPPA   PO443776  22.620   4.832  20.459 -0.2494 -0.0325 -0.0545
36341DPPA   GL143777  22.506   4.832  20.053 -0.2096  0.0515  0.6894
36341DPPA   GL243778  22.424   5.160  20.139 -0.2479 -0.2760  0.2709
36341DPPA   C1A43779  22.442   4.626  19.752  0.1605 -0.0225 -0.0985
36341DPPA   C2A43780  22.465   4.656  19.344 -0.2958 -0.1626  0.2626
36341DPPA   C3A43781  22.440   4.623  18.843 -0.1902 -0.0351  0.0869
36341DPPA   C4A43782  22.534   4.583  18.358 -0.1054 -0.1274 -0.0247
36341DPPA   C1B43783  22.309   5.162  19.770 -0.0984 -0.1524 -0.1964
36341DPPA   C2B43784  22.159   5.047  19.412  0.0216  0.0826 -0.4651
36341DPPA   C3B43785  22.088   4.971  18.992  0.0617  0.1299 -0.0812
36341DPPA   C4B43786  22.129   5.006  18.508 -0.1351 -0.0378  0.0071
36342DPPA   PO443787  21.026   3.218  20.335  0.2491 -0.2700  0.2244
36342DPPA   GL143788  20.981   3.505  20.049  0.2556  0.0970  0.1856
36342DPPA   GL243789  20.701   3.523  20.023 -0.0391 -0.3646 -0.0055
36342DPPA   C1A43790  21.057   3.469  19.627  0.0094 -0.0782 -0.0433
36342DPPA   C2A43791  21.134   3.412  19.238  0.2160 -0.0993 -0.2337
36342DPPA   C3A43792  21.237   3.434  18.731 -0.0197  0.0320  0.1485
36342DPPA   C4A43793  21.209   3.491  18.225  0.2604  0.1939  0.1767
36342DPPA   C1B43794  20.671   3.747  19.686 -0.1499 -0.0518  0.1442
36342DPPA   C2B43795  20.887   3.858  19.349 -0.1341  0.2496  0.3150
36342DPPA   C3B43796  20.890   3.800  18.852  0.3659 -0.1659 -0.1122
36342DPPA   C4B43797  20.875   3.788  18.410  0.0517  0.0463 -0.2495
36343DPPA   PO443798  19.999   1.292  20.566 -0.2630  0.1799  0.1600
36343DPPA   GL143799  20.064   1.057  20.255  0.1511  0.1402 -0.2065
36343DPPA   GL243800  20.061   1.396  20.192  0.0135  0.0504  0.1934
36343DPPA   C1A43801  19.881   0.990  19.925  0.1629  0.2723 -0.3576
36343DPPA   C2A43802  19.995   0.956  19.547  0.0238 -0.4600 -0.2216
36343DPPA   C3A43803  19.972   1.025  19.051 -0.1821 -0.1666 -0.1472
36343DPPA   C4A43804  19.995   0.995  18.510  0.3780 -0.0219 -0.3419
36343DPPA   C1B43805  20.122   1.446  19.821 -0.0414  0.0110  0.0121
36343DPPA   C2B43806  20.093   1.406  19.413 -0.0908 -0.0488 -0.1987
36343DPPA   C3B43807  20.140   1.443  18.904  0.1297  0.1533 -0.0948
36343DPPA   C4B43808  20.087   1.491  18.445 -0.0521 -0.1447 -0.3054
36344DPPA   PO443809  26.170   1.699  20.415 -0.0092 -0.0129  0.0406
36344DPPA   GL143810  26.047   1.732  19.893  0.1870 -0.2089 -0.0612
36344DPPA   GL243811  26.327   1.632  19.912 -0.3074 -0.2771 -0.2150
36344DPPA   C1A43812  25.962   1.882  19.565  0.1920  0.0646  0.0301
36344DPPA   C2A43813  25.851   2.092  19.250 -0.0299 -0.1217  0.1300
36344DPPA   C3A43814  25.813   2.189  18.761 -0.1352  0.0111  0.0341
36344DPPA   C4A43815  25.867   2.195  18.291 -0.4723 -0.1153  0.2314
36344DPPA   C1B43816  26.354   1.630  19.515  0.4263 -0.1272  0.0957
36344DPPA   C2B43817  26.192   1.789  19.143  0.1131  0.1437 -0.1043
36344DPPA   C3B43818  26.098   1.793  18.713 -0.0789  0.0385  0.4048
36344DPPA   C4B43819  26.149   1.813  18.163  0.1123  0.0241  0.1072
36345DPPA   PO443820  25.115   2.849  20.028 -0.0490  0.2128 -0.0280
36345DPPA   GL143821  25.035   2.974  19.602  0.0714  0.0701 -0.1700
36345DPPA   GL243822  25.293   2.903  19.548  0.0452 -0.1390  0.1556
36345DPPA   C1A43823  24.784   2.839  19.345 -0.4758 -0.4240 -0.1784
36345DPPA   C2A43824  24.678   2.858  18.971 -0.2216 -0.0774  0.2043
36345DPPA   C3A43825  24.686   2.908  18.480  0.1186 -0.1155  0.1696
36345DPPA   C4A43826  24.674   2.950  17.976  0.1111  0.0510 -0.0895
36345DPPA   C1B43827  25.337   2.916  19.228 -0.0392 -0.1030  0.2642
36345DPPA   C2B43828  25.242   2.945  18.843  0.1646  0.0141  0.2429
36345DPPA   C3B43829  25.222   2.973  18.335 -0.1501 -0.1353 -0.0639
36345DPPA   C4B43830  25.217   2.988  17.818 -0.0997 -0.0148 -0.1082
36346DPPA   PO443831  21.883   1.265  20.435  0.1369 -0.0811  0.1198
36346DPPA   GL143832  21.719   1.096  20.036 -0.0507 -0.0521  0.1172
36346DPPA   GL243833  21.690   1.368  19.955  0.3002  0.2886  0.3194
36346DPPA   C1A43834  21.822   0.978  19.736 -0.2027 -0.0634  0.3307
36346DPPA   C2A43835  21.845   0.842  19.376 -0.4012  0.0987 -0.0215
36346DPPA   C3A43836  21.804   0.793  18.909 -0.0282  0.1405  0.0819
36346DPPA   C4A43837  21.783   0.765  18.429  0.1444  0.2022 -0.2136
36346DPPA   C1B43838  21.555   1.263  19.577 -0.1192 -0.0577 -0.1953
36346DPPA   C2B43839  21.511   1.291  19.154  0.1334  0.0126 -0.2961
36346DPPA   C3B43840  21.528   1.286  18.672  0.1071 -0.2325  0.0034
36346DPPA   C4B43841  21.509   1.215  18.190 -0.0429 -0.2057  0.1953
36347DPPA   PO443842  22.848   3.429  20.641 -0.1788 -0.3304 -0.1297
36347DPPA   GL143843  22.941   3.539  20.189  0.2879 -0.1034  0.0922
36347DPPA   GL243844  22.969   3.307  20.172 -0.0907  0.2346  0.3493
36347DPPA   C1A43845  23.106   3.649  19.914 -0.0331 -0.0233 -0.1776
36347DPPA   C2A43846  23.246   3.769  19.535  0.0898 -0.2738  0.1803
36347DPPA   C3A43847  23.228   3.884  19.067  0.0944 -0.1450 -0.3598
36347DPPA   C4A43848  23.224   3.904  18.620 -0.0928  0.2384  0.0100
36347DPPA   C1B43849  23.000   3.214  19.843 -0.0577 -0.3029 -0.2283
36347DPPA   C2B43850  23.168   3.327  19.481 -0.0555  0.2575 -0.1605
36347DPPA   C3B43851  23.063   3.411  19.039  0.3151 -0.1928 -0.0568
36347DPPA   C4B43852  23.042   3.404  18.532  0.0729  0.0392  0.1129
36348DPPA   PO443853  24.211   5.108  20.158 -0.1125  0.0160 -0.0259
36348DPPA   GL143854  23.932   5.146  19.946 -0.0750 -0.0558  0.0840
36348DPPA   GL243855  23.964   5.402  20.006 -0.1722  0.0066  0.0393
36348DPPA   C1A43856  23.817   5.136  19.576  0.2241  0.1591  0.1706
36348DPPA   C2A43857  23.727   5.213  19.217 -0.0556 -0.1401  0.0536
36348DPPA   C3A43858  23.703   5.301  18.792 -0.0197 -0.0069 -0.4022
36348DPPA   C4A43859  23.706   5.363  18.330  0.1797  0.1116 -0.0665
36348DPPA   C1B43860  23.888   5.586  19.729 -0.0826 -0.0176 -0.0812
36348DPPA   C2B43861  23.861   5.707  19.369  0.0548 -0.2205 -0.1506
36348DPPA   C3B43862  23.933   5.739  18.860  0.0352  0.3674  0.0584
36348DPPA   C4B43863  23.931   5.816  18.384 -0.0160 -0.0368  0.1065
36349DPPA   PO443864  24.907   0.412  15.697  0.3035 -0.0780 -0.3272
36349DPPA   GL143865  25.095   0.790  15.882 -0.0751  0.0265 -0.2115
36349DPPA   GL243866  25.288   0.516  15.913  0.0201 -0.1733 -0.3273
36349DPPA   C1A43867  25.195   0.805  16.225  0.0420 -0.2054 -0.3120
36349DPPA   C2A43868  25.297   0.680  16.576  0.2147  0.2364 -0.1426
36349DPPA   C3A43869  25.361   0.743  17.075  0.2118  0.0749  0.3211
36349DPPA   C4A43870  25.372   0.717  17.539  0.0441  0.1293  0.0016
36349DPPA   C1B43871  25.224   0.364  16.247 -0.0464  0.0672 -0.0677
36349DPPA   C2B43872  25.213   0.220  16.674 -0.0251  0.2230  0.0094
36349DPPA   C3B43873  25.187   0.289  17.207  0.0645 -0.0488 -0.0081
36349DPPA   C4B43874  25.187   0.255  17.713 -0.2316  0.0236 -0.3890
36350DPPC   NC343875  23.992   1.618  15.497  0.0544 -0.1294 -0.0288
36350DPPC   PO443876  24.018   1.331  15.747 -0.0533 -0.0621 -0.2239
36350DPPC   GL143877  23.870   1.488  16.190  0.2031  0.1826  0.0167
36350DPPC   GL243878  23.777   1.238  16.245  0.4462  0.0760 -0.1074
36350DPPC   C1A43879  23.870   1.682  16.478 -0.2646 -0.1199 -0.1493
36350DPPC   C2A43880  23.874   1.754  16.885  0.1660  0.1751  0.1139
36350DPPC   C3A43881  23.838   1.749  17.364 -0.0186  0.0836  0.0526
36350DPPC   C4A43882  23.926   1.737  17.844  0.2244 -0.0053  0.1613
36350DPPC   C1B43883  23.711   1.155  16.568 -0.0727 -0.0581 -0.1720
36350DPPC   C2B43884  23.688   1.279  16.953  0.0128  0.3324 -0.0487
36350DPPC   C3B43885  23.650   1.281  17.445  0.0920  0.0109  0.0092
36350DPPC   C4B43886  23.714   1.294  17.958  0.0446  0.0110  0.1233
36351DPPC   NC343887  21.954   2.368  15.551  0.2435  0.0981 -0.1815
36351DPPC   PO443888  21.575   2.216  15.567 -0.1742 -0.1280  0.1408
36351DPPC   GL143889  21.396   2.481  15.849  0.2578  0.0481 -0.1525
36351DPPC   GL243890  21.664   2.653  15.867 -0.1690  0.0131 -0.2353
36351DPPC   C1A43891  21.331   2.555  16.206  0.1247 -0.0141  0.4139
36351DPPC   C2A43892  21.439   2.458  16.645 -0.3669  0.1611 -0.0109
36351DPPC   C3A43893  21.440   2.461  17.152  0.0369 -0.0149  0.3467
36351DPPC   C4A43894  21.413   2.461  17.636 -0.0868 -0.1637  0.3230
36351DPPC   C1B43895  21.760   2.809  16.205  0.0040  0.3649  0.1954
36351DPPC   C2B43896  21.674   2.995  16.569 -0.0576  0.0496  0.0971
36351DPPC   C3B43897  21.610   2.991  17.042 -0.0391 -0.0326  0.0730
36351DPPC   C4B43898  21.636   3.034  17.534  0.0460 -0.0978  0.0420
36352DPPC   NC343899  26.375   0.314  15.786 -0.0480  0.0994 -0.2063
36352DPPC   PO443900  26.788   0.361  15.776  0.2870 -0.2558 -0.1404
36352DPPC   GL143901  27.174   0.313  15.985 -0.1272  0.1063 -0.1170
36352DPPC   GL243902  27.168   0.628  15.892  0.0709  0.4778  0.0470
36352DPPC   C1A43903  27.433   0.361  16.239 -0.1724 -0.2760 -0.0248
36352DPPC   C2A43904  27.465   0.315  16.641 -0.1838  0.0571 -0.0767
36352DPPC   C3A43905  27.495   0.339  17.116  0.2503  0.1235 -0.0529
36352DPPC   C4A43906  27.481   0.274  17.632  0.1545  0.0571  0.0445
36352DPPC   C1B43907  27.162   0.754  16.213 -0.0392 -0.1602 -0.1356
36352DPPC   C2B43908  27.111   0.639  16.635 -0.2093 -0.0631 -0.1744
36352DPPC   C3B43909  27.080   0.666  17.094 -0.2321  0.1090  0.1798
36352DPPC   C4B43910  27.134   0.675  17.583 -0.3109 -0.1301  0.4207
36353DPPC   NC343911  22.794   1.638  15.763  0.0139  0.3965 -0.1617
36353DPPC   PO443912  22.648   1.345  15.588  0.0658 -0.4412 -0.1201
36353DPPC   GL143913  22.600   1.184  15.908 -0.2286  0.2445 -0.1190
36353DPPC   GL243914  22.273   1.110  15.917 -0.1902 -0.0714 -0.1891
36353DPPC   C1A43915  22.746   1.320  16.240 -0.2519  0.0419 -0.1250
36353DPPC   C2A43916  22.846   1.484  16.595  0.1775 -0.3577 -0.1789
36353DPPC   C3A43917  22.903   1.583  17.049  0.1422  0.3535  0.0465
36353DPPC   C4A43918  22.836   1.567  17.539  0.1154  0.0535 -0.2258
36353DPPC   C1B43919  22.280   0.990  16.255  0.0515 -0.0760  0.0272
36353DPPC   C2B43920  22.177   0.900  16.677  0.2126  0.3222  0.2965
36353DPPC   C3B43921  22.210   0.894  17.147 -0.0088 -0.1601  0.2866
36353DPPC   C4B43922  22.235   0.964  17.633  0.1027  0.1493 -0.1904
36354DPPC   NC343923  20.546   0.680  15.630  0.0187 -0.0892  0.0046
36354DPPC   PO443924  20.538   0.447  15.938  0.0278 -0.0296 -0.0908
36354DPPC   GL143925  20.541   0.148  16.186  0.1220 -0.0871  0.2791
36354DPPC   GL243926  20.468  -0.049  16.064 -0.1644  0.2809  0.1495
36354DPPC   C1A43927  20.533   0.181  16.576  0.0153  0.2837  0.0392
36354DPPC   C2A43928  20.519   0.142  16.970  0.0324 -0.0354 -0.0590
36354DPPC   C3A43929  20.521   0.169  17.408  0.2296 -0.2102  0.0005
36354DPPC   C4A43930  20.558   0.260  17.841 -0.0280  0.1189  0.0380
36354DPPC   C1B43931  20.339  -0.238  16.371  0.1278 -0.1974 -0.0977
36354DPPC   C2B43932  20.350  -0.291  16.778 -0.1991 -0.0197  0.2555
36354DPPC   C3B43933  20.324  -0.329  17.299  0.1991  0.0669  0.0915
36354DPPC   C4B43934  20.397  -0.259  17.794  0.0816  0.1186  0.2295
36355DPPC   NC343935  22.092   6.090  15.929 -0.1531 -0.0059 -0.2549
36355DPPC   PO443936  21.802   5.816  15.924 -0.1667  0.1322 -0.2445
36355DPPC   GL143937  21.540   5.635  16.258 -0.0332  0.2014 -0.1258
36355DPPC   GL243938  21.501   5.861  16.252 -0.0652  0.0046 -0.1160
36355DPPC   C1A43939  21.526   5.611  16.647  0.1292 -0.1752 -0.0677
36355DPPC   C2A43940  21.505   5.708  17.073 -0.0993  0.0601 -0.0406
36355DPPC   C3A43941  21.491   5.711  17.549  0.1950  0.2926  0.0196
36355DPPC   C4A43942  21.398   5.687  18.042 -0.0384 -0.3263  0.1557
36355DPPC   C1B43943  21.442   6.051  16.513 -0.2231 -0.3123  0.1266
36355DPPC   C2B43944  21.678   6.155  16.827  0.2201 -0.1362 -0.1646
36355DPPC   C3B43945  21.767   6.182  17.282 -0.1228  0.0301  0.0209
36355DPPC   C4B43946  21.692   6.161  17.733 -0.0556 -0.0596 -0.0502
36356DPPC   NC343947   0.771   3.431  15.499  0.2931 -0.1250  0.0877
36356DPPC   PO443948   0.565   3.744  15.503  0.0911 -0.1865  0.0401
36356DPPC   GL143949   0.442   3.847  15.877 -0.5219 -0.1680 -0.3968
36356DPPC   GL243950   0.172   3.996  15.850 -0.1371 -0.1069  0.2779
36356DPPC   C1A43951   0.636   3.760  16.179  0.0955  0.0369  0.0530
36356DPPC   C2A43952   0.845   3.816  16.505 -0.0953 -0.0736 -0.1829
36356DPPC   C3A43953   0.805   3.740  16.924 -0.2466  0.1539 -0.3057
36356DPPC   C4A43954   0.890   3.715  17.445 -0.0392 -0.1522  0.1803
36356DPPC   C1B43955   0.037   4.032  16.187 -0.1883  0.1198 -0.0642
36356DPPC   C2B43956  -0.023   4.008  16.581 -0.2659  0.2220 -0.0162
36356DPPC   C3B43957   0.004   4.077  17.078 -0.0951 -0.1537  0.0640
36356DPPC   C4B43958   0.087   4.093  17.582 -0.0930 -0.0279 -0.2733
36357DPPC   NC343959  22.874   0.868  15.631  0.2804 -0.1667 -0.1863
36357DPPC   PO443960  22.499   0.842  15.555 -0.0140  0.2185  0.2318
36357DPPC   GL143961  22.462   0.731  15.946 -0.0449  0.0633 -0.0076
36357DPPC   GL243962  22.206   0.676  16.007  0.1082 -0.0300  0.0708
36357DPPC   C1A43963  22.705   0.852  16.216  0.1739 -0.1046  0.1444
36357DPPC   C2A43964  22.702   0.942  16.639 -0.0812  0.1810 -0.0470
36357DPPC   C3A43965  22.733   1.010  17.107  0.1290 -0.2058 -0.0574
36357DPPC   C4A43966  22.725   1.032  17.620 -0.1054 -0.3508  0.0207
36357DPPC   C1B43967  22.149   0.596  16.322  0.0102 -0.0791 -0.1960
36357DPPC   C2B43968  22.019   0.426  16.671 -0.1867  0.1757 -0.0862
36357DPPC   C3B43969  22.045   0.426  17.184 -0.2039  0.0155  0.0638
36357DPPC   C4B43970  22.120   0.482  17.688 -0.0624 -0.2124  0.2766
36358DPPC   NC343971  26.156   1.860  15.897 -0.0207  0.0795 -0.0352
36358DPPC   PO443972  26.219   2.203  15.714  0.0412  0.3967  0.1474
36358DPPC   GL143973  26.201   2.559  15.960 -0.1842  0.0014 -0.1165
36358DPPC   GL243974  26.453   2.613  15.991  0.2998 -0.2901 -0.3489
36358DPPC   C1A43975  25.988   2.679  16.176  0.1198 -0.0161 -0.1137
36358DPPC   C2A43976  25.919   2.620  16.572 -0.0239  0.2565  0.0294
36358DPPC   C3A43977  25.944   2.614  17.040  0.2289 -0.2196 -0.0419
36358DPPC   C4A43978  26.001   2.628  17.531  0.0243 -0.0591  0.0337
36358DPPC   C1B43979  26.382   2.775  16.318 -0.0198  0.2198 -0.1552
36358DPPC   C2B43980  26.411   2.643  16.744 -0.2342 -0.0471  0.0310
36358DPPC   C3B43981  26.457   2.672  17.199 -0.0667 -0.1399 -0.2314
36358DPPC   C4B43982  26.456   2.673  17.679 -0.2548  0.0455  0.2562
36359DPPC   NC343983  25.554   1.715  15.511 -0.0442  0.0192 -0.2513
36359DPPC   PO443984  25.838   1.507  15.680 -0.1266  0.2542 -0.1023
36359DPPC   GL143985  26.191   1.420  16.018 -0.0235  0.4103 -0.1585
36359DPPC   GL243986  25.915   1.313  16.165  0.1722  0.1299 -0.0671
36359DPPC   C1A43987  26.121   1.677  16.334 -0.2391  0.3338 -0.3295
36359DPPC   C2A43988  26.100   1.783  16.743 -0.0770 -0.0482  0.3350
36359DPPC   C3A43989  26.102   1.771  17.134  0.0707  0.1413  0.2525
36359DPPC   C4A43990  26.166   1.790  17.653  0.1945 -0.3292 -0.0340
36359DPPC   C1B43991  25.892   1.286  16.511 -0.0862  0.0880 -0.1097
36359DPPC   C2B43992  25.931   1.274  16.932 -0.0034 -0.1673  0.0264
36359DPPC   C3B43993  26.010   1.332  17.445 -0.0740 -0.0151  0.1273
36359DPPC   C4B43994  26.021   1.355  17.965 -0.3400  0.0801  0.1033
36360DPPC   NC343995  24.126   5.264  15.701  0.2175 -0.1664  0.2099
36360DPPC   PO443996  24.463   5.474  15.660  0.0098  0.0497 -0.0172
36360DPPC   GL143997  24.543   5.777  15.984  0.3686  0.3295 -0.1891
36360DPPC   GL243998  24.704   5.551  16.122 -0.0229  0.3585  0.0157
36360DPPC   C1A43999  24.394   5.760  16.339 -0.2056  0.4722  0.0271
36360DPPC   C2A44000  24.232   5.763  16.709  0.0455  0.0041  0.0926
36360DPPC   C3A44001  24.374   5.834  17.156  0.1191  0.2837 -0.2579
36360DPPC   C4A44002  24.379   5.869  17.652  0.0327  0.1760  0.0567
36360DPPC   C1B44003  24.669   5.513  16.491  0.3648 -0.0216 -0.0768
36360DPPC   C2B44004  24.634   5.478  16.937  0.1278  0.0935  0.0277
36360DPPC   C3B44005  24.643   5.387  17.368 -0.0459  0.1641 -0.1042
36360DPPC   C4B44006  24.610   5.447  17.806  0.1793 -0.3312  0.0764
36361DPPC   NC344007  23.582   0.551  15.799  0.2208 -0.0686  0.1519
36361DPPC   PO444008  23.937   0.462  15.841 -0.1237  0.0672 -0.1007
36361DPPC   GL144009  24.072   0.374  16.162  0.1424 -0.1878 -0.2264
36361DPPC   GL244010  24.345   0.491  16.174  0.1651 -0.5585  0.4643
36361DPPC   C1A44011  23.850   0.342  16.447  0.4258 -0.0872 -0.1149
36361DPPC   C2A44012  23.822   0.439  16.849 -0.0055  0.1959  0.2110
36361DPPC   C3A44013  23.869   0.421  17.280  0.1279 -0.0569  0.1617
36361DPPC   C4A44014  23.836   0.413  17.813 -0.0167  0.1126  0.5306
36361DPPC   C1B44015  24.298   0.518  16.546  0.2763 -0.1024  0.0638
36361DPPC   C2B44016  24.328   0.484  16.951  0.1614 -0.0745  0.1261
36361DPPC   C3B44017  24.340   0.517  17.383  0.1261 -0.0612  0.2654
36361DPPC   C4B44018  24.331   0.522  17.845 -0.0539 -0.0666 -0.0431
36362DPPC   NC344019  23.142   4.746  15.746 -0.0214 -0.0005  0.0346
36362DPPC   PO444020  22.839   4.994  15.714  0.0570 -0.1899  0.2036
36362DPPC   GL144021  22.744   5.352  16.050 -0.2541 -0.2391 -0.2943
36362DPPC   GL244022  22.923   5.151  16.195  0.0683 -0.3389 -0.2482
36362DPPC   C1A44023  22.821   5.552  16.348  0.2767 -0.0339 -0.3791
36362DPPC   C2A44024  22.823   5.505  16.797  0.0379 -0.0932  0.0384
36362DPPC   C3A44025  22.886   5.485  17.200 -0.1429  0.0121  0.2764
36362DPPC   C4A44026  22.894   5.572  17.689 -0.0453 -0.0456 -0.1469
36362DPPC   C1B44027  23.097   5.175  16.562  0.0248 -0.4288  0.3212
36362DPPC   C2B44028  23.173   5.140  16.955 -0.2270  0.2004 -0.1238
36362DPPC   C3B44029  23.244   5.180  17.475  0.0528  0.0887  0.0761
36362DPPC   C4B44030  23.149   5.260  17.941  0.0590 -0.0588 -0.2144
36363DPPC   NC344031  22.840   3.937  15.913  0.2534 -0.1594 -0.0195
36363DPPC   PO444032  23.019   3.577  15.935  0.0985  0.0098 -0.0183
36363DPPC   GL144033  23.110   3.489  16.357  0.1053 -0.3915  0.2486
36363DPPC   GL244034  23.181   3.844  16.371 -0.1363  0.1151 -0.0026
36363DPPC   C1A44035  22.987   3.354  16.677 -0.2183 -0.0276 -0.0661
36363DPPC   C2A44036  23.050   3.381  17.082 -0.0203  0.0420  0.3141
36363DPPC   C3A44037  23.037   3.371  17.546  0.0614 -0.2767  0.4815
36363DPPC   C4A44038  22.987   3.481  18.057 -0.1851  0.1542  0.1438
36363DPPC   C1B44039  23.160   3.903  16.753  0.2298 -0.4007 -0.2299
36363DPPC   C2B44040  23.160   3.906  17.153  0.3771 -0.2497  0.1254
36363DPPC   C3B44041  23.159   3.830  17.671  0.0205 -0.0243  0.1328
36363DPPC   C4B44042  23.200   3.923  18.122  0.1720 -0.2407  0.0068
36364DPPC   NC344043  23.398   6.242  15.832 -0.0721 -0.0572 -0.0913
36364DPPC   PO444044  23.653   5.931  15.890  0.2353 -0.0198  0.2367
36364DPPC   GL144045  23.710   5.694  16.121  0.1133  0.2076 -0.1710
36364DPPC   GL244046  23.692   5.390  16.088  0.0966 -0.1899 -0.0185
36364DPPC   C1A44047  23.724   5.699  16.489  0.3689  0.4813  0.0535
36364DPPC   C2A44048  23.782   5.719  16.915 -0.0594 -0.0903  0.0536
36364DPPC   C3A44049  23.853   5.755  17.405  0.0401  0.1561  0.1674
36364DPPC   C4A44050  23.925   5.757  17.872 -0.1581  0.1262  0.5399
36364DPPC   C1B44051  23.552   5.259  16.397  0.0422  0.2576 -0.2715
36364DPPC   C2B44052  23.675   5.233  16.778 -0.1779 -0.1981  0.1482
36364DPPC   C3B44053  23.682   5.225  17.288 -0.1004 -0.0103 -0.2001
36364DPPC   C4B44054  23.692   5.295  17.734 -0.2936  0.1363 -0.2464
36365DPPC   NC344055  26.148   4.824  15.122 -0.2761 -0.0476 -0.3111
36365DPPC   PO444056  26.002   4.656  15.446  0.2658  0.1197 -0.0770
36365DPPC   GL144057  25.926   4.607  15.857  0.0512  0.2745  0.3588
36365DPPC   GL244058  25.650   4.627  15.804  0.3441 -0.2574  0.2557
36365DPPC   C1A44059  26.028   4.773  16.170 -0.1310 -0.0996  0.1980
36365DPPC   C2A44060  26.233   4.922  16.521  0.0014 -0.0177  0.4511
36365DPPC   C3A44061  26.188   4.953  17.070  0.0765  0.1939  0.1090
36365DPPC   C4A44062  26.319   4.964  17.575  0.0443  0.1601  0.5204
36365DPPC   C1B44063  25.612   4.680  16.208 -0.0773  0.2104  0.2806
36365DPPC   C2B44064  25.675   4.839  16.522 -0.0987 -0.2717 -0.4359
36365DPPC   C3B44065  25.710   4.835  16.958  0.3204 -0.1623 -0.0594
36365DPPC   C4B44066  25.700   4.851  17.487 -0.3278  0.0460  0.1192
36366DPPC   NC344067  22.236   3.769  15.469  0.3889 -0.0893  0.2282
36366DPPC   PO444068  21.968   3.957  15.608 -0.0402  0.0525  0.6255
36366DPPC   GL144069  21.711   4.087  15.989 -0.2392  0.2142  0.1309
36366DPPC   GL244070  21.932   4.013  16.071  0.1296 -0.1559  0.0537
36366DPPC   C1A44071  21.453   3.964  16.236  0.1149  0.0275 -0.2404
36366DPPC   C2A44072  21.347   3.882  16.637  0.0966 -0.1285 -0.4160
36366DPPC   C3A44073  21.373   3.844  17.135 -0.1772  0.3328  0.0843
36366DPPC   C4A44074  21.403   3.934  17.621  0.1608 -0.1477 -0.1783
36366DPPC   C1B44075  21.887   3.979  16.393  0.2597  0.0936 -0.4277
36366DPPC   C2B44076  21.836   3.916  16.797 -0.1022 -0.0517 -0.1922
36366DPPC   C3B44077  21.866   3.990  17.281 -0.1205  0.2974  0.1073
36366DPPC   C4B44078  21.891   4.059  17.752 -0.0879 -0.1863 -0.0192
36367DPPC   NC344079  22.124   0.387  15.642 -0.0549 -0.0150  0.3766
36367DPPC   PO444080  22.225   0.126  15.939  0.0999  0.2537  0.1134
36367DPPC   GL144081  22.149   0.121  16.285  0.3060  0.2669 -0.1022
36367DPPC   GL244082  21.946  -0.072  16.281  0.0092  0.2879  0.1160
36367DPPC   C1A44083  22.368   0.114  16.557 -0.1593 -0.0368 -0.2129
36367DPPC   C2A44084  22.367   0.086  16.920 -0.0468 -0.0044 -0.0088
36367DPPC   C3A44085  22.400   0.103  17.434 -0.0805  0.2468  0.0615
36367DPPC   C4A44086  22.451   0.140  17.938 -0.3934  0.1257 -0.1510
36367DPPC   C1B44087  21.895   0.019  16.634 -0.1918  0.0272  0.0580
36367DPPC   C2B44088  21.839   0.004  17.051 -0.0245 -0.0255  0.2405
36367DPPC   C3B44089  21.870   0.007  17.496 -0.0512 -0.1327 -0.1293
36367DPPC   C4B44090  21.924  -0.019  17.998  0.2766  0.2905 -0.0998
36368DPPC   NC344091  23.905   4.369  15.330  0.3202  0.0042 -0.0536
36368DPPC   PO444092  23.561   4.536  15.476 -0.0023 -0.2180  0.2288
36368DPPC   GL144093  23.518   4.570  15.922  0.1960  0.4616  0.1076
36368DPPC   GL244094  23.790   4.482  15.972 -0.2180  0.4126  0.2644
36368DPPC   C1A44095  23.454   4.764  16.213 -0.1009  0.2215 -0.5354
36368DPPC   C2A44096  23.394   4.854  16.614 -0.2190  0.2430 -0.2833
36368DPPC   C3A44097  23.503   4.802  17.108 -0.2438  0.1967  0.1663
36368DPPC   C4A44098  23.567   4.802  17.570 -0.2776  0.1684 -0.1574
36368DPPC   C1B44099  23.839   4.519  16.309 -0.0098  0.1425 -0.0852
36368DPPC   C2B44100  23.758   4.546  16.728 -0.2051  0.1525 -0.0286
36368DPPC   C3B44101  23.817   4.428  17.184 -0.0779  0.0278  0.3036
36368DPPC   C4B44102  23.833   4.381  17.623  0.1617  0.1983 -0.0217
36369DPPC   NC344103  25.452   6.120  15.973  0.0006 -0.0831  0.0797
36369DPPC   PO444104  25.482   6.505  15.916  0.1299 -0.0515  0.0578
36369DPPC   GL144105  25.383   6.500  16.266  0.0635  0.0714 -0.1447
36369DPPC   GL244106  25.142   6.353  16.276  0.1508  0.1795  0.1637
36369DPPC   C1A44107  25.481   6.424  16.620  0.0059  0.0495 -0.1269
36369DPPC   C2A44108  25.440   6.435  17.048 -0.0829 -0.0306  0.0826
36369DPPC   C3A44109  25.455   6.479  17.544  0.2761  0.0084 -0.0273
36369DPPC   C4A44110  25.517   6.522  18.014  0.0238  0.1799 -0.0182
36369DPPC   C1B44111  24.983   6.382  16.615 -0.1969 -0.0346 -0.0081
36369DPPC   C2B44112  24.951   6.403  17.018 -0.0442  0.0709 -0.4130
36369DPPC   C3B44113  24.972   6.419  17.478 -0.1404 -0.1641 -0.1148
36369DPPC   C4B44114  25.051   6.444  17.958 -0.0517  0.1409 -0.0646
36370DPPC   NC344115  20.055   4.566  15.548  0.1274  0.0432  0.3266
36370DPPC   PO444116  20.422   4.681  15.435  0.2355  0.1768  0.0284
36370DPPC   GL144117  20.619   4.717  15.806  0.3000  0.1552 -0.1615
36370DPPC   GL244118  20.292   4.721  15.901 -0.2965 -0.2446  0.1156
36370DPPC   C1A44119  20.705   4.575  16.197  0.0050  0.3933 -0.0122
36370DPPC   C2A44120  20.684   4.584  16.627  0.0922  0.1925  0.1079
36370DPPC   C3A44121  20.709   4.592  17.149  0.0267 -0.0495  0.1989
36370DPPC   C4A44122  20.757   4.591  17.597  0.0117  0.0226  0.1307
36370DPPC   C1B44123  20.296   4.867  16.258  0.2411 -0.1483  0.1202
36370DPPC   C2B44124  20.325   5.016  16.638  0.1844 -0.0338  0.2963
36370DPPC   C3B44125  20.383   5.029  17.130 -0.0725  0.1864 -0.1009
36370DPPC   C4B44126  20.460   5.049  17.665  0.1716  0.1091 -0.0687
36371DPPC   NC344127  22.084   5.523  15.654 -0.3987  0.2581  0.2303
36371DPPC   PO444128  22.345   5.675  15.913  0.0706  0.2363  0.0269
36371DPPC   GL144129  22.293   5.882  16.270 -0.1799  0.2717 -0.1839
36371DPPC   GL244130  22.067   5.704  16.299 -0.0187 -0.1580 -0.3890
36371DPPC   C1A44131  22.452   5.841  16.608  0.1078 -0.1795  0.3058
36371DPPC   C2A44132  22.530   5.881  16.977  0.2013  0.1775 -0.0207
36371DPPC   C3A44133  22.563   5.867  17.463  0.4021  0.1493 -0.0769
36371DPPC   C4A44134  22.622   5.889  17.977 -0.0167  0.3002 -0.1010
36371DPPC   C1B44135  22.013   5.789  16.642 -0.1731 -0.2196  0.0743
36371DPPC   C2B44136  22.046   5.808  17.044  0.0478  0.2193  0.1371
36371DPPC   C3B44137  22.016   5.793  17.530 -0.3425  0.0412  0.0122
36371DPPC   C4B44138  21.970   5.877  17.987 -0.0487 -0.1458  0.0109
36372DPPC   NC344139  23.656   5.425  15.623 -0.2136 -0.1126  0.0575
36372DPPC   PO444140  23.572   5.042  15.741  0.0772  0.0510  0.0243
36372DPPC   GL144141  23.900   4.998  16.134  0.1316  0.0893 -0.0384
36372DPPC   GL244142  24.092   4.791  15.983 -0.0551  0.3504 -0.1167
36372DPPC   C1A44143  23.872   4.921  16.502  0.1121 -0.1851  0.1138
36372DPPC   C2A44144  24.004   4.905  16.893 -0.1791 -0.0951 -0.0575
36372DPPC   C3A44145  24.052   4.851  17.358  0.5378  0.2378  0.2320
36372DPPC   C4A44146  24.007   4.955  17.841  0.2576 -0.1038 -0.2404
36372DPPC   C1B44147  24.225   4.665  16.316 -0.1124 -0.0332  0.0138
36372DPPC   C2B44148  24.258   4.471  16.669 -0.0294  0.1094  0.0777
36372DPPC   C3B44149  24.286   4.462  17.146 -0.2598  0.0382 -0.0999
36372DPPC   C4B44150  24.300   4.425  17.640  0.1055  0.1796 -0.3310
36373DPPC   NC344151  21.698   4.656  15.805  0.0398  0.2843  0.0499
36373DPPC   PO444152  21.991   4.422  15.828  0.1658 -0.0450  0.1726
36373DPPC   GL144153  22.175   4.377  16.181  0.0623  0.3290 -0.0416
36373DPPC   GL244154  21.955   4.433  16.339  0.1383  0.1562 -0.4173
36373DPPC   C1A44155  22.418   4.469  16.432 -0.0049 -0.1651 -0.3175
36373DPPC   C2A44156  22.470   4.561  16.826  0.1313  0.0622 -0.0808
36373DPPC   C3A44157  22.475   4.631  17.279  0.0304  0.4137 -0.0820
36373DPPC   C4A44158  22.583   4.657  17.813  0.0269 -0.0804  0.0158
36373DPPC   C1B44159  21.972   4.449  16.731 -0.0845  0.1457 -0.2109
36373DPPC   C2B44160  22.025   4.457  17.147  0.0499 -0.0797  0.0110
36373DPPC   C3B44161  22.136   4.509  17.632 -0.2774  0.1670 -0.0901
36373DPPC   C4B44162  22.048   4.489  18.107  0.1490  0.1344  0.1727
36374DPPC   NC344163  21.527   3.662  15.857 -0.1144  0.3278  0.0630
36374DPPC   PO444164  21.207   3.938  15.763 -0.1986 -0.1942  0.2887
36374DPPC   GL144165  21.056   4.203  16.133  0.3114 -0.1812  0.0969
36374DPPC   GL244166  20.799   4.234  15.988 -0.2981  0.1477  0.0089
36374DPPC   C1A44167  21.087   4.231  16.455 -0.6504  0.3138  0.0713
36374DPPC   C2A44168  21.066   4.289  16.871  0.1847  0.1858  0.0166
36374DPPC   C3A44169  21.086   4.300  17.318  0.1179  0.1416 -0.0138
36374DPPC   C4A44170  21.070   4.258  17.811 -0.0845  0.0575  0.0587
36374DPPC   C1B44171  20.630   4.133  16.293 -0.1829 -0.0441 -0.3169
36374DPPC   C2B44172  20.584   4.072  16.698  0.4087 -0.2432  0.0666
36374DPPC   C3B44173  20.582   4.103  17.235 -0.2711 -0.1883 -0.1080
36374DPPC   C4B44174  20.565   4.114  17.702  0.2444 -0.0620  0.3557
36375DPPC   NC344175  21.157   2.876  15.737  0.0868  0.0785 -0.2305
36375DPPC   PO444176  20.872   3.105  15.884 -0.1231 -0.2481  0.0606
36375DPPC   GL144177  20.773   3.302  16.176 -0.0404 -0.5433 -0.0837
36375DPPC   GL244178  20.536   3.342  16.097  0.3301 -0.1154  0.1572
36375DPPC   C1A44179  20.872   3.330  16.531  0.0153  0.0173 -0.0433
36375DPPC   C2A44180  20.796   3.272  16.955 -0.1061  0.0335 -0.0029
36375DPPC   C3A44181  20.788   3.263  17.430  0.0881 -0.1625 -0.1166
36375DPPC   C4A44182  20.829   3.242  17.945  0.3355 -0.0360  0.0971
36375DPPC   C1B44183  20.461   3.513  16.376  0.1233 -0.2325 -0.0724
36375DPPC   C2B44184  20.444   3.564  16.760  0.3255 -0.0955  0.0269
36375DPPC   C3B44185  20.384   3.630  17.183  0.0686 -0.0464  0.2898
36375DPPC   C4B44186  20.380   3.678  17.653  0.1951  0.2955 -0.2763
36376DPPC   NC344187  22.717   3.150  15.795 -0.1802 -0.1353 -0.0660
36376DPPC   PO444188  22.658   2.772  15.731  0.2189 -0.1040  0.3444
36376DPPC   GL144189  22.720   2.737  16.173 -0.0492 -0.1479 -0.2042
36376DPPC   GL244190  22.462   2.911  16.162  0.2308  0.0428  0.1558
36376DPPC   C1A44191  22.837   2.765  16.520  0.1073  0.4005  0.0247
36376DPPC   C2A44192  22.929   2.897  16.895 -0.4505  0.0984 -0.1405
36376DPPC   C3A44193  22.883   2.890  17.363  0.0049 -0.1804 -0.2159
36376DPPC   C4A44194  22.901   2.954  17.882  0.1390  0.1991 -0.5139
36376DPPC   C1B44195  22.264   3.007  16.419 -0.0873 -0.2185 -0.0131
36376DPPC   C2B44196  22.067   3.105  16.796  0.0600 -0.0834 -0.0022
36376DPPC   C3B44197  22.069   3.118  17.254 -0.3762 -0.2330 -0.0689
36376DPPC   C4B44198  22.070   3.135  17.754 -0.2454 -0.1005 -0.0615
36377DPPC   NC344199  19.969   5.244  15.256  0.1310 -0.1652  0.1869
36377DPPC   PO444200  20.113   5.068  15.603  0.0940 -0.1770 -0.1706
36377DPPC   GL144201  19.975   5.088  15.964  0.1355 -0.1752  0.1429
36377DPPC   GL244202  19.731   5.018  16.022 -0.2145  0.2363 -0.4689
36377DPPC   C1A44203  20.147   5.239  16.243 -0.1366 -0.1363  0.1040
36377DPPC   C2A44204  20.402   5.472  16.436 -0.0284 -0.1046 -0.1135
36377DPPC   C3A44205  20.458   5.470  16.900  0.1563  0.1482 -0.0074
36377DPPC   C4A44206  20.521   5.526  17.425 -0.0723 -0.3069  0.0448
36377DPPC   C1B44207  19.580   5.113  16.387 -0.0621  0.1430 -0.3104
36377DPPC   C2B44208  19.470   5.266  16.749  0.0117  0.0180  0.2791
36377DPPC   C3B44209  19.522   5.264  17.225 -0.1148 -0.0382 -0.3682
36377DPPC   C4B44210  19.572   5.262  17.704  0.1460 -0.0787 -0.0664
36378DPPC   NC344211  26.226   6.119  15.300 -0.0290  0.2428  0.2656
36378DPPC   PO444212  26.260   5.746  15.479 -0.2385  0.3125  0.2833
36378DPPC   GL144213  26.070   5.775  15.902  0.1142 -0.0813  0.0581
36378DPPC   GL244214  26.390   5.768  15.937  0.0399 -0.2135 -0.0992
36378DPPC   C1A44215  26.012   5.756  16.283  0.3051 -0.0909  0.2725
36378DPPC   C2A44216  26.119   5.705  16.657  0.0099  0.1645  0.0417
36378DPPC   C3A44217  26.139   5.708  17.138 -0.0732 -0.3040  0.0481
36378DPPC   C4A44218  26.157   5.830  17.663 -0.4912  0.0200  0.2018
36378DPPC   C1B44219  26.553   5.786  16.243  0.1452  0.0728 -0.3544
36378DPPC   C2B44220  26.618   5.861  16.636  0.1633 -0.0810  0.1175
36378DPPC   C3B44221  26.616   5.945  17.125 -0.2663 -0.0616 -0.0202
36378DPPC   C4B44222  26.670   5.868  17.620 -0.2941  0.1122  0.3133
36379DPPC   NC344223  24.212   2.035  15.598  0.1237  0.0479 -0.1213
36379DPPC   PO444224  23.826   2.038  15.647  0.0233 -0.4316  0.2162
36379DPPC   GL144225  23.784   1.864  16.030  0.2991 -0.5918 -0.0899
36379DPPC   GL244226  24.046   1.847  16.065 -0.1771 -0.1898 -0.1658
36379DPPC   C1A44227  23.566   1.928  16.322  0.3878  0.1867 -0.3041
36379DPPC   C2A44228  23.585   2.113  16.693 -0.3518  0.2410  0.3119
36379DPPC   C3A44229  23.578   2.116  17.091  0.0521  0.1485 -0.1900
36379DPPC   C4A44230  23.508   2.095  17.545  0.1977 -0.1885 -0.1233
36379DPPC   C1B44231  24.133   1.965  16.347 -0.0942  0.4141  0.0125
36379DPPC   C2B44232  24.326   1.859  16.712 -0.1301 -0.1642 -0.3568
36379DPPC   C3B44233  24.286   1.889  17.202 -0.0903  0.1357 -0.1030
36379DPPC   C4B44234  24.345   1.833  17.670 -0.1431 -0.2311 -0.0092
36380DPPC   NC344235  23.947   0.895  15.642 -0.0487  0.2166 -0.1620
36380DPPC   PO444236  23.608   1.024  15.834  0.0237  0.5234  0.0846
36380DPPC   GL144237  23.804   0.742  16.159 -0.2108  0.1501  0.1592
36380DPPC   GL244238  23.534   0.773  16.291 -0.1899  0.0335 -0.3733
36380DPPC   C1A44239  23.965   0.818  16.495 -0.5343 -0.2238 -0.2581
36380DPPC   C2A44240  24.023   0.899  16.907 -0.0311 -0.0355 -0.1158
36380DPPC   C3A44241  24.058   0.975  17.391 -0.0099  0.0244  0.3149
36380DPPC   C4A44242  24.106   0.957  17.896 -0.1127  0.1689  0.1822
36380DPPC   C1B44243  23.432   0.767  16.671 -0.1587  0.2104  0.4353
36380DPPC   C2B44244  23.550   0.772  17.044  0.1969 -0.1003  0.0675
36380DPPC   C3B44245  23.526   0.814  17.569  0.0032 -0.0999  0.0058
36380DPPC   C4B44246  23.520   0.821  18.103  0.0023  0.0815  0.1405
36381DPPC   NC344247  22.444   4.663  15.795 -0.2508 -0.0655 -0.0297
36381DPPC   PO444248  22.760   4.482  15.612 -0.1464 -0.2167 -0.1418
36381DPPC   GL144249  22.824   4.442  16.042  0.0481 -0.0874 -0.4298
36381DPPC   GL244250  22.884   4.710  16.114 -0.4058 -0.3730 -0.0423
36381DPPC   C1A44251  22.799   4.218  16.298 -0.2218  0.3235  0.0689
36381DPPC   C2A44252  22.794   4.243  16.685 -0.3172  0.0048 -0.1757
36381DPPC   C3A44253  22.780   4.279  17.137 -0.0823  0.0458  0.2711
36381DPPC   C4A44254  22.845   4.250  17.576  0.1111 -0.0028 -0.2047
36381DPPC   C1B44255  22.902   4.655  16.495  0.3448  0.0573 -0.1575
36381DPPC   C2B44256  22.934   4.708  16.870  0.2484 -0.0995  0.4186
36381DPPC   C3B44257  22.929   4.703  17.350 -0.3635 -0.1418 -0.1524
36381DPPC   C4B44258  23.050   4.792  17.804 -0.1473 -0.2036 -0.1428
36382DPPC   NC344259  25.846   5.500  15.657 -0.2168  0.0628 -0.1056
36382DPPC   PO444260  25.761   5.105  15.684 -0.2446 -0.0294 -0.0991
36382DPPC   GL144261  25.666   5.292  16.025  0.0082 -0.4401 -0.1082
36382DPPC   GL244262  25.900   5.363  16.086  0.1761 -0.1264 -0.2994
36382DPPC   C1A44263  25.499   5.191  16.304 -0.1733  0.3227 -0.1169
36382DPPC   C2A44264  25.468   5.213  16.723  0.0671 -0.3239  0.0083
36382DPPC   C3A44265  25.401   5.209  17.208 -0.2564  0.2235  0.0938
36382DPPC   C4A44266  25.448   5.188  17.703  0.0539 -0.0322  0.0536
36382DPPC   C1B44267  25.879   5.320  16.476 -0.1853 -0.2000 -0.3196
36382DPPC   C2B44268  25.900   5.282  16.885 -0.0988 -0.0027  0.0794
36382DPPC   C3B44269  25.922   5.298  17.349  0.0736 -0.0148 -0.2188
36382DPPC   C4B44270  25.920   5.302  17.805 -0.0320 -0.0381  0.1046
36383DPPC   NC344271  25.707   3.830  15.513  0.0424 -0.0211  0.1660
36383DPPC   PO444272  25.864   4.148  15.685  0.1685  0.0938 -0.1173
36383DPPC   GL144273  25.837   3.986  16.060  0.0765 -0.2233  0.2094
36383DPPC   GL244274  25.819   4.276  16.075 -0.2795 -0.1341  0.0121
36383DPPC   C1A44275  25.760   4.004  16.431 -0.1137  0.2154  0.0762
36383DPPC   C2A44276  25.886   3.952  16.837 -0.2918 -0.0822  0.1438
36383DPPC   C3A44277  25.962   3.941  17.280 -0.2157 -0.1758 -0.1461
36383DPPC   C4A44278  26.043   3.937  17.788 -0.1039 -0.1416  0.0802
36383DPPC   C1B44279  25.991   4.393  16.399 -0.5189 -0.0014  0.1420
36383DPPC   C2B44280  26.021   4.503  16.801  0.1057  0.1431 -0.2766
36383DPPC   C3B44281  26.098   4.497  17.351 -0.1405 -0.0702 -0.1669
36383DPPC   C4B44282  26.220   4.420  17.836  0.0272 -0.0204  0.2027
36384DPPC   NC344283  24.774   3.301  15.465 -0.3012  0.2448  0.0073
36384DPPC   PO444284  24.457   3.480  15.653 -0.0464 -0.3580 -0.1180
36384DPPC   GL144285  24.339   3.201  15.969  0.1359  0.4120 -0.2477
36384DPPC   GL244286  24.085   3.332  15.954 -0.1196 -0.0225  0.0750
36384DPPC   C1A44287  24.385   3.238  16.364  0.3163 -0.0737 -0.0109
36384DPPC   C2A44288  24.250   3.252  16.786 -0.3070  0.0105  0.2357
36384DPPC   C3A44289  24.268   3.198  17.209 -0.2534 -0.2025  0.0655
36384DPPC   C4A44290  24.335   3.250  17.702  0.2093 -0.1752  0.1321
36384DPPC   C1B44291  23.992   3.422  16.243  0.0908 -0.2444 -0.0440
36384DPPC   C2B44292  23.934   3.615  16.648  0.0248  0.2210  0.0643
36384DPPC   C3B44293  23.938   3.604  17.077  0.0803  0.0530  0.0358
36384DPPC   C4B44294  23.954   3.601  17.584  0.1487  0.2005 -0.1381
36385DPPC   NC344295   1.128   2.129  15.658 -0.0443  0.0293  0.0707
36385DPPC   PO444296   0.730   2.092  15.670 -0.1742  0.0787  0.0999
36385DPPC   GL144297   0.438   2.025  15.907 -0.2359 -0.4393 -0.2050
36385DPPC   GL244298   0.187   2.242  15.867  0.2176  0.3453  0.2079
36385DPPC   C1A44299   0.588   2.114  16.241 -0.2763  0.3155 -0.4468
36385DPPC   C2A44300   0.605   2.044  16.645  0.1524 -0.2236  0.1133
36385DPPC   C3A44301   0.620   2.019  17.145  0.2231  0.1326  0.0607
36385DPPC   C4A44302   0.689   2.015  17.646 -0.1258 -0.2822 -0.3361
36385DPPC   C1B44303   0.042   2.224  16.205  0.1615 -0.0038 -0.0904
36385DPPC   C2B44304  -0.170   2.183  16.533 -0.1500  0.0342  0.0737
36385DPPC   C3B44305  -0.130   2.204  16.955  0.2081 -0.0554 -0.0828
36385DPPC   C4B44306  -0.183   2.233  17.383 -0.3499 -0.3229 -0.1679
36386DPPC   NC344307  23.168   3.339  15.561  0.1982  0.0551 -0.3763
36386DPPC   PO444308  23.172   3.031  15.808 -0.1250  0.0420 -0.1814
36386DPPC   GL144309  23.246   2.858  16.202 -0.1455 -0.0488  0.4010
36386DPPC   GL244310  23.499   2.709  16.107  0.2146 -0.0168  0.0428
36386DPPC   C1A44311  23.177   2.554  16.416 -0.2049 -0.0877 -0.0938
36386DPPC   C2A44312  23.236   2.494  16.788  0.1443  0.1246 -0.0364
36386DPPC   C3A44313  23.173   2.466  17.248 -0.0361  0.2207 -0.1327
36386DPPC   C4A44314  23.221   2.485  17.712 -0.1893 -0.2174  0.2285
36386DPPC   C1B44315  23.664   2.685  16.501  0.2291 -0.1251  0.1141
36386DPPC   C2B44316  23.724   2.586  16.872  0.1635 -0.2607 -0.1742
36386DPPC   C3B44317  23.689   2.581  17.352  0.0822 -0.4908 -0.0740
36386DPPC   C4B44318  23.689   2.692  17.810 -0.0236 -0.0605  0.3981
36387DPPC   NC344319  23.995   3.342  15.489 -0.1017  0.2901 -0.0728
36387DPPC   PO444320  23.746   3.143  15.741  0.3018  0.2776  0.1086
36387DPPC   GL144321  23.902   2.865  16.079 -0.0942  0.0391  0.3947
36387DPPC   GL244322  23.767   3.018  16.192  0.0528 -0.1495 -0.0800
36387DPPC   C1A44323  24.149   2.913  16.416 -0.1245  0.0035  0.2201
36387DPPC   C2A44324  24.160   2.708  16.695 -0.0819 -0.3446 -0.0474
36387DPPC   C3A44325  24.141   2.727  17.147  0.1230  0.1044 -0.0775
36387DPPC   C4A44326  24.209   2.733  17.632  0.4143  0.1463 -0.0603
36387DPPC   C1B44327  23.838   3.123  16.573 -0.0645 -0.2902  0.0702
36387DPPC   C2B44328  23.839   3.119  16.998 -0.0449 -0.0867  0.0280
36387DPPC   C3B44329  23.842   3.152  17.480  0.1225 -0.2794  0.0452
36387DPPC   C4B44330  23.920   3.212  17.948 -0.0528  0.1090  0.2485
36388DPPC   NC344331  23.263   2.240  15.593  0.1228  0.0802  0.0329
36388DPPC   PO444332  23.243   1.888  15.810  0.0794 -0.0655  0.1129
36388DPPC   GL144333  23.037   1.882  16.126  0.0478 -0.3671 -0.5230
36388DPPC   GL244334  22.824   1.784  16.170 -0.0143  0.0841 -0.1068
36388DPPC   C1A44335  23.139   1.923  16.480 -0.0901 -0.2066  0.1504
36388DPPC   C2A44336  23.145   2.001  16.833 -0.0460  0.0897  0.1256
36388DPPC   C3A44337  23.004   2.011  17.285  0.0117  0.0724  0.0666
36388DPPC   C4A44338  23.007   2.055  17.805  0.2548 -0.2326 -0.0002
36388DPPC   C1B44339  22.563   1.866  16.464 -0.1283  0.2643  0.0615
36388DPPC   C2B44340  22.534   1.868  16.871 -0.1345 -0.2395 -0.0614
36388DPPC   C3B44341  22.534   1.916  17.343 -0.1196 -0.1140  0.1239
36388DPPC   C4B44342  22.490   1.899  17.845  0.0881 -0.0084  0.1021
36389DPPC   NC344343  23.074   1.397  15.264  0.1130  0.2502  0.0153
36389DPPC   PO444344  23.206   1.260  15.623  0.2353  0.1327 -0.2299
36389DPPC   GL144345  23.180   1.394  15.984 -0.0300 -0.1670 -0.1181
36389DPPC   GL244346  23.110   1.125  16.060 -0.1420  0.0475 -0.1166
36389DPPC   C1A44347  23.360   1.472  16.316 -0.1669  0.1712  0.4439
36389DPPC   C2A44348  23.361   1.620  16.671  0.0467  0.0266 -0.0986
36389DPPC   C3A44349  23.396   1.630  17.122 -0.1431  0.1947 -0.2612
36389DPPC   C4A44350  23.399   1.628  17.677  0.4965  0.0210  0.0667
36389DPPC   C1B44351  23.127   1.133  16.422 -0.0744 -0.1086 -0.2164
36389DPPC   C2B44352  23.150   1.109  16.819  0.2881  0.0110  0.1702
36389DPPC   C3B44353  23.144   1.218  17.286  0.1244  0.0550  0.0876
36389DPPC   C4B44354  23.189   1.175  17.780 -0.2102 -0.1262 -0.2095
36390DPPC   NC344355   0.171   2.628  15.562  0.1965  0.2829 -0.1555
36390DPPC   PO444356  -0.040   2.972  15.522  0.1470 -0.0739 -0.1228
36390DPPC   GL144357  -0.100   3.163  15.855 -0.5457 -0.0153  0.0654
36390DPPC   GL244358   0.035   3.469  15.801 -0.1222  0.2304  0.1958
36390DPPC   C1A44359  -0.010   3.199  16.179  0.1300 -0.0116  0.1865
36390DPPC   C2A44360   0.089   3.166  16.554  0.1016  0.0171 -0.0534
36390DPPC   C3A44361   0.150   3.105  17.076  0.0799 -0.0531  0.1496
36390DPPC   C4A44362   0.199   3.191  17.506 -0.0952  0.1556  0.1670
36390DPPC   C1B44363   0.186   3.555  16.082  0.0008 -0.0621 -0.0906
36390DPPC   C2B44364   0.268   3.641  16.441 -0.1515 -0.3724  0.1069
36390DPPC   C3B44365   0.281   3.564  16.873 -0.2510 -0.0234 -0.0417
36390DPPC   C4B44366   0.359   3.646  17.367  0.0138  0.0254  0.3744
36391DPPC   NC344367  21.407   5.489  15.795 -0.0246 -0.3564  0.3280
36391DPPC   PO444368  21.708   5.257  15.841 -0.1887  0.2374  0.0547
36391DPPC   GL144369  21.961   5.370  16.075 -0.1636 -0.1966  0.1356
36391DPPC   GL244370  22.178   5.185  16.087  0.1253 -0.6382 -0.3800
36391DPPC   C1A44371  21.821   5.344  16.378 -0.3186  0.0919  0.4036
36391DPPC   C2A44372  21.836   5.298  16.770  0.0916 -0.3458 -0.0730
36391DPPC   C3A44373  21.831   5.301  17.231  0.0636  0.2042 -0.0348
36391DPPC   C4A44374  21.880   5.370  17.727 -0.2628 -0.0489  0.4050
36391DPPC   C1B44375  22.230   5.326  16.472 -0.2125 -0.0074  0.4237
36391DPPC   C2B44376  22.340   5.436  16.834  0.2890 -0.0011 -0.1873
36391DPPC   C3B44377  22.414   5.457  17.316 -0.0553  0.0732 -0.3972
36391DPPC   C4B44378  22.424   5.412  17.749  0.0531 -0.2737  0.2831
36392DPPC   NC344379  22.157   1.511  15.681 -0.2321  0.1298  0.0665
36392DPPC   PO444380  22.030   1.900  15.690 -0.2092 -0.1432  0.1540
36392DPPC   GL144381  21.694   1.867  15.934 -0.0507  0.1089  0.0360
36392DPPC   GL244382  21.538   1.687  15.937 -0.1654  0.3059 -0.1936
36392DPPC   C1A44383  21.878   1.711  16.247 -0.1600 -0.0563  0.2583
36392DPPC   C2A44384  22.063   1.693  16.586  0.0431 -0.2281 -0.0342
36392DPPC   C3A44385  22.074   1.734  17.072 -0.1273  0.0554 -0.1119
36392DPPC   C4A44386  22.111   1.760  17.550  0.3374 -0.1179  0.1632
36392DPPC   C1B44387  21.508   1.538  16.292  0.0326  0.1012 -0.0742
36392DPPC   C2B44388  21.562   1.628  16.658  0.0903  0.1119  0.2625
36392DPPC   C3B44389  21.594   1.706  17.148  0.1999 -0.1364 -0.0710
36392DPPC   C4B44390  21.598   1.722  17.662  0.0877  0.0214  0.0730
36393DPPC   NC344391  23.557   4.130  15.765  0.0405  0.2367  0.0370
36393DPPC   PO444392  23.223   4.250  15.815  0.2610 -0.2133  0.0625
36393DPPC   GL144393  23.361   4.299  16.205 -0.3236  0.1251 -0.1001
36393DPPC   GL244394  23.510   4.090  16.240  0.1062  0.4483  0.1018
36393DPPC   C1A44395  23.196   4.340  16.520 -0.0785 -0.1240 -0.0574
36393DPPC   C2A44396  23.295   4.398  16.909 -0.0493 -0.1730 -0.3387
36393DPPC   C3A44397  23.293   4.360  17.374  0.4972  0.1318  0.0375
36393DPPC   C4A44398  23.364   4.396  17.897 -0.0028  0.1373  0.2539
36393DPPC   C1B44399  23.540   4.040  16.582 -0.2682 -0.0046  0.0262
36393DPPC   C2B44400  23.599   3.951  16.972 -0.0972 -0.2140 -0.2199
36393DPPC   C3B44401  23.600   3.961  17.433  0.0294 -0.2020  0.1416
36393DPPC   C4B44402  23.653   3.955  17.866 -0.1046 -0.2247  0.1437
36394DPPC   NC344403  25.639   3.538  15.089  0.3050 -0.0440 -0.3236
36394DPPC   PO444404  25.275   3.600  15.250  0.2325 -0.3537  0.3159
36394DPPC   GL144405  25.316   3.686  15.662 -0.0777  0.0595  0.2720
36394DPPC   GL244406  25.039   3.622  15.724 -0.3422 -0.1007  0.1373
36394DPPC   C1A44407  25.439   3.604  16.000  0.3731  0.3029 -0.3651
36394DPPC   C2A44408  25.669   3.513  16.327  0.3211 -0.0319 -0.2336
36394DPPC   C3A44409  25.756   3.481  16.828  0.1474 -0.1862  0.2013
36394DPPC   C4A44410  25.853   3.402  17.325  0.0464  0.1533 -0.0701
36394DPPC   C1B44411  24.943   3.738  16.091 -0.0122  0.0395  0.0587
36394DPPC   C2B44412  24.924   3.727  16.480 -0.0196  0.1696  0.2371
36394DPPC   C3B44413  24.889   3.761  16.916 -0.0858 -0.1423  0.0937
36394DPPC   C4B44414  25.000   3.737  17.411 -0.0442  0.1594 -0.0386
36395DPPC   NC344415  20.087   3.917  15.607 -0.2547 -0.0646 -0.1242
36395DPPC   PO444416  20.191   3.566  15.754  0.2743  0.2123 -0.0012
36395DPPC   GL144417  20.122   3.657  16.098  0.1634 -0.2112  0.3815
36395DPPC   GL244418  20.264   3.944  16.069 -0.2674  0.2325  0.2606
36395DPPC   C1A44419  19.970   3.566  16.444 -0.3532  0.3113 -0.3125
36395DPPC   C2A44420  19.970   3.515  16.865  0.0218  0.2845 -0.1470
36395DPPC   C3A44421  19.932   3.512  17.394 -0.5744  0.0087 -0.1221
36395DPPC   C4A44422  19.994   3.493  17.866 -0.1001  0.1749  0.0806
36395DPPC   C1B44423  20.136   3.995  16.409  0.2176  0.1319 -0.0504
36395DPPC   C2B44424  20.088   3.971  16.858  0.1489  0.0464  0.1078
36395DPPC   C3B44425  20.104   3.982  17.340 -0.0001 -0.0429  0.1460
36395DPPC   C4B44426  20.096   4.050  17.869 -0.3035  0.2305  0.0157
36396DPPC   NC344427  22.471   2.327  15.655 -0.0806  0.1571  0.0582
36396DPPC   PO444428  22.817   2.170  15.801  0.1936  0.1023  0.0647
36396DPPC   GL144429  22.827   2.198  16.238  0.1841  0.1065 -0.1090
36396DPPC   GL244430  22.536   2.250  16.172 -0.0795  0.0016  0.0784
36396DPPC   C1A44431  22.789   2.216  16.605 -0.2074 -0.0304  0.0921
36396DPPC   C2A44432  22.782   2.367  16.989  0.0619 -0.1229  0.1504
36396DPPC   C3A44433  22.681   2.453  17.473  0.0411 -0.3257 -0.0906
36396DPPC   C4A44434  22.663   2.329  17.996 -0.1374  0.0117  0.0406
36396DPPC   C1B44435  22.449   2.504  16.441  0.0660 -0.1278  0.1237
36396DPPC   C2B44436  22.417   2.738  16.780  0.1528  0.0770  0.1975
36396DPPC   C3B44437  22.415   2.783  17.246 -0.1229 -0.0415 -0.0589
36396DPPC   C4B44438  22.462   2.805  17.769 -0.1307  0.0552 -0.0496
36397DPPC   NC344439  20.926   4.982  15.622  0.0908 -0.2379  0.0513
36397DPPC   PO444440  21.279   5.036  15.800 -0.0026  0.0987 -0.0634
36397DPPC   GL144441  21.421   5.120  16.213 -0.0047 -0.3582 -0.0220
36397DPPC   GL244442  21.420   4.847  16.116  0.1480  0.1351 -0.3497
36397DPPC   C1A44443  21.296   5.142  16.503 -0.0269 -0.2238 -0.0984
36397DPPC   C2A44444  21.328   5.208  16.927  0.0320 -0.0095  0.2874
36397DPPC   C3A44445  21.357   5.217  17.427  0.2530 -0.0004 -0.1869
36397DPPC   C4A44446  21.437   5.194  17.935  0.2195 -0.2514  0.2429
36397DPPC   C1B44447  21.602   4.797  16.476 -0.2680 -0.2185 -0.2307
36397DPPC   C2B44448  21.677   4.804  16.874 -0.1430  0.1156  0.3228
36397DPPC   C3B44449  21.746   4.775  17.320 -0.1693  0.0531 -0.0570
36397DPPC   C4B44450  21.773   4.811  17.826 -0.1301 -0.2038 -0.0958
36398DPPC   NC344451  25.051   5.076  15.342  0.1636 -0.0784  0.0643
36398DPPC   PO444452  24.919   5.260  15.679 -0.1944  0.0123 -0.0006
36398DPPC   GL144453  24.755   5.088  15.910  0.3943 -0.1835 -0.0492
36398DPPC   GL244454  24.504   5.032  15.900  0.0365  0.1249  0.0218
36398DPPC   C1A44455  24.974   5.091  16.232  0.0476  0.1247 -0.2220
36398DPPC   C2A44456  24.934   5.141  16.642 -0.3725  0.1194  0.1652
36398DPPC   C3A44457  24.931   5.061  17.103 -0.1525  0.1467 -0.2208
36398DPPC   C4A44458  25.008   5.050  17.566 -0.3584 -0.2460  0.1172
36398DPPC   C1B44459  24.421   5.084  16.230 -0.0538 -0.4130  0.2717
36398DPPC   C2B44460  24.485   5.032  16.647  0.1037 -0.1950  0.0170
36398DPPC   C3B44461  24.472   4.982  17.114  0.1056  0.0997 -0.2327
36398DPPC   C4B44462  24.494   4.920  17.625  0.1191 -0.1581 -0.1554
36399DPPC   NC344463  20.972   1.710  15.649 -0.2710  0.1773  0.2175
36399DPPC   PO444464  21.187   1.401  15.731  0.2192 -0.0854  0.0019
36399DPPC   GL144465  21.035   1.292  16.074 -0.1551 -0.0304  0.1252
36399DPPC   GL244466  20.993   1.572  16.159 -0.1006 -0.2090  0.1415
36399DPPC   C1A44467  21.200   1.194  16.388  0.3203  0.0966  0.1604
36399DPPC   C2A44468  21.364   1.194  16.735 -0.0802 -0.2030  0.1790
36399DPPC   C3A44469  21.379   1.160  17.189  0.0786  0.2532  0.0798
36399DPPC   C4A44470  21.465   1.166  17.645 -0.0486 -0.2917  0.0274
36399DPPC   C1B44471  21.095   1.605  16.513 -0.2356 -0.2665 -0.0663
36399DPPC   C2B44472  21.134   1.578  16.940  0.1363 -0.0229  0.0665
36399DPPC   C3B44473  21.132   1.534  17.404  0.0869 -0.1711  0.0457
36399DPPC   C4B44474  21.181   1.533  17.959 -0.3459 -0.0085  0.3310
36400DPPC   NC344475  25.024   0.042  15.991 -0.0112  0.0257  0.2670
36400DPPC   PO444476  24.984  -0.302  15.818 -0.3690 -0.3589  0.2478
36400DPPC   GL144477  24.914  -0.632  16.061  0.1356  0.1614 -0.2047
36400DPPC   GL244478  25.125  -0.840  16.057 -0.0440  0.0298  0.1906
36400DPPC   C1A44479  24.810  -0.646  16.402 -0.1047  0.0884 -0.1477
36400DPPC   C2A44480  24.784  -0.643  16.807  0.2643 -0.2823  0.3172
36400DPPC   C3A44481  24.834  -0.646  17.279  0.0543  0.0501  0.2767
36400DPPC   C4A44482  24.849  -0.595  17.749  0.0031  0.2075  0.0911
36400DPPC   C1B44483  25.240  -0.693  16.419  0.0163  0.0889 -0.0727
36400DPPC   C2B44484  25.264  -0.600  16.811  0.0355  0.2460 -0.2416
36400DPPC   C3B44485  25.304  -0.602  17.245  0.1357 -0.4368  0.1466
36400DPPC   C4B44486  25.355  -0.594  17.749 -0.1790  0.0569 -0.4097
36401DPPC   NC344487  24.427   5.972  15.526 -0.0637 -0.1884  0.0431
36401DPPC   PO444488  24.455   6.218  15.800  0.1994 -0.1234  0.2424
36401DPPC   GL144489  24.666   6.367  16.101 -0.2086 -0.3075 -0.0468
36401DPPC   GL244490  24.477   6.212  16.233 -0.3151 -0.0521  0.0208
36401DPPC   C1A44491  24.719   6.702  16.319  0.2287  0.1880  0.2007
36401DPPC   C2A44492  24.640   6.727  16.726 -0.1662 -0.0253  0.1801
36401DPPC   C3A44493  24.655   6.772  17.187 -0.3790  0.3604  0.0844
36401DPPC   C4A44494  24.662   6.723  17.676 -0.1837  0.2914  0.1939
36401DPPC   C1B44495  24.502   6.267  16.565  0.1368 -0.1377 -0.3419
36401DPPC   C2B44496  24.478   6.288  16.959  0.0725 -0.0867  0.2243
36401DPPC   C3B44497  24.446   6.328  17.422 -0.1507  0.1540  0.1843
36401DPPC   C4B44498  24.454   6.296  17.884 -0.1823  0.1556  0.1235
36402DPPC   NC344499  26.282   1.364  15.520  0.2146 -0.0582  0.0663
36402DPPC   PO444500  26.493   1.684  15.593 -0.0056  0.0288 -0.0740
36402DPPC   GL144501  26.571   1.649  15.971 -0.2316  0.3752  0.2881
36402DPPC   GL244502  26.603   1.380  15.927 -0.3643  0.0697  0.3127
36402DPPC   C1A44503  26.561   1.788  16.354 -0.2556  0.3511  0.1722
36402DPPC   C2A44504  26.579   1.850  16.775 -0.2127 -0.0204  0.0959
36402DPPC   C3A44505  26.626   1.842  17.240 -0.2184 -0.0765  0.0704
36402DPPC   C4A44506  26.604   1.970  17.676 -0.1784 -0.0231  0.0536
36402DPPC   C1B44507  26.599   1.310  16.274  0.3290 -0.2281  0.2652
36402DPPC   C2B44508  26.430   1.376  16.679  0.0408  0.1058 -0.3007
36402DPPC   C3B44509  26.432   1.377  17.117  0.0190 -0.3947  0.0596
36402DPPC   C4B44510  26.526   1.444  17.578 -0.2297 -0.1510  0.0159
36403DPPC   NC344511  24.872   5.782  15.662 -0.2066  0.0322  0.1241
36403DPPC   PO444512  25.267   5.759  15.590 -0.0370  0.0567 -0.1060
36403DPPC   GL144513  25.427   5.572  15.828 -0.3574 -0.1881  0.0841
36403DPPC   GL244514  25.237   5.377  16.004  0.3141  0.2037  0.0044
36403DPPC   C1A44515  25.565   5.706  16.147  0.2024 -0.5032 -0.0678
36403DPPC   C2A44516  25.602   5.669  16.559 -0.0042 -0.2083  0.0752
36403DPPC   C3A44517  25.634   5.666  17.044 -0.0210 -0.1399  0.2598
36403DPPC   C4A44518  25.620   5.617  17.511  0.3656 -0.0082  0.0850
36403DPPC   C1B44519  25.183   5.487  16.345 -0.3088 -0.0221  0.2245
36403DPPC   C2B44520  25.087   5.570  16.701 -0.0014 -0.1821 -0.0463
36403DPPC   C3B44521  25.104   5.570  17.116  0.2473  0.3083  0.2835
36403DPPC   C4B44522  25.135   5.608  17.593  0.0579  0.1576  0.1160
36404DPPC   NC344523  25.038   2.603  15.409 -0.2073  0.1368 -0.0208
36404DPPC   PO444524  24.749   2.802  15.560 -0.0795 -0.0379  0.3153
36404DPPC   GL144525  24.725   3.013  15.856 -0.1741  0.1262 -0.0558
36404DPPC   GL244526  24.755   3.229  15.966 -0.0751  0.2531  0.4299
36404DPPC   C1A44527  24.556   2.901  16.174  0.3800  0.1327 -0.0708
36404DPPC   C2A44528  24.616   2.853  16.550 -0.2694 -0.2417 -0.0495
36404DPPC   C3A44529  24.609   2.887  16.951  0.2303  0.1880  0.1383
36404DPPC   C4A44530  24.644   2.855  17.462 -0.0100 -0.0906  0.1003
36404DPPC   C1B44531  24.788   3.289  16.308 -0.1631  0.1634  0.2298
36404DPPC   C2B44532  24.782   3.322  16.741 -0.0409 -0.1915 -0.0544
36404DPPC   C3B44533  24.749   3.309  17.251  0.2232 -0.1967  0.1198
36404DPPC   C4B44534  24.838   3.343  17.750  0.0560 -0.3035 -0.1825
36405DPPC   NC344535  20.798   6.162  15.523  0.0474  0.2236 -0.1422
36405DPPC   PO444536  20.767   6.176  15.913 -0.1384  0.0539 -0.1172
36405DPPC   GL144537  20.883   5.879  16.109 -0.1487  0.1590 -0.0130
36405DPPC   GL244538  20.566   5.898  16.266 -0.2661  0.0421 -0.0550
36405DPPC   C1A44539  21.014   5.965  16.479  0.2322  0.0162  0.4020
36405DPPC   C2A44540  21.157   6.022  16.847 -0.4505 -0.3378  0.0255
36405DPPC   C3A44541  21.191   6.108  17.362  0.0275 -0.3264  0.3410
36405DPPC   C4A44542  21.132   6.073  17.827 -0.1390  0.0374  0.1254
36405DPPC   C1B44543  20.630   5.964  16.653  0.4678 -0.0763  0.0696
36405DPPC   C2B44544  20.658   5.921  17.077 -0.0351  0.1389  0.1293
36405DPPC   C3B44545  20.728   5.959  17.570 -0.0990  0.2300  0.1168
36405DPPC   C4B44546  20.683   5.931  18.028 -0.2011  0.0937  0.1063
36406DPPC   NC344547  20.859   2.190  15.823 -0.0553 -0.0759 -0.1764
36406DPPC   PO444548  21.212   2.064  15.864  0.1411 -0.0032  0.1425
36406DPPC   GL144549  21.307   1.919  16.236  0.0391 -0.1520 -0.0319
36406DPPC   GL244550  21.511   2.121  16.201  0.1573  0.0988 -0.0705
36406DPPC   C1A44551  21.278   2.018  16.573 -0.2140 -0.1201  0.0517
36406DPPC   C2A44552  21.308   2.075  16.934  0.2733 -0.0671  0.2768
36406DPPC   C3A44553  21.280   2.041  17.396 -0.0750  0.1284  0.0101
36406DPPC   C4A44554  21.298   2.085  17.912  0.1024  0.0417 -0.1098
36406DPPC   C1B44555  21.750   2.036  16.455 -0.0043 -0.1938  0.2486
36406DPPC   C2B44556  21.781   2.084  16.841 -0.3237  0.3010  0.0932
36406DPPC   C3B44557  21.866   2.127  17.316 -0.1875 -0.0196 -0.4529
36406DPPC   C4B44558  21.818   2.137  17.832 -0.0887 -0.3128 -0.0739
36407DPPC   NC344559  21.360   0.949  15.861  0.0826 -0.1055  0.1484
36407DPPC   PO444560  20.979   0.849  15.952 -0.1524 -0.0961  0.2486
36407DPPC   GL144561  20.716   0.811  16.118  0.0274  0.1473  0.0214
36407DPPC   GL244562  20.788   0.571  16.299  0.0504 -0.1988 -0.2679
36407DPPC   C1A44563  20.751   1.027  16.396 -0.0761  0.1656 -0.1699
36407DPPC   C2A44564  20.898   1.114  16.777 -0.0530  0.0827 -0.1159
36407DPPC   C3A44565  20.873   1.084  17.302 -0.3045 -0.0947  0.4525
36407DPPC   C4A44566  20.969   1.178  17.771  0.1859  0.3367 -0.0318
36407DPPC   C1B44567  20.714   0.613  16.659 -0.0485 -0.2001 -0.1430
36407DPPC   C2B44568  20.656   0.686  17.089  0.2152  0.1197  0.0360
36407DPPC   C3B44569  20.715   0.678  17.545  0.2305  0.1638  0.0023
36407DPPC   C4B44570  20.726   0.729  18.023 -0.4348 -0.0445  0.0086
36408DPPC   NC344571  23.529   2.695  15.678  0.1669  0.0344  0.3316
36408DPPC   PO444572  23.916   2.565  15.752  0.0963 -0.0263 -0.3515
36408DPPC   GL144573  24.033   2.373  16.160  0.2016 -0.2273  0.0227
36408DPPC   GL244574  24.291   2.366  16.079  0.2376 -0.1944  0.1649
36408DPPC   C1A44575  24.002   2.319  16.544  0.1121  0.0567  0.0069
36408DPPC   C2A44576  24.042   2.236  16.930 -0.3123 -0.0917 -0.0047
36408DPPC   C3A44577  24.064   2.268  17.431  0.1386  0.1143 -0.0810
36408DPPC   C4A44578  24.020   2.196  17.989 -0.2218  0.1535 -0.0675
36408DPPC   C1B44579  24.399   2.278  16.479 -0.1077 -0.3018 -0.1017
36408DPPC   C2B44580  24.495   2.379  16.873  0.0524 -0.1524  0.1777
36408DPPC   C3B44581  24.494   2.413  17.302 -0.0110  0.0505 -0.0851
36408DPPC   C4B44582  24.569   2.437  17.816  0.0033  0.0303 -0.3851
36409DPPC   NC344583  20.658   3.446  15.634  0.1962  0.2622 -0.0872
36409DPPC   PO444584  20.683   3.807  15.789 -0.0195  0.1933 -0.0137
36409DPPC   GL144585  20.938   3.738  16.118  0.0523  0.0645 -0.1656
36409DPPC   GL244586  21.095   3.499  16.004  0.2388  0.2129 -0.3003
36409DPPC   C1A44587  20.898   3.777  16.502  0.1442  0.1669 -0.0268
36409DPPC   C2A44588  20.866   3.789  16.936  0.0392 -0.1547 -0.0149
36409DPPC   C3A44589  20.901   3.780  17.389 -0.0228 -0.0329  0.2095
36409DPPC   C4A44590  20.877   3.761  17.915  0.0452 -0.0459 -0.0777
36409DPPC   C1B44591  21.265   3.503  16.373  0.0175  0.0986 -0.0508
36409DPPC   C2B44592  21.286   3.400  16.756  0.0158 -0.1430  0.0814
36409DPPC   C3B44593  21.229   3.322  17.256 -0.1140  0.0597  0.0181
36409DPPC   C4B44594  21.266   3.446  17.736 -0.2321 -0.2456  0.1073
36410DPPC   NC344595  24.787   4.318  15.439 -0.2048  0.0591 -0.0428
36410DPPC   PO444596  24.428   4.509  15.351 -0.0167  0.0362 -0.0254
36410DPPC   GL144597  24.171   4.445  15.727 -0.0715 -0.2566 -0.2554
36410DPPC   GL244598  24.409   4.640  15.760 -0.2152 -0.0104 -0.0810
36410DPPC   C1A44599  24.095   4.222  15.994  0.0336  0.0396  0.2431
36410DPPC   C2A44600  24.042   4.078  16.434  0.1107  0.0809  0.1265
36410DPPC   C3A44601  24.042   4.085  16.845 -0.1747 -0.0007 -0.4807
36410DPPC   C4A44602  24.090   4.021  17.351 -0.1788  0.0771  0.0488
36410DPPC   C1B44603  24.632   4.693  16.049 -0.1671  0.1337  0.1359
36410DPPC   C2B44604  24.710   4.634  16.461  0.0575  0.0615 -0.0960
36410DPPC   C3B44605  24.775   4.588  16.951 -0.0497  0.1458  0.3115
36410DPPC   C4B44606  24.774   4.537  17.432 -0.1828 -0.0268  0.0045
36411DPPC   NC344607  24.452   0.157  15.786  0.2080  0.3303  0.0849
36411DPPC   PO444608  24.154  -0.018  15.946  0.0103  0.2887  0.2473
36411DPPC   GL144609  24.099  -0.061  16.314  0.2510 -0.0264  0.0752
36411DPPC   GL244610  24.300   0.068  16.447 -0.2611 -0.1549  0.1777
36411DPPC   C1A44611  23.771  -0.083  16.545  0.1160  0.2848  0.1250
36411DPPC   C2A44612  23.692  -0.077  16.930  0.0101 -0.0635  0.0980
36411DPPC   C3A44613  23.688  -0.026  17.404 -0.1603 -0.0409  0.1179
36411DPPC   C4A44614  23.686  -0.027  17.883 -0.0989 -0.2352 -0.1843
36411DPPC   C1B44615  24.150   0.093  16.823 -0.1271  0.0932  0.1162
36411DPPC   C2B44616  24.166   0.052  17.195  0.0720 -0.0791 -0.0844
36411DPPC   C3B44617  24.183   0.062  17.666  0.0644 -0.2793 -0.1537
36411DPPC   C4B44618  24.215   0.074  18.155  0.2904 -0.0811 -0.1236
36412DPPC   NC344619   0.208   4.045  15.399  0.0559 -0.0278 -0.0629
36412DPPC   PO444620  -0.165   3.852  15.474 -0.2973 -0.0346 -0.0196
36412DPPC   GL144621  -0.307   3.763  15.850 -0.0793  0.0484 -0.0813
36412DPPC   GL244622  -0.460   3.575  15.792  0.1151  0.3079  0.2460
36412DPPC   C1A44623  -0.256   3.703  16.227  0.4899  0.1816  0.4347
36412DPPC   C2A44624  -0.189   3.561  16.628  0.2195 -0.1785  0.0362
36412DPPC   C3A44625  -0.169   3.572  17.103  0.1634  0.0985 -0.1902
36412DPPC   C4A44626  -0.056   3.613  17.603  0.1173  0.1646 -0.1310
36412DPPC   C1B44627  -0.508   3.289  15.994 -0.2156 -0.0099  0.0084
36412DPPC   C2B44628  -0.417   3.127  16.409  0.0355  0.1989  0.3517
36412DPPC   C3B44629  -0.338   3.121  16.868 -0.1436 -0.1207 -0.3415
36412DPPC   C4B44630  -0.251   3.050  17.364  0.1419  0.0206 -0.1799
36413DPPC   NC344631  25.589   4.392  15.384  0.2097  0.1097 -0.0465
36413DPPC   PO444632  25.275   4.580  15.523  0.2010  0.0689  0.0864
36413DPPC   GL144633  25.100   4.620  15.940  0.0823  0.1883  0.2142
36413DPPC   GL244634  25.032   4.293  15.863  0.0235  0.0211  0.0739
36413DPPC   C1A44635  25.147   4.703  16.333  0.0211  0.2526  0.2819
36413DPPC   C2A44636  25.239   4.739  16.754  0.1246  0.0346  0.1933
36413DPPC   C3A44637  25.276   4.650  17.231  0.0492 -0.0710 -0.1198
36413DPPC   C4A44638  25.242   4.636  17.754 -0.0022 -0.0445 -0.0428
36413DPPC   C1B44639  24.968   4.265  16.209  0.3472  0.1262  0.4116
36413DPPC   C2B44640  25.041   4.278  16.580  0.0316  0.0255  0.0672
36413DPPC   C3B44641  25.133   4.192  16.978 -0.0940 -0.1525 -0.1389
36413DPPC   C4B44642  25.145   4.204  17.456 -0.5205 -0.4860  0.1437
36414DPPC   NC344643  23.907   6.285  15.607  0.0390 -0.0299 -0.1798
36414DPPC   PO444644  23.724   6.638  15.651  0.0789 -0.1736  0.0230
36414DPPC   GL144645  23.614   6.596  16.012 -0.2460  0.0974  0.2095
36414DPPC   GL244646  23.809   6.340  16.117  0.4468 -0.2130 -0.0075
36414DPPC   C1A44647  23.490   6.793  16.225  0.0796 -0.2272 -0.0709
36414DPPC   C2A44648  23.395   6.918  16.579  0.0438 -0.2163 -0.1481
36414DPPC   C3A44649  23.358   6.953  17.066  0.1385 -0.2451 -0.1866
36414DPPC   C4A44650  23.418   6.930  17.580 -0.0526 -0.1053 -0.0202
36414DPPC   C1B44651  23.574   6.226  16.342 -0.0974 -0.2218  0.2912
36414DPPC   C2B44652  23.495   6.098  16.725 -0.0381 -0.4234  0.0628
36414DPPC   C3B44653  23.550   6.125  17.191  0.1636  0.0438 -0.2260
36414DPPC   C4B44654  23.448   6.169  17.674 -0.0462 -0.0155 -0.1000
36415DPPC   NC344655  26.268   4.974  15.810  0.0434  0.0184 -0.0876
36415DPPC   PO444656  26.386   5.338  15.712  0.1297 -0.1553 -0.3526
36415DPPC   GL144657  26.585   5.337  16.034 -0.1433 -0.0831  0.4817
36415DPPC   GL244658  26.301   5.375  16.187 -0.3002  0.1148  0.3409
36415DPPC   C1A44659  26.836   5.350  16.319 -0.4116  0.1750 -0.2905
36415DPPC   C2A44660  26.966   5.479  16.731 -0.2842 -0.0487  0.0935
36415DPPC   C3A44661  26.906   5.502  17.229  0.1112 -0.0869  0.0067
36415DPPC   C4A44662  27.021   5.481  17.737 -0.1035 -0.0440 -0.1423
36415DPPC   C1B44663  26.448   5.364  16.501  0.1577 -0.0494  0.2852
36415DPPC   C2B44664  26.490   5.421  16.918  0.1369  0.0220  0.1663
36415DPPC   C3B44665  26.429   5.398  17.413 -0.0426 -0.3027  0.2805
36415DPPC   C4B44666  26.532   5.410  17.894 -0.2699  0.0348 -0.2073
36416DPPC   NC344667  22.102   3.142  15.864 -0.1604 -0.2706  0.0462
36416DPPC   PO444668  22.043   3.561  15.963  0.1632 -0.1168 -0.0310
36416DPPC   GL144669  22.166   3.603  16.335 -0.0452  0.2226 -0.3427
36416DPPC   GL244670  22.302   3.877  16.244  0.1961  0.0346 -0.0469
36416DPPC   C1A44671  22.166   3.586  16.706  0.1247 -0.0092 -0.1271
36416DPPC   C2A44672  22.192   3.660  17.088  0.0760  0.2113 -0.0260
36416DPPC   C3A44673  22.220   3.645  17.555  0.1852  0.2492 -0.0051
36416DPPC   C4A44674  22.254   3.680  18.075 -0.0642 -0.0149 -0.1476
36416DPPC   C1B44675  22.329   4.041  16.521 -0.0174  0.1601  0.1914
36416DPPC   C2B44676  22.290   4.119  16.927 -0.1248 -0.0848  0.0542
36416DPPC   C3B44677  22.347   4.101  17.397 -0.0489  0.0660  0.3911
36416DPPC   C4B44678  22.386   4.166  17.914  0.2588 -0.0329  0.2201
36417DPPC   NC344679  22.827   0.026  15.594  0.1639  0.0763 -0.0998
36417DPPC   PO444680  22.643   0.343  15.737  0.0745 -0.4414 -0.0703
36417DPPC   GL144681  22.514   0.366  16.148  0.1732  0.1482 -0.1461
36417DPPC   GL244682  22.838   0.382  16.172 -0.1422 -0.1752  0.1417
36417DPPC   C1A44683  22.514   0.482  16.525  0.0563  0.0581  0.2434
36417DPPC   C2A44684  22.496   0.598  16.918  0.0082 -0.2589  0.2363
36417DPPC   C3A44685  22.496   0.579  17.430 -0.1081  0.0979  0.2397
36417DPPC   C4A44686  22.578   0.638  17.933  0.2330  0.1348 -0.1746
36417DPPC   C1B44687  22.997   0.538  16.471  0.0681  0.0705 -0.0923
36417DPPC   C2B44688  23.035   0.634  16.878 -0.0979  0.0445  0.1430
36417DPPC   C3B44689  23.110   0.674  17.369 -0.2110  0.1673  0.3290
36417DPPC   C4B44690  23.097   0.642  17.861 -0.3261  0.2772  0.1859
36418DPPC   NC344691  22.599   6.011  15.674  0.2874  0.3529  0.3377
36418DPPC   PO444692  22.902   6.189  15.805  0.1346  0.0300 -0.2168
36418DPPC   GL144693  23.062   6.145  16.207  0.1240 -0.2292 -0.0430
36418DPPC   GL244694  23.126   6.403  16.201  0.0410 -0.1382  0.1759
36418DPPC   C1A44695  23.117   6.037  16.553  0.2210  0.3133 -0.2322
36418DPPC   C2A44696  23.019   5.925  16.924 -0.1935 -0.0292  0.0525
36418DPPC   C3A44697  23.078   5.996  17.364  0.1995  0.0289 -0.0279
36418DPPC   C4A44698  23.039   6.055  17.889  0.2463  0.3064 -0.2024
36418DPPC   C1B44699  23.175   6.476  16.516 -0.4220 -0.0447 -0.1956
36418DPPC   C2B44700  23.160   6.441  16.967 -0.1047 -0.1002 -0.0015
36418DPPC   C3B44701  23.198   6.492  17.422  0.1493  0.0307  0.0624
36418DPPC   C4B44702  23.167   6.569  17.898 -0.1095  0.2463  0.2978
36419DPPC   NC344703  25.402   6.179  15.459 -0.3427 -0.0151  0.1189
36419DPPC   PO444704  25.756   6.073  15.623 -0.0786 -0.1633 -0.3401
36419DPPC   GL144705  25.887   6.136  16.068  0.3119 -0.0058  0.0715
36419DPPC   GL244706  25.881   6.361  16.045  0.3115  0.1926  0.0246
36419DPPC   C1A44707  25.790   6.152  16.433 -0.1498  0.2987  0.2324
36419DPPC   C2A44708  25.772   6.124  16.846  0.1679  0.0631  0.2947
36419DPPC   C3A44709  25.809   6.116  17.345  0.4420  0.0357  0.2853
36419DPPC   C4A44710  25.836   6.165  17.820  0.1462  0.1375 -0.0179
36419DPPC   C1B44711  25.928   6.538  16.322 -0.0619  0.1693 -0.0602
36419DPPC   C2B44712  25.934   6.627  16.740 -0.0605  0.0528  0.1153
36419DPPC   C3B44713  25.967   6.616  17.195 -0.0549 -0.2125 -0.0424
36419DPPC   C4B44714  25.952   6.606  17.690 -0.3672 -0.1749  0.1638
36420DPPC   NC344715  21.702   1.543  15.540 -0.0053 -0.1172 -0.0469
36420DPPC   PO444716  21.774   1.300  15.834  0.0176 -0.0173  0.3934
36420DPPC   GL144717  21.950   1.322  16.191 -0.0295  0.1634  0.0789
36420DPPC   GL244718  22.226   1.440  16.158  0.1133 -0.0138 -0.0522
36420DPPC   C1A44719  21.810   1.230  16.498  0.0663 -0.0699 -0.3481
36420DPPC   C2A44720  21.901   1.256  16.882 -0.1387  0.0547 -0.3446
36420DPPC   C3A44721  21.896   1.322  17.385 -0.1901  0.0812  0.0896
36420DPPC   C4A44722  21.864   1.349  17.818 -0.1735  0.1988  0.0091
36420DPPC   C1B44723  22.426   1.435  16.482 -0.1736  0.2172 -0.3094
36420DPPC   C2B44724  22.400   1.374  16.869 -0.3165 -0.0377 -0.0465
36420DPPC   C3B44725  22.403   1.415  17.335  0.3796  0.0551 -0.2173
36420DPPC   C4B44726  22.399   1.408  17.840 -0.1570  0.0714  0.2307
36421DPPC   NC344727  25.749   0.626  15.587 -0.1280 -0.1052 -0.0951
36421DPPC   PO444728  25.707   1.041  15.673  0.2799 -0.1394 -0.3417
36421DPPC   GL144729  25.441   1.170  15.920 -0.2858  0.0839  0.4252
36421DPPC   GL244730  25.425   1.442  15.860  0.7101 -0.1461 -0.4013
36421DPPC   C1A44731  25.554   1.153  16.260  0.1040 -0.0868  0.2651
36421DPPC   C2A44732  25.478   1.170  16.646  0.1117 -0.1029 -0.1692
36421DPPC   C3A44733  25.492   1.191  17.111 -0.1117 -0.0355  0.1122
36421DPPC   C4A44734  25.454   1.217  17.618 -0.0616  0.1554 -0.1778
36421DPPC   C1B44735  25.246   1.561  16.184 -0.0338  0.3325 -0.3074
36421DPPC   C2B44736  25.134   1.571  16.585  0.0526 -0.2671  0.2609
36421DPPC   C3B44737  25.087   1.628  17.066 -0.0454  0.1680 -0.2781
36421DPPC   C4B44738  25.150   1.612  17.530  0.1567  0.0147 -0.2059
36422DPPC   NC344739  22.409   5.166  15.644  0.2050 -0.1308  0.0919
36422DPPC   PO444740  22.074   4.971  15.664 -0.2852  0.0372 -0.1824
36422DPPC   GL144741  22.072   4.781  16.085 -0.0462  0.1448  0.1749
36422DPPC   GL244742  21.864   4.926  16.238 -0.1531 -0.2071  0.2282
36422DPPC   C1A44743  22.435   4.904  16.195  0.1240  0.0212  0.0997
36422DPPC   C2A44744  22.613   5.043  16.547 -0.0026  0.0818  0.1563
36422DPPC   C3A44745  22.651   5.039  17.059 -0.3344 -0.1966 -0.1483
36422DPPC   C4A44746  22.746   5.097  17.535  0.1819  0.2445  0.1796
36422DPPC   C1B44747  22.134   4.901  16.585 -0.0037  0.5041 -0.0540
36422DPPC   C2B44748  22.160   4.938  17.019  0.0606 -0.0447  0.0042
36422DPPC   C3B44749  22.201   5.023  17.503  0.0651 -0.2548 -0.1633
36422DPPC   C4B44750  22.224   4.962  18.040 -0.0054  0.1679  0.0624
36423DPPC   NC344751  21.853   6.115  16.345 -0.1680  0.1007  0.4034
36423DPPC   PO444752  21.655   6.276  16.053 -0.3033  0.0845  0.2763
36423DPPC   GL144753  21.408   6.500  16.148  0.1009  0.0998  0.0641
36423DPPC   GL244754  21.464   6.643  16.328 -0.2573 -0.0206  0.3428
36423DPPC   C1A44755  21.114   6.349  16.298  0.2523  0.0758 -0.2380
36423DPPC   C2A44756  20.845   6.420  16.558 -0.3409  0.3953  0.0825
36423DPPC   C3A44757  20.800   6.410  17.065  0.2193  0.0807  0.2378
36423DPPC   C4A44758  20.900   6.483  17.529  0.0876  0.4600  0.0352
36423DPPC   C1B44759  21.322   6.506  16.629 -0.1242 -0.1124 -0.0131
36423DPPC   C2B44760  21.305   6.479  17.055  0.0030 -0.2706  0.0178
36423DPPC   C3B44761  21.376   6.519  17.530  0.3102  0.0327  0.0053
36423DPPC   C4B44762  21.418   6.572  17.991 -0.2505  0.0009 -0.1258
36424DPPC   NC344763  22.061   1.058  15.395  0.1272  0.4360 -0.3144
36424DPPC   PO444764  21.853   0.780  15.646  0.3454  0.0242 -0.0536
36424DPPC   GL144765  21.778   0.691  16.038  0.1173  0.3092 -0.1220
36424DPPC   GL244766  21.708   0.900  16.168 -0.1964  0.2720 -0.0634
36424DPPC   C1A44767  21.723   0.427  16.356  0.0498  0.1358  0.0277
36424DPPC   C2A44768  21.509   0.392  16.673  0.0677  0.1496 -0.1580
36424DPPC   C3A44769  21.481   0.325  17.162  0.3778 -0.0977  0.1759
36424DPPC   C4A44770  21.609   0.411  17.647  0.1537 -0.0016 -0.0709
36424DPPC   C1B44771  21.730   0.815  16.541  0.1440 -0.2227 -0.2381
36424DPPC   C2B44772  21.661   0.789  16.969 -0.2339 -0.1611  0.0995
36424DPPC   C3B44773  21.784   0.835  17.403  0.1008  0.2011 -0.0655
36424DPPC   C4B44774  21.809   0.824  17.875 -0.1643  0.0693 -0.1361
36425DPPA   PO444775  24.437   2.444  15.658  0.0909 -0.0715  0.0455
36425DPPA   GL144776  24.790   2.550  15.906  0.0732 -0.0846 -0.0074
36425DPPA   GL244777  24.990   2.351  15.843  0.1362  0.1096  0.2954
36425DPPA   C1A44778  24.887   2.436  16.269 -0.1032  0.0819 -0.0090
36425DPPA   C2A44779  24.942   2.456  16.678 -0.2823  0.1074  0.0434
36425DPPA   C3A44780  24.986   2.511  17.135  0.1218  0.1663 -0.0549
36425DPPA   C4A44781  25.011   2.502  17.651  0.0181 -0.1657  0.2135
36425DPPA   C1B44782  25.163   2.147  16.135 -0.0024  0.1402 -0.2162
36425DPPA   C2B44783  25.257   2.053  16.538  0.1783  0.1179  0.1155
36425DPPA   C3B44784  25.329   2.049  17.016  0.0785  0.2839  0.0953
36425DPPA   C4B44785  25.377   2.079  17.536  0.2494 -0.3124  0.1135
36426DPPA   PO444786  25.261   2.152  15.487  0.3470  0.0992  0.0561
36426DPPA   GL144787  25.429   2.428  15.655 -0.0803 -0.1580 -0.2272
36426DPPA   GL244788  25.553   2.607  15.515 -0.3598  0.3016 -0.1114
36426DPPA   C1A44789  25.391   2.487  15.962  0.2013  0.0437 -0.1360
36426DPPA   C2A44790  25.503   2.443  16.368 -0.0254 -0.2243  0.0462
36426DPPA   C3A44791  25.445   2.557  16.878  0.3656  0.0738 -0.1956
36426DPPA   C4A44792  25.456   2.611  17.406  0.1268  0.0749 -0.0688
36426DPPA   C1B44793  25.663   2.877  15.770  0.1311 -0.1288 -0.0460
36426DPPA   C2B44794  25.579   2.926  16.169 -0.0711 -0.0939  0.1301
36426DPPA   C3B44795  25.570   2.982  16.650  0.1174 -0.1396  0.1350
36426DPPA   C4B44796  25.636   3.040  17.120  0.1268  0.0912 -0.0348
36427DPPA   PO444797  22.536   3.567  15.779  0.2007 -0.0281  0.1878
36427DPPA   GL144798  22.599   3.597  16.173 -0.1446 -0.1197  0.0916
36427DPPA   GL244799  22.523   3.317  16.201  0.0960  0.0786 -0.1903
36427DPPA   C1A44800  22.784   3.803  16.410 -0.2875 -0.0089  0.1298
36427DPPA   C2A44801  22.681   3.741  16.809 -0.0862 -0.0605 -0.1698
36427DPPA   C3A44802  22.682   3.709  17.279  0.1596  0.2145  0.1384
36427DPPA   C4A44803  22.691   3.673  17.719 -0.3978  0.1159 -0.1111
36427DPPA   C1B44804  22.547   3.298  16.594  0.1350 -0.0426 -0.1219
36427DPPA   C2B44805  22.532   3.205  17.023 -0.2390 -0.2029 -0.1711
36427DPPA   C3B44806  22.543   3.258  17.498 -0.0683 -0.1572  0.0370
36427DPPA   C4B44807  22.507   3.234  18.039  0.0327 -0.1595 -0.2515
36428DPPA   PO444808  21.362   4.691  15.421 -0.1108  0.0687 -0.1915
36428DPPA   GL144809  21.279   4.480  15.818  0.2331  0.0651  0.0188
36428DPPA   GL244810  21.058   4.644  15.873  0.1277  0.2963  0.2036
36428DPPA   C1A44811  21.433   4.375  16.164  0.1664  0.1283  0.2447
36428DPPA   C2A44812  21.561   4.344  16.578  0.0328  0.1549 -0.2161
36428DPPA   C3A44813  21.547   4.374  17.039 -0.2113 -0.2243 -0.1735
36428DPPA   C4A44814  21.591   4.355  17.504  0.1886  0.1780 -0.1696
36428DPPA   C1B44815  21.116   4.628  16.265  0.1554 -0.2513 -0.3492
36428DPPA   C2B44816  21.202   4.719  16.689 -0.0192  0.1986 -0.0327
36428DPPA   C3B44817  21.211   4.775  17.151  0.3147  0.3309  0.0861
36428DPPA   C4B44818  21.233   4.753  17.625 -0.1888 -0.1003 -0.2069
36429DPPA   PO444819  20.910   5.526  15.776 -0.2847  0.1977 -0.1446
36429DPPA   GL144820  21.085   5.336  16.110  0.1370 -0.2001 -0.0442
36429DPPA   GL244821  20.927   5.043  16.105 -0.0768  0.1939 -0.1847
36429DPPA   C1A44822  20.915   5.452  16.398  0.1528 -0.0526 -0.0061
36429DPPA   C2A44823  20.936   5.604  16.773 -0.1694 -0.2023 -0.1207
36429DPPA   C3A44824  21.025   5.658  17.253 -0.1549  0.1233  0.1443
36429DPPA   C4A44825  21.062   5.553  17.693 -0.1998 -0.0393  0.1896
36429DPPA   C1B44826  20.759   5.036  16.431  0.0213  0.0907 -0.2304
36429DPPA   C2B44827  20.814   5.135  16.847 -0.1710  0.0402 -0.0173
36429DPPA   C3B44828  20.886   5.145  17.348  0.0363 -0.0397 -0.1802
36429DPPA   C4B44829  20.938   5.098  17.865  0.0568  0.1774 -0.0864
36430DPPA   PO444830  24.362   4.008  15.515 -0.2872  0.1804 -0.0122
36430DPPA   GL144831  24.697   3.946  15.823  0.0049 -0.0795  0.0314
36430DPPA   GL244832  24.615   4.226  15.943 -0.0525  0.1984 -0.0810
36430DPPA   C1A44833  24.452   3.847  16.103 -0.0814  0.1270 -0.1501
36430DPPA   C2A44834  24.432   3.651  16.506  0.2104 -0.4594  0.0718
36430DPPA   C3A44835  24.402   3.684  17.010 -0.3047  0.3240 -0.0043
36430DPPA   C4A44836  24.458   3.683  17.534  0.2631  0.0857 -0.0291
36430DPPA   C1B44837  24.569   4.217  16.289 -0.1654  0.3087 -0.2495
36430DPPA   C2B44838  24.608   4.132  16.674 -0.2599  0.1611 -0.1346
36430DPPA   C3B44839  24.631   4.098  17.196 -0.1728  0.2448  0.1730
36430DPPA   C4B44840  24.662   4.095  17.721 -0.0336 -0.0623 -0.1262
36431DPPA   PO444841  19.957   2.308  15.412 -0.4187  0.2242  0.1264
36431DPPA   GL144842  20.111   2.279  15.742  0.4724  0.1772 -0.0040
36431DPPA   GL244843  20.349   2.363  15.744  0.0810 -0.2663 -0.0562
36431DPPA   C1A44844  19.942   2.234  16.106  0.0113  0.1963 -0.1350
36431DPPA   C2A44845  19.855   2.275  16.507  0.0464  0.2397  0.0510
36431DPPA   C3A44846  19.939   2.304  16.980 -0.1810 -0.1215  0.0124
36431DPPA   C4A44847  19.987   2.217  17.466  0.1037  0.0777  0.0570
36431DPPA   C1B44848  20.372   2.360  16.134 -0.0442  0.0214 -0.0321
36431DPPA   C2B44849  20.438   2.376  16.491 -0.2045 -0.0617  0.0086
36431DPPA   C3B44850  20.449   2.376  16.984 -0.0091 -0.0985 -0.0390
36431DPPA   C4B44851  20.490   2.364  17.477  0.1836  0.2510  0.0086
36432DPPA   PO444852  25.020   1.196  15.658 -0.1679  0.2185  0.0447
36432DPPA   GL144853  24.865   1.383  16.036  0.1978 -0.2847 -0.2185
36432DPPA   GL244854  24.871   1.103  16.176  0.1065 -0.0984  0.1033
36432DPPA   C1A44855  24.817   1.717  16.218  0.0913  0.0316 -0.3133
36432DPPA   C2A44856  24.719   1.959  16.503  0.2192  0.1244 -0.0645
36432DPPA   C3A44857  24.813   2.013  16.977 -0.0270  0.0709 -0.0300
36432DPPA   C4A44858  24.811   2.058  17.471  0.1649  0.3380 -0.0475
36432DPPA   C1B44859  24.962   0.994  16.491 -0.3474 -0.0270  0.0459
36432DPPA   C2B44860  24.977   1.052  16.904  0.1748  0.1637  0.4085
36432DPPA   C3B44861  24.954   1.177  17.382 -0.0108  0.1312  0.1341
36432DPPA   C4B44862  24.983   1.084  17.888  0.1632  0.1763  0.0266
36433DPPA   PO444863  23.985   5.747  15.519  0.1341  0.1819 -0.1074
36433DPPA   GL144864  24.110   5.966  16.013  0.1025 -0.0920  0.0486
36433DPPA   GL244865  24.097   5.687  15.919  0.0328  0.0217 -0.1601
36433DPPA   C1A44866  24.082   6.061  16.353  0.0385  0.0023  0.1271
36433DPPA   C2A44867  24.031   6.220  16.719 -0.0395 -0.0052 -0.0424
36433DPPA   C3A44868  24.012   6.170  17.137  0.1590  0.0555 -0.1746
36433DPPA   C4A44869  23.921   6.223  17.552 -0.0151  0.0957 -0.0922
36433DPPA   C1B44870  24.142   5.438  16.146  0.0633  0.1929 -0.0037
36433DPPA   C2B44871  24.093   5.331  16.544 -0.3172  0.1167  0.2004
36433DPPA   C3B44872  24.131   5.336  17.051 -0.0894 -0.1336 -0.1975
36433DPPA   C4B44873  24.180   5.406  17.526  0.3042  0.0927 -0.1490
36434DPPA   PO444874  21.560   3.121  15.703  0.1306 -0.1587 -0.3449
36434DPPA   GL144875  21.466   3.210  16.173  0.0250  0.1817 -0.2252
36434DPPA   GL244876  21.683   3.382  16.232  0.2927  0.3477  0.1059
36434DPPA   C1A44877  21.246   2.984  16.338  0.1223  0.1249 -0.0756
36434DPPA   C2A44878  21.186   2.942  16.744  0.1056  0.2481  0.3397
36434DPPA   C3A44879  21.173   2.857  17.220  0.1018 -0.1148  0.0469
36434DPPA   C4A44880  21.175   2.880  17.679 -0.2485  0.0216  0.2649
36434DPPA   C1B44881  21.796   3.432  16.589  0.1876 -0.2905  0.4142
36434DPPA   C2B44882  21.736   3.476  16.974  0.0686 -0.1063 -0.2591
36434DPPA   C3B44883  21.709   3.540  17.463 -0.2493  0.1735 -0.0890
36434DPPA   C4B44884  21.706   3.586  17.990  0.0130 -0.3476  0.1553
36435DPPA   PO444885  25.755   2.193  15.400 -0.0890  0.2119  0.0284
36435DPPA   GL144886  25.651   2.042  15.789  0.2587 -0.2584  0.1397
36435DPPA   GL244887  25.821   2.225  15.990  0.0312  0.0310 -0.1921
36435DPPA   C1A44888  25.536   1.894  16.081  0.1982 -0.1890 -0.0888
36435DPPA   C2A44889  25.608   1.671  16.409 -0.1954  0.1505 -0.2275
36435DPPA   C3A44890  25.583   1.617  16.868  0.1485 -0.1193 -0.1686
36435DPPA   C4A44891  25.628   1.628  17.330 -0.1667  0.0854  0.1409
36435DPPA   C1B44892  25.850   2.123  16.356  0.2016  0.1881 -0.2614
36435DPPA   C2B44893  25.751   2.133  16.729 -0.0231  0.0671  0.0594
36435DPPA   C3B44894  25.780   2.214  17.232 -0.0586 -0.0884  0.0979
36435DPPA   C4B44895  25.832   2.228  17.738  0.1641 -0.1585  0.0520
36436DPPA   PO444896  25.203   3.071  15.295  0.5028  0.0398  0.1032
36436DPPA   GL144897  25.130   2.967  15.696  0.1200 -0.0443 -0.0507
36436DPPA   GL244898  25.183   3.223  15.713  0.0493  0.1734 -0.1501
36436DPPA   C1A44899  25.091   2.782  16.013 -0.1639 -0.3035  0.2791
36436DPPA   C2A44900  25.144   2.803  16.385  0.0092 -0.0573  0.0151
36436DPPA   C3A44901  25.078   2.946  16.785  0.0078 -0.1605  0.1109
36436DPPA   C4A44902  25.137   2.963  17.271 -0.1170  0.1748 -0.4204
36436DPPA   C1B44903  25.200   3.211  16.058  0.0010  0.0203 -0.1448
36436DPPA   C2B44904  25.233   3.296  16.476  0.0002 -0.1005 -0.0271
36436DPPA   C3B44905  25.283   3.377  16.936 -0.1311 -0.2272 -0.0760
36436DPPA   C4B44906  25.278   3.376  17.437  0.2082  0.0573  0.1802
36437DPPA   PO444907  22.834   5.565  15.669 -0.0262 -0.1990  0.0933
36437DPPA   GL144908  22.989   5.720  16.020 -0.2407 -0.1433  0.1849
36437DPPA   GL244909  22.716   5.928  16.128 -0.2065 -0.2060  0.0184
36437DPPA   C1A44910  23.239   5.669  16.345 -0.3102 -0.0545  0.1388
36437DPPA   C2A44911  23.314   5.619  16.724 -0.0682 -0.1768  0.0381
36437DPPA   C3A44912  23.335   5.568  17.178 -0.1804 -0.4754  0.0401
36437DPPA   C4A44913  23.406   5.720  17.663  0.0647  0.1092  0.1943
36437DPPA   C1B44914  22.708   6.145  16.459 -0.2979 -0.1026 -0.1489
36437DPPA   C2B44915  22.715   6.295  16.789 -0.1418 -0.3606  0.0417
36437DPPA   C3B44916  22.751   6.325  17.222  0.3457  0.1610 -0.4348
36437DPPA   C4B44917  22.684   6.366  17.699 -0.0182 -0.0755 -0.0234
36438DPPA   PO444918  26.178   0.904  15.352  0.1317 -0.2223 -0.0030
36438DPPA   GL144919  26.124   0.999  15.844  0.0840  0.1481  0.0563
36438DPPA   GL244920  26.173   0.715  15.843 -0.1007 -0.0651 -0.0578
36438DPPA   C1A44921  26.259   1.049  16.198 -0.2937 -0.0388  0.2739
36438DPPA   C2A44922  26.237   0.953  16.622 -0.1169  0.2064  0.0437
36438DPPA   C3A44923  26.251   0.934  17.089  0.0650  0.1349 -0.0507
36438DPPA   C4A44924  26.384   0.965  17.575 -0.0352 -0.2661  0.0539
36438DPPA   C1B44925  26.191   0.626  16.209 -0.0049 -0.0888  0.2249
36438DPPA   C2B44926  26.102   0.451  16.589 -0.1363  0.0352 -0.0901
36438DPPA   C3B44927  26.157   0.433  17.044  0.0525  0.0238 -0.0416
36438DPPA   C4B44928  26.177   0.529  17.533  0.0627 -0.1598 -0.4031
36439DPPA   PO444929   0.156   0.977  15.715  0.1010 -0.0832 -0.0429
36439DPPA   GL144930   0.188   0.680  16.049  0.2848  0.1818  0.1412
36439DPPA   GL244931   0.337   0.973  16.136  0.0952 -0.1009 -0.2028
36439DPPA   C1A44932   0.164   0.561  16.381  0.2586 -0.0626 -0.1902
36439DPPA   C2A44933   0.149   0.560  16.825 -0.1265  0.0268 -0.2190
36439DPPA   C3A44934   0.196   0.601  17.277  0.0692  0.0262 -0.0001
36439DPPA   C4A44935   0.279   0.608  17.741 -0.0173  0.1097 -0.1521
36439DPPA   C1B44936   0.371   0.929  16.490 -0.1256  0.1778  0.1180
36439DPPA   C2B44937   0.326   1.044  16.862  0.3554  0.1351  0.2656
36439DPPA   C3B44938   0.370   1.110  17.317  0.0412 -0.4945 -0.0878
36439DPPA   C4B44939   0.337   1.134  17.825  0.0955 -0.0095  0.0671
36440DPPA   PO444940  22.202   2.651  15.876  0.0052 -0.2242  0.0118
36440DPPA   GL144941  22.111   2.224  15.963  0.4136 -0.2691  0.1609
36440DPPA   GL244942  21.893   2.377  16.126  0.1909 -0.2452  0.1611
36440DPPA   C1A44943  22.178   2.098  16.298 -0.4039  0.0652  0.0423
36440DPPA   C2A44944  22.233   2.175  16.693 -0.0563 -0.0478 -0.0302
36440DPPA   C3A44945  22.272   2.327  17.135  0.2237 -0.0903 -0.1528
36440DPPA   C4A44946  22.243   2.343  17.607  0.0957 -0.2035 -0.1358
36440DPPA   C1B44947  21.883   2.482  16.486 -0.0626 -0.0120 -0.0298
36440DPPA   C2B44948  21.929   2.567  16.908  0.1390 -0.2157 -0.1015
36440DPPA   C3B44949  21.911   2.609  17.377 -0.4145 -0.0018  0.0946
36440DPPA   C4B44950  21.905   2.637  17.880  0.2013 -0.2034  0.2411
36441DPPA   PO444951  22.412   6.438  15.594  0.0407 -0.1027 -0.0610
36441DPPA   GL144952  22.511   6.397  16.027 -0.0141 -0.1395 -0.0805
36441DPPA   GL244953  22.693   6.554  16.069  0.1097  0.0320  0.0806
36441DPPA   C1A44954  22.337   6.333  16.373  0.2185  0.0778 -0.0620
36441DPPA   C2A44955  22.236   6.265  16.726  0.0340  0.0536 -0.2239
36441DPPA   C3A44956  22.263   6.255  17.212  0.0618  0.0453 -0.1107
36441DPPA   C4A44957  22.213   6.254  17.742 -0.0483  0.0427  0.1281
36441DPPA   C1B44958  22.757   6.608  16.413  0.0990 -0.2731 -0.2588
36441DPPA   C2B44959  22.848   6.803  16.745 -0.0150  0.0874 -0.0733
36441DPPA   C3B44960  22.866   6.847  17.155  0.0570 -0.1758 -0.0338
36441DPPA   C4B44961  22.853   6.907  17.635 -0.0789 -0.3533  0.1533
36442DPPA   PO444962  24.390   1.612  15.934 -0.0465  0.0778  0.2659
36442DPPA   GL144963  24.435   1.361  16.181 -0.3479  0.0521 -0.3909
36442DPPA   GL244964  24.217   1.318  16.400  0.1262  0.1600  0.2005
36442DPPA   C1A44965  24.717   1.385  16.443 -0.1130  0.3534  0.5762
36442DPPA   C2A44966  24.630   1.469  16.836  0.0899 -0.0342  0.1235
36442DPPA   C3A44967  24.650   1.557  17.309  0.1860 -0.2326 -0.0416
36442DPPA   C4A44968  24.662   1.490  17.803  0.2553  0.0359  0.2045
36442DPPA   C1B44969  24.190   1.393  16.714 -0.1819  0.4650  0.2953
36442DPPA   C2B44970  24.208   1.377  17.103 -0.1994 -0.2708 -0.1330
36442DPPA   C3B44971  24.173   1.376  17.584 -0.1299  0.0379  0.2346
36442DPPA   C4B44972  24.190   1.416  18.095 -0.2211 -0.1801  0.4788
36443DPPA   PO444973  23.561   3.608  15.540  0.0579 -0.3807 -0.0038
36443DPPA   GL144974  23.505   3.614  16.011  0.1409 -0.1174  0.0390
36443DPPA   GL244975  23.426   3.361  15.963  0.2107 -0.1566 -0.2015
36443DPPA   C1A44976  23.631   3.600  16.363  0.0582  0.7240  0.1810
36443DPPA   C2A44977  23.415   3.559  16.788  0.0255  0.2200  0.3719
36443DPPA   C3A44978  23.499   3.505  17.263  0.0912  0.0297 -0.1637
36443DPPA   C4A44979  23.531   3.469  17.770 -0.1726  0.0373  0.3499
36443DPPA   C1B44980  23.440   3.244  16.297  0.1056  0.4677  0.0089
36443DPPA   C2B44981  23.344   3.044  16.634 -0.0377 -0.0509 -0.3118
36443DPPA   C3B44982  23.363   2.940  17.079 -0.0379 -0.1044 -0.1427
36443DPPA   C4B44983  23.363   3.004  17.567 -0.1416 -0.0833 -0.0924
36444DPPA   PO444984  25.205   4.077  15.458  0.2054 -0.0115 -0.1164
36444DPPA   GL144985  25.383   4.010  15.895 -0.0981 -0.1650 -0.4271
36444DPPA   GL244986  25.426   4.293  15.938 -0.0282  0.4292  0.0391
36444DPPA   C1A44987  25.362   3.908  16.261  0.2310 -0.1915 -0.2199
36444DPPA   C2A44988  25.365   3.799  16.685  0.0577  0.1219  0.0979
36444DPPA   C3A44989  25.515   3.838  17.166 -0.1652 -0.1824 -0.0160
36444DPPA   C4A44990  25.526   3.862  17.650  0.1407 -0.2501  0.0040
36444DPPA   C1B44991  25.387   4.333  16.267 -0.4061 -0.2198  0.2487
36444DPPA   C2B44992  25.528   4.322  16.648 -0.0567  0.1321 -0.0901
36444DPPA   C3B44993  25.628   4.340  17.116 -0.2064  0.1324 -0.3122
36444DPPA   C4B44994  25.702   4.343  17.625  0.1570  0.2440 -0.1279
36445DPPA   PO444995  20.710   2.650  15.769 -0.1970  0.0549 -0.3548
36445DPPA   GL144996  20.945   2.732  16.119  0.2148  0.2306 -0.2972
36445DPPA   GL244997  20.814   2.437  16.234  0.1712 -0.0600  0.1245
36445DPPA   C1A44998  20.821   2.867  16.428 -0.1183  0.1434 -0.1290
36445DPPA   C2A44999  20.689   2.780  16.794 -0.4986  0.1676  0.1986
36445DPPA   C3A45000  20.640   2.831  17.212  0.0794  0.1130  0.2422
36445DPPA   C4A45001  20.681   2.830  17.693  0.1822  0.2706 -0.1975
36445DPPA   C1B45002  20.895   2.395  16.603 -0.3039 -0.0984 -0.0028
36445DPPA   C2B45003  20.911   2.393  17.006 -0.0202 -0.1101  0.0736
36445DPPA   C3B45004  20.962   2.456  17.474 -0.2034 -0.0145  0.0443
36445DPPA   C4B45005  20.971   2.448  17.957  0.3448 -0.3602  0.1511
36446DPPA   PO445006  20.548   1.944  15.563 -0.0332  0.1479 -0.0408
36446DPPA   GL145007  20.544   1.811  15.980  0.0996  0.2217 -0.0882
36446DPPA   GL245008  20.335   1.978  16.005 -0.1125  0.2781 -0.1276
36446DPPA   C1A45009  20.681   1.988  16.292  0.0499 -0.3890 -0.1908
36446DPPA   C2A45010  20.810   1.939  16.740 -0.2253 -0.3298  0.2945
36446DPPA   C3A45011  20.802   1.988  17.230 -0.1440 -0.1491  0.0931
36446DPPA   C4A45012  20.847   1.987  17.706  0.1349 -0.0566 -0.0101
36446DPPA   C1B45013  20.241   1.983  16.340 -0.0478  0.0969  0.1783
36446DPPA   C2B45014  20.222   1.951  16.738  0.2310  0.2958 -0.1185
36446DPPA   C3B45015  20.320   1.875  17.203  0.3493 -0.3997 -0.0661
36446DPPA   C4B45016  20.321   1.923  17.680 -0.2683  0.0419  0.1813
36447DPPA   PO445017   0.092   6.550  15.451 -0.1333 -0.0734 -0.1018
36447DPPA   GL145018  -0.204   6.451  15.754 -0.1267  0.3650 -0.1640
36447DPPA   GL245019  -0.139   6.149  15.746 -0.1308  0.3873  0.3136
36447DPPA   C1A45020  -0.161   6.576  16.075  0.0124  0.2317 -0.1961
36447DPPA   C2A45021  -0.009   6.713  16.455 -0.1992 -0.0351 -0.1293
36447DPPA   C3A45022   0.024   6.666  16.935  0.0030 -0.0712  0.2769
36447DPPA   C4A45023   0.005   6.743  17.454 -0.0656 -0.0420 -0.1292
36447DPPA   C1B45024  -0.104   6.134  16.121  0.0462  0.0119 -0.3905
36447DPPA   C2B45025  -0.189   6.164  16.510 -0.0982 -0.1729 -0.1619
36447DPPA   C3B45026  -0.189   6.198  16.979  0.2248  0.0090  0.0383
36447DPPA   C4B45027  -0.086   6.277  17.450  0.3609  0.0764 -0.0311
36448DPPA   PO445028  24.388   0.651  15.701 -0.1828  0.1045 -0.2052
36448DPPA   GL145029  24.661   0.749  16.008  0.0615  0.0082  0.1901
36448DPPA   GL245030  24.783   0.522  16.123  0.1103  0.1757  0.1880
36448DPPA   C1A45031  24.514   0.925  16.342 -0.2029 -0.1392  0.2128
36448DPPA   C2A45032  24.469   0.913  16.707  0.3122 -0.0181 -0.2866
36448DPPA   C3A45033  24.523   1.012  17.162 -0.1759  0.1463 -0.1018
36448DPPA   C4A45034  24.517   0.958  17.571 -0.2065 -0.0393  0.2379
36448DPPA   C1B45035  24.747   0.487  16.460 -0.0565 -0.0446  0.2840
36448DPPA   C2B45036  24.814   0.560  16.863 -0.1075 -0.1548  0.4471
36448DPPA   C3B45037  24.808   0.644  17.386  0.2236  0.2548 -0.0575
36448DPPA   C4B45038  24.876   0.613  17.916  0.0455 -0.1153 -0.1189
36449DPPA   PO445039  25.591   0.005  20.344  0.1481 -0.1188 -0.0930
36449DPPA   GL145040  25.824   0.065  20.044  0.1998 -0.3500 -0.0391
36449DPPA   GL245041  25.851  -0.259  19.991  0.3039  0.1733  0.1086
36449DPPA   C1A45042  25.781   0.249  19.736  0.1903 -0.1124  0.1359
36449DPPA   C2A45043  25.874   0.278  19.363 -0.1018  0.0838 -0.1076
36449DPPA   C3A45044  25.733   0.375  18.899  0.1120 -0.0886 -0.1640
36449DPPA   C4A45045  25.745   0.377  18.386 -0.2413 -0.4784 -0.1449
36449DPPA   C1B45046  25.863  -0.392  19.642 -0.0133  0.2884  0.1555
36449DPPA   C2B45047  25.915  -0.575  19.259 -0.1091 -0.3202 -0.0174
36449DPPA   C3B45048  25.914  -0.508  18.796  0.1117 -0.0718  0.2224
36449DPPA   C4B45049  25.904  -0.441  18.333  0.2367  0.0234 -0.1186
36450W        W45050   9.239   2.730  26.198 -0.2614  0.0480  0.1130
36451W        W45051   1.884   0.996  14.990 -0.0319 -0.0043 -0.1821
36452W        W45052  20.219   3.989  33.747  0.1441 -0.1261  0.0712
36453W        W45053  25.206   1.060   0.150 -0.3161  0.2752  0.1460
36454W        W45054  11.486   4.081   9.950 -0.0086  0.3337 -0.2224
36455W        W45055  21.546   0.730  35.172 -0.3370 -0.1983  0.0014
36456W        W45056   1.096   4.467   1.930 -0.2238 -0.2832 -0.0258
36457W        W45057   2.380   5.864  12.362  0.0359  0.0539  0.2855
36458W        W45058   6.894   3.459  14.271  0.3251 -0.2489 -0.0373
36459W        W45059   2.307   2.005  13.478 -0.1124 -0.2441  0.1017
36460W        W45060   6.554   4.884   0.062  0.1109  0.2346  0.2322
36461W        W45061  13.789   2.624  32.463  0.1508 -0.1554  0.0527
36462W        W45062  13.576   2.548  32.038  0.0482  0.1111  0.0803
36463W        W45063  11.285   0.291   0.470  0.1825  0.3066 -0.0036
36464W        W45064  23.166   0.315   8.685  0.0606  0.1979 -0.1251
36465W        W45065  16.844   5.638  22.608 -0.2648 -0.1785 -0.2026
36466W        W45066  22.544   5.015  26.707  0.1837 -0.0491  0.0420
36467W        W45067  14.731   5.017   0.838 -0.4065 -0.0225 -0.1951
36468W        W45068   2.934   5.860   9.343  0.0427 -0.1741 -0.3662
36469W        W45069  21.696   4.826   7.083  0.0129  0.2471 -0.1918
36470W        W45070  13.386   2.887  23.823 -0.2319  0.0258  0.2363
36471W        W45071  22.861   1.644  10.489  0.1770  0.0611 -0.0098
36472W        W45072   5.012   0.114   5.017 -0.0051  0.2769 -0.0236
36473W        W45073  25.675   2.019  22.297 -0.0849 -0.1945 -0.1475
36474W        W45074  22.490   0.921  33.422  0.0043  0.2399 -0.0954
36475W        W45075  16.566   1.701  33.058 -0.4784  0.1808  0.0104
36476W        W45076  15.618   6.133  28.279  0.0075  0.1397 -0.2088
36477W        W45077  19.171   0.984  23.439  0.0758 -0.1930  0.1008
36478W        W45078  16.883   5.631   6.326  0.2412 -0.0222 -0.0479
36479W        W45079   1.972   3.490   4.960  0.0554 -0.1203 -0.1433
36480W        W45080  21.609   0.750  35.691  0.1795 -0.0563  0.0271
36481W        W45081  11.258   1.631  32.950  0.2717 -0.5261  0.2596
36482W        W45082   1.963   1.095  23.659 -0.0558 -0.0092  0.0655
36483W        W45083  23.886   5.724   9.400  0.4155 -0.1086 -0.1646
36484W        W45084  22.540   1.077   6.226  0.1160 -0.1208 -0.1094
36485W        W45085  12.446   3.820   9.154  0.1280  0.0217 -0.0840
36486W        W45086  23.948   4.837  34.904 -0.1706  0.2639 -0.1398
36487W        W45087   9.106   5.834   6.906  0.0486 -0.0112 -0.0800
36488W        W45088   4.138   5.965  15.331  0.1504 -0.0121 -0.4254
36489W        W45089  11.267   1.146   4.451 -0.2097 -0.0577  0.0642
36490W        W45090  25.744   3.439   6.996 -0.0993  0.0165  0.2716
36491W        W45091   9.341   5.852  10.116  0.0666  0.0752  0.1898
36492W        W45092  14.774   3.729  34.331  0.1311 -0.2836  0.1564
36493W        W45093   6.247   1.305  20.974  0.0709  0.0265  0.0369
36494W        W45094  19.923   0.097  26.056 -0.3963  0.0166  0.1312
36495W        W45095  12.561   1.551   6.755 -0.2703  0.0225  0.1583
36496W        W45096  22.354   3.100   3.884  0.0517  0.3205 -0.1457
36497W        W45097  20.124   1.559  33.349  0.1495 -0.2130  0.2557
36498W        W45098  12.055   5.031   8.377 -0.3595  0.0873 -0.1810
36499W        W45099  16.705   3.144   7.767 -0.0834 -0.1048 -0.1086
36500W        W45100   0.985   5.072   4.946 -0.4113  0.1178  0.1436
36501W        W45101  24.029   4.864  24.854 -0.1338  0.3100  0.0618
36502W        W45102   0.226   1.932  30.982  0.1392 -0.2494  0.0213
36503W        W45103  13.222   2.875   4.638 -0.0740  0.1440  0.1732
36504W        W45104  11.689   3.823  22.059  0.0691  0.2102  0.1527
36505W        W45105   5.753   3.324  11.947 -0.4200 -0.0711 -0.0004
36506W        W45106   9.971   5.070  12.095 -0.0092 -0.2040 -0.0804
36507W        W45107  15.787   5.205   6.605 -0.1335 -0.3084 -0.1346
36508W        W45108   4.341   0.689  32.222  0.1074 -0.0766 -0.0489
36509W        W45109  25.634   2.547  28.901 -0.2285 -0.0717 -0.0730
36510W        W45110  16.357   5.729   9.616 -0.1784 -0.2224 -0.0502
36511W        W45111  15.005   2.873   7.697 -0.0539  0.4255 -0.0962
36512W        W45112  10.174   0.393  27.280  0.1165 -0.0977  0.0777
36513W        W45113   0.899   1.034   0.533 -0.0200  0.2010 -0.1812
36514W        W45114  17.889   3.522  28.316 -0.0464  0.1274 -0.1827
36515W        W45115   3.921   2.746  15.356 -0.4134 -0.0407 -0.0906
36516W        W45116  12.706   3.657  35.324  0.1328 -0.1760  0.1535
36517W        W45117  15.657   4.655   0.610  0.1395 -0.3992  0.2793
36518W        W45118  25.098   2.693   7.209  0.1670 -0.2381 -0.1092
36519W        W45119  21.035   5.002  14.481  0.0471  0.0854 -0.1366
36520W        W45120   3.391   0.421  31.606 -0.1239 -0.0047  0.0139
36521W        W45121   8.534   2.421  23.055  0.2387  0.1521 -0.0780
36522W        W45122  18.637   0.966  30.366  0.2758  0.1355 -0.0976
36523W        W45123   4.755   4.564  35.656 -0.0507  0.0706  0.0535
36524W        W45124   1.704   1.766   4.334 -0.4029 -0.2748  0.2732
36525W        W45125   0.588   6.213  34.068 -0.0273  0.1279  0.3382
36526W        W45126  21.959   0.173  35.735 -0.1207 -0.3179 -0.0364
36527W        W45127  19.206   3.135   6.275 -0.2155 -0.2228 -0.1060
36528W        W45128   0.255   1.783  25.239 -0.1237  0.0945  0.0818
36529W        W45129  19.358   4.078  28.111 -0.0606  0.0579 -0.3299
36530W        W45130  21.296   5.002  32.136 -0.1513  0.1870 -0.1831
36531W        W45131   5.380   1.334  20.083 -0.0360  0.0319 -0.0656
36532W        W45132   6.295   5.550   4.488 -0.0601  0.1951  0.1006
36533W        W45133  10.407   3.461  27.482 -0.2865  0.2223 -0.0642
36534W        W45134  13.393   1.726  26.910  0.0427 -0.0523  0.1295
36535W        W45135  23.294   1.128  12.442  0.1225 -0.0492 -0.0820
36536W        W45136   5.737   3.312  15.276  0.1964  0.2016  0.1202
36537W        W45137   2.549   6.474  35.584  0.1761 -0.1594 -0.1523
36538W        W45138  23.964   4.020  13.314 -0.1091 -0.1248 -0.2634
36539W        W45139  13.552   0.426  16.336  0.0833  0.0796 -0.0069
36540W        W45140  19.367   2.855   8.758 -0.3808 -0.0177  0.0463
36541W        W45141  24.739   3.688  24.109 -0.1522  0.2367  0.2883
36542W        W45142  23.334   2.946  26.771 -0.2601  0.1467  0.1698
36543W        W45143  12.202   2.556  10.204 -0.2386  0.2878  0.0479
36544W        W45144   7.020   4.386   8.543 -0.1804  0.1579  0.1056
36545W        W45145   7.483   1.257  32.332 -0.2567 -0.3297  0.2009
36546W        W45146  20.197   5.109   5.312  0.2198 -0.0180 -0.0272
36547W        W45147   7.158   6.323  24.314  0.1298  0.0129 -0.1031
36548W        W45148  22.261   4.912  27.328 -0.0211 -0.0382 -0.0297
36549W        W45149   4.446   1.689   1.392 -0.0777  0.2476  0.1060
36550W        W45150  22.974   3.436  14.187  0.1088 -0.2231  0.3148
36551W        W45151   3.143   3.595  29.135  0.1685 -0.0909  0.0227
36552W        W45152  20.511   0.632   5.439 -0.0609  0.1331 -0.4488
36553W        W45153  11.066   0.800  14.453 -0.0754 -0.0824 -0.2354
36554W        W45154  12.095   2.391   7.484  0.0178  0.1289 -0.0467
36555W        W45155   2.636   0.292   1.463 -0.0394  0.3243 -0.1151
36556W        W45156  15.802   1.523   5.270 -0.1505 -0.0629  0.1861
36557W        W45157  20.097   6.283   8.519 -0.0818  0.0190 -0.0309
36558W        W45158  13.564   2.217   3.205  0.0993 -0.1709  0.0627
36559W        W45159  10.028   6.117  13.061 -0.3449 -0.2439 -0.3706
36560W        W45160  23.989   2.479   7.170  0.2035 -0.2890  0.0501
36561W        W45161  21.623   3.879  34.770  0.0934  0.2262  0.1561
36562W        W45162   2.470   6.557  21.943  0.2112 -0.0433  0.0179
36563W        W45163  24.159   3.152  10.849 -0.0494  0.0363 -0.4858
36564W        W45164  26.250   1.726   2.945 -0.0939  0.0109  0.1335
36565W        W45165  12.936   4.896  22.932 -0.0101  0.2135  0.1300
36566W        W45166   6.596   3.631  21.414 -0.1266  0.2283 -0.1279
36567W        W45167  20.128   4.376   4.589  0.0774  0.1926  0.1136
36568W        W45168  24.043   4.832  11.933 -0.3140  0.1859 -0.1118
36569W        W45169   3.746   5.613  14.050  0.0102 -0.3078 -0.0297
36570W        W45170   6.183   1.333  15.675  0.2687  0.0125 -0.1142
36571W        W45171   3.971   1.915  26.024  0.1384  0.1762  0.0169
36572W        W45172  20.665   0.098   0.976  0.1194 -0.2538  0.1919
36573W        W45173  17.209   4.355  23.691 -0.1547 -0.1254 -0.1716
36574W        W45174  16.541   6.139   8.808  0.2054  0.0208 -0.3117
36575W        W45175  18.366   6.154  11.970  0.2036  0.0053  0.0515
36576W        W45176   0.602   5.954   9.613 -0.1056  0.0764 -0.0771
36577W        W45177  17.331   5.935  27.047 -0.0027 -0.0117  0.0515
36578W        W45178   5.876   0.268   7.021 -0.3097  0.0523  0.2351
36579W        W45179  13.410   4.395   0.059  0.0706  0.1190  0.2337
36580W        W45180  11.346   5.752  32.386  0.0247  0.1670  0.0180
36581W        W45181  25.754   1.941   4.152 -0.1842  0.3201 -0.1735
36582W        W45182  12.486   3.192  30.369  0.1745  0.1993 -0.1019
36583W        W45183  10.337   3.974  35.161  0.1470 -0.2791 -0.0421
36584W        W45184  17.610   1.997   1.759  0.0797  0.0200 -0.0928
36585W        W45185  10.222   4.559  32.910 -0.0272 -0.1513  0.1620
36586W        W45186  23.053   2.433  32.018 -0.1991 -0.3951  0.0382
36587W        W45187  15.475   6.143  27.794  0.1355 -0.0901  0.1949
36588W        W45188  21.270   3.852   4.467 -0.1046  0.2788 -0.0330
36589W        W45189   6.025   6.127   4.306 -0.0418  0.1095 -0.1561
36590W        W45190   9.214   1.081  14.015  0.2630  0.2970 -0.1295
36591W        W45191  20.856   3.199   4.826  0.1519  0.1057  0.1661
36592W        W45192   5.383   1.997   4.448  0.0007 -0.1356  0.1815
36593W        W45193  21.716   0.121  27.199 -0.1448 -0.1837 -0.0573
36594W        W45194  18.690   0.089   8.283  0.0011 -0.1557  0.1319
36595W        W45195  22.336   6.010  23.081  0.3032  0.0397 -0.4814
36596W        W45196   7.485   4.697  33.272  0.3501  0.1268  0.1703
36597W        W45197  10.810   3.793  22.819 -0.2351 -0.0435  0.1841
36598W        W45198   9.454   4.967   5.931  0.0758  0.0714 -0.1707
36599W        W45199   2.658   5.846  23.096 -0.0347  0.1436  0.0236
36600W        W45200   3.524   2.942  27.752 -0.0992  0.0789  0.0656
36601W        W45201  13.812   6.155  25.837  0.4288 -0.2090 -0.1563
36602W        W45202   8.011   6.359  34.702 -0.2543 -0.1536  0.0014
36603W        W45203   5.476   5.494  32.978 -0.1241 -0.1031 -0.0152
36604W        W45204   2.393   2.526  33.434  0.0379 -0.1355 -0.1126
36605W        W45205   3.923   5.830  21.707 -0.0302  0.0311  0.0000
36606W        W45206  22.165   4.104  30.605 -0.0388 -0.3998 -0.1254
36607W        W45207  22.690   1.614  30.306 -0.1687 -0.0541  0.0645
36608W        W45208   5.994   5.249  11.483  0.1899 -0.2519  0.2965
36609W        W45209   7.275   4.063  24.179 -0.2406 -0.2328  0.0165
36610W        W45210   1.612   5.937   7.100  0.2719  0.0961  0.0290
36611W        W45211   0.298   0.239  29.458  0.1422 -0.1174 -0.1719
36612W        W45212  10.465   6.073   5.539  0.0166  0.1764 -0.0402
36613W        W45213  18.722   5.153  11.413 -0.1075  0.1524  0.0484
36614W        W45214  18.043   5.283   0.657 -0.0045  0.2193  0.2959
36615W        W45215   8.248   2.958  26.600  0.2261 -0.2249 -0.1602
36616W        W45216   6.213   1.871   0.181 -0.1394 -0.1624  0.0367
36617W        W45217   7.719   0.905   9.689 -0.2750 -0.2334  0.1517
36618W        W45218   6.980   0.296  12.922 -0.1937  0.2169  0.1698
36619W        W45219  24.266   0.572   2.482 -0.0625 -0.0914 -0.1888
36620W        W45220   9.641   1.406  13.966 -0.2671 -0.3367 -0.1675
36621W        W45221   3.593   0.583  22.016  0.3777 -0.0352  0.0713
36622W        W45222   4.049   2.308   1.677 -0.0598 -0.0111 -0.2476
36623W        W45223  26.119   5.260  26.993 -0.0557 -0.0702 -0.1586
36624W        W45224  18.188   3.038  28.203  0.2561  0.0209  0.1872
36625W        W45225  10.300   4.468  33.459 -0.2557  0.2381 -0.0396
36626W        W45226  19.079   6.267  14.344  0.2009 -0.2771  0.1028
36627W        W45227   1.612   5.468  32.574  0.1821 -0.2111 -0.2291
36628W        W45228   6.451   5.506  11.695  0.2200 -0.0320 -0.1381
36629W        W45229  26.171   2.019  36.118 -0.1070  0.1065 -0.3090
36630W        W45230  15.386   6.196  14.971 -0.1026  0.1116  0.0702
36631W        W45231  23.733   5.026  14.765 -0.3094  0.0285 -0.1181
36632W        W45232  11.898   1.484  29.917 -0.1075 -0.0063 -0.0704
36633W        W45233   6.950   3.930   8.815  0.3096  0.0685 -0.1830
36634W        W45234  14.565   4.517  34.424 -0.0416  0.5548  0.0034
36635W        W45235  12.601   5.975  35.291  0.0918 -0.1955  0.1701
36636W        W45236  19.667   5.892  11.257 -0.0074 -0.1016  0.2121
36637W        W45237  20.639   6.505   9.492  0.5280  0.1701 -0.1080
36638W        W45238  23.575   0.643  22.308  0.2895 -0.1134  0.3306
36639W        W45239  17.992   2.791  10.519 -0.1656 -0.1736  0.2859
36640W        W45240   4.084   3.959  12.416  0.0217  0.1000 -0.0441
36641W        W45241   1.376   5.828  11.966 -0.1442  0.1805 -0.2007
36642W        W45242  17.853   5.562  31.801 -0.1492  0.1581 -0.2714
36643W        W45243   2.803   4.711  25.458  0.0850  0.0809  0.0104
36644W        W45244   9.996   2.351  27.084  0.2910  0.1391  0.1208
36645W        W45245  23.347   0.333   2.356  0.2923 -0.0680  0.0565
36646W        W45246  17.107   3.851  27.813 -0.0803 -0.0970  0.0214
36647W        W45247  20.890   0.366   6.152  0.1616  0.3481 -0.0600
36648W        W45248  10.545   1.411   4.284  0.1801 -0.2612  0.0178
36649W        W45249   1.648   1.719  32.230 -0.1952  0.1417  0.0853
36650W        W45250   0.494   3.336  12.477 -0.0366  0.0909  0.0796
36651W        W45251  19.998   0.578   0.632 -0.0391 -0.3022 -0.0985
36652W        W45252  25.527   4.562  30.985  0.1955  0.1391 -0.2908
36653W        W45253   7.455   3.846   7.228  0.0370  0.1380 -0.3338
36654W        W45254   2.249   1.679  34.582 -0.3060 -0.1366  0.0576
36655W        W45255  12.584   2.536   2.342  0.1818 -0.0804 -0.1536
36656W        W45256   1.856   0.898   3.019  0.0025 -0.1939 -0.0841
36657W        W45257  20.882   6.438  22.556  0.1666  0.3844 -0.0303
36658W        W45258   9.765   5.064  21.335 -0.1974 -0.0322  0.4731
36659W        W45259  20.162   3.656  25.739  0.1350  0.2055  0.2284
36660W        W45260  20.879   4.174  10.215  0.0521  0.2103  0.1330
36661W        W45261  15.523   3.400  14.211  0.1617  0.2758 -0.1616
36662W        W45262   2.514   5.607  24.887 -0.1447  0.1553 -0.1838
36663W        W45263   1.844   2.784  21.855 -0.2326  0.0868 -0.1763
36664W        W45264  14.656   2.741  35.694 -0.0104  0.1091 -0.0945
36665W        W45265  26.286   1.879  13.960 -0.0473 -0.1794  0.0176
36666W        W45266   7.712   0.497  35.650 -0.1331  0.1738 -0.1449
36667W        W45267   7.024   0.416  33.826  0.1615  0.0040 -0.4542
36668W        W45268  17.501   1.646   7.728 -0.0084  0.0130 -0.1136
36669W        W45269   6.392   3.223   5.444 -0.0124 -0.3612  0.0443
36670W        W45270  12.730   6.542  10.229  0.0596 -0.2396 -0.0856
36671W        W45271   3.452   5.680  14.460  0.0111  0.0260  0.1604
36672W        W45272   0.990   5.570  21.308  0.0326  0.1137 -0.1154
36673W        W45273  10.993   0.728  26.503 -0.1851  0.0844  0.0006
36674W        W45274  16.584   0.968  22.851 -0.0762  0.2745  0.0593
36675W        W45275   7.676   0.824  32.825  0.1352 -0.1901  0.3705
36676W        W45276  25.376   2.690   7.636 -0.4006 -0.2429  0.2003
36677W        W45277   3.999   4.148   1.923  0.4042 -0.0027 -0.0742
36678W        W45278  10.647   3.017  34.267 -0.1198  0.0149  0.0026
36679W        W45279  13.446   0.972  34.120  0.1775 -0.4403 -0.2148
36680W        W45280   9.978   6.050   9.715  0.1600 -0.2523  0.0119
36681W        W45281  16.729   2.195   4.607 -0.2054 -0.0461  0.1764
36682W        W45282   8.837   4.159   0.010  0.0281 -0.5346 -0.2917
36683W        W45283   5.674   1.188   7.189 -0.1462  0.4523  0.2273
36684W        W45284  11.059   2.458   1.945 -0.0652 -0.2067 -0.4870
36685W        W45285  11.139   0.553  10.302  0.1144  0.1946 -0.0652
36686W        W45286   2.076   4.971  26.384 -0.0861 -0.3399  0.3506
36687W        W45287  24.401   4.535  13.098 -0.1161 -0.0024 -0.0192
36688W        W45288   6.162   5.781   7.552 -0.0101  0.1961  0.1443
36689W        W45289  10.729   4.764  24.510  0.0177 -0.0033 -0.0844
36690W        W45290  24.090   3.787  25.021  0.0951  0.1996  0.1133
36691W        W45291  15.848   3.786  13.848  0.2531  0.0035 -0.2106
36692W        W45292  15.753   2.134  30.496 -0.1938 -0.1228 -0.0704
36693W        W45293  21.144   0.344  24.784 -0.2587  0.1745  0.0709
36694W        W45294  13.696   2.163   6.573 -0.1537  0.1080  0.3124
36695W        W45295  15.513   1.316  12.169  0.0377 -0.2509 -0.0748
36696W        W45296   8.164   3.995   5.349 -0.0976  0.0231 -0.0144
36697W        W45297   0.877   4.354  21.746 -0.3927 -0.0682  0.0040
36698W        W45298  16.697   2.883   3.454 -0.0930 -0.1278  0.0321
36699W        W45299   9.163   0.864  11.388  0.2018  0.0406 -0.2385
36700W        W45300   7.177   0.454   4.813  0.2029  0.0137  0.3752
36701W        W45301  20.681   2.204  21.042  0.2240 -0.1602  0.2449
36702W        W45302   6.607   4.235  20.532 -0.0728  0.0357  0.0612
36703W        W45303  17.543   2.385   4.002 -0.1348  0.1024  0.1831
36704W        W45304  24.245   4.415   1.611 -0.0065  0.4144 -0.1490
36705W        W45305   0.130   3.523  23.145  0.2586 -0.2316 -0.3398
36706W        W45306  18.305   4.855   2.051 -0.1213 -0.2919 -0.2958
36707W        W45307  23.709   6.416  10.089 -0.2698  0.0595 -0.1172
36708W        W45308  12.535   5.448  23.325  0.1346 -0.4075 -0.3857
36709W        W45309  19.654   0.451  29.985 -0.1081 -0.1067  0.1291
36710W        W45310   1.574   6.501  34.977 -0.2516  0.2834  0.2444
36711W        W45311  16.398   4.063   1.545 -0.1380 -0.0666 -0.2532
36712W        W45312   6.596   5.884   2.579  0.1757 -0.2075  0.0700
36713W        W45313   1.977   0.182  34.848  0.0831  0.1973 -0.0493
36714W        W45314  12.500   2.927  24.700 -0.1299 -0.2070  0.1037
36715W        W45315   8.258   2.313  13.747 -0.0493  0.0434 -0.1638
36716W        W45316  16.550   3.332  25.444  0.1083 -0.3075 -0.1169
36717W        W45317   9.864   1.495  11.336 -0.0314 -0.0530  0.3285
36718W        W45318  19.575   0.775  13.160  0.1868 -0.1616 -0.2203
36719W        W45319   6.174   0.540  27.410  0.1273  0.0199 -0.0353
36720W        W45320   5.002   5.907   7.298 -0.1736 -0.2068 -0.0623
36721W        W45321  18.862   0.287  24.815 -0.4030  0.2776  0.2163
36722W        W45322   6.379   0.478   6.889 -0.1424 -0.0372  0.2193
36723W        W45323   7.791   4.817  15.289 -0.2248 -0.1802 -0.0954
36724W        W45324  20.559   3.417  13.415  0.0799  0.2332  0.2114
36725W        W45325  18.023   4.045  23.155 -0.0770 -0.1791  0.0539
36726W        W45326   8.846   0.515  29.335 -0.0808 -0.3697 -0.2404
36727W        W45327   4.400   2.798  22.825  0.3432 -0.2018 -0.1395
36728W        W45328  20.375   5.986   5.028 -0.2317  0.0378 -0.0294
36729W        W45329  19.884   0.839   4.841  0.3248  0.1135 -0.0775
36730W        W45330   7.009   5.987  36.016 -0.0828 -0.1508  0.4193
36731W        W45331  21.023   4.550   6.659 -0.1095 -0.3375  0.0786
36732W        W45332   7.178   3.646   9.274  0.0135 -0.2099 -0.0861
36733W        W45333   9.800   4.113  13.705  0.0740  0.0305 -0.2309
36734W        W45334   5.140   0.162  22.052  0.0383 -0.0700  0.4729
36735W        W45335  13.580   0.064  31.443 -0.1153  0.1661 -0.0558
36736W        W45336  19.246   3.807   9.187  0.0409 -0.1035  0.0999
36737W        W45337  13.071   0.079  31.553 -0.2186 -0.5365  0.0490
36738W        W45338  16.348   3.790  30.695  0.1461  0.2546  0.0345
36739W        W45339  17.946   4.771  33.613  0.1046  0.0606 -0.0653
36740W        W45340  16.765   2.661  11.384  0.0275  0.1127 -0.0430
36741W        W45341   5.666   4.984  24.536 -0.1843 -0.2198  0.0429
36742W        W45342  21.674   1.035  29.596 -0.2014  0.1138  0.0441
36743W        W45343  16.710   5.888  31.009  0.0338 -0.0588  0.1441
36744W        W45344  14.348   4.567  10.306 -0.3174  0.0736 -0.1647
36745W        W45345  18.607   0.738   9.544  0.2469 -0.0843 -0.1170
36746W        W45346   6.324   2.158  15.496 -0.2534 -0.0349  0.0842
36747W        W45347  21.171   4.284  31.609 -0.1123 -0.1891  0.2233
36748W        W45348  12.872   6.432  35.538 -0.2208 -0.0330  0.1306
36749W        W45349  24.976   4.613  28.623  0.2156 -0.3314 -0.0244
36750W        W45350  23.478   4.853  35.372 -0.2952 -0.0973  0.4256
36751W        W45351   0.064   3.931   8.218 -0.1313 -0.0974  0.1170
36752W        W45352  21.245   4.758  30.532 -0.0344 -0.0731 -0.0265
36753W        W45353   9.971   5.134   8.234  0.1162 -0.0188  0.1507
36754W        W45354  24.878   4.540  20.199  0.1249 -0.0839 -0.0365
36755W        W45355   1.832   5.558  11.643  0.1832 -0.1568  0.0816
36756W        W45356  17.374   5.398  34.403 -0.0435  0.1661 -0.1019
36757W        W45357  23.618   2.586   8.792 -0.1251  0.5373  0.0237
36758W        W45358   8.378   0.496  30.269  0.0197 -0.3881 -0.0890
36759W        W45359  22.800   3.850   0.286 -0.1830  0.1003 -0.1454
36760W        W45360  16.981   1.333   3.760  0.2347  0.3410  0.0391
36761W        W45361   7.588   5.653  27.236 -0.0656 -0.0265  0.3398
36762W        W45362  21.680   1.197  34.853 -0.2766  0.2251  0.0001
36763W        W45363  22.307   3.310  14.588 -0.1300  0.1383  0.1187
36764W        W45364  11.525   3.686  10.768 -0.0077 -0.0137  0.0184
36765W        W45365  10.765   4.674   8.214 -0.1727 -0.0349 -0.2086
36766W        W45366   6.672   4.764  20.381  0.0259  0.1723  0.0113
36767W        W45367   6.360   2.502  30.322  0.1847 -0.0030 -0.1970
36768W        W45368  11.984   2.135  13.046  0.2823 -0.0400  0.0220
36769W        W45369  13.837   6.396   1.382 -0.1445 -0.1825 -0.0686
36770W        W45370  16.501   1.680  10.302 -0.2133 -0.2669 -0.0254
36771W        W45371   4.302   6.121  24.052 -0.1647 -0.0624 -0.0153
36772W        W45372  15.236   4.144  33.685 -0.0103 -0.1995 -0.1286
36773W        W45373  11.088   5.484   4.661  0.1557  0.1127 -0.1758
36774W        W45374  18.778   0.861  36.016 -0.1663 -0.1782 -0.2826
36775W        W45375  12.843   5.931   3.023 -0.2242  0.1140 -0.1207
36776W        W45376   1.123   0.449  21.328 -0.0051  0.1216 -0.0349
36777W        W45377  24.875   5.808  11.331 -0.1061 -0.1628  0.0394
36778W        W45378  22.457   4.524  10.380  0.0879  0.0131 -0.1169
36779W        W45379  23.218   3.459  29.987  0.1415 -0.0016  0.0253
36780W        W45380   6.176   4.680  35.346  0.2425 -0.0286 -0.0299
36781W        W45381  17.692   0.269  31.480  0.3305  0.1932 -0.2275
36782W        W45382  11.718   3.551  25.273 -0.0663  0.4643  0.1304
36783W        W45383  25.794   6.198  15.045 -0.3275 -0.0220  0.0847
36784W        W45384   1.095   0.192  34.730  0.1478  0.0754 -0.0097
36785W        W45385  13.829   0.914  31.743 -0.1460 -0.3552  0.0826
36786W        W45386   9.571   2.826   4.463  0.2233 -0.3226 -0.1094
36787W        W45387  14.722   1.338  30.188  0.1496  0.0460 -0.0411
36788W        W45388   5.430   6.466  14.521  0.3400  0.3230 -0.2971
36789W        W45389   5.343   4.627  21.890  0.1335 -0.1330  0.1150
36790W        W45390   0.557   2.287   4.266 -0.0256  0.2015  0.2243
36791W        W45391  26.315   2.700  32.878  0.2785  0.0598 -0.1031
36792W        W45392  12.248   2.332  29.988 -0.2625 -0.3951 -0.0701
36793W        W45393  14.221   6.593  24.585  0.0987 -0.0995 -0.3040
36794W        W45394  22.483   4.429  34.476  0.1077  0.0350  0.1836
36795W        W45395  18.811   4.681  10.716  0.2108  0.1310  0.2759
36796W        W45396  24.950   0.257   6.345 -0.0808  0.1246 -0.0049
36797W        W45397   4.131   0.833  29.305 -0.1488  0.0996  0.0071
36798W        W45398  13.480   2.251  27.620  0.3021 -0.0354  0.0259
36799W        W45399  10.748   1.688   7.980  0.0425 -0.1268  0.0968
36800W        W45400  20.364   3.595   1.077 -0.0458 -0.2008 -0.0070
36801W        W45401   2.653   6.308  23.382  0.1357  0.0128 -0.3757
36802W        W45402  12.811   5.194  28.202  0.0042 -0.2460 -0.0309
36803W        W45403   7.186   3.480  10.555 -0.0636 -0.0563 -0.1588
36804W        W45404   2.077   3.126  32.928 -0.0259 -0.1700 -0.2028
36805W        W45405  17.007   2.542   4.972 -0.2687  0.0788  0.0982
36806W        W45406  16.631   4.468  21.316 -0.3015  0.2866  0.0361
36807W        W45407  13.245   0.477  30.674  0.0958 -0.0255 -0.1774
36808W        W45408  23.553   0.139   6.986 -0.2339  0.1907 -0.0236
36809W        W45409  21.387   3.650  32.771 -0.1320 -0.1631  0.1548
36810W        W45410  17.724   5.646  30.921  0.0082  0.0693  0.2158
36811W        W45411   6.421   2.642  26.226  0.1025  0.1018 -0.2085
36812W        W45412  14.139   4.209  33.519  0.1299 -0.0082 -0.2359
36813W        W45413  17.517   1.936  13.972 -0.0218 -0.0972 -0.0122
36814W        W45414  23.428   4.056  27.786  0.0873 -0.0412  0.0704
36815W        W45415  19.885   1.576  13.730  0.0677  0.1591  0.0460
36816W        W45416   7.505   2.152  29.994 -0.1129 -0.0955  0.2551
36817W        W45417   2.279   2.193  23.936 -0.0834 -0.2748 -0.1614
36818W        W45418   0.050   2.460  26.693  0.4560 -0.3320  0.0314
36819W        W45419   5.888   1.641  10.911 -0.0534 -0.1027 -0.1366
36820W        W45420   8.028   5.412  33.391 -0.0295  0.2859 -0.2028
36821W        W45421  15.610   6.220   1.301  0.2483 -0.0411 -0.2047
36822W        W45422  15.467   1.127   0.042 -0.1212  0.1340  0.0043
36823W        W45423   4.826   2.479   0.275  0.1364  0.0170  0.0650
36824W        W45424  21.957   0.509   7.964  0.2350  0.0404  0.1448
36825W        W45425   1.926   4.735  28.666 -0.1421  0.0211  0.0390
36826W        W45426   5.387   2.815  22.455  0.0738 -0.0719 -0.0541
36827W        W45427   4.279   1.834  13.156 -0.2909 -0.0442 -0.1898
36828W        W45428   4.605   3.348   0.006 -0.2648 -0.0137  0.0640
36829W        W45429  13.939   4.513  28.070 -0.0326 -0.0488 -0.1017
36830W        W45430  26.121   6.429  22.104 -0.1332 -0.2824 -0.0367
36831W        W45431  22.770   1.795  14.550  0.1662 -0.0326  0.0077
36832W        W45432  10.594   3.314  20.816 -0.2021  0.4128 -0.1238
36833W        W45433  18.030   0.176   5.026 -0.1645 -0.0029 -0.2466
36834W        W45434   7.467   6.333   7.336 -0.2060  0.0270  0.1594
36835W        W45435  14.783   5.227  14.264  0.0497 -0.1827 -0.1340
36836W        W45436  24.098   3.520   0.058 -0.0564  0.3099  0.2254
36837W        W45437   2.137   2.294  26.553  0.0770  0.1176 -0.0275
36838W        W45438  22.390   6.386  13.785  0.0334 -0.0050 -0.1419
36839W        W45439   9.276   2.641   6.996 -0.0536 -0.0411 -0.0991
36840W        W45440   5.844   0.941  28.161 -0.0267  0.2887 -0.2757
36841W        W45441  10.551   4.336   0.996  0.3833 -0.2129 -0.2175
36842W        W45442  20.247   2.824   1.835 -0.1818  0.1028  0.1123
36843W        W45443   2.130   0.275   3.248 -0.2766 -0.0917  0.1710
36844W        W45444   9.398   6.193  35.981 -0.0280 -0.2116  0.3385
36845W        W45445   4.592   1.913  15.009  0.3097 -0.0781 -0.1660
36846W        W45446  11.428   0.202  33.989  0.1556  0.2038 -0.1905
36847W        W45447   5.094   3.163  32.272  0.0066  0.3869  0.0151
36848W        W45448   0.131   2.400  23.419 -0.2462 -0.0668 -0.1110
36849W        W45449  14.139   3.957  13.309  0.0026 -0.0122 -0.2424
36850W        W45450  25.722   2.410  11.923 -0.2125  0.1082 -0.0189
36851W        W45451   9.496   3.726  14.337  0.0799 -0.0154  0.2508
36852W        W45452  25.967   2.960  26.179  0.2481  0.0059 -0.1084
36853W        W45453   2.922   1.383  10.891 -0.0005 -0.1543  0.0650
36854W        W45454  17.916   2.166   5.352  0.0186  0.0966  0.1790
36855W        W45455  11.764   2.586  21.022 -0.1195 -0.0317  0.1510
36856W        W45456   4.211   1.719   9.843  0.0683  0.2486 -0.3141
36857W        W45457  20.059   0.922  29.582  0.1783 -0.3283 -0.4006
36858W        W45458  15.891   0.075   3.222  0.0866  0.1719 -0.0631
36859W        W45459  20.805   1.057  32.377  0.1397 -0.2750  0.2140
36860W        W45460  14.043   1.251  32.548  0.0680 -0.2523  0.0706
36861W        W45461  14.737   0.907  29.671 -0.1565 -0.0869 -0.0668
36862W        W45462   9.232   4.207   2.392 -0.0533 -0.2797  0.2457
36863W        W45463  19.778   3.221  11.503 -0.0773 -0.1038 -0.1109
36864W        W45464  20.699   6.109  29.043  0.0213  0.2857 -0.1147
36865W        W45465  21.278   0.872   3.332 -0.1956 -0.0714  0.0406
36866W        W45466   6.697   4.384  19.998  0.1911  0.0643 -0.1532
36867W        W45467   3.209   2.464  22.179  0.1541  0.3859  0.2443
36868W        W45468   3.726   3.773  24.868  0.0926  0.2249 -0.0419
36869W        W45469   8.581   0.922  20.614  0.1914 -0.1702  0.3479
36870W        W45470   1.283   4.312  12.687  0.1284  0.0342  0.0545
36871W        W45471  16.809   0.425  15.425  0.2345  0.4908 -0.0186
36872W        W45472  20.481   3.264  29.826  0.1094 -0.0999  0.1339
36873W        W45473  21.967   1.830  26.913  0.0367  0.1346 -0.1010
36874W        W45474  20.614   1.074   3.855  0.0336 -0.3250  0.0783
36875W        W45475   2.024   3.714   7.742 -0.5129 -0.1891 -0.1948
36876W        W45476  10.055   0.729  32.180  0.0451 -0.1270 -0.0958
36877W        W45477  16.729   0.247  24.600  0.4034 -0.3094  0.1982
36878W        W45478  15.574   1.931   6.909  0.2246 -0.0226  0.0201
36879W        W45479  19.425   3.409  26.521 -0.0115 -0.1032  0.0731
36880W        W45480  14.369   0.188   2.625  0.3621  0.0280  0.0384
36881W        W45481  10.248   5.649  26.392 -0.1357  0.1349 -0.4619
36882W        W45482  17.846   0.132  23.488  0.3129  0.1620 -0.0743
36883W        W45483  16.501   0.261  29.840 -0.0185  0.0630  0.2187
36884W        W45484   9.686   1.121  11.005  0.1788 -0.0849 -0.1794
36885W        W45485   3.882   4.296   4.221 -0.3075  0.0522 -0.0078
36886W        W45486  23.362   2.392   7.944 -0.0774 -0.1122 -0.0829
36887W        W45487   2.688   3.615   4.496  0.1376 -0.1714  0.0537
36888W        W45488   8.548   3.097  31.289  0.3434 -0.3983  0.1251
36889W        W45489   1.390   6.358   7.709 -0.1239  0.4157  0.1779
36890W        W45490  10.591   3.614  24.219 -0.3917  0.1551 -0.1039
36891W        W45491  21.454   5.951  29.287  0.1039  0.0133  0.1350
36892W        W45492  10.602   2.216   5.434  0.1533  0.1616  0.0726
36893W        W45493   7.205   4.702  34.080  0.0626  0.2828 -0.0136
36894W        W45494  18.709   0.150   6.112 -0.2232  0.1321  0.0469
36895W        W45495  25.126   1.837  14.505  0.2067 -0.2627 -0.0656
36896W        W45496   1.505   4.932  21.446 -0.2881 -0.0094  0.4430
36897W        W45497  22.199   2.328   5.422 -0.1527 -0.1488  0.0602
36898W        W45498  24.815   4.612   6.848 -0.0132  0.0611  0.0740
36899W        W45499  13.305   4.635  23.235  0.1663 -0.0279  0.3115
36900W        W45500  13.265   2.959  27.149 -0.1854 -0.0889  0.1344
36901W        W45501  11.475   2.006  26.880  0.0498  0.1742  0.0415
36902W        W45502   9.855   5.672  15.739  0.0627  0.0648  0.2734
36903W        W45503   0.577   0.783  10.769 -0.0631 -0.3918 -0.0990
36904W        W45504  24.963   5.448  23.470  0.0808  0.0133  0.0997
36905W        W45505  22.557   2.014   7.869  0.2167  0.1078 -0.0793
36906W        W45506  11.569   6.308  22.424  0.1588 -0.0382  0.1467
36907W        W45507  13.013   3.109  28.717 -0.0842 -0.1449  0.1848
36908W        W45508  12.220   0.651  10.661  0.0180  0.2020 -0.0200
36909W        W45509   8.149   4.521  13.873  0.4540  0.1953 -0.1410
36910W        W45510   0.492   6.071  10.311 -0.1805  0.1021  0.1295
36911W        W45511  26.252   1.531  24.245 -0.0241 -0.1773 -0.3614
36912W        W45512   1.319   4.187  23.347 -0.2305  0.2069 -0.0616
36913W        W45513  19.826   4.790   3.994  0.1304 -0.2306 -0.0190
36914W        W45514   4.241   6.385  22.811  0.0839 -0.0674  0.3194
36915W        W45515  25.343   0.148   3.836 -0.0883 -0.0693 -0.2103
36916W        W45516  13.218   2.604   0.630  0.0980  0.0774 -0.0491
36917W        W45517  20.171   2.990  35.833 -0.0211  0.1656  0.1935
36918W        W45518  20.205   2.475  21.810 -0.0665  0.0428 -0.1965
36919W        W45519   9.397   3.683  21.649 -0.4133 -0.0218 -0.0151
36920W        W45520   8.910   2.967  10.938 -0.0264  0.2438  0.1873
36921W        W45521  11.853   0.608   5.852  0.4500 -0.2198 -0.0409
36922W        W45522  24.285   3.258  20.685  0.0230  0.0667 -0.5473
36923W        W45523  14.627   3.876   0.435  0.0808  0.0866  0.0179
36924W        W45524   2.488   6.058  21.078 -0.3963  0.2686  0.0603
36925W        W45525  14.028   4.178  13.971  0.1092 -0.1719  0.1987
36926W        W45526   2.113   5.891   7.358  0.1145 -0.3326 -0.0653
36927W        W45527   1.880   1.919   7.049 -0.0290 -0.4017 -0.1597
36928W        W45528   7.317   6.063  34.217  0.5547  0.1394 -0.0031
36929W        W45529  10.777   2.099  11.038  0.0926 -0.4380 -0.2098
36930W        W45530  21.677   1.850  14.786 -0.0138  0.0419 -0.1348
36931W        W45531  12.905   5.707  31.743  0.0806  0.0284 -0.0235
36932W        W45532  22.562   6.595  33.708 -0.1296 -0.1178  0.1031
36933W        W45533   8.928   5.730  27.288 -0.1720 -0.1413  0.1176
36934W        W45534  22.700   0.361  23.358  0.2534  0.1363 -0.1923
36935W        W45535   4.923   0.381  30.664 -0.1962 -0.1004 -0.1760
36936W        W45536   4.693   0.978   7.167 -0.3400  0.2426  0.1011
36937W        W45537   1.266   5.022   6.776  0.1728 -0.0256  0.1347
36938W        W45538   7.161   5.099   9.702  0.0790  0.0581  0.0042
36939W        W45539  10.263   1.801  31.952  0.1289 -0.1894  0.0133
36940W        W45540  20.275   5.508   7.015 -0.1025  0.0104 -0.0637
36941W        W45541  17.861   1.501  26.581  0.0508  0.1796 -0.2357
36942W        W45542  17.556   4.088  14.972  0.0049 -0.0313 -0.1519
36943W        W45543   3.372   2.432  31.386 -0.0491 -0.1638 -0.0504
36944W        W45544   0.341   5.176  24.229 -0.0026  0.3125  0.2360
36945W        W45545  23.930   3.817  33.439  0.0373 -0.1666  0.2100
36946W        W45546  21.883   1.317  25.099  0.3298  0.1290  0.0582
36947W        W45547  20.102   4.970   0.219  0.1830 -0.1593  0.1611
36948W        W45548  15.996   4.233   2.819 -0.2953 -0.1388  0.2463
36949W        W45549   1.380   5.197   1.352  0.3270  0.2390 -0.3095
36950W        W45550   6.639   3.560  22.518 -0.1276 -0.1516  0.2777
36951W        W45551  18.676   1.191  13.802 -0.2022  0.1162 -0.2342
36952W        W45552   3.045   2.815   9.813  0.0268 -0.1587  0.0984
36953W        W45553  10.946   2.380  26.975  0.2352  0.1582  0.0740
36954W        W45554   2.129   2.538  26.011 -0.4057 -0.3425  0.6749
36955W        W45555  22.067   0.446  26.075 -0.0872 -0.0187  0.2121
36956W        W45556   8.517   3.835  28.901 -0.3054 -0.3054 -0.1402
36957W        W45557  13.875   3.198  12.873  0.0115 -0.0798 -0.1536
36958W        W45558   9.230   3.798  11.637  0.3119 -0.2824 -0.1352
36959W        W45559  12.753   1.948   1.026 -0.5074 -0.1017 -0.1858
36960W        W45560  10.801   1.130  10.258 -0.1023 -0.1416  0.0907
36961W        W45561  16.352   6.414  14.888  0.3202  0.2840  0.2209
36962W        W45562  19.936   5.506  32.959 -0.0551 -0.2021  0.0544
36963W        W45563   8.421   2.431   8.339  0.1616  0.2375  0.1243
36964W        W45564  14.258   3.173  31.152  0.0708 -0.0587  0.2132
36965W        W45565  16.673   6.360  32.361  0.1043  0.0632  0.2179
36966W        W45566   0.972   0.944  14.772 -0.1427  0.2956  0.0957
36967W        W45567  23.180   3.764  26.512  0.0308 -0.2348  0.1032
36968W        W45568   3.256   1.706  29.136 -0.0419 -0.0642 -0.0617
36969W        W45569  10.204   1.979  10.129  0.0778  0.3097  0.0005
36970W        W45570   1.315   3.139  24.726  0.2712 -0.0011 -0.1642
36971W        W45571   6.995   2.240  28.384 -0.0315  0.3223 -0.0024
36972W        W45572  13.260   0.648   5.639  0.0794 -0.1073  0.0249
36973W        W45573  13.493   4.998  33.010 -0.1293  0.2332  0.3843
36974W        W45574   3.835   5.216  35.156 -0.3783 -0.1864 -0.1549
36975W        W45575  12.986   2.958  25.785  0.0788 -0.2045 -0.2926
36976W        W45576  18.175   0.859   0.585 -0.3036 -0.0847  0.1378
36977W        W45577  21.727   3.577  10.824 -0.4588 -0.5139  0.2434
36978W        W45578   6.363   2.848  23.454 -0.2083 -0.2559 -0.0064
36979W        W45579   5.914   4.837  34.276 -0.1049 -0.1778 -0.1483
36980W        W45580   3.878   1.838  29.659 -0.4775 -0.2981  0.1891
36981W        W45581  18.346   1.116  28.118  0.1104  0.0853  0.0993
36982W        W45582  15.483   2.134  22.035 -0.0013 -0.1655 -0.0525
36983W        W45583   9.081   3.254  22.458  0.2816 -0.0680  0.2609
36984W        W45584  20.882   3.235  34.265  0.1218 -0.2850  0.2260
36985W        W45585  21.129   3.774  12.567 -0.3405 -0.2151 -0.1367
36986W        W45586   2.555   5.414  12.963 -0.1045 -0.3419  0.1667
36987W        W45587   1.435   4.645  30.902  0.2576 -0.1287  0.1278
36988W        W45588  18.303   5.721   3.566 -0.0337 -0.0158  0.2328
36989W        W45589  12.999   0.303   9.926  0.1033 -0.1334 -0.4570
36990W        W45590  17.425   1.356  22.013  0.3567  0.0814 -0.3533
36991W        W45591   6.853   3.644  24.092 -0.3470 -0.0828 -0.0137
36992W        W45592  16.059   1.300   0.667 -0.0736  0.0038  0.2592
36993W        W45593   0.157   0.591  33.986  0.0552  0.0492 -0.0202
36994W        W45594  26.282   4.545  22.803 -0.1132 -0.1739  0.2471
36995W        W45595  15.935   1.579  35.717  0.1369 -0.1055 -0.1091
36996W        W45596  26.101   3.446  12.279 -0.2289 -0.2816  0.1616
36997W        W45597  21.189   4.557   7.752  0.0610  0.3129  0.2132
36998W        W45598   9.378   3.860  21.181 -0.2263 -0.1035 -0.1721
36999W        W45599  13.963   4.614  33.835 -0.2760 -0.0533  0.0872
37000W        W45600   2.363   1.022  12.061  0.0679  0.1407 -0.1054
37001W        W45601  22.874   6.289  13.810  0.0781 -0.0994 -0.0776
37002W        W45602  26.355   3.036  32.438  0.1445 -0.6040 -0.0800
37003W        W45603  23.194   0.829   7.495 -0.3032 -0.1099  0.0089
37004W        W45604   6.195   2.877  11.663  0.1257 -0.2787  0.0850
37005W        W45605  21.476   5.064  20.852  0.0132 -0.0651  0.1610
37006W        W45606  25.993   4.160  15.185 -0.0761  0.0482  0.2450
37007W        W45607  15.431   3.476   0.708 -0.1142  0.2226  0.0022
37008W        W45608   2.023   1.779  10.142 -0.0148 -0.0067 -0.0112
37009W        W45609  24.394   6.201  32.255  0.1380 -0.1057 -0.1137
37010W        W45610  16.480   0.803  34.550  0.1052  0.2849  0.0048
37011W        W45611  14.825   2.309  27.946  0.1126 -0.3243  0.0708
37012W        W45612  19.933   5.790  14.784 -0.1826  0.0462  0.1588
37013W        W45613  24.433   1.869  24.629 -0.0569  0.2720 -0.0393
37014W        W45614  17.048   1.477  34.716  0.2392 -0.2378 -0.2663
37015W        W45615   7.622   0.959  28.594  0.1077  0.0596 -0.2014
37016W        W45616  12.244   3.683  26.671 -0.1092 -0.0135  0.0046
37017W        W45617  24.585   6.129  25.689 -0.1707  0.2050  0.0296
37018W        W45618  23.779   3.061  11.155 -0.1200 -0.0633 -0.1474
37019W        W45619   6.672   2.366  24.123  0.0982 -0.2572 -0.1069
37020W        W45620  24.714   1.193   3.129 -0.1479  0.0796  0.0725
37021W        W45621  17.092   1.568  31.750 -0.1219 -0.1712 -0.0375
37022W        W45622  10.277   3.319  29.775 -0.2088  0.0421 -0.3760
37023W        W45623  15.167   5.412  26.068 -0.3683  0.2854 -0.0151
37024W        W45624   8.830   3.704  32.798 -0.0808  0.0360 -0.0911
37025W        W45625   8.697   5.345   6.448 -0.1226 -0.0067  0.0081
37026W        W45626  14.486   5.489   2.302 -0.3488 -0.3272  0.0447
37027W        W45627   2.719   0.272   9.597  0.2531 -0.0153 -0.2101
37028W        W45628  14.661   1.617  13.599 -0.0281 -0.0242  0.0160
37029W        W45629  22.485   0.012   2.859 -0.0958  0.2259  0.2209
37030W        W45630   8.563   4.871   1.269  0.1801 -0.2461 -0.0072
37031W        W45631  22.721   6.284  34.975  0.2978  0.2199 -0.0726
37032W        W45632  23.921   3.421  25.693 -0.1592  0.1043  0.0654
37033W        W45633  23.577   4.453   3.990  0.1652 -0.1542 -0.0871
37034W        W45634   3.375   4.470   6.054 -0.2377 -0.0522  0.1982
37035W        W45635  25.472   2.451   1.636 -0.2654 -0.0103 -0.2054
37036W        W45636   8.664   6.603   7.373 -0.4929  0.0975  0.0102
37037W        W45637  15.340   2.312  27.866  0.1039 -0.0549 -0.1386
37038W        W45638  14.532   6.179   4.826 -0.0918 -0.0331  0.0785
37039W        W45639  25.675   3.250   3.995 -0.0936 -0.0232  0.1941
37040W        W45640   3.391   1.444  11.031  0.1112  0.2029  0.1786
37041W        W45641   1.098   4.309   0.282  0.1152  0.1853  0.2592
37042W        W45642  14.074   6.446   0.916 -0.0577  0.1337 -0.0807
37043W        W45643   4.111   6.493  14.171 -0.3065 -0.2055 -0.2365
37044W        W45644   8.852   4.548  33.572 -0.2363  0.0496  0.0671
37045W        W45645   3.210   3.373   2.307  0.0665  0.0992 -0.0742
37046W        W45646  12.259   3.717  29.753 -0.2446  0.0458  0.0158
37047W        W45647   8.091   3.036  30.937 -0.0850 -0.1498  0.0898
37048W        W45648  13.436   0.060  29.477  0.0204 -0.2446 -0.2271
37049W        W45649  23.010   0.995  22.687 -0.2764  0.3356  0.2323
37050W        W45650   1.744   5.236  33.019 -0.1727  0.2735 -0.0056
37051W        W45651   8.787   1.493   8.276 -0.3861 -0.3259  0.2950
37052W        W45652   3.552   0.568  26.689  0.1318  0.1046  0.1683
37053W        W45653  11.523   5.025  35.718  0.1148  0.1549 -0.2257
37054W        W45654  24.563   3.484   9.316 -0.1399 -0.0867 -0.0240
37055W        W45655  21.269   5.075  35.025 -0.1298 -0.0843 -0.2759
37056W        W45656  25.820   3.747  21.468 -0.3680 -0.1806 -0.1081
37057W        W45657   7.127   0.939  12.457  0.1869  0.0468  0.7630
37058W        W45658  25.438   5.374  25.463 -0.1872 -0.2918  0.1572
37059W        W45659  24.987   6.582  15.432  0.0650  0.2015  0.0535
37060W        W45660   9.686   2.041   6.431 -0.0164  0.0071 -0.0761
37061W        W45661  18.197   5.624   7.087 -0.3643  0.3655 -0.0474
37062W        W45662  20.360   6.227  34.065 -0.2780  0.2114 -0.1729
37063W        W45663   6.256   0.015  33.298  0.1824  0.0672 -0.2187
37064W        W45664   3.089   0.234  14.111  0.0155 -0.0798 -0.1496
37065W        W45665   7.563   2.111  29.210  0.2433 -0.0194  0.1722
37066W        W45666  16.823   0.384   4.599 -0.0022 -0.0848 -0.4100
37067W        W45667  17.394   1.769   9.161 -0.0610 -0.3122 -0.0717
37068W        W45668  23.440   4.523  12.697 -0.0868 -0.1172  0.2374
37069W        W45669   3.187   0.628   7.303 -0.1382 -0.1113 -0.0253
37070W        W45670  22.576   1.789  14.097 -0.1052  0.0811  0.1284
37071W        W45671   5.524   4.055  14.135 -0.1686 -0.1261  0.0241
37072W        W45672   5.868   4.418  28.528 -0.0306 -0.2356 -0.0458
37073W        W45673  22.418   3.195   1.693  0.0555  0.0850 -0.0937
37074W        W45674   6.121   0.166  35.704 -0.0891 -0.0164  0.1993
37075W        W45675   3.346   4.620  35.723 -0.0127  0.1676 -0.2652
37076W        W45676  18.420   6.439  35.573  0.0217 -0.2994 -0.3326
37077W        W45677  20.730   3.927   5.018 -0.2957  0.1082 -0.2219
37078W        W45678   8.222   0.674   1.902 -0.1105  0.0390  0.0992
37079W        W45679   2.848   5.191  28.626  0.3081 -0.0042 -0.3029
37080W        W45680   8.035   4.540  12.779  0.1595  0.1166  0.2451
37081W        W45681   2.926   0.158  10.503 -0.0148 -0.1777 -0.0509
37082W        W45682  18.290   5.784   8.424  0.2027  0.0283 -0.2278
37083W        W45683  20.629   4.344  31.505 -0.1522  0.0235 -0.1504
37084W        W45684   4.496   0.043  32.055  0.0203  0.3735  0.0151
37085W        W45685  14.225   1.373  13.814 -0.0516  0.1769  0.0224
37086W        W45686  16.847   0.834   6.586  0.1256  0.0558  0.1523
37087W        W45687  21.905   0.676  22.487 -0.0333 -0.0379 -0.0895
37088W        W45688  18.030   1.601  28.888  0.2715 -0.3340  0.1128
37089W        W45689   9.510   6.035  28.053  0.0904 -0.1966  0.0327
37090W        W45690  25.148   0.103  23.922 -0.2263  0.1647 -0.1606
37091W        W45691  12.388   4.567  26.422 -0.0230  0.0817 -0.0413
37092W        W45692  25.081   1.206   6.498 -0.2156  0.0113  0.1905
37093W        W45693   4.480   0.262  23.282  0.1992  0.0146 -0.2641
37094W        W45694  20.047   6.066   3.981  0.1804  0.2020  0.1858
37095W        W45695  18.353   5.345  22.339 -0.2132 -0.4987  0.2620
37096W        W45696  21.958   5.384   3.947 -0.4036 -0.0962  0.2677
37097W        W45697   9.880   4.373   7.108  0.3492 -0.0292 -0.2941
37098W        W45698  19.695   2.890  10.443  0.0241 -0.2422 -0.0184
37099W        W45699  16.576   1.552   2.465 -0.0966 -0.1164 -0.0377
37100W        W45700   1.491   4.857  27.168  0.1186  0.2391  0.0754
37101W        W45701   5.301   4.805   6.497 -0.4173 -0.0982  0.2868
37102W        W45702   7.445   1.715  30.808 -0.1365  0.2183 -0.1288
37103W        W45703  18.029   0.400  25.352 -0.2024 -0.1935 -0.0742
37104W        W45704  17.280   4.439  14.096 -0.0265 -0.0929 -0.1977
37105W        W45705   8.509   1.754   1.143 -0.1450  0.1034  0.0226
37106W        W45706   7.490   6.600   8.769  0.1983  0.2363  0.1351
37107W        W45707  17.436   2.909   8.436 -0.0597 -0.2787 -0.1035
37108W        W45708   4.344   5.516  14.197 -0.1860  0.1630 -0.1207
37109W        W45709  26.083   6.080   9.389 -0.0939  0.1915  0.0174
37110W        W45710  24.347   4.554   7.695  0.0189  0.0971 -0.0203
37111W        W45711  16.629   0.703   3.097 -0.1040 -0.0243 -0.2837
37112W        W45712   1.195   3.287   2.661  0.0322  0.2325  0.1207
37113W        W45713   7.645   4.428  34.182  0.3106 -0.1969 -0.0060
37114W        W45714  11.381   3.568  35.120 -0.1100  0.1423 -0.0317
37115W        W45715   2.333   5.043   7.172 -0.2535  0.1416  0.0427
37116W        W45716   0.513   4.428  15.354 -0.0559 -0.0101 -0.1660
37117W        W45717   5.536   6.549  15.151  0.0276 -0.3246  0.0973
37118W        W45718   8.676   3.724  11.311  0.1502 -0.1097 -0.2620
37119W        W45719  14.286   4.414  31.092  0.0445 -0.1074  0.0797
37120W        W45720  10.318   6.508  26.139 -0.2604  0.2394  0.0384
37121W        W45721  12.308   5.110  20.679  0.0707  0.0385 -0.1128
37122W        W45722  15.922   0.828   3.882 -0.1802 -0.2188  0.1653
37123W        W45723   2.521   2.135  30.527 -0.0662 -0.0225 -0.0475
37124W        W45724  15.429   5.649  24.502  0.2058 -0.0601  0.1401
37125W        W45725   3.459   5.323   4.459  0.1120 -0.3274 -0.0829
37126W        W45726   1.670   2.750  13.028 -0.3998  0.1296  0.1386
37127W        W45727  23.350   3.622   1.060 -0.1613  0.0535  0.2516
37128W        W45728  12.166   4.221  26.799 -0.3028  0.0422  0.0202
37129W        W45729  14.939   2.805  26.727 -0.1742  0.0354  0.0531
37130W        W45730  15.905   2.104  26.656  0.0849  0.0983 -0.2738
37131W        W45731   6.312   0.453  21.409 -0.0515  0.1064  0.2013
37132W        W45732  18.384   4.161  15.706  0.1655  0.1878  0.0729
37133W        W45733  20.632   3.775   1.965  0.1144 -0.0844 -0.2417
37134W        W45734   7.972   2.834  25.395  0.3656 -0.0366 -0.1485
37135W        W45735   9.542   4.882   5.284  0.1353 -0.1638  0.1582
37136W        W45736  10.894   1.233  11.092  0.0473 -0.2541 -0.2883
37137W        W45737   8.973   4.403   6.961  0.1447  0.0110  0.1056
37138W        W45738  17.190   4.237   3.178  0.1690  0.1594  0.1434
37139W        W45739   9.698   6.347  29.686 -0.1216 -0.1427 -0.0115
37140W        W45740  20.191   0.923   2.957  0.1550  0.1136 -0.1683
37141W        W45741   5.129   4.965  33.960 -0.0520 -0.4325  0.0538
37142W        W45742   8.749   2.245   6.409 -0.1439  0.0933 -0.4989
37143W        W45743   1.141   2.237  29.309 -0.1075 -0.3039 -0.0367
37144W        W45744  10.798   3.357  13.587  0.0386  0.3256 -0.0483
37145W        W45745   3.234   0.064  13.240  0.0838  0.0883 -0.1775
37146W        W45746  14.171   0.278   8.679  0.0411 -0.3329 -0.2093
37147W        W45747   3.874   1.609  20.243  0.2563  0.0297 -0.0196
37148W        W45748  14.400   5.030   0.063 -0.1306 -0.1373  0.0019
37149W        W45749   3.620   0.538  26.162  0.0591 -0.1399  0.1146
37150W        W45750   7.266   4.285   8.928 -0.0008 -0.2233 -0.2182
37151W        W45751   9.335   3.492  32.877 -0.1312  0.0734  0.1390
37152W        W45752  13.463   4.860   5.874 -0.0246 -0.0106 -0.0179
37153W        W45753  23.504   1.743  12.067  0.0881 -0.2088 -0.1105
37154W        W45754  19.560   5.194  33.282 -0.1308 -0.0005 -0.2880
37155W        W45755   9.692   3.916  30.166 -0.1575  0.0657  0.3322
37156W        W45756  17.558   3.823  23.165 -0.2671  0.1157  0.0048
37157W        W45757  20.516   1.304  23.465 -0.1638 -0.1053 -0.0109
37158W        W45758   5.571   4.603  12.750 -0.0544 -0.0139  0.0159
37159W        W45759  17.727   1.903   2.610  0.2154  0.0644  0.1819
37160W        W45760   6.318   1.076  32.158  0.1734  0.0073 -0.0806
37161W        W45761  21.481   6.534   1.047  0.1502 -0.2369 -0.2088
37162W        W45762   9.332   5.296   1.526 -0.3040 -0.0440  0.1623
37163W        W45763  18.390   6.283  32.043 -0.1449  0.2815 -0.3519
37164W        W45764   4.097   3.198  35.456  0.0335 -0.4300 -0.0559
37165W        W45765   1.627   4.567   1.187 -0.0679  0.1262  0.0808
37166W        W45766  20.503   3.756  31.949  0.0145 -0.3123  0.1851
37167W        W45767  20.498   0.043  33.845  0.0030 -0.1051 -0.1228
37168W        W45768  22.633   4.026   4.903  0.5417 -0.1373 -0.2614
37169W        W45769   5.675   1.802  22.277  0.3619  0.0925  0.2209
37170W        W45770  25.151   4.722   1.264 -0.0111  0.1921 -0.1798
37171W        W45771  17.855   4.478  13.442 -0.2336  0.0572  0.0953
37172W        W45772  25.400   3.619  20.343  0.0875 -0.0268  0.0304
37173W        W45773  22.740   3.588  24.082 -0.0643  0.1463  0.1308
37174W        W45774  13.562   4.621  21.598  0.0169  0.3294  0.1847
37175W        W45775  16.978   6.097   6.437  0.1157 -0.2163 -0.3116
37176W        W45776   9.077   1.896  35.584  0.0491  0.0123  0.0889
37177W        W45777   0.901   1.111   1.360 -0.1872 -0.0298 -0.1552
37178W        W45778   4.491   4.746  32.383  0.2253 -0.2016 -0.1431
37179W        W45779   8.084   1.457  20.021  0.2859 -0.0986  0.1122
37180W        W45780   0.909   1.181   8.212 -0.4320  0.0373  0.1044
37181W        W45781   1.571   1.845  32.830  0.0824 -0.1842 -0.0962
37182W        W45782  13.705   4.279  10.885  0.0007  0.0374 -0.1831
37183W        W45783  11.692   0.832  13.132  0.0043  0.3195 -0.2585
37184W        W45784  15.312   5.552   9.306  0.1021 -0.2986  0.0340
37185W        W45785  22.805   4.358  33.796 -0.0701 -0.2127  0.2240
37186W        W45786   6.396   5.019   6.215 -0.3953  0.2336 -0.0306
37187W        W45787   5.280   1.038  25.436  0.1406  0.0465  0.0553
37188W        W45788   2.142   2.557  20.598 -0.0141 -0.1827 -0.2842
37189W        W45789  19.370   2.028  33.494 -0.1012 -0.2035 -0.2160
37190W        W45790  10.474   0.517  29.561  0.0587 -0.0928  0.0577
37191W        W45791  25.266   5.873  14.525 -0.1259  0.0232 -0.3299
37192W        W45792   3.094   5.206  25.986  0.0164  0.2861  0.2717
37193W        W45793  16.169   0.609  29.289  0.1312  0.0568  0.1760
37194W        W45794  11.693   4.805  24.051  0.1227  0.3064  0.1443
37195W        W45795  20.847   2.261  31.395  0.4354  0.1307  0.3620
37196W        W45796   3.261   5.535   1.837  0.0031  0.0912  0.0154
37197W        W45797  19.588   1.323   6.800 -0.3002  0.1029  0.2469
37198W        W45798  23.220   2.433   2.477  0.1351  0.2949 -0.2575
37199W        W45799  18.073   4.478   8.317 -0.0888  0.0820 -0.0515
37200W        W45800  25.830   2.154  10.689 -0.1648 -0.0142 -0.3124
37201W        W45801   0.151   4.074   6.939  0.0887  0.1473 -0.1655
37202W        W45802  25.762   1.572  29.846 -0.0876  0.2315 -0.0497
37203W        W45803  14.390   4.913   0.533  0.0282  0.2136 -0.0839
37204W        W45804   4.331   0.685  21.013 -0.0682  0.0089 -0.2284
37205W        W45805   8.343   4.696  23.527  0.0185  0.0515 -0.0746
37206W        W45806  13.939   2.368  27.482  0.0220 -0.0451  0.1921
37207W        W45807  11.493   5.565  10.182 -0.0822  0.1223 -0.1855
37208W        W45808  18.328   4.847   6.063 -0.0025  0.0584 -0.0542
37209W        W45809  12.738   5.034  27.159  0.1458  0.1019 -0.3233
37210W        W45810   9.585   0.314  23.025 -0.0142 -0.0274  0.0503
37211W        W45811  21.680   2.158  25.074 -0.1943 -0.0821 -0.3739
37212W        W45812   8.707   1.831   9.531 -0.0144 -0.2087  0.0170
37213W        W45813   9.048   3.146   1.838 -0.2029 -0.0767  0.0598
37214W        W45814  13.670   5.934  34.060  0.0940  0.0928 -0.0125
37215W        W45815  18.934   4.614  23.892  0.1203  0.2757  0.0611
37216W        W45816   2.884   1.109  34.275 -0.1614 -0.3003 -0.1214
37217W        W45817  13.097   4.153  26.908 -0.2540  0.0691  0.1569
37218W        W45818  15.188   0.399  32.096  0.2138  0.1639  0.1759
37219W        W45819   0.013   2.813   1.786 -0.0790  0.2019  0.2131
37220W        W45820  13.867   1.135   9.411 -0.0141 -0.1601  0.1597
37221W        W45821  12.934   4.260  30.305  0.0170 -0.1825  0.1575
37222W        W45822  24.235   0.568  34.311 -0.2985 -0.0801  0.0046
37223W        W45823   1.446   0.313   7.018 -0.3248 -0.0839 -0.0848
37224W        W45824  24.368   2.333  33.632 -0.0216 -0.1731 -0.0729
37225W        W45825  13.849   1.101  30.036 -0.1441 -0.0292  0.1087
37226W        W45826  12.094   0.953  25.768  0.1036 -0.5238 -0.2351
37227W        W45827  11.521   3.728  27.860  0.0544 -0.0579 -0.0947
37228W        W45828   5.948   1.454   5.392  0.0256  0.2472  0.1949
37229W        W45829  24.890   5.370  35.666 -0.0180  0.4176  0.0575
37230W        W45830  11.635   6.191  13.454  0.2731 -0.0945  0.1320
37231W        W45831  13.325   4.997  12.096  0.2731 -0.2752  0.1945
37232W        W45832   7.092   3.454  31.274 -0.0566  0.2236 -0.0636
37233W        W45833  15.581   0.093   8.858 -0.0787 -0.2987  0.1623
37234W        W45834   4.500   3.392  32.384  0.0709 -0.1460 -0.0869
37235W        W45835   5.813   2.022   6.329  0.1472 -0.2258  0.0145
37236W        W45836  11.800   6.248   2.408  0.0417 -0.0861  0.0170
37237W        W45837  20.976   5.432  22.747 -0.1824 -0.2712  0.0453
37238W        W45838  17.073   0.913  11.980 -0.0568 -0.1488 -0.1149
37239W        W45839  21.561   2.595   3.067  0.0365 -0.2467 -0.2711
37240W        W45840  10.132   1.771  28.915 -0.2002  0.4066 -0.0885
37241W        W45841   2.484   0.412  10.663 -0.1274  0.0934  0.1174
37242W        W45842   5.764   1.355  24.166  0.0212 -0.1480  0.1621
37243W        W45843  25.192   1.921  28.480 -0.0753  0.1476  0.0043
37244W        W45844  17.024   6.476   2.122  0.1332 -0.2302 -0.1637
37245W        W45845  20.500   1.521  14.445  0.2145 -0.1771  0.1497
37246W        W45846   0.877   5.084   7.964  0.1929  0.1169  0.0114
37247W        W45847   3.126   1.130   7.151 -0.1759 -0.0981 -0.1164
37248W        W45848  18.387   0.041  21.210 -0.1036 -0.2795  0.0634
37249W        W45849  25.437   3.620  35.855 -0.4258 -0.0949 -0.0807
37250W        W45850  12.641   2.911   9.360 -0.0573 -0.0931  0.0089
37251W        W45851   1.180   4.843  28.853  0.1264 -0.1159 -0.0721
37252W        W45852   2.069   4.762  27.804 -0.4329 -0.1239  0.0006
37253W        W45853  13.707   4.662  24.854 -0.1720  0.0353 -0.0307
37254W        W45854  23.095   1.760  34.419 -0.0971  0.0791  0.2689
37255W        W45855  17.077   2.935  22.097 -0.2586 -0.2035 -0.0110
37256W        W45856   8.551   2.856   9.424 -0.1362 -0.2767  0.0946
37257W        W45857  14.708   0.665  13.882 -0.1581 -0.1411 -0.1810
37258W        W45858   9.308   1.092  36.027  0.0170 -0.0658  0.1185
37259W        W45859  20.197   5.518  27.563 -0.1435  0.2572 -0.0181
37260W        W45860  19.616   6.082  35.811 -0.0606  0.2751 -0.0839
37261W        W45861   4.901   0.258   1.393  0.2101  0.0689 -0.1299
37262W        W45862   4.980   5.471   0.518  0.1837 -0.0054 -0.1069
37263W        W45863  13.802   1.141  13.985  0.1250 -0.2347  0.2115
37264W        W45864  25.650   3.512   5.420  0.0261  0.1014 -0.1290
37265W        W45865   3.879   3.009  29.252  0.0464 -0.4744 -0.4064
37266W        W45866  16.507   6.425   0.901  0.0102 -0.1231 -0.1393
37267W        W45867   9.514   3.511  15.503 -0.2782  0.0174  0.1599
37268W        W45868   7.640   5.037  10.992  0.0160 -0.1827  0.3199
37269W        W45869   9.833   1.733  33.458 -0.1325 -0.1006 -0.0950
37270W        W45870  15.800   4.262  33.674  0.0232 -0.3568 -0.2284
37271W        W45871  15.887   1.729   4.809  0.0824 -0.2792  0.3264
37272W        W45872  13.742   3.751   3.889  0.1436 -0.1254 -0.0984
37273W        W45873   5.726   1.974  35.658  0.2785 -0.2522 -0.0880
37274W        W45874  21.103   1.992   4.119  0.0523 -0.0708  0.1877
37275W        W45875  23.776   4.664  33.335 -0.1820  0.1611 -0.1955
37276W        W45876  12.771   0.674  12.333  0.0757 -0.1335 -0.2715
37277W        W45877  16.541   3.007  33.079  0.0684  0.0632 -0.3839
37278W        W45878   5.329   1.901   6.314 -0.0201  0.0136  0.1194
37279W        W45879  19.457   0.377   4.507 -0.0569  0.1607  0.1685
37280W        W45880   5.375   0.076   2.864  0.0823 -0.1939  0.1067
37281W        W45881  20.305   4.377  30.399 -0.1434 -0.0387  0.0079
37282W        W45882   2.592   5.229  35.358 -0.0669 -0.0174 -0.0780
37283W        W45883   1.762   1.194  28.967 -0.1446  0.0377  0.0524
37284W        W45884   8.177   2.568  32.590  0.0441 -0.0969 -0.1746
37285W        W45885  10.537   6.475  25.600  0.0974  0.0549 -0.1806
37286W        W45886   2.953   6.092   0.079 -0.1762 -0.3636 -0.0381
37287W        W45887   1.289   2.193  35.527 -0.1008 -0.0715 -0.2398
37288W        W45888  16.595   6.105  10.957 -0.1874 -0.3755  0.1195
37289W        W45889  12.994   2.951   4.209 -0.0604 -0.1562  0.3459
37290W        W45890  23.099   4.410   4.031  0.4451 -0.0311  0.0420
37291W        W45891   8.146   3.627   9.606  0.0712  0.1391  0.1382
37292W        W45892  24.350   5.533  22.110  0.2642  0.1110 -0.0817
37293W        W45893  22.198   6.161   4.292  0.1019  0.2277 -0.2125
37294W        W45894   5.552   5.109  14.645  0.1342 -0.1112  0.1481
37295W        W45895  14.252   3.977  30.854  0.0664 -0.3165 -0.0524
37296W        W45896  24.488   4.397  22.099 -0.0474  0.0352 -0.1247
37297W        W45897  22.899   3.471  12.678 -0.0000 -0.0148 -0.2291
37298W        W45898  12.975   0.274  29.615  0.0169 -0.1125 -0.0604
37299W        W45899   2.264   0.848   8.108  0.0999 -0.0131 -0.2971
37300W        W45900  18.868   3.173  23.767 -0.0735  0.1222  0.0170
37301W        W45901  23.024   4.977  11.172 -0.1375  0.1485 -0.3636
37302W        W45902   3.337   2.337  14.064  0.0438 -0.2966  0.0259
37303W        W45903  20.795   0.628  25.681  0.1243  0.0362  0.0803
37304W        W45904   6.292   6.038   3.410  0.1602  0.2154  0.2755
37305W        W45905   7.120   3.860  21.173  0.1296  0.5451 -0.3461
37306W        W45906  10.503   0.071  14.250  0.0902  0.2926 -0.2845
37307W        W45907   8.693   4.775  22.102  0.1611 -0.0361  0.3083
37308W        W45908  20.699   5.514  10.812 -0.0416 -0.1010 -0.0633
37309W        W45909   0.978   1.313  29.210 -0.0364  0.0418 -0.1770
37310W        W45910  13.765   1.044  33.550 -0.0115  0.1412 -0.2369
37311W        W45911  10.710   3.924   2.493 -0.0203 -0.2169  0.4330
37312W        W45912  12.570   3.860  27.874 -0.0618 -0.0305  0.0007
37313W        W45913   1.407   4.082  24.796 -0.0602  0.0824  0.0307
37314W        W45914  15.953   2.636  22.293  0.3347 -0.0523 -0.2877
37315W        W45915   2.727   4.316   4.376 -0.0222 -0.1530  0.0055
37316W        W45916  11.642   4.098  11.177  0.3341  0.2765 -0.0561
37317W        W45917  12.105   0.014  22.970 -0.2076 -0.0727 -0.0776
37318W        W45918  15.133   4.446  14.664 -0.0966  0.0500 -0.4156
37319W        W45919  15.407   1.769  23.385 -0.1031  0.1500 -0.2208
37320W        W45920  13.034   3.518  27.837 -0.2372 -0.2687 -0.2714
37321W        W45921  19.114   4.758   2.256  0.0557  0.0104 -0.4112
37322W        W45922  21.667   4.881  28.443  0.0600 -0.1544 -0.0926
37323W        W45923  10.225   0.797  31.306  0.1485 -0.1276  0.0705
37324W        W45924  14.756   1.156   8.609  0.0427  0.1202  0.0662
37325W        W45925  25.761   5.192   8.880  0.0525  0.2956  0.0463
37326W        W45926  19.390   0.524   0.648 -0.0276 -0.3031 -0.0995
37327W        W45927  23.663   0.569  28.044  0.0183 -0.0286  0.1225
37328W        W45928   5.291   4.647  35.617  0.2415 -0.2613 -0.1138
37329W        W45929  10.818   5.134  34.314 -0.0014 -0.0963  0.4049
37330W        W45930   4.895   5.717  32.474  0.0612  0.1261  0.2007
37331W        W45931  17.414   2.112  10.986  0.0423 -0.0584 -0.1630
37332W        W45932   2.722   0.283  28.316  0.0367  0.1132  0.0378
37333W        W45933  12.061   2.671   5.097 -0.1986 -0.1967 -0.1116
37334W        W45934  13.298   1.549  29.375 -0.0962  0.1655 -0.0236
37335W        W45935  17.534   1.540  27.429 -0.0326 -0.2496 -0.1629
37336W        W45936  24.735   3.003  22.861  0.0021  0.0873 -0.1470
37337W        W45937  23.822   5.441  20.904 -0.1010 -0.0801 -0.3278
37338W        W45938   6.381   3.961   6.530  0.2579 -0.1065 -0.1553
37339W        W45939  20.793   1.812   8.592  0.1108 -0.1877  0.1359
37340W        W45940   8.089   3.516   2.118 -0.2396  0.2741  0.1387
37341W        W45941  10.669   5.806  27.272 -0.0496 -0.2792  0.3213
37342W        W45942  20.040   1.696   8.261  0.0837 -0.0198 -0.0863
37343W        W45943   0.374   6.206  31.558 -0.2135  0.0592 -0.0947
37344W        W45944  15.061   2.010  23.636 -0.3598 -0.2494  0.0623
37345W        W45945  14.720   5.524  34.673 -0.1043 -0.0452 -0.0971
37346W        W45946   4.763   1.153  28.389  0.1389 -0.1487  0.0118
37347W        W45947  19.617   1.903  13.463  0.0988 -0.1841  0.2084
37348W        W45948   5.250   1.298  10.496 -0.1449 -0.0787  0.1067
37349W        W45949  16.965   6.227  25.741 -0.1893  0.3031 -0.0480
37350W        W45950  13.083   5.745  14.241  0.1367 -0.0525  0.0712
37351W        W45951  19.672   1.858  21.298 -0.1132 -0.3206  0.2158
37352W        W45952  25.980   0.004  11.796  0.1985 -0.0595  0.1481
37353W        W45953   6.736   1.629  23.092 -0.2692 -0.0137  0.0313
37354W        W45954   5.281   3.952  32.626  0.0015 -0.1967 -0.0727
37355W        W45955  22.940   2.951   9.945  0.0354  0.2439  0.0920
37356W        W45956  17.937   2.773  32.257 -0.2846 -0.1814  0.2566
37357W        W45957   9.861   6.043  21.655 -0.1249  0.2492  0.2208
37358W        W45958   8.041   5.754  10.306 -0.2052  0.2379  0.0322
37359W        W45959  13.346   0.744  23.811  0.0139 -0.0260  0.0954
37360W        W45960  21.246   0.012   0.364  0.3751  0.0806  0.0200
37361W        W45961   1.005   5.452  31.718  0.0679  0.0584  0.2485
37362W        W45962   4.064   2.965   0.245  0.2023  0.1113 -0.0592
37363W        W45963   7.187   5.687   2.441 -0.2930  0.0654 -0.0069
37364W        W45964  23.317   2.122  32.395 -0.2397  0.3034  0.0018
37365W        W45965   4.841   2.502  12.597 -0.0207 -0.0990  0.0109
37366W        W45966  15.922   1.062  30.724  0.1894 -0.2203 -0.1180
37367W        W45967  12.838   1.487   2.931 -0.1939 -0.0214 -0.3148
37368W        W45968   8.993   0.333  21.258  0.1380  0.1052 -0.2024
37369W        W45969   8.368   3.245   6.281  0.3862  0.1031 -0.1535
37370W        W45970  16.462   3.094  28.108  0.1018 -0.1236 -0.0036
37371W        W45971   5.060   5.082   0.928  0.1762 -0.0940 -0.1189
37372W        W45972   7.506   4.576  24.530  0.2717  0.0831  0.0484
37373W        W45973  22.724   4.902  13.998  0.0245 -0.1351  0.3793
37374W        W45974   3.277   1.231  25.754 -0.0189 -0.1336 -0.0946
37375W        W45975  25.981   2.981  20.351  0.0841  0.1477  0.2478
37376W        W45976  12.353   1.649  33.396  0.0604 -0.1327 -0.0712
37377W        W45977  19.258   6.221  28.796 -0.2377 -0.1392 -0.2594
37378W        W45978  17.636   0.681   3.236  0.1118  0.0053 -0.0054
37379W        W45979   0.608   1.098  24.006  0.1290  0.0739 -0.3884
37380W        W45980  15.488   4.184  25.052 -0.0789 -0.0564  0.0109
37381W        W45981   7.526   2.252  14.077  0.0083 -0.1485 -0.1736
37382W        W45982  25.056   4.343  25.530 -0.0313 -0.1299  0.0354
37383W        W45983   1.010   3.409  34.676  0.1970 -0.1007  0.0399
37384W        W45984  22.080   6.287  30.651 -0.0559  0.0616  0.2688
37385W        W45985  22.996   2.894   0.415 -0.1931 -0.0772  0.0740
37386W        W45986   6.164   1.052  35.241 -0.0193 -0.0699  0.1396
37387W        W45987  17.778   6.137  34.546  0.1155  0.2741 -0.0158
37388W        W45988  19.035   3.180  27.671  0.2321 -0.2228  0.0588
37389W        W45989  22.894   0.297  32.815  0.1416 -0.1495 -0.0467
37390W        W45990   8.813   1.935  28.521 -0.0099  0.3173 -0.2424
37391W        W45991  12.451   5.376  27.857 -0.0220 -0.0658  0.0365
37392W        W45992   0.715   4.258  22.270 -0.1015 -0.0867  0.0868
37393W        W45993  22.277   3.982  13.077 -0.1471 -0.0259  0.4013
37394W        W45994   5.294   5.551  10.422  0.0666  0.0597  0.1809
37395W        W45995   3.773   1.935  23.969  0.3048 -0.2798 -0.1009
37396W        W45996   1.881   4.276  35.925  0.1668  0.1144 -0.3203
37397W        W45997  11.535   2.306  12.720 -0.1796  0.1455 -0.1446
37398W        W45998   3.217   2.819   6.715 -0.0106 -0.1094 -0.0119
37399W        W45999  19.529   2.490  33.818  0.2638  0.3303 -0.0465
37400W        W46000  24.538   5.168  35.932 -0.0162 -0.1805 -0.2829
37401W        W46001  13.528   2.556  26.297  0.3804  0.0227 -0.1545
37402W        W46002   4.275   4.363  30.816  0.0212  0.1515  0.3411
37403W        W46003  16.193   4.368  36.035 -0.2929  0.2476 -0.2300
37404W        W46004  23.439   4.471  33.693  0.3223 -0.1915  0.1500
37405W        W46005  18.431   0.596   6.118  0.0620  0.2158  0.1088
37406W        W46006  22.568   1.372  12.040  0.1312  0.0950 -0.0432
37407W        W46007  11.707   4.773   8.692  0.1369 -0.0116 -0.1360
37408W        W46008  25.018   0.681   9.357 -0.1634 -0.2164  0.0805
37409W        W46009   7.902   4.731  20.578  0.1211 -0.0752 -0.1010
37410W        W46010   1.017   4.793  24.114 -0.0628  0.0720  0.0367
37411W        W46011   8.798   0.719   7.541 -0.2853 -0.0085 -0.0442
37412W        W46012   3.544   5.674   4.823  0.0159  0.0803  0.0078
37413W        W46013  25.414   6.082  10.681  0.0640 -0.1632 -0.1559
37414W        W46014   8.567   0.656  14.124  0.1544 -0.3713 -0.0804
37415W        W46015  25.316   0.309   9.339 -0.0866 -0.2307  0.2472
37416W        W46016  12.209   2.147  11.312 -0.0592 -0.0919  0.0267
37417W        W46017  21.248   1.169  11.897 -0.1814  0.2430 -0.2286
37418W        W46018  17.487   3.649   7.258 -0.4215 -0.0755  0.1425
37419W        W46019  23.548   5.685  11.261  0.0424  0.2233 -0.3238
37420W        W46020   2.196   5.468  29.436  0.1067 -0.1647 -0.1114
37421W        W46021   3.311   6.592  34.256  0.1532 -0.0688  0.0338
37422W        W46022   7.297   4.864   1.307  0.2288  0.0584 -0.0095
37423W        W46023   6.255   3.417  27.500 -0.1750 -0.1163 -0.1664
37424W        W46024  17.782   4.873  12.161 -0.2794  0.1371  0.1301
37425W        W46025   0.664   5.161  22.085  0.1659 -0.1566  0.2321
37426W        W46026  22.623   1.124  15.137 -0.3156  0.0744  0.2827
37427W        W46027  14.221   1.289  15.234 -0.1543  0.1403  0.1780
37428W        W46028   4.847   3.975   1.888  0.1733 -0.2442  0.1047
37429W        W46029  18.864   2.821  14.420  0.0506 -0.1387  0.0066
37430W        W46030  18.022   3.877  10.045 -0.0539 -0.0927 -0.0496
37431W        W46031  16.864   3.498  23.613 -0.1480 -0.0909 -0.1140
37432W        W46032  13.889   2.025  25.538 -0.1608  0.0631  0.1081
37433W        W46033  25.633   0.372  15.100 -0.2030 -0.1864 -0.0895
37434W        W46034   6.790   6.523  20.296  0.0514  0.1620 -0.0046
37435W        W46035   4.472   4.064  11.093 -0.1913  0.0296  0.0288
37436W        W46036  24.725   3.518  32.980 -0.0702 -0.2023  0.0572
37437W        W46037  18.598   5.343  27.592  0.2011 -0.1744 -0.1861
37438W        W46038  20.567   0.555   2.976  0.1753  0.1173 -0.0824
37439W        W46039  14.973   4.257  14.240  0.1170  0.0912 -0.0167
37440W        W46040   1.925   0.080  21.587 -0.0722 -0.2134  0.1375
37441W        W46041   6.137   0.160  12.534 -0.0765 -0.5232  0.0039
37442W        W46042   9.875   5.927  31.252  0.1493 -0.0112  0.0161
37443W        W46043   7.507   0.377  32.063 -0.0397  0.1798  0.0190
37444W        W46044  11.072   5.184  33.096  0.0063 -0.1548 -0.2412
37445W        W46045  19.412   6.287   2.946  0.4322  0.0836  0.1155
37446W        W46046  24.786   3.906   5.575 -0.3012 -0.0871 -0.6004
37447W        W46047  23.561   0.354  28.894  0.1599 -0.1304 -0.0078
37448W        W46048   8.093   4.194   7.778  0.0772 -0.0894  0.0319
37449W        W46049   7.639   3.514  31.537  0.0175 -0.1382 -0.1630
37450W        W46050  19.008   6.374  20.845 -0.0999  0.0506  0.0073
37451W        W46051  18.949   3.880  24.442  0.4131  0.2429 -0.0884
37452W        W46052  18.317   0.946  14.517 -0.1418 -0.0074 -0.2150
37453W        W46053   6.107   1.849  34.097 -0.1469 -0.0020 -0.1210
37454W        W46054  14.734   3.028  13.740  0.0763  0.2071 -0.1505
37455W        W46055  20.937   2.506   2.319 -0.1042 -0.0665  0.1062
37456W        W46056   0.631   4.102  28.052 -0.0730 -0.1320 -0.0878
37457W        W46057  10.183   5.558  21.000 -0.0680 -0.1742 -0.2060
37458W        W46058  14.846   4.238  23.394  0.3076  0.0523 -0.1336
37459W        W46059  20.855   1.705   0.837  0.1868  0.0918 -0.0369
37460W        W46060   1.904   0.629   4.470 -0.2267  0.0959  0.0167
37461W        W46061  14.373   2.504  11.578 -0.2434 -0.0062 -0.0509
37462W        W46062   7.061   5.359  10.065  0.0258 -0.2455  0.0195
37463W        W46063   7.171   2.660  23.915 -0.0790 -0.2265 -0.1739
37464W        W46064   6.121   5.794  34.010  0.2581 -0.1611  0.1278
37465W        W46065   7.467   3.933  30.322  0.1646  0.2719  0.3267
37466W        W46066  10.175   4.259   8.833 -0.0184 -0.0976  0.1843
37467W        W46067  16.568   3.107  13.000  0.2302  0.2822  0.0270
37468W        W46068  18.945   2.764   0.906 -0.2372 -0.1720 -0.1597
37469W        W46069  17.720   3.096  28.541 -0.2057 -0.2337  0.0790
37470W        W46070   1.260   5.935   7.427  0.2074  0.3263 -0.0511
37471W        W46071  26.302   1.459  32.333  0.3359  0.0885 -0.0220
37472W        W46072   2.661   6.574  14.389  0.1373 -0.0395 -0.4439
37473W        W46073   3.033   4.802   2.894  0.0355  0.2077 -0.1504
37474W        W46074  11.649   0.090  32.760 -0.2540 -0.2853  0.0126
37475W        W46075  21.771   0.885   3.391 -0.3109 -0.0780 -0.1566
37476W        W46076   7.845   0.211  32.581  0.1865 -0.3807 -0.0127
37477W        W46077   8.661   4.101   5.235 -0.1677 -0.0317  0.0948
37478W        W46078  10.181   0.409  28.765  0.1191 -0.1904 -0.0309
37479W        W46079  16.371   0.576   6.752  0.0734 -0.1467  0.0859
37480W        W46080  15.937   0.690  24.082 -0.0599 -0.2284  0.0248
37481W        W46081  25.677   5.027  11.561  0.1495 -0.1638 -0.0530
37482W        W46082  26.364   5.038  28.191 -0.1044 -0.0858 -0.0555
37483W        W46083  22.680   0.538  10.164 -0.3443  0.2354 -0.0222
37484W        W46084  22.322   3.364  21.693 -0.4249  0.0770 -0.0860
37485W        W46085  12.132   5.302   4.649  0.0938 -0.0409 -0.1892
37486W        W46086  21.060   2.696   4.841  0.1057  0.1167  0.2404
37487W        W46087  10.886   0.222   9.997  0.0020  0.1461 -0.2735
37488W        W46088  16.893   0.032  14.443  0.0914  0.0586  0.1770
37489W        W46089  20.111   2.159  29.930 -0.2085  0.0941  0.1558
37490W        W46090  22.403   3.042  28.038 -0.0448 -0.0337 -0.1993
37491W        W46091  15.171   4.370  32.654  0.0525 -0.0918 -0.1519
37492W        W46092   7.311   2.967  24.632  0.1335 -0.0281 -0.1065
37493W        W46093   5.009   5.705   2.722  0.2135  0.3483  0.0398
37494W        W46094  23.115   4.247  25.227  0.1950  0.1893 -0.4152
37495W        W46095  15.139   6.584  29.663 -0.0901  0.1128  0.1124
37496W        W46096  21.176   1.670  27.674  0.0701 -0.1448 -0.0921
37497W        W46097  20.623   5.614  23.824  0.0601  0.2679  0.1131
37498W        W46098  23.423   1.825  35.631  0.0309 -0.1939  0.1032
37499W        W46099   9.600   0.227  23.814  0.0644 -0.0656  0.0215
37500W        W46100   9.680   2.118  25.590  0.0502  0.0768 -0.0781
37501W        W46101  17.936   0.202  32.567  0.2656  0.0676  0.0808
37502W        W46102  26.087   1.537  26.785  0.0804  0.0079  0.0001
37503W        W46103   0.843   2.385  26.799 -0.1191  0.0408 -0.0924
37504W        W46104  25.758   1.708  14.047  0.1699 -0.0498 -0.1602
37505W        W46105  20.076   2.154  23.488  0.3882  0.1189  0.3038
37506W        W46106  14.578   5.974  15.184 -0.0396  0.2314 -0.0215
37507W        W46107  21.068   6.454  14.773  0.0737  0.0284  0.1824
37508W        W46108   4.456   2.834  27.812  0.0975  0.2079  0.3337
37509W        W46109  22.166   4.753  28.437  0.0669 -0.3683 -0.0502
37510W        W46110  12.685   5.094   2.227 -0.0086 -0.0215 -0.0867
37511W        W46111   0.814   0.510  24.210 -0.1440  0.0326  0.3146
37512W        W46112  11.184   0.263  13.170  0.1663  0.1601  0.1372
37513W        W46113  12.828   0.092  32.030 -0.1424 -0.0501  0.1326
37514W        W46114  14.375   1.280  34.891  0.1452  0.0103 -0.1678
37515W        W46115  18.443   3.421   1.838  0.0341 -0.1826  0.0333
37516W        W46116  15.557   4.649  14.830  0.1251 -0.2257 -0.2032
37517W        W46117  15.095   3.360   7.560  0.0928  0.1426  0.2866
37518W        W46118  19.302   4.192  24.636  0.0637  0.0451 -0.2176
37519W        W46119   0.223   1.747  35.951 -0.1917  0.1673 -0.1183
37520W        W46120  15.429   5.834  13.214 -0.1528 -0.2246  0.1714
37521W        W46121  14.500   4.801  24.078 -0.1274  0.1869 -0.1309
37522W        W46122  20.668   3.071  13.845  0.0335 -0.3008  0.1275
37523W        W46123  22.115   1.371  31.810  0.1960 -0.0555 -0.0840
37524W        W46124   1.615   4.431   9.305  0.0844 -0.1286  0.2117
37525W        W46125  21.244   6.007  24.966 -0.3522  0.0118 -0.0414
37526W        W46126   3.894   3.291  31.596 -0.1499  0.0045 -0.1006
37527W        W46127  12.533   0.735  14.432 -0.1139 -0.1498  0.2026
37528W        W46128   4.275   1.723  11.208  0.3216  0.1769 -0.0962
37529W        W46129   2.170   5.443  27.002  0.0974  0.0493  0.2083
37530W        W46130   6.624   0.727  13.786  0.2535  0.1096 -0.3876
37531W        W46131   4.534   3.111   5.419  0.1007 -0.0974 -0.0535
37532W        W46132  11.351   5.145  34.430  0.1234  0.2115 -0.1169
37533W        W46133   6.717   4.229   7.450 -0.1552 -0.0600  0.0330
37534W        W46134  16.335   2.621  27.112 -0.1247  0.0101 -0.3678
37535W        W46135  25.603   2.358  13.172  0.1292 -0.0174  0.1862
37536W        W46136   2.062   0.277   9.230 -0.1316 -0.1251 -0.2947
37537W        W46137  19.299   4.234   7.867  0.2563  0.4241 -0.0763
37538W        W46138  19.568   1.908  35.445 -0.1209  0.0723  0.0983
37539W        W46139   6.156   1.068  30.373 -0.2526  0.0790 -0.2068
37540W        W46140  21.272   1.311   7.901 -0.0431 -0.0365 -0.0954
37541W        W46141   7.241   4.822  23.005  0.0543  0.1704 -0.2958
37542W        W46142   0.172   0.503  13.167 -0.0924  0.2516  0.2065
37543W        W46143   9.117   4.593  30.302  0.0918  0.1225  0.0195
37544W        W46144  24.418   0.972   3.718 -0.0663  0.2086  0.1097
37545W        W46145  21.705   1.726   0.805  0.1341  0.0302  0.1590
37546W        W46146  14.779   6.435  27.333 -0.0884  0.3194  0.1063
37547W        W46147  21.790   3.416  32.958  0.2812  0.2607 -0.1132
37548W        W46148   9.173   1.268  33.356 -0.0850  0.0001  0.2777
37549W        W46149   7.675   4.164  33.176  0.1400  0.1007  0.0670
37550W        W46150  14.468   1.388  25.092 -0.3402 -0.0471  0.1732
37551W        W46151   9.312   0.639   8.226  0.0060  0.2524  0.0173
37552W        W46152  14.723   4.608  36.139 -0.1293  0.1158 -0.1678
37553W        W46153  20.685   6.058  26.179  0.0455  0.3236  0.1260
37554W        W46154  24.589   4.621  21.212 -0.0549 -0.0031  0.3728
37555W        W46155   3.253   1.606  34.339 -0.1387  0.2761  0.0015
37556W        W46156  18.619   5.459   8.551 -0.0277 -0.2154 -0.1475
37557W        W46157   8.386   5.517  30.659  0.1249  0.1001  0.0198
37558W        W46158  25.861   0.892  21.542  0.2006 -0.1452  0.1544
37559W        W46159  23.039   1.234   6.255 -0.0600  0.0268  0.2140
37560W        W46160   2.425   2.022  33.405 -0.1299 -0.1543 -0.0670
37561W        W46161   5.381   0.404  26.741 -0.1193  0.1826 -0.1545
37562W        W46162   9.426   1.992  30.322  0.1555 -0.0923 -0.0780
37563W        W46163   8.006   2.167   5.960 -0.0433  0.0205 -0.2263
37564W        W46164  12.592   0.248  21.681 -0.0596  0.0611 -0.0110
37565W        W46165  19.034   2.333   2.576 -0.2081 -0.1299 -0.3192
37566W        W46166  23.221   6.551  35.784  0.2323  0.0617 -0.1855
37567W        W46167  11.036   1.909  23.841  0.0352  0.2246 -0.0758
37568W        W46168   8.620   5.454  24.458 -0.3414 -0.1281 -0.0065
37569W        W46169  22.566   5.151  29.865 -0.4698 -0.2342 -0.0409
37570W        W46170  23.561   3.568   4.527  0.0794 -0.0100 -0.5222
37571W        W46171   0.674   2.844   0.414  0.3573  0.0377  0.1571
37572W        W46172  25.249   3.378   4.364 -0.2380  0.0768 -0.3640
37573W        W46173  19.511   0.204   7.507  0.0216  0.0500  0.0287
37574W        W46174   3.804   1.461  36.094  0.0783 -0.0923  0.1229
37575W        W46175  12.833   0.901   5.376  0.2351  0.1296 -0.1487
37576W        W46176   2.664   3.032  34.182  0.1187 -0.1705 -0.2947
37577W        W46177  11.298   5.135  24.549  0.0188 -0.0864 -0.0703
37578W        W46178  19.095   4.388  20.514 -0.0768  0.1312 -0.1799
37579W        W46179  20.020   5.323   5.730 -0.2661  0.1480  0.1357
37580W        W46180  25.819   4.600  33.769  0.0369 -0.0248 -0.1679
37581W        W46181  24.261   2.223   1.565 -0.2422  0.0174  0.1200
37582W        W46182   1.480   5.426  26.461 -0.0676  0.0552 -0.3561
37583W        W46183  15.305   6.296  23.951 -0.0285  0.0634 -0.3866
37584W        W46184  19.511   5.540   0.830  0.0201 -0.0473  0.2156
37585W        W46185   6.416   1.458   8.320 -0.0861  0.2459  0.0243
37586W        W46186   6.306   6.607   7.080  0.1404 -0.3214  0.0340
37587W        W46187  21.944   5.170   5.370 -0.0209  0.0836  0.2937
37588W        W46188   6.776   3.378  33.139  0.1952  0.0561 -0.2667
37589W        W46189  15.600   6.502  27.230 -0.3479 -0.0771 -0.1700
37590W        W46190  15.226   3.164  13.433  0.4647  0.0722 -0.3492
37591W        W46191   5.014   1.497   0.710  0.1830 -0.3554 -0.2108
37592W        W46192   2.766   3.456  28.870 -0.1537  0.4729  0.1052
37593W        W46193   8.014   1.892   2.002  0.2680  0.0400  0.2988
37594W        W46194   0.393   0.253  24.381  0.1069  0.0760 -0.0582
37595W        W46195   0.221   2.579  34.206 -0.2540  0.2271  0.0573
37596W        W46196  17.816   0.916  33.007  0.3214 -0.0947  0.0273
37597W        W46197  17.210   5.759   3.627 -0.1892  0.2468 -0.4483
37598W        W46198  25.051   4.098   5.030  0.2206  0.0101 -0.3686
37599W        W46199  23.109   3.865   9.661 -0.1414 -0.1560  0.0240
37600W        W46200  14.158   5.795  32.325  0.2684 -0.2585  0.2291
37601W        W46201   5.692   4.568   9.929 -0.0857  0.0836 -0.0200
37602W        W46202  11.443   3.382  24.008  0.2173  0.0463 -0.2032
37603W        W46203  24.134   5.142  28.299 -0.1461 -0.0757  0.1222
37604W        W46204   1.351   4.776   0.391 -0.2424 -0.2973 -0.4462
37605W        W46205   4.860   1.476  29.475 -0.0236 -0.2652 -0.2505
37606W        W46206  17.488   4.797  35.242  0.0143  0.0197  0.0921
37607W        W46207  26.264   4.220   6.150 -0.1500 -0.2187 -0.1268
37608W        W46208   4.963   1.435  25.145 -0.3999  0.0070  0.0162
37609W        W46209  12.887   0.424  14.793  0.0775 -0.2432  0.2265
37610W        W46210  25.034   0.377   6.804 -0.0061 -0.1958 -0.1543
37611W        W46211  10.653   4.017  33.472  0.0465  0.1342  0.2185
37612W        W46212   1.045   4.305  25.219  0.0967 -0.1890  0.0905
37613W        W46213  19.714   0.249   7.036  0.0815  0.0215  0.0467
37614W        W46214   8.649   5.884  34.093  0.1317 -0.2741 -0.0446
37615W        W46215   1.686   2.734  14.721 -0.0058  0.0967 -0.0371
37616W        W46216  24.344   1.084   2.764  0.2509  0.1259  0.1783
37617W        W46217  16.868   1.505   7.523 -0.1453 -0.0342 -0.2064
37618W        W46218   5.134   5.360  33.287 -0.0833  0.1564 -0.0889
37619W        W46219  16.685   6.387   5.727  0.3397  0.2844 -0.0103
37620W        W46220  22.113   6.447  14.271  0.0197 -0.1066 -0.3821
37621W        W46221  20.068   2.008  21.628 -0.0534  0.0945 -0.0415
37622W        W46222  14.009   6.078  14.544 -0.2519 -0.0158 -0.0453
37623W        W46223  23.152   4.597  24.751 -0.0754 -0.1526 -0.2272
37624W        W46224  18.559   5.817   6.066 -0.0953 -0.2117  0.0088
37625W        W46225   2.850   5.772  22.670 -0.0200 -0.1429 -0.0483
37626W        W46226   3.674   0.969  11.977 -0.1796 -0.2769 -0.0575
37627W        W46227  24.675   0.387  26.691 -0.1903  0.2057 -0.0205
37628W        W46228   9.801   3.907  29.673 -0.3732  0.2331 -0.1484
37629W        W46229  22.090   0.405  28.966 -0.2137 -0.0038  0.0955
37630W        W46230   3.514   1.555   6.667  0.0166 -0.1223  0.0086
37631W        W46231  17.703   4.014  28.923 -0.1180 -0.4752 -0.1307
37632W        W46232   3.393   5.873   7.946 -0.0907  0.0373 -0.0127
37633W        W46233  15.235   1.898   6.032 -0.1276  0.0018 -0.2015
37634W        W46234  12.768   4.138  12.926 -0.2655  0.1757  0.0310
37635W        W46235  20.183   2.038  26.985  0.0896  0.0304 -0.0997
37636W        W46236  20.261   0.987   6.620  0.1171  0.0895 -0.1720
37637W        W46237  21.280   4.985  14.945  0.3135  0.2377 -0.1807
37638W        W46238   8.926   1.260  23.203 -0.0517  0.3930  0.1729
37639W        W46239   9.106   5.832   2.575 -0.2197  0.0810  0.0980
37640W        W46240  22.254   3.653   4.784  0.1936 -0.3070 -0.0721
37641W        W46241   8.157   2.641  35.601 -0.0604  0.3125 -0.0991
37642W        W46242  23.942   6.546  27.598 -0.1047 -0.0598 -0.0094
37643W        W46243  26.144   3.448  21.144 -0.1292 -0.1472 -0.0188
37644W        W46244  15.741   3.023   5.068  0.1004 -0.1624  0.0728
37645W        W46245  12.230   2.470  30.976 -0.0355  0.3014  0.0977
37646W        W46246   4.135   3.423  14.584 -0.0564  0.2431  0.1021
37647W        W46247  11.968   2.143  26.825  0.0149  0.1735 -0.0808
37648W        W46248  25.176   1.788  35.781 -0.1171  0.2157 -0.1182
37649W        W46249  21.774   3.300  29.436 -0.1901  0.0143 -0.0070
37650W        W46250  10.194   0.724  12.030  0.1809  0.1698 -0.0257
37651W        W46251  11.710   0.926  32.932 -0.0806 -0.0081 -0.2103
37652W        W46252   7.143   2.387  29.143  0.0835 -0.1352 -0.2386
37653W        W46253  18.938   1.894  25.487 -0.0100 -0.2256 -0.0610
37654W        W46254   4.540   6.167   1.453 -0.0648 -0.1660 -0.0684
37655W        W46255   4.242   1.037  28.445 -0.0824  0.0531 -0.0243
37656W        W46256   6.964   2.989  31.013  0.2994  0.0556 -0.0836
37657W        W46257   3.783   0.375  34.871 -0.3246 -0.5376  0.0149
37658W        W46258  16.447   4.501  34.405 -0.2046 -0.0645  0.1491
37659W        W46259   4.034   2.560  34.504  0.0245 -0.0880 -0.0289
37660W        W46260  18.720   5.412  30.759  0.1994 -0.0615  0.2002
37661W        W46261  18.097   6.082   1.446  0.4204  0.0478 -0.0265
37662W        W46262  18.615   1.858   8.685 -0.0058 -0.1545 -0.0446
37663W        W46263  23.877   1.409  25.638  0.1330 -0.0882 -0.1351
37664W        W46264  13.510   4.485   0.589 -0.0628 -0.4075  0.1908
37665W        W46265  10.665   3.976  21.875  0.0320  0.2361  0.0467
37666W        W46266  14.530   4.680   9.826 -0.2573 -0.2354  0.1580
37667W        W46267  26.107   2.705  31.112 -0.1241  0.0262  0.0347
37668W        W46268  12.326   0.898  12.657  0.0861 -0.0938  0.1828
37669W        W46269  12.584   2.846  31.983  0.4088  0.0079  0.4168
37670W        W46270  19.605   1.330  21.382  0.4381 -0.2485 -0.2055
37671W        W46271  21.959   0.946  21.842 -0.0691 -0.0262  0.0999
37672W        W46272  11.031   1.482   7.569 -0.0178 -0.1431  0.1894
37673W        W46273  12.780   0.996  31.649  0.3823 -0.1625 -0.1874
37674W        W46274  11.805   3.904   1.458  0.2173  0.0182 -0.2135
37675W        W46275   1.999   2.619  32.099  0.1094  0.1267  0.0618
37676W        W46276  12.213   4.498  21.507 -0.0079  0.0334  0.0078
37677W        W46277  19.562   5.957   6.835  0.3985  0.1195  0.0495
37678W        W46278   5.841   2.103  14.196 -0.2878  0.0168  0.2699
37679W        W46279   5.230   1.995  23.727 -0.1404 -0.0908 -0.3320
37680W        W46280  17.144   2.368   7.358  0.2406 -0.0182  0.1228
37681W        W46281  14.306   2.050  35.405 -0.0382 -0.1818  0.1682
37682W        W46282  13.459   5.745  34.925 -0.1077  0.0369  0.0257
37683W        W46283  16.774   1.305  26.662 -0.1146 -0.1436 -0.0170
37684W        W46284   3.826   2.792  35.852  0.1222  0.2759 -0.1006
37685W        W46285  24.409   3.654   4.111  0.1817  0.1596  0.2011
37686W        W46286  16.128   3.435   7.789  0.0951 -0.1120  0.1915
37687W        W46287  14.012   3.941  24.596  0.1686  0.0244  0.1223
37688W        W46288  14.203   1.666  14.809 -0.0461 -0.0277 -0.2649
37689W        W46289  14.651   5.417  29.266  0.1067 -0.0071 -0.1053
37690W        W46290   4.496   5.507  24.647 -0.0602  0.3389  0.1864
37691W        W46291   0.941   4.740  10.980 -0.1238  0.0386 -0.0914
37692W        W46292  19.211   0.188   6.101  0.3089 -0.3233  0.1494
37693W        W46293   0.410   4.862  32.835  0.0318 -0.1116  0.1571
37694W        W46294  22.017   4.770  23.341 -0.1516 -0.0280  0.2060
37695W        W46295  10.584   1.929  29.412 -0.3527 -0.0069 -0.2348
37696W        W46296  24.858   3.150  30.626 -0.0116  0.0940 -0.1754
37697W        W46297  12.437   5.161  29.342  0.2736 -0.1691 -0.3623
37698W        W46298  14.437   1.961  13.272 -0.1546 -0.1612  0.0848
37699W        W46299  25.841   2.457  27.172 -0.1393 -0.2273  0.3305
37700W        W46300  11.247   0.759   0.180  0.3874 -0.2066 -0.0686
37701W        W46301  13.797   4.616   7.712  0.2433  0.2839 -0.0038
37702W        W46302  14.680   4.571   2.583  0.1623 -0.1234  0.1558
37703W        W46303  11.395   3.311  27.552 -0.1429 -0.1157  0.0840
37704W        W46304  21.040   0.360   6.925  0.0303 -0.1097  0.0481
37705W        W46305  24.835   2.104   5.184 -0.1997  0.1155  0.3397
37706W        W46306  12.870   3.518  13.877 -0.2678  0.1334  0.1236
37707W        W46307   9.921   1.490   5.461  0.5197 -0.3123 -0.1369
37708W        W46308  13.426   4.034   3.391 -0.1883  0.1733 -0.1806
37709W        W46309  15.360   1.689   1.365 -0.1656  0.2556 -0.0612
37710W        W46310   8.966   6.299  24.852  0.1506 -0.2896 -0.0959
37711W        W46311  22.643   3.460  32.446 -0.0067  0.1931  0.0646
37712W        W46312   4.107   4.655   7.831  0.0317 -0.0872  0.1267
37713W        W46313  18.003   5.329   2.951 -0.1196  0.1250  0.3117
37714W        W46314  23.966   0.546   1.215 -0.1000  0.1060  0.1429
37715W        W46315  11.685   3.261  27.941 -0.4854 -0.2078  0.2272
37716W        W46316  18.329   4.430  29.561 -0.0885 -0.2625 -0.0557
37717W        W46317  15.403   0.008  34.348 -0.5240  0.1114 -0.4052
37718W        W46318  11.755   6.098  12.685 -0.0370  0.1807  0.1086
37719W        W46319  23.467   0.939   1.888  0.1188 -0.2006 -0.1154
37720W        W46320  17.943   4.235  33.763 -0.3214 -0.0896  0.2389
37721W        W46321  19.719   4.680  36.104 -0.0385 -0.1480 -0.0732
37722W        W46322  24.029   3.393  21.400 -0.0302 -0.2081  0.0934
37723W        W46323  16.349   2.838  33.642 -0.1557 -0.0787 -0.3369
37724W        W46324  13.675   4.381  34.427  0.0517  0.2701  0.2130
37725W        W46325   7.395   2.785  14.653  0.2398 -0.0125  0.2059
37726W        W46326  12.841   0.953  33.330 -0.3667 -0.0986 -0.2291
37727W        W46327  22.671   3.904   9.304 -0.2973  0.0752 -0.2393
37728W        W46328   2.663   3.023   8.827  0.1132  0.3064 -0.1919
37729W        W46329   0.333   1.849  13.913 -0.2711  0.0615  0.1678
37730W        W46330  17.719   1.075   0.446 -0.0502  0.0230 -0.0218
37731W        W46331   2.304   4.279  34.143 -0.0223  0.2404 -0.2913
37732W        W46332  18.804   6.364  10.291 -0.0346 -0.0554  0.1196
37733W        W46333   9.054   5.680  30.844 -0.1493  0.2518 -0.3170
37734W        W46334   6.528   0.779  26.821 -0.1627 -0.0048 -0.1217
37735W        W46335  17.041   5.987  13.231 -0.0881  0.0037 -0.0966
37736W        W46336  13.427   0.709  32.093 -0.1001  0.2663 -0.1015
37737W        W46337   0.635   0.964  35.720 -0.1783 -0.0077  0.0806
37738W        W46338  26.139   2.209  32.743  0.0923  0.2821 -0.2688
37739W        W46339  12.936   5.974  23.076 -0.2435 -0.4000 -0.0566
37740W        W46340   1.131   1.394   0.235  0.1139  0.1102 -0.1564
37741W        W46341   3.559   6.381  33.262 -0.1143  0.0837  0.2261
37742W        W46342  21.843   2.238  29.301  0.1834  0.0016  0.0480
37743W        W46343  13.973   6.302  33.820 -0.0167 -0.1482  0.1605
37744W        W46344  10.573   1.315   0.161  0.2322 -0.1019  0.1337
37745W        W46345   4.505   3.213  31.051  0.0180  0.4197  0.2265
37746W        W46346  12.102   1.280  32.926  0.2799 -0.4935  0.1730
37747W        W46347   7.531   5.700  28.173  0.3706  0.1293 -0.2180
37748W        W46348  21.030   5.963  25.849 -0.1519 -0.0203 -0.1611
37749W        W46349  17.593   1.678  21.040 -0.0450  0.0954 -0.1101
37750W        W46350   5.591   5.483  33.537 -0.2296 -0.1408 -0.3176
37751W        W46351  21.469   2.624  34.766 -0.0145  0.1243 -0.1115
37752W        W46352   7.287   0.627   0.433 -0.1461 -0.1935 -0.3224
37753W        W46353  11.244   4.516  21.099 -0.2660 -0.0819  0.1741
37754W        W46354  22.918   5.522   2.078  0.0201 -0.0619 -0.0248
37755W        W46355  12.086   1.400  22.816  0.0016 -0.1062  0.1528
37756W        W46356  25.039   5.308  23.028  0.1876  0.0698 -0.0601
37757W        W46357  17.118   5.793  22.194 -0.0096 -0.0888  0.0281
37758W        W46358   1.649   1.816   8.232  0.3647  0.0244  0.2377
37759W        W46359  18.869   3.695   9.720 -0.0912  0.2718 -0.2076
37760W        W46360  21.436   2.757  33.801  0.2307 -0.5533 -0.2065
37761W        W46361  10.269   0.175  22.909 -0.0306  0.0031  0.1597
37762W        W46362  23.744   1.273  12.226 -0.2791 -0.1396  0.1257
37763W        W46363  20.960   1.672   6.978 -0.2140  0.1809  0.0675
37764W        W46364  18.542   0.632  25.608  0.4702 -0.0819 -0.1629
37765W        W46365   8.501   1.939  31.324  0.0018  0.2603 -0.1698
37766W        W46366  24.648   3.026  32.126 -0.2039 -0.2917  0.1640
37767W        W46367  11.071   1.122  12.092 -0.0044 -0.0872  0.4297
37768W        W46368  19.916   4.788   7.546  0.1841 -0.2396  0.1993
37769W        W46369  14.441   0.106  27.804  0.0848 -0.2056  0.0089
37770W        W46370  14.219   3.720   1.912 -0.0424 -0.1113  0.0272
37771W        W46371  12.020   1.968  36.003 -0.1394  0.0217  0.0268
37772W        W46372   8.496   5.784   6.192  0.1128 -0.0894  0.2219
37773W        W46373   4.576   1.662  32.437  0.2296  0.1450 -0.1516
37774W        W46374  10.809   1.594   5.704  0.0461 -0.2812  0.0545
37775W        W46375   9.950   1.263   2.863  0.0039 -0.0675  0.3276
37776W        W46376  21.651   6.204  31.900  0.1673  0.3145  0.1739
37777W        W46377   6.788   4.280  28.920  0.0718 -0.2927 -0.2136
37778W        W46378  16.602   2.809  30.211 -0.1407  0.0284 -0.0898
37779W        W46379  19.441   3.864  11.954 -0.0574  0.3455  0.1294
37780W        W46380   0.478   3.910   9.187  0.0782 -0.0947  0.0214
37781W        W46381   4.984   3.617   8.806 -0.0718 -0.0965  0.0217
37782W        W46382   9.492   5.299  31.717  0.0860 -0.3048 -0.0021
37783W        W46383   6.762   2.196  35.916  0.5125  0.0618 -0.2587
37784W        W46384  25.000   2.787  27.308 -0.1976 -0.0858  0.2375
37785W        W46385  24.784   4.148   9.415 -0.0941  0.0163  0.1788
37786W        W46386   5.718   1.375   9.051  0.1044 -0.1727  0.0760
37787W        W46387   0.179   0.019   1.684 -0.0249 -0.1445 -0.1552
37788W        W46388  14.282   3.457  10.547  0.0927  0.2682  0.0376
37789W        W46389   1.150   4.233  13.770  0.0416  0.0359  0.1118
37790W        W46390   6.561   2.483   6.105  0.1553 -0.0958 -0.0340
37791W        W46391  18.161   2.271  25.564  0.2192  0.0717  0.3168
37792W        W46392   2.596   2.306  25.972 -0.5620  0.1193  0.1489
37793W        W46393  20.164   2.529  23.822 -0.1954 -0.0456  0.0611
37794W        W46394  17.577   6.134   3.184 -0.1092  0.0335  0.1314
37795W        W46395   1.072   2.231  24.556  0.2198  0.2469  0.1696
37796W        W46396   9.538   2.503   6.163  0.1444  0.0964  0.1322
37797W        W46397  18.586   3.727  11.444  0.2683 -0.1685 -0.1302
37798W        W46398   3.852   1.280   1.186 -0.2505 -0.0396  0.1668
37799W        W46399  14.175   6.464   4.581  0.1099  0.0148 -0.1783
37800W        W46400  15.663   4.763  15.742 -0.1436 -0.1117 -0.0966
37801W        W46401  25.673   1.355  33.879 -0.1478  0.3803  0.0265
37802W        W46402  15.856   2.020  26.124 -0.1518  0.0756 -0.1689
37803W        W46403  19.877   4.591   2.525  0.1252  0.2320  0.0619
37804W        W46404   4.062   1.940  33.306  0.3316  0.6183  0.0878
37805W        W46405  24.602   5.437  34.694  0.2307  0.1326  0.3349
37806W        W46406  22.099   2.829  13.768  0.1545 -0.0313  0.0712
37807W        W46407  21.175   0.832  24.783  0.4058  0.0759 -0.0780
37808W        W46408   1.070   5.537  11.052 -0.1905  0.3993 -0.0882
37809W        W46409  24.321   0.732  21.275 -0.1024 -0.1462 -0.0134
37810W        W46410  10.227   2.029  34.348  0.4384 -0.0931 -0.1390
37811W        W46411  19.851   1.817  26.545 -0.0184 -0.0664 -0.0340
37812W        W46412  19.111   0.214  10.267  0.0995 -0.1557  0.2540
37813W        W46413  20.446   1.447   0.717 -0.0362 -0.1523 -0.1821
37814W        W46414   7.669   4.748  13.026  0.0077 -0.5769 -0.3151
37815W        W46415   0.196   0.190  22.825  0.6699 -0.1556  0.0049
37816W        W46416   9.450   5.554  23.493  0.1870 -0.0476 -0.3094
37817W        W46417  16.152   6.281  25.703 -0.3096 -0.2893  0.2961
37818W        W46418  23.772   5.575   6.285 -0.0780 -0.1423 -0.2939
37819W        W46419  25.301   4.053  33.155  0.2345 -0.1437  0.1862
37820W        W46420  17.324   5.294  30.787  0.3049  0.1098  0.0124
37821W        W46421  20.797   4.913  29.470 -0.1382  0.2143 -0.0728
37822W        W46422   4.644   5.639  28.109  0.1891  0.1733 -0.2449
37823W        W46423  24.036   5.860  25.334 -0.1176 -0.1548  0.2541
37824W        W46424   3.818   1.433  34.016 -0.1191  0.4639  0.1903
37825W        W46425   4.318   2.643   7.467 -0.0383 -0.0227  0.0341
37826W        W46426  24.793   0.939  30.152  0.0662 -0.0555  0.1172
37827W        W46427  17.075   2.785  34.768 -0.1622 -0.1312 -0.2106
37828W        W46428  24.987   2.801  22.354 -0.0811 -0.0060 -0.0488
37829W        W46429  11.537   6.074  14.453  0.5896  0.3870 -0.1314
37830W        W46430  11.362   2.724  10.902  0.3064 -0.2486 -0.0528
37831W        W46431  25.289   5.878  13.473  0.2962  0.0241 -0.0336
37832W        W46432   6.507   2.532  27.587 -0.3040  0.0626  0.1033
37833W        W46433  10.604   0.845   0.018 -0.3682  0.1508  0.0685
37834W        W46434   7.017   0.972  27.888 -0.0997  0.0728  0.0340
37835W        W46435   3.541   0.758  29.489 -0.0282 -0.0877  0.1390
37836W        W46436  22.910   2.485  15.374 -0.2428 -0.1592  0.1405
37837W        W46437  13.808   5.250   8.558 -0.0551  0.0861 -0.4180
37838W        W46438  24.962   0.602  12.190  0.3150  0.0779  0.1211
37839W        W46439   3.383   0.646  27.597  0.2078  0.0396 -0.2016
37840W        W46440   8.574   0.582   8.697  0.0676  0.1873 -0.0377
37841W        W46441  20.269   2.360  29.459 -0.2825  0.0827  0.1247
37842W        W46442  11.682   1.310   8.784 -0.2422  0.0084  0.1824
37843W        W46443  18.351   1.773  21.543 -0.1818 -0.1645  0.1160
37844W        W46444   2.811   6.170  10.773 -0.0835 -0.0555  0.1311
37845W        W46445  14.398   3.002  30.691  0.0595 -0.2379  0.1879
37846W        W46446   0.941   3.517  22.899  0.0294  0.2704  0.0314
37847W        W46447  23.628   0.741   9.215 -0.0448 -0.1759  0.0299
37848W        W46448  18.092   4.722  13.881  0.2322 -0.0761  0.1262
37849W        W46449   8.618   1.484  34.401  0.1876  0.3909 -0.0510
37850W        W46450   9.718   4.379  31.529  0.0644  0.0388 -0.2214
37851W        W46451  12.134   4.038   5.301  0.0317 -0.0881 -0.0723
37852W        W46452  11.149   1.436  12.672  0.1868  0.4068 -0.3101
37853W        W46453   7.081   6.398  23.294 -0.0231  0.1503  0.1051
37854W        W46454   3.234   3.328  24.765  0.0890 -0.0025  0.3284
37855W        W46455  20.449   0.397  31.238  0.1102  0.2589  0.1956
37856W        W46456   9.489   5.424  21.086  0.1202  0.1161 -0.3584
37857W        W46457  11.520   0.281   6.531 -0.3227  0.0781  0.3361
37858W        W46458  21.239   4.095   6.932  0.0479 -0.0368  0.0325
37859W        W46459   0.327   5.456   8.310  0.0948  0.3159 -0.1794
37860W        W46460  18.659   5.745  34.382  0.0159  0.0836  0.2247
37861W        W46461   8.396   6.432  29.646 -0.1309  0.0380  0.1307
37862W        W46462  24.611   0.533   3.478  0.0440 -0.1526  0.0458
37863W        W46463  14.222   0.727   2.616  0.0501  0.1370 -0.3198
37864W        W46464  23.772   0.093   1.592 -0.3655 -0.1488  0.1537
37865W        W46465  16.119   5.589   1.295 -0.0229  0.0232 -0.1691
37866W        W46466  19.883   0.399   3.697 -0.0304  0.3589 -0.0211
37867W        W46467  10.300   4.814  24.206 -0.2442  0.1951  0.0987
37868W        W46468  18.396   2.441  31.130  0.2244 -0.1250 -0.0991
37869W        W46469  21.268   4.770  28.193 -0.0865  0.1993 -0.0253
37870W        W46470  16.684   3.543   2.891  0.2970  0.0217 -0.1558
37871W        W46471  10.615   4.468  13.855 -0.2410 -0.0922 -0.1838
37872W        W46472   3.242   6.305  20.952 -0.3531 -0.1827  0.0073
37873W        W46473  14.791   2.077  32.097  0.3870  0.3311 -0.0053
37874W        W46474   7.163   2.305  24.309 -0.0168 -0.0561  0.0772
37875W        W46475   4.013   6.062   5.555  0.0538 -0.1965  0.2035
37876W        W46476  20.292   1.314  11.752  0.2277 -0.1362 -0.0435
37877W        W46477   2.924   0.480  23.500  0.0434 -0.0310  0.1349
37878W        W46478  14.857   4.599  15.436  0.0717  0.0603 -0.1435
37879W        W46479  13.250   2.353   1.060  0.0218 -0.0483 -0.0060
37880W        W46480  24.404   4.269   3.384  0.0094  0.0817  0.2114
37881W        W46481   5.031   4.246  22.985 -0.2036  0.0184  0.0371
37882W        W46482  26.082   0.964  14.811  0.1201  0.0362 -0.1713
37883W        W46483  12.034   1.301   0.450  0.0539  0.1034 -0.0025
37884W        W46484   0.008   1.663   5.567  0.0064 -0.1756  0.0100
37885W        W46485   8.379   2.776  25.098 -0.1164  0.1413  0.1795
37886W        W46486   5.423   3.822  20.369 -0.3026  0.0547 -0.1327
37887W        W46487   2.866   5.795  12.208  0.0742 -0.1062 -0.0091
37888W        W46488  23.002   5.276  34.249 -0.1834 -0.3444 -0.3681
37889W        W46489   1.308   2.917  20.776 -0.1847 -0.0470 -0.0023
37890W        W46490  11.932   6.310   5.523  0.1555 -0.3235 -0.0611
37891W        W46491  20.740   4.615   0.026 -0.1689  0.0926 -0.1272
37892W        W46492  22.415   6.467   9.417  0.0496  0.0542 -0.0988
37893W        W46493  16.103   3.815   2.529 -0.6012  0.0009 -0.1181
37894W        W46494  26.280   1.480  33.099  0.3111  0.0011 -0.0407
37895W        W46495   5.144   0.548   5.595  0.1118  0.0908  0.0845
37896W        W46496  13.279   5.924  28.096  0.1991 -0.3143 -0.2241
37897W        W46497  13.209   1.887   2.382  0.1116  0.2999  0.4102
37898W        W46498  17.767   5.015  23.128  0.1058  0.2062  0.1800
37899W        W46499  17.723   4.590  25.374 -0.3131  0.1264  0.1769
37900W        W46500  26.096   5.886  31.047 -0.1871  0.3396 -0.3122
37901W        W46501  19.721   1.264  10.036 -0.0071 -0.0176 -0.0053
37902W        W46502  11.826   1.416  23.235  0.3534  0.3327 -0.0261
37903W        W46503  13.491   2.668  31.189  0.3939 -0.0340 -0.0741
37904W        W46504  23.235   2.249  10.538  0.3284 -0.1447 -0.1564
37905W        W46505   6.926   1.589   0.174 -0.1442 -0.1318  0.0876
37906W        W46506   7.380   2.998  21.472  0.0627 -0.0538 -0.2578
37907W        W46507  19.385   0.565   9.978 -0.3003  0.0327 -0.0620
37908W        W46508  14.777   4.016  22.493  0.0592  0.0416 -0.1372
37909W        W46509  18.122   0.859  21.601  0.2547  0.0393 -0.2428
37910W        W46510  11.810   5.955  33.964 -0.3658  0.0898  0.1038
37911W        W46511  14.580   3.471  31.359  0.0125 -0.0164  0.1678
37912W        W46512  19.148   5.301  34.618 -0.0184  0.2661  0.3221
37913W        W46513   5.026   4.969  27.039 -0.1599 -0.3242 -0.1141
37914W        W46514   8.987   4.368   9.394 -0.0038  0.0083  0.0960
37915W        W46515  16.104   1.928  29.640  0.1538  0.1273 -0.0148
37916W        W46516  20.688   2.977  26.286 -0.1962  0.0407 -0.1770
37917W        W46517  15.752   5.257  13.184  0.3600 -0.3183 -0.0112
37918W        W46518  17.029   2.419  10.574 -0.2977 -0.2833 -0.0355
37919W        W46519  25.236   3.620  14.743 -0.1995 -0.3464  0.0315
37920W        W46520   6.339   0.083   8.767 -0.1826  0.1351  0.1405
37921W        W46521   7.856   4.127  10.790 -0.0015  0.0923 -0.1049
37922W        W46522   1.125   0.948  12.505 -0.5500  0.0428  0.0294
37923W        W46523  24.195   2.255  27.101 -0.0417  0.1714 -0.1932
37924W        W46524  16.263   5.151  27.342 -0.1379 -0.0178  0.0925
37925W        W46525  24.317   5.884  32.887  0.0223  0.0261 -0.0401
37926W        W46526   0.364   5.430   6.875 -0.0402 -0.0328  0.0198
37927W        W46527   4.957   3.574  22.597  0.1076 -0.3093 -0.2215
37928W        W46528  19.413   4.462   2.556  0.1013 -0.0467 -0.0577
37929W        W46529  22.980   4.889  13.539  0.1349 -0.1407 -0.1618
37930W        W46530  13.590   0.440   3.925 -0.0231  0.2289  0.0224
37931W        W46531  25.651   6.213  13.613  0.2594  0.1708 -0.1260
37932W        W46532   7.102   3.111  20.424  0.1414  0.0562  0.1233
37933W        W46533  19.247   5.787  29.873  0.0209 -0.0737 -0.1486
37934W        W46534  11.862   2.839  14.838 -0.0101 -0.0287 -0.0919
37935W        W46535   7.827   0.339  12.997 -0.1891  0.0964 -0.0106
37936W        W46536  18.676   0.969  14.863  0.0421 -0.0011 -0.0724
37937W        W46537  21.245   4.852  13.975 -0.0514 -0.2354  0.2232
37938W        W46538  11.345   4.615   7.451 -0.1064 -0.3956  0.1143
37939W        W46539  14.459   3.913  23.448  0.1264 -0.0990  0.0233
37940W        W46540  25.977   5.335  10.085 -0.0986 -0.2560 -0.1110
37941W        W46541   2.001   6.493   8.987  0.0179 -0.1452  0.0355
37942W        W46542  21.626   4.315  32.884 -0.0772  0.1143  0.2961
37943W        W46543  13.541   5.018   8.917 -0.0294 -0.2116  0.1710
37944W        W46544  24.986   6.514  28.415  0.0029 -0.1343  0.3186
37945W        W46545  17.411   6.173   0.561 -0.0966  0.1422 -0.3245
37946W        W46546   1.445   3.959  13.089  0.2045 -0.0192 -0.0274
37947W        W46547  22.613   6.080  21.020  0.0036  0.1444 -0.1781
37948W        W46548  12.745   3.047  21.206  0.0469 -0.0465 -0.1889
37949W        W46549  14.711   3.927  23.854  0.1645 -0.1305 -0.0875
37950W        W46550  23.678   4.732  30.607  0.0140  0.0264  0.2174
37951W        W46551   0.078   0.837  10.839  0.1806  0.0304 -0.0500
37952W        W46552   6.462   2.879  32.574  0.1653  0.0623 -0.0330
37953W        W46553  11.051   5.939  12.934  0.0610  0.2893  0.0274
37954W        W46554  11.322   3.920  34.363  0.0043  0.1028  0.0079
37955W        W46555   4.651   2.059  12.860  0.0177  0.0865  0.0841
37956W        W46556  25.336   5.143   4.551 -0.2850  0.2075 -0.0193
37957W        W46557   3.369   2.909  29.711 -0.0477  0.0335 -0.1103
37958W        W46558  18.581   0.236  15.571 -0.0421 -0.0054  0.1653
37959W        W46559  24.456   0.243  25.048 -0.2111 -0.1299 -0.1489
37960W        W46560  12.588   4.760   9.077 -0.0399 -0.0078 -0.0842
37961W        W46561  12.326   3.917  32.636  0.2412 -0.1965 -0.0088
37962W        W46562   5.857   6.153  11.804  0.3893 -0.0731 -0.1221
37963W        W46563  10.789   5.610  15.256 -0.4714  0.0402 -0.0581
37964W        W46564  25.679   4.777   3.527 -0.1187 -0.1083 -0.2681
37965W        W46565  25.012   5.993  31.811 -0.0844  0.0389 -0.2636
37966W        W46566  17.328   1.286  34.221 -0.0783  0.1009 -0.0617
37967W        W46567   6.530   2.810   0.403  0.0216  0.2294  0.0220
37968W        W46568  24.295   0.265  33.151 -0.0669  0.0394  0.1059
37969W        W46569   3.974   1.960  20.982  0.0767  0.0526  0.3059
37970W        W46570   6.765   5.865  30.196 -0.0035 -0.2446  0.0560
37971W        W46571  24.391   2.860  13.424  0.2292 -0.2115 -0.2420
37972W        W46572   3.807   2.597  34.963  0.0098 -0.1687 -0.2188
37973W        W46573   9.629   4.297   9.573  0.1830 -0.1501  0.1580
37974W        W46574  23.793   4.840  27.439  0.0496 -0.1464  0.1339
37975W        W46575   9.643   4.416  30.971  0.0049 -0.1394  0.0051
37976W        W46576  18.445   6.268   4.708 -0.2760 -0.0991  0.1651
37977W        W46577   1.949   4.795  21.885 -0.2334 -0.1714  0.0116
37978W        W46578   1.142   1.737  26.959 -0.0465  0.0455 -0.1984
37979W        W46579   9.146   0.414   5.025  0.0123  0.1394 -0.4992
37980W        W46580  23.087   1.226  11.229  0.1946  0.0847 -0.2908
37981W        W46581   5.709   0.879  35.451  0.2198 -0.0282 -0.2353
37982W        W46582  16.814   0.736   5.617 -0.1469 -0.0601  0.1087
37983W        W46583   5.716   5.561  13.056  0.0096  0.1986  0.0817
37984W        W46584  14.868   2.528  12.731 -0.0384  0.2034  0.2027
37985W        W46585  19.772   5.253  23.932  0.2734 -0.2220  0.0601
37986W        W46586  10.601   1.605  13.503  0.1145 -0.2649 -0.1003
37987W        W46587  24.819   4.250  26.071 -0.0377  0.0911  0.0147
37988W        W46588   1.174   1.734  27.867  0.2410  0.0294  0.0289
37989W        W46589   2.993   3.861   6.431  0.0303  0.0799 -0.2935
37990W        W46590  25.364   1.721  22.070 -0.0351 -0.0496 -0.0064
37991W        W46591  19.484   0.587   3.434  0.2071  0.0443  0.2647
37992W        W46592   7.017   6.306  21.400 -0.1890 -0.1156 -0.0388
37993W        W46593  19.655   6.583   8.783  0.4879 -0.4984 -0.1618
37994W        W46594  20.597   2.230  11.016 -0.0821 -0.2677 -0.4092
37995W        W46595   3.383   3.398   8.266 -0.0746  0.1073 -0.2701
37996W        W46596  19.238   0.690  11.567  0.1300  0.2564 -0.1800
37997W        W46597   6.073   6.542  26.645  0.1294 -0.0680 -0.2061
37998W        W46598  19.571   6.408   9.527 -0.0034  0.0047 -0.0357
37999W        W46599  14.037   2.850  33.365  0.1147 -0.0653  0.0767
38000W        W46600  18.300   4.544  22.147 -0.0361  0.1279  0.1647
38001W        W46601  24.793   1.286  33.396 -0.1218  0.1903  0.1277
38002W        W46602  10.929   6.524   1.121  0.2347 -0.0786  0.0829
38003W        W46603   9.225   1.716  33.533 -0.1443 -0.1579  0.2519
38004W        W46604   4.597   6.309  13.094 -0.0398 -0.1258  0.2014
38005W        W46605  19.758   1.048  21.788  0.1674 -0.1905 -0.1010
38006W        W46606  21.558   1.359   3.165 -0.1206  0.1755 -0.0392
38007W        W46607   2.851   1.262  21.964  0.1723  0.2147 -0.1303
38008W        W46608   7.593   2.636  31.762 -0.0099  0.0788 -0.1044
38009W        W46609   4.296   2.352  30.354 -0.0964 -0.0328  0.1538
38010W        W46610   0.923   3.264  29.556  0.1396 -0.2629 -0.0355
38011W        W46611  16.666   3.864   3.829  0.1352  0.0227  0.0771
38012W        W46612  24.555   4.206  11.522 -0.3338  0.2099 -0.1955
38013W        W46613  25.135   0.779  35.211 -0.0745 -0.0804 -0.1732
38014W        W46614  25.514   1.786   7.653 -0.2754 -0.2581  0.0496
38015W        W46615   4.509   2.149   1.569  0.3416 -0.0299  0.0553
38016W        W46616   5.568   3.018   2.665  0.0889  0.0547  0.2169
38017W        W46617  16.506   3.160  14.185  0.3465  0.1456  0.0194
38018W        W46618  14.568   2.023   3.986  0.1425  0.1107  0.0608
38019W        W46619  16.963   4.373  25.655 -0.2537  0.1869 -0.0367
38020W        W46620  19.094   4.993  30.559 -0.1156  0.0096 -0.0720
38021W        W46621  21.782   1.368  25.562 -0.1818 -0.1756 -0.1212
38022W        W46622  11.587   1.790  13.257  0.1558 -0.0783  0.2015
38023W        W46623  15.467   2.336  23.400 -0.0290  0.1437 -0.0385
38024W        W46624  20.906   5.685  35.939  0.0551 -0.2159 -0.2073
38025W        W46625   9.401   1.515  12.599 -0.0124  0.0588 -0.2827
38026W        W46626  17.320   4.715  27.886  0.2391 -0.2081 -0.3131
38027W        W46627  19.016   3.024  23.251  0.2658 -0.0224 -0.0826
38028W        W46628  19.764   4.439   7.941 -0.2000  0.0310 -0.1071
38029W        W46629  14.370   6.214  22.934  0.0361  0.2514  0.1556
38030W        W46630  11.055   2.736  29.329  0.0038  0.3121  0.0243
38031W        W46631   8.982   1.138   9.533 -0.2571 -0.0185 -0.1995
38032W        W46632  18.087   1.209   3.971 -0.2775  0.0961 -0.0663
38033W        W46633  20.034   6.076   3.491  0.0349  0.3416 -0.2299
38034W        W46634  21.339   3.957   1.171 -0.0982  0.0912 -0.2309
38035W        W46635   2.208   2.693  35.249  0.0568 -0.0547 -0.0300
38036W        W46636  14.818   2.617  31.979  0.4563  0.0994  0.0940
38037W        W46637  19.065   4.832  10.315 -0.0857  0.0705  0.1449
38038W        W46638  10.591   6.142  36.051 -0.0536  0.0040  0.2833
38039W        W46639  26.252   4.259  29.201  0.0462 -0.0721 -0.3958
38040W        W46640  25.680   5.631  13.160  0.1952  0.1966 -0.1948
38041W        W46641  16.871   0.060  28.406 -0.0647  0.0852  0.0417
38042W        W46642  25.878   2.485  20.349 -0.1800  0.0150  0.0585
38043W        W46643  11.733   5.030  29.827 -0.0115  0.1072  0.2368
38044W        W46644  14.883   3.583  27.161 -0.0162  0.1493  0.0577
38045W        W46645  13.425   4.364  31.172 -0.0889  0.2135 -0.1610
38046W        W46646   0.513   6.540  14.168 -0.2501 -0.0885  0.1779
38047W        W46647   5.772   3.543   4.994  0.1160 -0.2958 -0.0121
38048W        W46648   7.180   6.290   3.234 -0.2214 -0.1886  0.1331
38049W        W46649  14.121   4.430  24.672 -0.1977 -0.0914 -0.0039
38050W        W46650  24.375   1.410  25.754 -0.0552  0.0826 -0.1530
38051W        W46651  16.590   4.568  25.871 -0.0839  0.0262  0.0992
38052W        W46652  17.564   4.453  30.915 -0.2601  0.2578  0.3630
38053W        W46653  10.075   5.774  23.129  0.1330  0.0184 -0.1282
38054W        W46654  23.331   5.125  32.776  0.0223  0.0655 -0.0644
38055W        W46655  23.994   0.534   9.628 -0.0205 -0.1293 -0.0062
38056W        W46656   6.701   0.626   6.572  0.3331 -0.2271  0.0231
38057W        W46657  18.164   1.306  25.394 -0.0582 -0.1697  0.0225
38058W        W46658   2.437   5.522  11.500 -0.2246  0.1015 -0.0629
38059W        W46659  12.824   4.903   2.708  0.0043  0.0436 -0.3101
38060W        W46660  16.544   5.736  28.257  0.2480  0.1049 -0.3389
38061W        W46661   3.291   5.666   3.211  0.1349 -0.1584  0.0880
38062W        W46662   6.215   4.635  35.862 -0.1756  0.0540 -0.1904
38063W        W46663  19.804   2.544  35.866  0.1581 -0.1468  0.0422
38064W        W46664  19.327   0.185   8.013 -0.2853  0.0062  0.1694
38065W        W46665  18.615   3.095  29.659 -0.2639  0.5055  0.0345
38066W        W46666   0.021   6.283  28.460 -0.1705 -0.1475 -0.2055
38067W        W46667  19.051   0.825  12.391  0.1979  0.0425  0.3578
38068W        W46668  18.383   1.702   2.065 -0.4469 -0.0120 -0.3274
38069W        W46669  20.282   0.095  30.760  0.1877  0.1914 -0.0381
38070W        W46670  26.411   1.026  12.057  0.2024  0.2437  0.0161
38071W        W46671  26.002   4.984  14.207 -0.0110 -0.2300 -0.0436
38072W        W46672  16.203   1.622   2.088  0.5357  0.0345  0.0759
38073W        W46673  10.608   2.555  10.196  0.0942 -0.3336  0.0195
38074W        W46674  22.086   3.594  23.414  0.0816  0.0855  0.1289
38075W        W46675  18.071   3.911  28.684 -0.3023  0.0005 -0.4079
38076W        W46676   7.107   2.464  12.195  0.2137  0.0937 -0.1881
38077W        W46677   4.759   4.078  14.777 -0.1865 -0.3882  0.4636
38078W        W46678   7.452   3.354   0.157  0.3306 -0.1823  0.0019
38079W        W46679   7.543   1.424  31.818  0.1438  0.0584 -0.0470
38080W        W46680   6.922   5.876   6.613  0.4349  0.2799 -0.0792
38081W        W46681  10.851   1.592   0.704 -0.1446 -0.1904  0.1186
38082W        W46682  16.157   5.037  14.098  0.1432 -0.1076 -0.0956
38083W        W46683   4.259   3.107   6.905  0.1089  0.0205  0.3165
38084W        W46684  12.442   0.990  25.451  0.0133  0.0229  0.3079
38085W        W46685  25.709   0.934  24.801  0.3325 -0.0547  0.0846
38086W        W46686  18.357   4.389  31.277 -0.1165 -0.1302 -0.0518
38087W        W46687  25.146   2.049  29.371  0.2882  0.1360  0.1255
38088W        W46688   2.159   1.917   9.036 -0.1017 -0.0045 -0.1928
38089W        W46689  19.272   1.059  10.257 -0.2209 -0.1155 -0.1955
38090W        W46690  22.710   2.076  22.209  0.0493  0.0463 -0.0498
38091W        W46691  20.882   0.407   3.678  0.0663  0.0029 -0.0752
38092W        W46692   9.556   2.878  30.887 -0.1290  0.1959 -0.1250
38093W        W46693  16.441   3.100  35.297 -0.2400  0.1610  0.4286
38094W        W46694  22.712   6.363  21.594 -0.0919  0.0313 -0.1459
38095W        W46695   7.099   5.101  13.981  0.2852  0.2921 -0.3175
38096W        W46696   6.474   3.271  24.008  0.3795 -0.0391  0.1458
38097W        W46697  22.982   0.778  34.344 -0.1304 -0.1428  0.1572
38098W        W46698  16.429   1.011   1.361 -0.0259  0.1875  0.2430
38099W        W46699  20.704   4.048  25.886  0.1115  0.0737 -0.1286
38100W        W46700  18.507   4.963  14.929 -0.0077  0.0859  0.1307
38101W        W46701  20.419   5.389  11.681 -0.2167 -0.0161 -0.2449
38102W        W46702  17.191   0.510   5.862 -0.1250 -0.0192 -0.0028
38103W        W46703  11.131   1.574  26.611 -0.0273  0.2177  0.0242
38104W        W46704  13.753   3.731  14.175  0.0301  0.1225 -0.1783
38105W        W46705  18.827   4.524  25.381  0.1091  0.2275  0.2849
38106W        W46706  15.041   5.645   5.442  0.1563  0.0521  0.1860
38107W        W46707   1.106   3.718  23.826 -0.1259  0.2546 -0.1608
38108W        W46708   5.733   0.631  14.546 -0.0950  0.0776  0.1037
38109W        W46709   9.553   3.368   6.295  0.0318  0.1695 -0.1166
38110W        W46710   8.364   5.092  20.543  0.2180 -0.2366  0.2594
38111W        W46711  20.366   1.990  27.481  0.2436  0.0452 -0.0589
38112W        W46712  21.376   1.839  15.347  0.0955 -0.0994 -0.1785
38113W        W46713  13.435   5.934  20.433  0.1374  0.0111 -0.0416
38114W        W46714   1.824   3.690  26.967  0.0032  0.0761 -0.2341
38115W        W46715  17.816   4.201   6.201  0.0505 -0.0528 -0.0586
38116W        W46716  25.896   2.878  21.351  0.0192 -0.0228 -0.1977
38117W        W46717  22.872   2.609   7.301  0.1480 -0.1309  0.5027
38118W        W46718   0.281   2.570  10.908  0.0605  0.1048  0.3016
38119W        W46719  21.706   2.337   5.441  0.1798  0.4161 -0.0457
38120W        W46720   5.999   2.760  28.744 -0.0297  0.2459 -0.0153
38121W        W46721  13.394   5.321  14.437  0.1932  0.0075 -0.1602
38122W        W46722  18.175   3.975  35.881 -0.3120  0.0284  0.1023
38123W        W46723  18.006   5.940   9.046 -0.1778  0.0899  0.1266
38124W        W46724  25.069   4.172  30.447  0.3251 -0.2112  0.0751
38125W        W46725  11.951   0.794  26.283 -0.0476  0.0422  0.0545
38126W        W46726  11.324   0.514  14.835  0.1318 -0.0571  0.0670
38127W        W46727   3.883   4.898  13.583 -0.1159 -0.2605  0.2552
38128W        W46728  15.052   2.804  24.348  0.2711  0.0864  0.0410
38129W        W46729  19.806   5.559   7.073 -0.1139 -0.0345  0.0051
38130W        W46730   8.469   5.445  15.284  0.0733  0.1355 -0.4466
38131W        W46731  14.164   3.161  28.636 -0.1327  0.0085 -0.0075
38132W        W46732  16.147   2.928  15.592 -0.0094 -0.0650  0.1655
38133W        W46733  20.221   2.610  14.505 -0.1595 -0.0783  0.1957
38134W        W46734  18.537   1.148   0.426 -0.3068  0.1734 -0.0887
38135W        W46735   1.360   0.059  20.868  0.0501 -0.0440  0.0871
38136W        W46736   1.827   1.460  30.620 -0.0554 -0.0392  0.1928
38137W        W46737   2.424   4.019   1.185 -0.0093 -0.1930 -0.0112
38138W        W46738   8.314   3.301  21.314 -0.2092 -0.0344 -0.0458
38139W        W46739  13.480   1.837  30.274 -0.1808  0.2150  0.1458
38140W        W46740  23.005   0.293   0.714  0.2026  0.2799  0.1189
38141W        W46741  19.997   6.056   0.047 -0.0310  0.1009  0.0643
38142W        W46742   9.554   4.415  35.582 -0.1250 -0.0061  0.0674
38143W        W46743  13.302   3.620  12.149 -0.0703  0.0391  0.2226
38144W        W46744  12.483   2.233  32.639 -0.0864  0.0902 -0.2489
38145W        W46745   3.989   6.021   1.215  0.2996  0.1122 -0.0111
38146W        W46746   0.926   5.188  13.975 -0.4199 -0.0171 -0.1056
38147W        W46747  15.761   2.315   7.840 -0.0474 -0.0410 -0.0272
38148W        W46748  22.663   1.102  31.197  0.2198 -0.0236  0.1801
38149W        W46749   9.272   1.730  24.388 -0.0669  0.1620 -0.2140
38150W        W46750  19.709   0.125   1.449 -0.0031  0.1907 -0.2722
38151W        W46751  25.832   5.493  21.140 -0.1994 -0.0761 -0.3429
38152W        W46752   3.592   2.401  12.236 -0.4419  0.1058 -0.0521
38153W        W46753   3.091   1.052   4.677 -0.0548  0.0797 -0.1269
38154W        W46754  14.025   1.788  10.177  0.2496  0.0428  0.3657
38155W        W46755  24.229   3.318  29.881  0.1932  0.1450  0.1682
38156W        W46756  12.976   0.841  25.308  0.0106 -0.0419 -0.0359
38157W        W46757   8.945   0.167  35.012  0.0778 -0.3299  0.1926
38158W        W46758   9.604   5.542  10.511  0.1109  0.0946 -0.0741
38159W        W46759   2.448   2.304  24.597  0.1080  0.0061 -0.0577
38160W        W46760  13.872   3.586   9.224  0.1780 -0.2680  0.1906
38161W        W46761  26.008   1.487  31.899 -0.0114  0.2347  0.0016
38162W        W46762  15.298   0.921  11.330 -0.1449 -0.0363 -0.0537
38163W        W46763  17.452   3.697  11.093  0.0893 -0.0878  0.0871
38164W        W46764  14.099   1.032  22.760  0.0842 -0.1549  0.1120
38165W        W46765  22.320   0.308   2.531  0.2638 -0.0428 -0.1991
38166W        W46766  13.880   4.135   6.466 -0.1778  0.2817 -0.1012
38167W        W46767  21.922   3.002   0.292 -0.0755 -0.2075 -0.2191
38168W        W46768   5.874   2.409  30.167 -0.2734 -0.1571  0.0299
38169W        W46769  22.595   5.571  31.168  0.1249  0.0622  0.2101
38170W        W46770  14.296   0.475  30.359 -0.0987 -0.0829  0.0064
38171W        W46771  18.769   4.413   6.486  0.2814 -0.2349 -0.0785
38172W        W46772   0.505   3.964  25.735  0.1081 -0.0181  0.0364
38173W        W46773  19.408   0.039  29.670 -0.2512 -0.1755 -0.1389
38174W        W46774  17.590   0.458  25.704  0.4154  0.2910  0.1071
38175W        W46775   2.535   0.285  22.294 -0.0701 -0.0636 -0.0389
38176W        W46776  12.796   4.467   8.655 -0.0150 -0.0026 -0.1321
38177W        W46777  24.357   5.873   6.671  0.0973 -0.2496 -0.1138
38178W        W46778   8.980   5.997   9.548 -0.2700  0.1329  0.0055
38179W        W46779   2.872   6.199  21.885  0.1765  0.1977  0.3431
38180W        W46780   4.158   6.470  12.854 -0.0738 -0.1942 -0.0331
38181W        W46781  10.405   1.442  11.484 -0.1670 -0.2443  0.0003
38182W        W46782  14.984   1.103  32.146 -0.1039 -0.1669  0.3250
38183W        W46783  19.594   2.871   0.393  0.0847 -0.0564 -0.1763
38184W        W46784  26.024   4.407  27.467 -0.0853 -0.0897 -0.0475
38185W        W46785  22.908   0.523  30.645  0.0778 -0.0897 -0.2108
38186W        W46786  21.546   2.168  10.050 -0.1444  0.2085 -0.2094
38187W        W46787   6.940   1.287   1.016 -0.3250  0.0011 -0.0057
38188W        W46788   0.263   1.367   9.552  0.1173  0.0550 -0.0400
38189W        W46789  15.152   5.948   9.980 -0.0154 -0.0859  0.2022
38190W        W46790   1.148   0.631  23.916  0.1527 -0.0446  0.0846
38191W        W46791  21.841   0.899   4.722  0.2961  0.0369 -0.0291
38192W        W46792  22.395   4.265  31.031 -0.1017  0.1898 -0.0227
38193W        W46793   0.295   1.641  34.858  0.0223 -0.1590  0.2591
38194W        W46794   4.820   2.748  29.008 -0.1362  0.1056 -0.0194
38195W        W46795   9.668   5.281  35.564  0.2185  0.3273  0.1746
38196W        W46796   5.531   4.616   0.229 -0.2300 -0.0186  0.2444
38197W        W46797   3.208   5.227  35.686  0.0033  0.3956 -0.0580
38198W        W46798  22.588   4.256   1.501 -0.0051 -0.2269 -0.1435
38199W        W46799  11.704   5.522  25.379 -0.0121 -0.4946  0.1305
38200W        W46800  20.904   6.007   7.140  0.1606 -0.1244  0.0594
38201W        W46801   0.104   2.076  11.668  0.1147 -0.1506 -0.1349
38202W        W46802   2.240   0.701   7.137 -0.1051  0.2033 -0.0219
38203W        W46803   1.238   6.199  34.711 -0.5299 -0.0401 -0.0778
38204W        W46804  20.008   4.537   6.025  0.0420  0.2194 -0.2720
38205W        W46805  16.301   6.501  27.626 -0.1302 -0.1286  0.1957
38206W        W46806  11.834   6.513   5.081  0.1694  0.1733  0.1191
38207W        W46807   0.345   0.032  23.280  0.1378  0.0503  0.1256
38208W        W46808  17.992   4.559  21.342  0.0612 -0.2119  0.0807
38209W        W46809  17.627   0.245  14.555  0.0318  0.1045 -0.3239
38210W        W46810  24.874   3.626  26.305  0.0053 -0.2166 -0.1930
38211W        W46811   1.886   5.953  24.410 -0.3800  0.1627 -0.2080
38212W        W46812   7.035   0.885  14.068  0.0443  0.2764  0.0547
38213W        W46813  16.728   0.787  26.666 -0.3016  0.1274 -0.1029
38214W        W46814  14.171   1.182  25.893 -0.1427 -0.1542 -0.1443
38215W        W46815   2.279   0.399  31.259 -0.0900  0.0799 -0.1150
38216W        W46816  19.084   6.344   3.498  0.1955  0.0027  0.0079
38217W        W46817  10.024   1.665  31.012  0.0845 -0.0015  0.2252
38218W        W46818  15.658   1.318  33.122 -0.2380 -0.1520 -0.0099
38219W        W46819  11.207   6.326  29.372 -0.1731  0.1508 -0.0148
38220W        W46820   9.253   5.195  29.564 -0.0766 -0.3094 -0.0656
38221W        W46821   4.382   0.856   3.773  0.0726 -0.1338 -0.0463
38222W        W46822  21.114   3.933  30.006 -0.0601 -0.4033  0.0635
38223W        W46823   8.189   2.497  14.722 -0.2739  0.2476 -0.2542
38224W        W46824  22.147   1.959   6.545 -0.0314 -0.1932  0.1619
38225W        W46825   6.867   2.400  24.669 -0.2440  0.2069  0.1387
38226W        W46826   6.615   1.686  35.020 -0.2513  0.3928 -0.1484
38227W        W46827  16.352   4.612  27.165  0.1564 -0.3210 -0.1647
38228W        W46828  22.620   1.142  28.434 -0.0957  0.3557  0.1069
38229W        W46829  20.064   2.003   2.543  0.1029  0.1616 -0.2207
38230W        W46830   2.899   3.612   8.329 -0.2430  0.2301  0.4277
38231W        W46831   0.174   3.556  14.116  0.0913 -0.0223  0.0604
38232W        W46832   2.671   3.277  30.198 -0.0780  0.0853 -0.1705
38233W        W46833   7.653   4.015   4.739  0.1421 -0.2930 -0.0566
38234W        W46834   4.256   4.817   6.391 -0.0836  0.0047 -0.1086
38235W        W46835  21.405   0.056   3.061 -0.1023  0.2269 -0.1890
38236W        W46836   2.147   3.950  22.032 -0.2978 -0.1217  0.2787
38237W        W46837   1.263   3.585  34.267  0.0664 -0.0465  0.0102
38238W        W46838  15.364   1.313  11.030  0.0498  0.1741 -0.0997
38239W        W46839  11.357   5.511  32.834 -0.1185  0.0410  0.0327
38240W        W46840  21.799   6.383   5.462  0.0723  0.0117 -0.0169
38241W        W46841  22.921   2.439   1.933 -0.1441 -0.0355  0.0569
38242W        W46842   5.450   2.375  14.498  0.0797  0.3010 -0.0538
38243W        W46843  21.535   2.179  33.639 -0.0568 -0.1044  0.3406
38244W        W46844  21.695   5.144   8.884 -0.0200 -0.3250  0.1834
38245W        W46845  18.899   2.304  29.349  0.0054  0.0111  0.2221
38246W        W46846  12.842   4.006   5.764 -0.0447 -0.3490 -0.0066
38247W        W46847   8.927   1.292  26.334 -0.0041 -0.2315 -0.2900
38248W        W46848  11.221   2.783   3.902  0.0625 -0.0804  0.0675
38249W        W46849   3.424   1.784  22.766 -0.1159 -0.0880  0.0884
38250W        W46850   9.424   4.258  34.599 -0.1599 -0.0197 -0.0299
38251W        W46851  21.316   1.001  27.419  0.1082  0.1656  0.0079
38252W        W46852   3.140   4.135   4.519 -0.0517 -0.0254 -0.2088
38253W        W46853  18.934   6.107  32.150 -0.3038  0.0841 -0.2279
38254W        W46854   7.618   2.216  33.824  0.0248  0.1416  0.0859
38255W        W46855  14.828   0.500  22.713 -0.1924 -0.1629 -0.1489
38256W        W46856  25.870   6.060  22.313 -0.0528 -0.0961  0.1347
38257W        W46857   9.488   5.024  26.797  0.1469  0.0149  0.1807
38258W        W46858  10.751   0.480  14.102 -0.0283 -0.0225  0.1828
38259W        W46859   3.589   0.165  33.883 -0.1939  0.1757  0.0967
38260W        W46860  19.664   3.530  25.395 -0.1264 -0.1083 -0.1730
38261W        W46861  10.913   6.011   1.003  0.0650 -0.1305  0.2107
38262W        W46862  16.583   5.405  30.069  0.0986 -0.2920 -0.0581
38263W        W46863  12.032   6.416  34.630 -0.1138  0.0034  0.0011
38264W        W46864   3.275   1.381  25.253  0.0070  0.1334  0.2137
38265W        W46865  24.820   1.310  34.575 -0.0405 -0.0046 -0.0422
38266W        W46866  18.833   3.215  29.007  0.2729  0.2277  0.1424
38267W        W46867  15.440   4.969  30.794 -0.1719 -0.3344  0.0044
38268W        W46868  10.533   0.664  10.734  0.0178  0.1860  0.0182
38269W        W46869  19.419   5.922  24.633 -0.3158  0.4462  0.1032
38270W        W46870   8.904   5.117   3.458 -0.2986 -0.3711  0.1029
38271W        W46871  21.197   4.346   3.430  0.2332 -0.0108  0.0379
38272W        W46872   8.057   1.308  31.120 -0.0785 -0.0415  0.3442
38273W        W46873   7.540   5.361  35.692 -0.1846 -0.2971  0.2705
38274W        W46874  12.065   3.329   5.127  0.0762 -0.0055  0.0823
38275W        W46875   5.291   2.781  13.184  0.0187 -0.1715 -0.2229
38276W        W46876  14.657   5.415  12.523 -0.0753 -0.2352  0.1144
38277W        W46877   0.696   3.041   8.186  0.3700 -0.1254  0.1821
38278W        W46878   1.710   4.683  29.598  0.3669 -0.2788 -0.1985
38279W        W46879  13.533   2.917   6.105  0.0254  0.2656  0.1449
38280W        W46880   0.435   6.174  30.134 -0.1759  0.2552  0.0243
38281W        W46881  19.232   3.869   4.778 -0.0924  0.0327 -0.1779
38282W        W46882  16.021   0.208  23.911 -0.1027 -0.0408  0.0869
38283W        W46883   5.422   0.620   5.146 -0.1397 -0.0598 -0.1720
38284W        W46884   2.631   2.630  10.052 -0.0822  0.0712 -0.2582
38285W        W46885   6.400   1.683   6.982 -0.1526  0.0687  0.3193
38286W        W46886  10.292   1.338  34.809  0.0320  0.1093 -0.4154
38287W        W46887  12.484   4.871  22.574  0.2163 -0.0428 -0.2407
38288W        W46888  18.564   5.274  31.263  0.3586  0.1344  0.0412
38289W        W46889   7.366   3.747   6.709 -0.2091  0.0727 -0.0979
38290W        W46890   8.398   4.181  23.491 -0.0543  0.0260 -0.2386
38291W        W46891   2.675   0.088   7.708  0.2973 -0.2705  0.0744
38292W        W46892  26.097   4.246   6.705  0.1052 -0.2667  0.1768
38293W        W46893  18.350   0.513   7.150  0.1292 -0.0417 -0.1706
38294W        W46894   7.812   1.288  29.025 -0.3450  0.0141 -0.0744
38295W        W46895  17.881   3.615  22.803 -0.3713 -0.1321 -0.3746
38296W        W46896   4.361   4.583  11.875  0.1557 -0.1085  0.0537
38297W        W46897   7.278   3.074   2.066 -0.1438 -0.1970 -0.1811
38298W        W46898   1.443   1.996  20.662  0.1546  0.3099  0.0345
38299W        W46899   5.181   0.271  28.828  0.0541 -0.5257  0.1791
38300W        W46900  10.460   3.477   1.299  0.1087 -0.0226 -0.1385
38301W        W46901   4.332   0.712  14.085  0.1147 -0.1037  0.1378
38302W        W46902   1.403   1.285  22.948 -0.2425 -0.0869 -0.0840
38303W        W46903   7.199   1.357  13.167  0.0195  0.2109 -0.0306
38304W        W46904   6.582   0.601   4.728  0.1918 -0.0952 -0.1060
38305W        W46905   0.581   1.924  28.557 -0.0540  0.0400 -0.1656
38306W        W46906  15.499   1.337  35.640  0.0621 -0.0171 -0.1253
38307W        W46907  24.132   1.740   1.799  0.2995 -0.1165 -0.0603
38308W        W46908   8.455   3.895  22.445  0.0971 -0.0390 -0.1219
38309W        W46909   9.693   4.261  36.047 -0.0824  0.0523  0.3080
38310W        W46910   7.740   2.259  23.472 -0.0366 -0.0309  0.1820
38311W        W46911  18.347   0.022   8.737 -0.2192  0.0476 -0.0940
38312W        W46912   8.876   0.761  34.041 -0.2012  0.0084  0.1305
38313W        W46913  16.080   4.894   1.921 -0.2597  0.1905 -0.0672
38314W        W46914  25.750   0.610  27.499 -0.0345  0.0456 -0.2109
38315W        W46915  21.749   6.334   8.298  0.0648  0.2207 -0.1954
38316W        W46916  19.786   5.656  22.645  0.0144 -0.0614 -0.2481
38317W        W46917  16.750   6.553  33.197 -0.1337 -0.2476 -0.1405
38318W        W46918  18.966   2.914   5.160 -0.2644  0.0643 -0.3367
38319W        W46919   7.784   5.643   5.646  0.0868 -0.0999  0.1385
38320W        W46920   0.139   0.486   1.909  0.0359  0.2317 -0.0772
38321W        W46921   2.143   4.003  21.060 -0.0410 -0.1392 -0.0346
38322W        W46922  21.862   1.249   5.773  0.0749  0.1614 -0.0773
38323W        W46923  23.500   1.158  28.660  0.2447  0.0152 -0.0281
38324W        W46924  20.718   1.457   9.440 -0.1292  0.0994 -0.1333
38325W        W46925  26.210   4.040  21.204  0.0224 -0.1916  0.1017
38326W        W46926  25.995   1.815  34.051  0.3366 -0.0455 -0.1924
38327W        W46927  20.710   6.160   4.681 -0.1078  0.0819 -0.0311
38328W        W46928   9.858   4.187  33.976  0.3046  0.0008 -0.0311
38329W        W46929   5.562   0.335  23.275  0.3643 -0.2414  0.1160
38330W        W46930  10.047   3.343   3.857 -0.0444  0.0280  0.0228
38331W        W46931   6.472   5.053  21.746  0.0637  0.0362  0.2664
38332W        W46932  17.957   3.219  34.953  0.0344  0.0342  0.3166
38333W        W46933   2.780   4.095   0.084 -0.0343  0.0350  0.0927
38334W        W46934  12.572   1.347  33.088  0.0443  0.1966  0.4174
38335W        W46935  20.247   5.668   7.644  0.2993  0.1016  0.0071
38336W        W46936   8.988   5.861  12.720  0.0798  0.1125  0.0223
38337W        W46937   4.345   3.592  12.678 -0.3010  0.1344  0.3112
38338W        W46938   4.259   4.093   7.125 -0.0558 -0.2049 -0.2048
38339W        W46939  25.246   4.375  27.846  0.2468  0.0229 -0.2113
38340W        W46940  18.951   1.216  15.781  0.3023 -0.1028  0.1493
38341W        W46941  25.902   4.754   1.744  0.0642  0.3201 -0.0748
38342W        W46942   3.782   6.541  21.212 -0.2564  0.2654  0.1513
38343W        W46943   1.693   1.041  29.797 -0.2141  0.0772  0.2008
38344W        W46944   0.880   5.780  23.400 -0.2079  0.0749 -0.2732
38345W        W46945  13.084   5.341   0.576  0.2066  0.3139  0.0343
38346W        W46946  25.484   5.788  24.135 -0.2027  0.2051 -0.1176
38347W        W46947   1.304   0.099   5.531  0.1117 -0.0131 -0.4120
38348W        W46948   3.130   0.617  26.244 -0.0703  0.1028  0.2963
38349W        W46949   9.666   4.277  21.053 -0.0143  0.3241 -0.0186
38350W        W46950  19.878   0.242  10.459 -0.0342 -0.0297  0.0095
38351W        W46951   0.162   5.055  27.707 -0.0336 -0.2754  0.0586
38352W        W46952  18.357   2.773  25.659 -0.2411 -0.0445 -0.1414
38353W        W46953  16.241   4.592  11.765  0.0508  0.1201  0.2182
38354W        W46954  21.359   1.656  10.183  0.3428  0.1921  0.1250
38355W        W46955   6.373   2.235  29.656 -0.2276  0.0305  0.0999
38356W        W46956  23.635   3.109   1.054  0.4896 -0.1419  0.1889
38357W        W46957   8.138   0.484  29.270 -0.1016  0.1110 -0.2642
38358W        W46958   3.466   6.204  27.647 -0.2558  0.1978  0.0887
38359W        W46959   7.391   0.780   9.284  0.0721  0.0711 -0.0179
38360W        W46960   1.030   3.775  33.109  0.1819  0.2299  0.1217
38361W        W46961  17.375   3.766   3.297  0.1103  0.1032  0.1099
38362W        W46962  19.908   0.469  31.130  0.0517 -0.3889 -0.1504
38363W        W46963  25.103   3.122   3.074  0.3088 -0.0290  0.2702
38364W        W46964  15.671   2.982  23.887  0.0415  0.1499 -0.2611
38365W        W46965   0.162   6.017   9.077  0.0944  0.0475 -0.1648
38366W        W46966  24.843   1.250  13.975 -0.2255 -0.1607 -0.2127
38367W        W46967   7.644   2.792   9.510 -0.0342  0.1778  0.1290
38368W        W46968   9.537   0.637  32.249  0.2549 -0.0415 -0.2398
38369W        W46969   7.942   6.195  36.092  0.0652 -0.0504  0.0528
38370W        W46970   4.857   4.916  31.263  0.4010 -0.2451  0.0841
38371W        W46971  20.449   1.250  14.800 -0.0076  0.2783 -0.0489
38372W        W46972  20.996   1.316  10.315 -0.1329 -0.0824  0.0455
38373W        W46973   6.409   2.216   6.920  0.0879 -0.0788 -0.0001
38374W        W46974   7.360   1.304  23.739  0.1438  0.0290  0.0128
38375W        W46975   1.317   5.473   0.898  0.0549 -0.1523 -0.2854
38376W        W46976  24.823   2.530   7.566 -0.0483 -0.2925  0.1771
38377W        W46977   5.044   1.885   0.971  0.2063  0.1017  0.1256
38378W        W46978   2.469   0.611  28.608  0.1228 -0.0490 -0.1396
38379W        W46979  21.998   6.101  32.283  0.2968 -0.0136  0.0515
38380W        W46980  12.077   4.477  11.127  0.0098 -0.1368  0.1629
38381W        W46981  23.936   0.237  10.043  0.3591 -0.0960  0.0365
38382W        W46982   9.131   4.618  14.665  0.2542 -0.0415  0.1336
38383W        W46983  11.238   6.227  33.453 -0.0943 -0.1344  0.0395
38384W        W46984  19.440   0.659   1.533 -0.2941 -0.1832 -0.1317
38385W        W46985  24.735   1.626   1.679  0.1211 -0.1594  0.4506
38386W        W46986  15.788   4.610  11.480 -0.0382 -0.0078 -0.0472
38387W        W46987  14.827   2.472   4.669  0.2849 -0.2337 -0.2588
38388W        W46988   1.339   4.364  10.840  0.1009 -0.0273 -0.2160
38389W        W46989   7.600   6.036  10.950  0.2217  0.1052 -0.2165
38390W        W46990  15.802   1.234  35.063 -0.1327 -0.0585  0.4415
38391W        W46991  16.012   3.577  11.578  0.2491 -0.1457 -0.2935
38392W        W46992   8.104   4.151  12.395  0.0090  0.2710  0.1539
38393W        W46993  23.344   5.191   3.673  0.1981 -0.1079 -0.0802
38394W        W46994   4.095   1.098   2.829 -0.4623  0.1948  0.3067
38395W        W46995  13.192   3.010  33.651  0.2544  0.4563  0.1244
38396W        W46996   7.315   2.981  34.388  0.0967  0.2234  0.1255
38397W        W46997   3.173   1.757   7.756 -0.2749 -0.0872  0.2549
38398W        W46998  20.973   2.365  31.978 -0.2589 -0.2066  0.1409
38399W        W46999  23.055   3.160  32.426  0.1769  0.0600 -0.0712
38400W        W47000  20.282   5.199  21.770 -0.0951 -0.2096 -0.1683
38401W        W47001  10.359   3.349  13.265 -0.0290  0.1878 -0.4443
38402W        W47002   7.265   0.664  25.002  0.0692  0.1733  0.0423
38403W        W47003  20.885   2.012  15.247  0.2260  0.3079 -0.0285
38404W        W47004  22.848   5.618   7.427  0.0742  0.2234 -0.1990
38405W        W47005  19.533   4.401   5.814  0.2146  0.2442  0.1307
38406W        W47006  12.874   3.469   2.024 -0.0628  0.2803 -0.0281
38407W        W47007   9.295   4.057  30.902 -0.0263  0.0963 -0.2410
38408W        W47008  14.558   1.053   4.905 -0.1455 -0.1835  0.2008
38409W        W47009   8.710   3.605  25.830 -0.2860 -0.0068 -0.1074
38410W        W47010   1.628   3.223  15.318 -0.2888 -0.2511  0.0533
38411W        W47011  11.423   1.211  29.710  0.1708 -0.1872  0.0397
38412W        W47012  11.446   4.424  34.481  0.0047 -0.1005  0.1993
38413W        W47013   2.069   2.864  25.304  0.1625 -0.1865 -0.0753
38414W        W47014   6.746   5.908  21.685  0.2481 -0.0955 -0.2410
38415W        W47015  16.259   0.727  32.278 -0.3195  0.0601 -0.4253
38416W        W47016  25.592   4.465  28.769  0.1184  0.0704 -0.2661
38417W        W47017  22.515   2.424  35.953 -0.4497 -0.0469  0.0209
38418W        W47018  13.817   5.589  14.448  0.1380 -0.1822  0.0453
38419W        W47019  21.085   1.708  25.156  0.1009  0.4639  0.0013
38420W        W47020   4.736   3.661  35.767 -0.1733  0.0654 -0.0321
38421W        W47021   2.961   0.706  31.178 -0.0919 -0.0122  0.0106
38422W        W47022   4.210   4.578   4.008 -0.1802  0.0109  0.0000
38423W        W47023  14.863   3.074  34.170 -0.3215 -0.0072 -0.1471
38424W        W47024   7.213   2.508  22.266  0.0032 -0.0409  0.0893
38425W        W47025  26.066   6.596  28.136 -0.0884  0.0951 -0.1026
38426W        W47026  17.988   5.540  25.507  0.1051  0.0835 -0.2725
38427W        W47027  16.383   0.702   3.512 -0.0295  0.2818 -0.1299
38428W        W47028  25.170   3.360  31.086  0.1081 -0.0317  0.0277
38429W        W47029   0.545   5.035  15.188  0.1135  0.0343  0.1227
38430W        W47030   2.762   6.534   7.212 -0.0725  0.1105  0.0166
38431W        W47031   5.921   6.151  31.189 -0.2334 -0.1384  0.1360
38432W        W47032   3.275   3.999  22.885  0.2023  0.0743  0.0467
38433W        W47033   3.640   3.534  27.716  0.3412  0.0487  0.0335
38434W        W47034  16.174   4.726  30.558 -0.1290  0.0566  0.0612
38435W        W47035  24.136   1.989  28.384 -0.0713 -0.1893 -0.0407
38436W        W47036  10.223   6.106   6.062 -0.4456  0.1801  0.1718
38437W        W47037  14.398   5.605  11.921 -0.2070  0.1014  0.2030
38438W        W47038  12.466   5.600  33.529  0.2364 -0.0898  0.0711
38439W        W47039   1.123   2.679  25.709  0.2701  0.2066 -0.0277
38440W        W47040   5.713   4.966   5.038  0.0158 -0.1962  0.1993
38441W        W47041   9.690   6.389  12.319  0.1658  0.0515  0.0307
38442W        W47042  15.244   1.502  36.039 -0.0276 -0.0833 -0.2224
38443W        W47043  19.569   1.704  10.190 -0.1479 -0.0918 -0.2929
38444W        W47044  25.117   4.923   9.970 -0.1141  0.0519  0.0225
38445W        W47045   7.898   5.112   5.170  0.1190 -0.1804  0.3597
38446W        W47046  11.128   5.024  12.894 -0.2750  0.2158  0.2184
38447W        W47047  18.834   0.711   3.403  0.2689  0.0515  0.2715
38448W        W47048  10.403   1.725   5.388  0.2674  0.0130  0.0205
38449W        W47049  17.910   1.000  30.039  0.0086 -0.3083  0.0290
38450W        W47050  20.329   4.762  21.454  0.3035 -0.1788 -0.2433
38451W        W47051  13.929   4.938  15.387 -0.1197 -0.3082 -0.0052
38452W        W47052   0.780   1.434  27.233 -0.2950 -0.0930 -0.0067
38453W        W47053   3.855   5.347  32.463  0.0495 -0.2412 -0.2392
38454W        W47054   4.026   2.011   5.805  0.3129 -0.0237  0.2708
38455W        W47055  14.531   3.394  14.993 -0.2279  0.0211 -0.0358
38456W        W47056  13.403   6.457  28.872 -0.1380  0.1630 -0.3779
38457W        W47057   5.425   5.504   7.014  0.2214  0.1887 -0.0538
38458W        W47058  26.163   6.364  12.189  0.0945  0.2312  0.1565
38459W        W47059   9.291   0.503  34.128  0.0895  0.3048 -0.3116
38460W        W47060   4.166   4.204  24.191  0.0384 -0.1528  0.0679
38461W        W47061  20.733   5.992  31.728  0.1653 -0.1440  0.1835
38462W        W47062   3.514   5.655  34.449  0.0369  0.2278  0.0768
38463W        W47063  18.757   1.756  32.025  0.0020 -0.1480 -0.0479
38464W        W47064  22.807   3.450   9.993  0.1295 -0.0712 -0.0848
38465W        W47065   7.775   4.301   9.863  0.2727  0.2544 -0.2125
38466W        W47066  20.100   2.820  29.611 -0.2309  0.0521 -0.3082
38467W        W47067   0.395   1.034   0.445 -0.0648 -0.3986  0.2294
38468W        W47068  20.319   1.034   8.791 -0.0455 -0.0996 -0.0779
38469W        W47069  18.423   1.087  25.843  0.0474 -0.0385  0.1027
38470W        W47070  26.078   5.052  30.686 -0.1087 -0.1120 -0.0680
38471W        W47071  24.357   2.858   3.513  0.1614  0.1864  0.2398
38472W        W47072  12.187   1.960  21.583  0.2294  0.1200 -0.1121
38473W        W47073   4.556   0.573   4.774 -0.0968 -0.0689  0.0227
38474W        W47074  21.029   4.784  23.476 -0.1146 -0.2659  0.0690
38475W        W47075  11.180   6.587  12.114  0.5868 -0.1767  0.2384
38476W        W47076  17.759   4.243   7.176  0.0021 -0.2761 -0.0583
38477W        W47077  18.398   3.502   6.274 -0.0446 -0.0097  0.1363
38478W        W47078  22.895   4.766  35.186  0.2611  0.1094 -0.1337
38479W        W47079  22.714   4.763   7.068  0.2802  0.3285  0.0703
38480W        W47080  19.782   0.617  24.584 -0.0159  0.0091 -0.1651
38481W        W47081  22.779   3.990  24.378  0.0277 -0.2022  0.0859
38482W        W47082  14.739   1.140  14.597  0.2483  0.2693 -0.2979
38483W        W47083   1.403   6.442  22.774 -0.0308  0.0137  0.2703
38484W        W47084  16.809   2.868  15.042  0.1149  0.2093 -0.1499
38485W        W47085  24.315   4.938   6.829  0.2741 -0.2115 -0.2361
38486W        W47086   7.792   4.606  32.669 -0.1552 -0.3140 -0.0483
38487W        W47087  23.998   0.963  34.090 -0.0055 -0.0003  0.0944
38488W        W47088  11.080   1.208   0.870  0.0769  0.1778 -0.0358
38489W        W47089   9.371   4.774  34.442 -0.2076 -0.2940 -0.0157
38490W        W47090  13.738   5.297  35.159  0.1573  0.2193  0.1245
38491W        W47091   4.587   1.839  25.792 -0.1467  0.0039  0.0440
38492W        W47092  23.586   2.195   0.475 -0.0813  0.2211 -0.0003
38493W        W47093   2.262   1.291  10.806 -0.0995  0.0014 -0.1533
38494W        W47094   1.714   5.585  12.194  0.1180  0.0554 -0.1457
38495W        W47095  19.955   5.986  14.302  0.2094 -0.2456  0.0403
38496W        W47096  16.226   2.647   3.823 -0.2488 -0.1614  0.1383
38497W        W47097  14.553   2.206  30.505  0.0331 -0.3248  0.3889
38498W        W47098  23.447   4.461   1.581  0.2008  0.0131 -0.0554
38499W        W47099  21.338   1.668  35.525  0.1043 -0.0135  0.0823
38500W        W47100   8.383   0.883  25.712 -0.1722 -0.2492 -0.1151
38501W        W47101  19.229   5.062   6.189  0.4862  0.2560 -0.1546
38502W        W47102   4.419   4.148   4.188 -0.2545  0.1719  0.0087
38503W        W47103  19.703   2.644   3.261  0.0373 -0.2791 -0.0918
38504W        W47104  22.355   0.810  12.679 -0.2055 -0.0828 -0.2316
38505W        W47105  17.043   2.077   8.259  0.1692  0.0202 -0.0246
38506W        W47106  20.450   3.483   7.845  0.1592 -0.0752 -0.2391
38507W        W47107   2.502   2.055  28.970 -0.3633  0.1577 -0.1952
38508W        W47108  14.256   3.399  12.530 -0.0047 -0.1443 -0.1419
38509W        W47109  24.686   4.797   2.644 -0.1970  0.2421  0.0034
38510W        W47110  18.184   1.299  32.695 -0.0306  0.0209 -0.0080
38511W        W47111   7.566   6.595  28.477  0.2473  0.0750 -0.1547
38512W        W47112   5.371   0.318  33.529  0.2525 -0.0863 -0.0892
38513W        W47113  24.603   2.714  33.410 -0.0745 -0.1877  0.0440
38514W        W47114   0.980   4.769   1.247  0.1940  0.2329 -0.1095
38515W        W47115  22.702   1.516  35.693  0.0234  0.2114 -0.2305
38516W        W47116  21.961   5.024   1.706 -0.1705 -0.1726  0.0846
38517W        W47117  17.435   0.963  22.363 -0.1469  0.0874  0.1000
38518W        W47118   8.832   0.266  26.591  0.2237 -0.3707  0.1453
38519W        W47119  19.474   0.676   6.790  0.0070  0.2089 -0.2331
38520W        W47120  22.120   6.049   6.824 -0.2172 -0.2045  0.0481
38521W        W47121  16.939   2.515  35.761 -0.0566  0.0422 -0.2665
38522W        W47122  25.958   2.977   7.182  0.0238 -0.1007  0.3302
38523W        W47123   9.145   0.438  26.086  0.1785 -0.2991 -0.1184
38524W        W47124  24.826   2.026  26.687 -0.0271 -0.4505 -0.1214
38525W        W47125  24.655   5.386  34.098 -0.3637  0.0163  0.2478
38526W        W47126  17.658   0.313  22.806  0.0417  0.0079  0.1854
38527W        W47127  18.123   3.149   3.153  0.2460  0.2054  0.1956
38528W        W47128  17.340   2.273  12.281  0.1540  0.3954 -0.2646
38529W        W47129   3.492   0.462   8.516 -0.0080  0.1147 -0.1941
38530W        W47130   7.854   5.601  24.876  0.1130 -0.1213 -0.1497
38531W        W47131  15.591   6.412  20.532  0.0635  0.0698  0.0624
38532W        W47132  19.360   1.303  21.897 -0.3781  0.0990  0.0918
38533W        W47133  18.072   4.818  12.591  0.0749 -0.0904  0.0664
38534W        W47134   0.067   6.310  34.376  0.4232  0.0854 -0.2376
38535W        W47135   1.201   6.522  26.531 -0.3558 -0.1194 -0.0352
38536W        W47136   5.403   4.177  33.552  0.0395  0.2813 -0.0358
38537W        W47137  26.093   3.848   2.414  0.3219  0.0067 -0.0163
38538W        W47138   0.883   2.532  27.374  0.1802 -0.0347 -0.1756
38539W        W47139   2.883   2.561  20.487  0.1575  0.2184  0.0360
38540W        W47140   4.091   3.737  30.733  0.1486 -0.0586  0.0117
38541W        W47141   9.288   5.120  22.970  0.1691 -0.1928 -0.1679
38542W        W47142  19.344   4.632   1.042 -0.1997 -0.0964  0.2003
38543W        W47143   6.351   3.964   4.324 -0.0394 -0.1674 -0.1824
38544W        W47144  15.170   0.364  12.895 -0.2353 -0.0753  0.1144
38545W        W47145  21.189   1.078  32.867  0.1626  0.1046 -0.0161
38546W        W47146  21.521   1.280   9.461  0.2849  0.2505 -0.1260
38547W        W47147   4.224   0.824  33.699 -0.0902 -0.0220  0.0137
38548W        W47148  19.666   1.676   2.424  0.0811 -0.1633 -0.0434
38549W        W47149   3.789   3.709  23.403  0.2554 -0.2676  0.2789
38550W        W47150  15.333   5.326   2.656  0.3303 -0.3269  0.2103
38551W        W47151  21.557   4.631   1.924 -0.1095  0.1522 -0.1431
38552W        W47152   6.474   1.097  23.854 -0.1122 -0.1048 -0.0428
38553W        W47153   4.387   0.867   6.792 -0.1770 -0.0838 -0.0170
38554W        W47154   5.012   5.919  34.961 -0.1875 -0.2555 -0.1947
38555W        W47155   8.759   0.048   6.845  0.0843 -0.0421 -0.1919
38556W        W47156  14.946   2.818  11.013 -0.6306 -0.2396 -0.1774
38557W        W47157   5.743   1.576  24.627  0.0453  0.1123  0.1357
38558W        W47158   0.760   5.248  25.121 -0.1575 -0.0733  0.1399
38559W        W47159   4.478   6.054  35.972 -0.1181  0.1300  0.1126
38560W        W47160  15.543   2.089   0.686 -0.0331  0.0882 -0.1132
38561W        W47161  17.952   4.536   1.395  0.2878  0.0059 -0.2374
38562W        W47162  15.516   5.050  31.978 -0.0919 -0.3592 -0.2893
38563W        W47163  25.424   6.010   2.091  0.1065  0.1638  0.1139
38564W        W47164  23.899   2.957   8.664 -0.0378 -0.1105 -0.0486
38565W        W47165  15.685   3.829  11.968 -0.0623  0.0635  0.2097
38566W        W47166  12.718   1.838   3.278  0.0692 -0.0991  0.1149
38567W        W47167   3.020   5.476  10.747 -0.1226 -0.0616  0.0930
38568W        W47168  15.967   1.404  21.399 -0.0985 -0.3822 -0.0832
38569W        W47169   2.124   4.140  25.891  0.0640 -0.4432  0.1350
38570W        W47170  14.557   1.295  26.385 -0.0180 -0.0780 -0.2878
38571W        W47171   0.122   3.188  33.787 -0.1139 -0.1997 -0.3131
38572W        W47172   2.918   1.809  21.237  0.2084 -0.1387  0.0240
38573W        W47173  14.576   0.492  10.147  0.0884 -0.2669  0.3050
38574W        W47174   5.843   2.299  13.611  0.2716  0.1939  0.1736
38575W        W47175  11.743   5.505  22.764  0.0693 -0.2500 -0.1412
38576W        W47176  14.155   6.351   2.449  0.0402  0.2240 -0.1173
38577W        W47177  22.157   1.248  27.573 -0.1268  0.1625 -0.2032
38578W        W47178   3.503   0.722  35.251  0.1584  0.0589 -0.1523
38579W        W47179  14.320   0.353   4.516 -0.0387 -0.0665  0.1723
38580W        W47180  13.085   2.332  20.711 -0.1889  0.2226 -0.1842
38581W        W47181  10.933   3.122  21.163 -0.1352  0.1410 -0.1051
38582W        W47182  25.097   4.881  13.062  0.0616 -0.0115 -0.1689
38583W        W47183   1.927   2.237  33.447 -0.2002  0.0370  0.1944
38584W        W47184   8.237   5.309  10.448 -0.1028 -0.0515 -0.3470
38585W        W47185   4.475   4.032   8.926  0.2661 -0.3562 -0.0786
38586W        W47186  18.335   5.379   5.259  0.3038 -0.3792 -0.1872
38587W        W47187  20.836   1.493  32.100  0.1953  0.2765  0.0426
38588W        W47188   4.045   3.140  12.765  0.0757 -0.0553 -0.0458
38589W        W47189  15.137   1.056  11.800  0.1089  0.1848 -0.1007
38590W        W47190  10.851   5.959  33.237 -0.1388  0.0372  0.1495
38591W        W47191  15.296   0.843  10.334  0.0146 -0.1736  0.1093
38592W        W47192   9.333   2.593  10.614 -0.0673 -0.0849  0.1835
38593W        W47193  22.657   1.645   0.427  0.0286 -0.0072  0.0627
38594W        W47194  23.684   0.268  13.340 -0.0905  0.1145 -0.0826
38595W        W47195   1.411   3.956   0.509 -0.0276 -0.1810  0.0725
38596W        W47196  13.737   5.627  16.303 -0.1073 -0.4302  0.0231
38597W        W47197  24.964   5.561  24.821 -0.0889  0.0617 -0.3526
38598W        W47198  10.918   1.373  15.564 -0.1696  0.2166 -0.1640
38599W        W47199   3.050   0.667   9.272  0.1565 -0.3474  0.3249
38600W        W47200  17.047   1.185  30.695  0.1715  0.2077 -0.2895
38601W        W47201  22.286   2.215  21.544  0.1297 -0.0543 -0.4550
38602W        W47202  10.014   1.584  21.081 -0.0459 -0.1505  0.0606
38603W        W47203  21.620   3.097  34.530  0.0854 -0.2308  0.1378
38604W        W47204  22.472   1.555   9.721 -0.0472 -0.0226 -0.1035
38605W        W47205  19.695   1.457  20.919 -0.0035 -0.1232  0.0030
38606W        W47206  24.476   6.052  10.383  0.1411  0.1312 -0.0554
38607W        W47207  15.344   5.805  23.890 -0.0465 -0.1862 -0.0855
38608W        W47208  17.052   2.391   9.071 -0.0089 -0.2965  0.2426
38609W        W47209   1.048   0.847   0.966  0.2352 -0.0581  0.0406
38610W        W47210   8.249   0.915  21.317  0.2583  0.0171 -0.0339
38611W        W47211  11.565   1.431  22.806 -0.2898  0.1011 -0.0312
38612W        W47212   5.812   5.119  35.188 -0.1903  0.0182 -0.1770
38613W        W47213   6.834   6.499  28.039 -0.0507 -0.5145  0.3167
38614W        W47214   5.157   0.567  10.981 -0.2980  0.1536  0.1913
38615W        W47215   6.761   2.639  29.906  0.0473  0.0803  0.0772
38616W        W47216  16.728   0.634  22.400  0.0373  0.0229  0.1441
38617W        W47217   9.934   3.613   8.089 -0.0377 -0.1981  0.2138
38618W        W47218  14.755   0.295  33.678 -0.1705 -0.2552 -0.1533
38619W        W47219  20.671   4.916  14.156 -0.3516  0.0596  0.3042
38620W        W47220   6.346   5.140  33.060  0.0024  0.1484 -0.0498
38621W        W47221  10.800   6.294  31.737 -0.0175  0.0015 -0.1176
38622W        W47222   1.417   2.924  23.537  0.0844 -0.0006  0.0518
38623W        W47223  13.779   4.105  14.991  0.1058 -0.1684  0.4046
38624W        W47224   3.857   3.112  15.742 -0.1147  0.0854  0.1831
38625W        W47225  23.272   5.070  27.872  0.0450  0.0983 -0.1068
38626W        W47226   3.936   4.706  33.660  0.0501 -0.0177  0.4610
38627W        W47227   9.536   6.434  25.542 -0.2363 -0.1899 -0.1956
38628W        W47228  12.096   2.573  31.620 -0.0308  0.0872  0.0767
38629W        W47229   6.549   4.065  32.230 -0.1102 -0.1308 -0.0828
38630W        W47230  16.783   3.399  24.129  0.0095  0.1732  0.1843
38631W        W47231   9.063   2.664   8.269  0.2360 -0.1172 -0.0130
38632W        W47232  13.077   1.936  32.646 -0.0814  0.0144 -0.3565
38633W        W47233  10.909   2.748   9.011  0.1020  0.1193  0.0907
38634W        W47234   5.743   1.246  22.266  0.1688 -0.1739  0.1554
38635W        W47235   9.839   5.996  34.403  0.1772  0.2362 -0.0096
38636W        W47236   0.095   6.027  24.069 -0.2798  0.0450  0.0059
38637W        W47237  23.984   2.519  20.759 -0.1582 -0.3117 -0.2110
38638W        W47238  15.346   0.734  21.807 -0.2632 -0.2656  0.0631
38639W        W47239  15.253   3.991  22.675 -0.2835 -0.2541  0.0565
38640W        W47240   9.875   4.198  29.304 -0.0509  0.1305 -0.0403
38641W        W47241   6.290   4.768  28.413 -0.1290 -0.4176 -0.4886
38642W        W47242   9.129   0.809  23.095  0.3005  0.0825  0.1470
38643W        W47243  18.569   4.473  25.820 -0.2647 -0.0719 -0.2685
38644W        W47244  18.320   1.078  22.173 -0.2153  0.2401  0.2267
38645W        W47245  16.070   3.225   8.290  0.1391  0.1944  0.0333
38646W        W47246   9.711   6.001  28.950 -0.0051 -0.2776 -0.2774
38647W        W47247   7.611   1.665  27.736 -0.0066  0.1073  0.1598
38648W        W47248  17.582   5.000  15.261 -0.1978  0.1477 -0.1955
38649W        W47249  25.697   0.893  15.183 -0.0169 -0.1076 -0.1195
38650W        W47250   7.029   0.287  27.645 -0.2001  0.1257 -0.1231
38651W        W47251  17.780   3.657  15.167 -0.1127 -0.2006  0.0525
38652W        W47252  18.295   1.451   6.108  0.1353  0.0853 -0.1382
38653W        W47253   0.812   4.973  33.391  0.0939 -0.0330 -0.0065
38654W        W47254   4.401   1.149  21.246  0.1358  0.0558  0.0355
38655W        W47255   5.088   4.713  10.596 -0.2799 -0.0681  0.0792
38656W        W47256  17.952   5.078  21.502 -0.0603  0.2843  0.1442
38657W        W47257  22.297   6.261   5.500 -0.0108  0.0073 -0.0822
38658W        W47258  16.568   2.395  26.513 -0.0212  0.0534  0.0926
38659W        W47259  22.466   3.388   6.778 -0.0168 -0.3720  0.0063
38660W        W47260  11.728   4.195  33.465  0.0363 -0.0156 -0.1170
38661W        W47261   9.761   3.870  32.731 -0.0624  0.1830 -0.0404
38662W        W47262  16.173   6.278   0.203  0.0088 -0.0012  0.2345
38663W        W47263   1.294   2.263  12.504 -0.1809  0.2036  0.2547
38664W        W47264  17.925   2.591  25.122  0.0727 -0.0209  0.2225
38665W        W47265  18.489   6.230  29.632 -0.0372 -0.3300 -0.0802
38666W        W47266  10.380   3.271   8.137  0.2597  0.1292  0.0515
38667W        W47267   1.713   1.447  12.173 -0.4084  0.0903  0.0462
38668W        W47268   3.670   1.398  32.488 -0.2468 -0.0417  0.0918
38669W        W47269   1.545   1.234  30.972  0.2627  0.3151 -0.0913
38670W        W47270  15.165   1.872  35.631  0.0365  0.0036  0.1564
38671W        W47271  12.471   4.929   0.497 -0.0300  0.1894  0.1599
38672W        W47272  16.986   1.387   0.677  0.2786  0.0587 -0.0248
38673W        W47273  10.644   6.219  30.983 -0.1292 -0.0035 -0.0516
38674W        W47274  22.184   5.373  11.866  0.0644 -0.1805 -0.1506
38675W        W47275  22.030   4.643  34.316 -0.0454 -0.0825  0.2184
38676W        W47276  18.545   0.725   4.883  0.0425  0.0815  0.0066
38677W        W47277  24.628   1.279  11.098  0.1847 -0.1926  0.3566
38678W        W47278   1.996   4.706  24.104  0.2811 -0.2656  0.0334
38679W        W47279  12.109   3.060   9.428  0.0709 -0.2451  0.0112
38680W        W47280  19.733   0.603  15.182  0.1674 -0.1241  0.1523
38681W        W47281  19.470   0.390   2.450  0.0817 -0.0319 -0.0452
38682W        W47282  17.808   4.522  23.861  0.2380  0.1917 -0.0582
38683W        W47283  19.755   3.994  13.958 -0.0741 -0.1190  0.3365
38684W        W47284  11.371   4.546  26.691  0.1637 -0.0955  0.1167
38685W        W47285  15.113   2.340  13.982 -0.1262  0.1447 -0.1336
38686W        W47286   1.831   1.220  26.130 -0.1220  0.0072 -0.0925
38687W        W47287   9.931   3.595  14.519  0.0571 -0.1499  0.0056
38688W        W47288  21.512   0.361  28.751  0.1081 -0.0965  0.0922
38689W        W47289  26.260   3.163   9.789  0.1052  0.4217 -0.3531
38690W        W47290  18.891   5.841  22.684 -0.1064 -0.0895  0.2375
38691W        W47291  16.765   0.223   0.802 -0.0403 -0.0178 -0.0200
38692W        W47292  25.574   2.715   6.891  0.0648 -0.0244  0.2558
38693W        W47293  11.268   0.240  21.817 -0.1156 -0.1752 -0.1475
38694W        W47294   5.476   0.122  31.845 -0.0813  0.1192 -0.0149
38695W        W47295  25.663   0.509   9.675  0.0867  0.1772 -0.1594
38696W        W47296  20.229   5.573   2.450  0.0795  0.3094 -0.2091
38697W        W47297   3.364   5.955  21.737  0.1822 -0.1305 -0.2851
38698W        W47298  23.399   2.322   6.381 -0.0344 -0.1038  0.0742
38699W        W47299  17.043   6.039  28.627  0.1489 -0.0008 -0.2706
38700W        W47300  17.205   5.477  33.802 -0.0560 -0.3969 -0.1099
38701W        W47301   2.767   1.354  11.815 -0.1980  0.0369 -0.2670
38702W        W47302   0.982   6.314  33.203 -0.3442  0.0823 -0.5632
38703W        W47303   2.154   3.565   4.500 -0.1068 -0.0845  0.1233
38704W        W47304   9.355   4.085  28.422 -0.0193  0.2875  0.1983
38705W        W47305   7.369   0.900  30.431 -0.3236 -0.0800 -0.0614
38706W        W47306  15.904   0.418   9.506 -0.0053  0.1264  0.1787
38707W        W47307  11.319   6.544  15.518  0.1396 -0.3500  0.0882
38708W        W47308  15.087   4.832  14.977 -0.0850  0.0677 -0.3481
38709W        W47309  17.097   2.432  15.183 -0.0966 -0.1041  0.2003
38710W        W47310   0.398   5.876  29.288  0.2063 -0.0723  0.0062
38711W        W47311  18.178   3.806  14.870 -0.1449  0.0144 -0.1100
38712W        W47312   4.733   5.795   6.370 -0.1041 -0.1181  0.0109
38713W        W47313  15.461   2.741  33.257  0.0761 -0.0498 -0.2008
38714W        W47314  22.588   0.781  24.097 -0.0890  0.1116  0.0367
38715W        W47315  14.022   1.385  26.366 -0.0970 -0.0252  0.1589
38716W        W47316  10.990   0.016   3.372  0.1522 -0.2374 -0.1090
38717W        W47317   8.452   5.355  26.247  0.2897  0.2798  0.0424
38718W        W47318  17.507   3.137  34.109  0.0336 -0.1511 -0.0770
38719W        W47319  12.745   6.027  22.157 -0.1279  0.0960  0.2174
38720W        W47320  21.796   0.653  10.485 -0.0649  0.0500 -0.0732
38721W        W47321  22.130   0.946  30.924 -0.0715  0.0450 -0.0990
38722W        W47322   7.060   5.551  29.831  0.1039  0.2297  0.0793
38723W        W47323  10.008   3.822   8.669  0.0928  0.2714 -0.1238
38724W        W47324  15.840   6.413  27.733  0.0015  0.0501 -0.0590
38725W        W47325  17.915   1.925  33.127 -0.0614 -0.0427 -0.1172
38726W        W47326  17.788   3.230   7.227  0.0121 -0.1549 -0.0991
38727W        W47327  15.809   3.157   2.286  0.0088 -0.1368 -0.1245
38728W        W47328  11.347   5.753   4.366  0.0056 -0.0478  0.0350
38729W        W47329  25.414   3.730  29.339  0.2221 -0.0164 -0.1980
38730W        W47330  22.681   2.122  32.410  0.0857  0.2826 -0.2420
38731W        W47331   8.276   0.953  22.969  0.3255  0.0334 -0.2101
38732W        W47332  11.882   2.035  13.591 -0.0365  0.1215 -0.0094
38733W        W47333  25.011   5.284  29.275  0.2801  0.2330  0.0401
38734W        W47334   4.368   3.995  34.423  0.0307  0.1318 -0.0838
38735W        W47335   1.031   0.184  27.843 -0.2712  0.0567 -0.0692
38736W        W47336  10.399   4.313  29.404 -0.0935  0.0626 -0.0730
38737W        W47337  24.696   4.156  24.249  0.0471  0.0128  0.0459
38738W        W47338  13.709   5.972  15.531  0.2363  0.1413  0.3495
38739W        W47339  19.783   2.146  14.399  0.5588 -0.0791 -0.0594
38740W        W47340  24.424   3.328   4.587  0.0730 -0.3389  0.0150
38741W        W47341  17.641   5.484  22.952 -0.1452 -0.0072 -0.0046
38742W        W47342  22.845   3.792  28.522 -0.0977  0.3460  0.0389
38743W        W47343   9.248   4.635   5.603 -0.2430 -0.0795 -0.0017
38744W        W47344  10.315   3.724  22.708  0.0311  0.0958  0.3660
38745W        W47345  10.242   0.992  32.719  0.0091  0.1425 -0.1714
38746W        W47346   8.645   0.879  30.509  0.0085  0.2590 -0.0101
38747W        W47347   8.393   6.514  23.578 -0.1126 -0.1706  0.0360
38748W        W47348   3.769   4.034  22.983  0.2034 -0.3787  0.1063
38749W        W47349  19.693   3.221   6.293  0.2456  0.0410  0.2259
38750W        W47350   1.722   5.059  35.391 -0.0096  0.1356 -0.0800
38751W        W47351  20.735   3.488   5.188  0.2502 -0.0673  0.1559
38752W        W47352  14.869   1.905  24.538  0.0171 -0.1280  0.2014
38753W        W47353  14.423   0.131  34.035  0.2630 -0.2727 -0.3156
38754W        W47354  24.898   6.531   5.866 -0.1172 -0.2621 -0.0164
38755W        W47355  16.327   2.525   4.654 -0.1102  0.0252  0.0383
38756W        W47356  12.087   6.322  36.082  0.1045 -0.0148 -0.0463
38757W        W47357   7.354   6.337  35.923 -0.3889 -0.0740 -0.1335
38758W        W47358   6.008   1.091   4.020 -0.0001  0.0369 -0.1536
38759W        W47359  17.217   6.331  34.268 -0.0755  0.1869 -0.0716
38760W        W47360  13.519   1.972  10.942 -0.0681 -0.0091  0.1527
38761W        W47361   9.368   2.225   8.463  0.2526 -0.2295  0.0507
38762W        W47362  10.449   0.268  30.589  0.2660  0.1927 -0.0821
38763W        W47363   1.813   4.212  28.655  0.0628 -0.0030 -0.1554
38764W        W47364  19.022   5.962   7.729 -0.0605  0.1139  0.0925
38765W        W47365  16.346   2.134  26.140  0.0420  0.0503 -0.1574
38766W        W47366   2.944   1.231  29.171  0.2981  0.0718  0.3249
38767W        W47367   9.284   1.156  22.786  0.0345  0.1213  0.1651
38768W        W47368  15.649   2.102  29.545  0.0340 -0.0570 -0.0743
38769W        W47369   4.859   5.261   6.364  0.2760  0.2114 -0.1922
38770W        W47370  26.256   3.535   3.655  0.0257 -0.0052 -0.0275
38771W        W47371  14.250   3.804   9.606 -0.2618 -0.2367  0.2334
38772W        W47372  17.017   2.380  24.600 -0.1920 -0.1694  0.0209
38773W        W47373  25.088   4.969  33.995 -0.1132  0.1070 -0.0661
38774W        W47374   6.451   1.757  26.727 -0.0688 -0.2955  0.1991
38775W        W47375  18.454   2.772  32.307 -0.2005 -0.0257 -0.1551
38776W        W47376   7.836   3.153  21.358 -0.0950 -0.2041 -0.1768
38777W        W47377  20.384   0.533  13.693  0.1442  0.0936  0.2202
38778W        W47378  18.033   1.524  23.563 -0.2797  0.1012  0.0153
38779W        W47379  20.785   0.832  33.097 -0.2277  0.3755 -0.0902
38780W        W47380   2.758   3.739   9.296  0.3790  0.1917  0.0427
38781W        W47381   2.050   0.470  22.481 -0.3441 -0.0240  0.1636
38782W        W47382  25.480   2.939  34.425  0.0427  0.1402 -0.2403
38783W        W47383  12.129   1.152   9.893 -0.0132 -0.1343 -0.1788
38784W        W47384  17.874   5.091  35.177  0.1750  0.0550 -0.0164
38785W        W47385  14.394   6.039  33.759 -0.1688  0.0193 -0.0267
38786W        W47386  26.063   4.724  30.290  0.1356  0.0769  0.2141
38787W        W47387  15.668   5.588   2.994 -0.1157  0.0843  0.0238
38788W        W47388   9.818   2.994  20.805  0.0409 -0.0850 -0.2299
38789W        W47389  13.185   1.050  24.191 -0.1536  0.1418  0.0597
38790W        W47390  14.405   3.655   7.080 -0.0571 -0.0804  0.0179
38791W        W47391  14.788   2.949   3.397  0.0097 -0.2776  0.2175
38792W        W47392  20.287   0.864   5.060  0.0032  0.1083 -0.0010
38793W        W47393  15.836   6.278  32.186 -0.4693 -0.0361  0.2109
38794W        W47394  10.007   5.277  10.662  0.0359 -0.0523 -0.2731
38795W        W47395  16.304   1.588  22.286 -0.4073  0.3002  0.0576
38796W        W47396   7.748   3.343   9.776 -0.2998 -0.0399  0.0416
38797W        W47397  13.263   4.863  36.032  0.2360  0.0196  0.0518
38798W        W47398   0.703   2.347   9.673  0.0424 -0.1009  0.0562
38799W        W47399   3.717   2.285  21.924 -0.1872  0.0274 -0.2803
38800W        W47400  18.377   3.707  11.954  0.1294  0.0978  0.0331
38801W        W47401  19.517   4.734  31.942 -0.4081 -0.1104 -0.1733
38802W        W47402   5.190   0.570   0.514 -0.1510 -0.3153  0.1089
38803W        W47403  26.330   1.248  20.981 -0.3536 -0.1078 -0.0845
38804W        W47404  26.263   5.997  12.526 -0.0237 -0.3559  0.0379
38805W        W47405  10.002   5.869  27.898  0.1848 -0.1396 -0.0793
38806W        W47406  25.707   5.573  29.457  0.3483 -0.0390 -0.0054
38807W        W47407   7.657   1.056  20.778 -0.1817 -0.0716 -0.2940
38808W        W47408  15.080   1.839  28.772 -0.0669 -0.3657  0.2332
38809W        W47409  16.689   2.517   0.421 -0.0602 -0.0848  0.2339
38810W        W47410   8.275   5.433   3.530  0.0173  0.0821 -0.0467
38811W        W47411   7.018   6.079  24.786 -0.3497 -0.0543 -0.3123
38812W        W47412  20.115   2.980   4.178 -0.2369  0.2005  0.2890
38813W        W47413  15.648   5.610  35.894  0.0974 -0.2032 -0.0111
38814W        W47414   7.929   6.308   4.355  0.0863  0.3521 -0.0387
38815W        W47415  23.612   1.282  27.354 -0.2634  0.2262 -0.0031
38816W        W47416   4.934   2.984  31.071 -0.1646 -0.1416 -0.1602
38817W        W47417   3.066   4.235   3.838  0.0603 -0.0976 -0.0375
38818W        W47418   5.311   0.553  30.397 -0.0377  0.0839  0.2772
38819W        W47419   2.845   4.794  33.504  0.1550 -0.2393  0.0303
38820W        W47420  17.850   0.978   1.533  0.1679 -0.0915 -0.1335
38821W        W47421  18.791   0.913  31.094  0.1513  0.1527 -0.0357
38822W        W47422   4.967   1.952   2.337 -0.1669  0.1958  0.0414
38823W        W47423  21.844   1.982  15.242 -0.1715 -0.0280  0.1302
38824W        W47424   0.572   1.214  29.548 -0.0067  0.0377 -0.2457
38825W        W47425   5.502   3.374   4.016 -0.0572 -0.0229 -0.1269
38826W        W47426   8.438   5.647   1.624  0.2024  0.2407  0.1399
38827W        W47427  20.389   4.466   2.217  0.1651  0.2389  0.2730
38828W        W47428  21.926   6.456  15.587 -0.3415 -0.1848 -0.0949
38829W        W47429  15.114   6.584  23.586 -0.2856  0.0267 -0.3233
38830W        W47430   4.164   1.102  23.041 -0.0212 -0.1557 -0.1999
38831W        W47431  14.620   3.613  14.569 -0.3463 -0.0230  0.0991
38832W        W47432  25.201   0.158  12.231  0.0764  0.2896  0.1866
38833W        W47433  16.415   6.122  13.238  0.2281  0.2251  0.1607
38834W        W47434  25.512   3.143  28.094  0.2129  0.0365  0.1473
38835W        W47435   8.671   3.727  22.920  0.0020 -0.1519 -0.1845
38836W        W47436   8.659   5.393  10.861  0.3918  0.0830 -0.0158
38837W        W47437   9.205   0.697  21.621  0.1705 -0.1594 -0.1973
38838W        W47438   5.764   3.919  21.707  0.1476  0.0099  0.3321
38839W        W47439  16.801   6.144  14.062  0.2335  0.3699  0.0986
38840W        W47440  15.722   3.942  29.060 -0.3002 -0.1909  0.1143
38841W        W47441  25.705   0.668   8.371 -0.0522  0.4409  0.1757
38842W        W47442  17.451   2.666   0.559 -0.1470  0.3438 -0.2000
38843W        W47443   0.690   0.044  27.057  0.0104  0.0645  0.0520
38844W        W47444  12.042   0.915  32.539 -0.2239 -0.0994 -0.0197
38845W        W47445  25.660   1.450  11.277 -0.0987  0.0552  0.0567
38846W        W47446   3.346   5.015  25.020 -0.1461  0.1578 -0.0718
38847W        W47447   2.583   4.088   8.163  0.1773 -0.2007  0.1565
38848W        W47448   9.178   5.933  15.152 -0.0115 -0.1665  0.4168
38849W        W47449   8.895   5.943  34.691 -0.3102  0.2553 -0.2189
38850W        W47450   1.681   6.029  22.121  0.1567 -0.0596 -0.1189
38851W        W47451  19.660   5.187  32.652 -0.0904 -0.0003  0.3492
38852W        W47452   6.366   2.333   4.429 -0.1477 -0.0720 -0.0379
38853W        W47453  22.875   0.272  12.945 -0.2400 -0.0594 -0.1492
38854W        W47454   2.938   2.819   9.274 -0.2380  0.0619  0.0465
38855W        W47455  13.181   2.911   7.009 -0.0061 -0.0060 -0.0827
38856W        W47456  26.248   2.894  31.964 -0.1150  0.3302 -0.2007
38857W        W47457   7.176   2.436  35.808  0.0521  0.1062 -0.0716
38858W        W47458   1.558   4.160   4.871 -0.1451  0.0012 -0.0102
38859W        W47459  18.651   2.898   5.615  0.3810  0.1618  0.0069
38860W        W47460   7.153   5.635  35.580 -0.1111  0.2615 -0.0147
38861W        W47461  15.288   1.392  10.517 -0.0874  0.1200 -0.0749
38862W        W47462  25.847   6.439  26.230 -0.2401  0.2069 -0.2310
38863W        W47463  18.983   1.672  11.408  0.1375  0.0163  0.2108
38864W        W47464  21.250   5.517  21.815 -0.0020  0.1595 -0.0281
38865W        W47465   1.086   5.366   4.250 -0.3096  0.1895 -0.0545
38866W        W47466   6.720   2.286   1.857  0.0022 -0.0474 -0.0831
38867W        W47467   2.625   0.361  35.791 -0.1369  0.1750  0.1339
38868W        W47468  25.325   1.720  21.519 -0.0864 -0.2147 -0.0777
38869W        W47469  13.525   4.133  21.345 -0.1263 -0.0113 -0.1792
38870W        W47470  16.311   5.319  33.526  0.0776 -0.0547 -0.2823
38871W        W47471   5.492   4.615  14.658  0.0136  0.0813 -0.1742
38872W        W47472  25.664   2.403   3.841  0.1450  0.2405 -0.0451
38873W        W47473   0.481   4.190  23.870 -0.1036  0.0103  0.0104
38874W        W47474   5.879   0.622   5.332  0.0111 -0.0119 -0.0840
38875W        W47475  12.132   6.114  13.204 -0.2293 -0.0412 -0.0384
38876W        W47476   3.296   1.800  35.268 -0.0469 -0.0017 -0.0487
38877W        W47477  25.448   3.739  26.332 -0.0619 -0.3163 -0.0621
38878W        W47478  15.045   2.030  21.813  0.1456  0.1564 -0.0058
38879W        W47479  19.686   0.143   0.888 -0.2888  0.1193 -0.1122
38880W        W47480  24.627   5.168   2.995  0.2425  0.2561  0.3114
38881W        W47481   5.906   1.564  21.872 -0.1584 -0.0572  0.0763
38882W        W47482  21.881   6.550   8.722  0.2228 -0.2147 -0.0176
38883W        W47483   1.695   4.987  28.129  0.0251  0.0623  0.0699
38884W        W47484  13.706   4.109  33.991  0.0798 -0.2078  0.2498
38885W        W47485  20.730   0.401   7.337  0.2805  0.1872 -0.0029
38886W        W47486  24.118   5.785  23.651  0.1391  0.5958 -0.1026
38887W        W47487   6.190   3.015  27.783 -0.1322 -0.0139 -0.1287
38888W        W47488  22.373   3.462   2.562  0.2238  0.1870  0.1595
38889W        W47489  25.225   4.440  14.997 -0.0761  0.2041 -0.0705
38890W        W47490  17.988   4.126  15.250  0.0272 -0.2477 -0.0408
38891W        W47491   8.682   5.135   8.909 -0.0965  0.2905  0.1729
38892W        W47492  14.852   2.882  16.674 -0.4238  0.0346 -0.1153
38893W        W47493  12.296   2.806  25.138 -0.2370  0.0038  0.0228
38894W        W47494   2.578   0.342  14.053  0.0809  0.0175  0.0425
38895W        W47495  25.506   5.297   3.207  0.0264  0.0727 -0.2411
38896W        W47496  19.368   5.451   2.885 -0.1020  0.0990  0.4913
38897W        W47497  25.905   0.289   8.854 -0.2556 -0.0550  0.2430
38898W        W47498   5.322   4.613   0.706 -0.0779  0.2927 -0.0155
38899W        W47499  11.005   0.700   5.140 -0.1803 -0.0638  0.0187
38900W        W47500   8.687   4.144   7.659  0.0352  0.2560 -0.4284
38901W        W47501  18.572   6.540  11.290 -0.0654  0.0283 -0.1240
38902W        W47502  11.074   2.782  11.728  0.0706 -0.1823 -0.1945
38903W        W47503   2.599   1.749   6.639 -0.1644 -0.1600  0.4012
38904W        W47504  13.967   2.753  28.763  0.4052  0.1892  0.1089
38905W        W47505   4.810   1.576  22.647 -0.1887 -0.1677  0.0068
38906W        W47506  17.007   3.891  10.522 -0.0351 -0.2229 -0.0712
38907W        W47507  15.029   0.714  12.216 -0.4070 -0.1827 -0.0594
38908W        W47508  26.233   3.324  24.798  0.2123 -0.1069 -0.2807
38909W        W47509   5.110   2.109   0.078  0.1649 -0.0292  0.1276
38910W        W47510  15.210   2.842   6.840  0.4849 -0.0280 -0.2280
38911W        W47511  21.310   6.330   7.949 -0.1623 -0.1429 -0.1311
38912W        W47512  22.422   2.660   1.098 -0.0627 -0.1417 -0.0660
38913W        W47513   9.835   1.359  13.185  0.0175  0.1161  0.5595
38914W        W47514  18.009   3.240   4.868  0.1523 -0.2779 -0.0566
38915W        W47515  11.499   6.026  10.413 -0.0082  0.2143 -0.0547
38916W        W47516  25.156   0.861   5.986 -0.1901 -0.4182 -0.1589
38917W        W47517   0.208   0.581  15.362  0.2727  0.0118  0.0548
38918W        W47518  19.581   0.755   9.257 -0.2442  0.1307 -0.0582
38919W        W47519  16.850   4.227   6.792 -0.0847 -0.2469 -0.2020
38920W        W47520  12.544   0.336  11.996 -0.1872  0.0865  0.2196
38921W        W47521   0.088   0.738  33.082 -0.2888  0.0934 -0.0055
38922W        W47522  15.463   1.918  31.637  0.1330  0.1280  0.2379
38923W        W47523  25.145   1.589   6.847 -0.0459  0.0343 -0.0784
38924W        W47524   1.646   4.048  31.990 -0.1937 -0.1562 -0.1345
38925W        W47525   8.060   3.833  10.461  0.0082 -0.0452  0.2167
38926W        W47526  15.581   5.175   3.598  0.0414 -0.4506  0.2649
38927W        W47527   8.082   3.804  22.779 -0.0380  0.1537 -0.1743
38928W        W47528   8.888   4.061   4.192  0.2453 -0.1101 -0.0253
38929W        W47529   5.024   1.210  33.542  0.0214  0.0094 -0.0531
38930W        W47530  17.623   2.494   7.415  0.1327 -0.0333 -0.0162
38931W        W47531   8.157   2.479  11.414  0.2028  0.0520  0.0643
38932W        W47532  12.642   5.530   9.549 -0.2348 -0.1859 -0.0108
38933W        W47533  21.030   1.294  34.077  0.1491  0.0270  0.0022
38934W        W47534  22.169   0.493   3.152 -0.2128  0.0814 -0.0992
38935W        W47535  10.968   2.084  35.991 -0.1078  0.3273  0.2349
38936W        W47536  21.990   4.692   5.084 -0.0471 -0.1006 -0.0176
38937W        W47537   1.759   6.413  22.414  0.0046  0.1252 -0.1026
38938W        W47538   1.325   0.408  34.256  0.2014 -0.2217  0.2315
38939W        W47539  18.564   6.026  32.947 -0.0490  0.0811 -0.0606
38940W        W47540  14.040   0.527  29.173 -0.2706 -0.0668 -0.1379
38941W        W47541  15.894   4.803   9.606 -0.1534  0.0225  0.1054
38942W        W47542  21.959   4.658  10.639 -0.0425  0.0909  0.0433
38943W        W47543  24.253   1.249  15.245  0.2324  0.0255  0.3564
38944W        W47544  23.204   3.774   4.790 -0.0091 -0.1013  0.0552
38945W        W47545  13.346   5.242   1.899 -0.0427  0.1053  0.0395
38946W        W47546  14.380   1.831  23.749  0.1658 -0.0943 -0.0363
38947W        W47547  25.365   2.275   6.014 -0.2916 -0.2295  0.2124
38948W        W47548  25.042   5.770  33.497  0.2061  0.3310 -0.1439
38949W        W47549  15.370   6.016   4.883 -0.0798 -0.1032  0.0999
38950W        W47550   9.813   5.211  26.390  0.1755 -0.1730 -0.0574
38951W        W47551   3.020   6.225  29.732  0.0512 -0.0518 -0.0476
38952W        W47552   6.401   1.570  10.691 -0.1354  0.0216  0.2244
38953W        W47553  13.667   3.599  14.713 -0.3887 -0.1680  0.1417
38954W        W47554   5.923   5.508  34.426 -0.2564 -0.0606  0.1877
38955W        W47555  24.561   2.227  30.537  0.0647  0.2849  0.2154
38956W        W47556   7.279   5.806   5.578 -0.2019 -0.0812 -0.0117
38957W        W47557  19.347   0.380   1.955  0.1102 -0.0015 -0.0947
38958W        W47558   8.144   2.599   6.965 -0.0025  0.1921 -0.0607
38959W        W47559   4.260   0.310  12.415  0.2356 -0.1117  0.1043
38960W        W47560  16.321   4.126  22.957  0.2398  0.0432  0.0559
38961W        W47561  22.606   1.362  32.469 -0.1746  0.1107  0.1623
38962W        W47562  25.711   4.872  27.402 -0.1329  0.0987  0.0874
38963W        W47563  25.731   0.287  25.946 -0.1091  0.2054 -0.1644
38964W        W47564  25.345   5.782   9.104  0.1028 -0.1192  0.2139
38965W        W47565   1.783   1.516  10.625  0.6306 -0.0483  0.1089
38966W        W47566  23.935   5.279  23.774 -0.3284  0.1004 -0.0740
38967W        W47567  14.793   2.394  24.285 -0.1793  0.1337 -0.0680
38968W        W47568  25.629   0.323  33.962  0.1787 -0.0702 -0.1054
38969W        W47569  12.920   3.610  26.980 -0.4340 -0.0002  0.0497
38970W        W47570   5.033   4.504  35.143 -0.0707 -0.0079 -0.3005
38971W        W47571  10.214   1.964   7.279  0.0525  0.1863 -0.2444
38972W        W47572  14.147   0.668  15.030 -0.1483  0.1051 -0.2016
38973W        W47573   8.995   0.495  34.467 -0.2209 -0.0215 -0.0083
38974W        W47574  22.540   2.207  26.594 -0.0029 -0.2601 -0.3159
38975W        W47575   1.698   0.358  31.354 -0.3478 -0.4409 -0.1055
38976W        W47576  10.680   4.392  34.520  0.0044 -0.3809 -0.0741
38977W        W47577  10.821   2.898   8.228  0.0091 -0.2715 -0.1551
38978W        W47578  14.945   5.593  15.663 -0.0818  0.0575 -0.1919
38979W        W47579   4.247   3.161   9.835 -0.2101 -0.3159 -0.2341
38980W        W47580   6.211   4.888   7.477 -0.1580 -0.1358  0.1705
38981W        W47581  12.246   4.640  25.548 -0.4526 -0.0300 -0.0379
38982W        W47582   5.538   1.731   6.681 -0.1442 -0.2857  0.0248
38983W        W47583  10.639   1.867   1.647 -0.0766  0.0799 -0.1611
38984W        W47584  10.935   3.825  32.642 -0.1766  0.1821  0.2055
38985W        W47585  22.255   4.614  26.427 -0.0126  0.1656  0.0816
38986W        W47586   9.312   6.296  22.389  0.1037 -0.0995  0.1958
38987W        W47587   6.805   2.932   4.281 -0.1929 -0.0045  0.0438
38988W        W47588  21.500   4.400   0.998  0.0009 -0.0505 -0.2739
38989W        W47589  14.541   0.688  11.559  0.1531 -0.1092 -0.2805
38990W        W47590   8.814   5.955  11.921  0.1220 -0.0766  0.0460
38991W        W47591   8.684   6.501  14.882 -0.1920 -0.0059  0.1627
38992W        W47592  11.297   4.186   0.217 -0.0452 -0.3066 -0.0149
38993W        W47593  25.954   5.065  31.625 -0.0840 -0.0517 -0.1547
38994W        W47594  11.515   4.529  15.093 -0.2750  0.2374 -0.1390
38995W        W47595   4.838   1.365   2.169  0.1475 -0.1517 -0.1738
38996W        W47596  18.856   2.023  31.219  0.2573  0.1870 -0.1077
38997W        W47597  25.201   3.207  20.536 -0.1810  0.1878 -0.2369
38998W        W47598  22.873   1.423   3.213  0.1866  0.1914  0.1464
38999W        W47599  18.324   0.449  24.786  0.1171 -0.2295  0.2071
39000W        W47600  19.257   4.433  25.642  0.0617  0.2401  0.0561
39001W        W47601  20.016   5.698   4.740 -0.1781 -0.1481 -0.0786
39002W        W47602  15.333   3.597  35.895  0.2003 -0.0414  0.2843
39003W        W47603   0.838   3.094   9.131 -0.4139  0.0853 -0.0870
39004W        W47604   8.920   1.611  35.192 -0.1810  0.2180 -0.0990
39005W        W47605   0.339   3.828  25.274  0.0488 -0.0136 -0.0884
39006W        W47606  21.185   5.717   1.383  0.2225  0.1252 -0.3721
39007W        W47607  24.030   4.501  21.336  0.0668 -0.1715 -0.0796
39008W        W47608   8.611   0.705  35.291  0.2686  0.0668  0.1348
39009W        W47609  22.632   3.959  35.148  0.0909  0.1568 -0.0513
39010W        W47610   1.026   5.181  31.269  0.0096  0.2867  0.1483
39011W        W47611  10.459   1.917  11.719 -0.2430 -0.3929  0.0304
39012W        W47612  24.773   5.979  29.700 -0.0831  0.1092 -0.3235
39013W        W47613  17.251   4.665   6.812  0.0909  0.1540 -0.2969
39014W        W47614  16.241   1.532   7.673  0.1800  0.0542  0.0980
39015W        W47615   6.291   5.119  29.601  0.2062  0.0923  0.2238
39016W        W47616   8.488   4.472  12.506  0.4050 -0.1424 -0.2528
39017W        W47617  13.236   0.230  10.369  0.1313  0.0229  0.0469
39018W        W47618  22.096   3.961  24.832 -0.0674  0.0974 -0.1999
39019W        W47619   2.515   3.224   8.386  0.2862  0.1135 -0.3364
39020W        W47620  23.430   4.839   9.221 -0.1018 -0.2785 -0.0637
39021W        W47621   5.424   0.131  13.293  0.1536  0.1315 -0.2131
39022W        W47622  19.411   1.526   1.598  0.1370  0.1456  0.0211
39023W        W47623   2.839   2.095  29.341 -0.0135  0.3657 -0.0181
39024W        W47624   4.376   0.146  28.394 -0.0820  0.1035  0.0324
39025W        W47625   1.721   2.817   1.248 -0.1712  0.0709  0.0428
39026W        W47626  18.731   0.507   3.927  0.1999  0.2349 -0.2533
39027W        W47627   3.055   1.373  27.275  0.0617  0.0366 -0.0697
39028W        W47628  22.866   4.786  21.771 -0.0617 -0.3533  0.2757
39029W        W47629   1.480   2.366  24.072 -0.2598  0.1151 -0.2727
39030W        W47630   3.962   6.237   8.652  0.0654 -0.1752 -0.2029
39031W        W47631  12.680   6.498  28.937 -0.2528 -0.0546 -0.3742
39032W        W47632   6.345   2.977  34.477  0.1701  0.0025  0.1432
39033W        W47633   7.643   2.732  23.313  0.0432 -0.1145  0.3513
39034W        W47634   9.876   0.644  23.887  0.3387 -0.2639  0.2351
39035W        W47635  16.726   2.548   7.607 -0.1313 -0.2058 -0.0830
39036W        W47636   3.485   1.061   2.932 -0.0908 -0.0874 -0.0695
39037W        W47637  21.725   2.234  36.016  0.0378 -0.0922 -0.0401
39038W        W47638  10.359   2.073   8.709  0.0144  0.0800  0.0253
39039W        W47639  13.465   5.320  36.041 -0.0318  0.1294  0.2734
39040W        W47640   4.602   4.173  29.629  0.0809 -0.0623  0.2197
39041W        W47641   8.848   5.297  21.477  0.1830  0.1065 -0.3565
39042W        W47642   8.309   1.517  25.057  0.3844  0.0079 -0.0489
39043W        W47643   8.150   0.794   1.364  0.3131  0.1133 -0.0141
39044W        W47644  13.371   0.718  12.295  0.1834 -0.1194  0.1905
39045W        W47645   4.351   3.355  13.206  0.1172  0.0232 -0.2125
39046W        W47646  22.725   2.449  20.418  0.0806 -0.0555  0.2910
39047W        W47647   3.367   1.228  35.244  0.1048 -0.1828 -0.2283
39048W        W47648  25.481   1.294   8.215  0.1425 -0.0269 -0.3113
39049W        W47649  14.194   2.580  11.067  0.1251 -0.1412 -0.2006
39050W        W47650  15.183   6.385  34.760  0.1398 -0.1639 -0.1743
39051W        W47651   5.211   5.376  32.312  0.0826  0.1790 -0.0101
39052W        W47652  23.461   1.267   0.763 -0.0407  0.0634  0.0470
39053W        W47653   2.790   3.427  27.174 -0.2628 -0.3282  0.1720
39054W        W47654  14.671   4.957  33.683  0.0936  0.1336 -0.2856
39055W        W47655  10.172   5.584  24.388  0.0914  0.1445 -0.0631
39056W        W47656   3.505   2.484   9.923  0.1163 -0.2369 -0.1284
39057W        W47657   1.586   5.170   6.382 -0.1096  0.0930  0.0100
39058W        W47658   4.355   0.652  10.436 -0.1379  0.0489 -0.0458
39059W        W47659  17.376   0.082  12.505  0.0957  0.3043 -0.2163
39060W        W47660  23.234   3.390  11.543  0.0185  0.0422 -0.0263
39061W        W47661  11.313   1.921  31.283  0.0376 -0.4725  0.0649
39062W        W47662   8.939   2.097   7.627 -0.0075 -0.3051  0.0540
39063W        W47663   7.653   0.380  26.013 -0.0153  0.0730  0.0610
39064W        W47664  24.787   1.561  21.919  0.2855 -0.0158  0.0015
39065W        W47665  17.709   2.903  26.800 -0.1580  0.0795  0.0305
39066W        W47666  13.540   1.841  23.764  0.1233 -0.3135  0.1230
39067W        W47667  12.485   6.359  26.034  0.2578 -0.0200 -0.0469
39068W        W47668   7.102   2.493  13.817  0.0979  0.3098  0.3278
39069W        W47669   0.581   4.072  33.843 -0.1691 -0.1334  0.0826
39070W        W47670  11.322   1.613   1.100 -0.3890  0.1621 -0.0071
39071W        W47671   8.536   5.404  27.182  0.4358 -0.1021  0.2865
39072W        W47672   1.612   5.782  23.252 -0.0539 -0.3269  0.3152
39073W        W47673  18.020   6.169   8.542  0.1172  0.1584 -0.3350
39074W        W47674  11.544   3.225  22.844  0.1032 -0.2035  0.0537
39075W        W47675   8.035   3.210   8.892 -0.2898  0.0687 -0.2272
39076W        W47676  24.100   4.160   4.755  0.2491  0.0046 -0.0324
39077W        W47677  21.725   0.711  33.495 -0.0316  0.0488  0.0421
39078W        W47678  17.464   6.057   8.208  0.1835 -0.0563 -0.1675
39079W        W47679   8.725   3.577   8.008 -0.0258  0.3758  0.2798
39080W        W47680  17.912   0.013   5.577 -0.0542  0.0440  0.1832
39081W        W47681  23.021   4.437  22.601 -0.6234  0.0171  0.0276
39082W        W47682   9.413   2.178  24.642 -0.0725  0.1610  0.0398
39083W        W47683  13.948   0.621  26.237  0.1891 -0.1837  0.0134
39084W        W47684  19.109   3.456  11.742 -0.1091  0.0517 -0.0448
39085W        W47685  11.897   2.779   9.758 -0.0536 -0.1975 -0.1109
39086W        W47686  19.999   5.668  35.770 -0.1733  0.0093 -0.0375
39087W        W47687   5.612   3.960   5.242 -0.0484  0.3133 -0.3100
39088W        W47688  11.347   5.776  21.757  0.1032  0.0465  0.1268
39089W        W47689  19.688   2.853  13.312  0.0618 -0.0884 -0.0122
39090W        W47690  23.097   0.463   7.098 -0.0419 -0.0094 -0.1439
39091W        W47691  12.237   0.696  31.549 -0.0101 -0.0995 -0.2697
39092W        W47692  16.863   2.632  12.571  0.1990 -0.1613 -0.1979
39093W        W47693  14.189   4.839   6.737 -0.0748  0.1586  0.1919
39094W        W47694   4.784   4.613  28.382  0.0534 -0.3211  0.2447
39095W        W47695  21.563   0.530   5.098  0.1586  0.0464  0.1629
39096W        W47696  20.299   1.845   5.058 -0.0433 -0.0852  0.0194
39097W        W47697  24.415   5.727  10.992  0.0651  0.0489  0.3394
39098W        W47698  15.756   0.844  22.775  0.2391  0.2700 -0.0609
39099W        W47699   9.604   1.067  27.512 -0.0634  0.1627  0.1738
39100W        W47700   5.302   1.107  30.685 -0.2677 -0.0930  0.0919
39101W        W47701   2.671   0.233  33.288 -0.0705  0.0460  0.0172
39102W        W47702   5.457   3.611   0.616  0.0218 -0.3043 -0.1345
39103W        W47703  24.317   6.603  14.078 -0.0471  0.0149  0.5284
39104W        W47704  21.668   6.026  14.322  0.3466  0.0278  0.0889
39105W        W47705  23.963   0.157   8.590 -0.0118 -0.0518 -0.0714
39106W        W47706  18.905   2.681   3.819  0.0228  0.0860 -0.1464
39107W        W47707   3.513   2.336  26.102  0.2187 -0.1158 -0.0461
39108W        W47708  21.961   0.561   9.256 -0.1676 -0.0021 -0.3245
39109W        W47709   8.266   2.386  34.854 -0.0824  0.2654 -0.0289
39110W        W47710  25.308   1.987  13.397  0.0029 -0.1730  0.1762
39111W        W47711  18.641   2.298   6.757  0.0233  0.0760 -0.0168
39112W        W47712  16.964   5.140  28.063  0.0670 -0.1772  0.1593
39113W        W47713   2.573   0.465   6.783  0.0272  0.1088 -0.0463
39114W        W47714   1.259   0.313  22.973 -0.4516  0.1252 -0.2151
39115W        W47715  18.316   2.048  13.260  0.2281 -0.1817 -0.0896
39116W        W47716   8.459   0.135  29.302 -0.3755  0.1585  0.1899
39117W        W47717  26.289   0.714  25.812 -0.3033 -0.0919 -0.0218
39118W        W47718  13.607   5.031  13.018 -0.1643  0.2792  0.2059
39119W        W47719   8.927   6.522   3.436 -0.0766  0.1878  0.0050
39120W        W47720  25.093   5.622   3.581 -0.0309 -0.0719  0.1649
39121W        W47721  15.122   1.064  30.043  0.0262  0.0034  0.0053
39122W        W47722  10.525   1.133  13.790  0.0417  0.0626 -0.0147
39123W        W47723   1.314   1.160   7.117 -0.2535 -0.2118  0.5592
39124W        W47724   1.089   6.265   9.155  0.0970 -0.0602  0.1219
39125W        W47725   5.157   1.892  20.647 -0.1225  0.0556 -0.0170
39126W        W47726   5.764   2.154   8.776  0.1003  0.1013  0.2249
39127W        W47727  20.786   6.152  30.252 -0.0887  0.0025 -0.0181
39128W        W47728  18.798   5.283  26.464 -0.1953 -0.0376 -0.1222
39129W        W47729   2.768   5.359  26.295  0.2703  0.1785  0.1573
39130W        W47730   4.073   0.659  25.983  0.1335 -0.2168 -0.1561
39131W        W47731  25.013   5.049  25.023 -0.0012  0.1300  0.3479
39132W        W47732  22.579   4.427   3.982  0.2188 -0.2003  0.3179
39133W        W47733  14.691   1.833  23.288 -0.3057 -0.2963 -0.0256
39134W        W47734  17.559   3.147   1.797 -0.0550 -0.0877  0.1028
39135W        W47735  10.109   0.764  26.652  0.3136  0.1435 -0.1476
39136W        W47736   1.069   1.567   3.792 -0.1331 -0.2589  0.1644
39137W        W47737  20.484   2.815  22.892 -0.1098  0.0064 -0.2073
39138W        W47738  11.718   0.164  22.674  0.3004  0.0725  0.0291
39139W        W47739  14.425   0.765  35.817  0.1536 -0.1219  0.3121
39140W        W47740  13.597   2.264  29.970  0.2220  0.1730  0.5197
39141W        W47741  19.957   4.726  32.677 -0.1489  0.0458  0.0469
39142W        W47742  20.031   1.375   6.485 -0.0128  0.1696 -0.1020
39143W        W47743   8.376   5.933  12.987  0.1616 -0.1177  0.1119
39144W        W47744  25.469   4.368  22.749  0.1089 -0.1204 -0.2961
39145W        W47745  19.263   0.045  30.906 -0.2554 -0.0969  0.1447
39146W        W47746   2.722   6.126  22.354 -0.0258 -0.0337 -0.2031
39147W        W47747  18.580   1.795  11.080 -0.3389 -0.2338  0.0193
39148W        W47748  16.924   4.646  28.226  0.1153  0.2067 -0.0889
39149W        W47749   2.616   5.376   5.687  0.2620  0.0028  0.1001
39150W        W47750   2.166   3.953  32.328  0.0317 -0.0909 -0.0946
39151W        W47751  17.106   6.192  21.261  0.2988 -0.0421 -0.1643
39152W        W47752  18.751   5.322  27.033  0.0966  0.1407 -0.1311
39153W        W47753  16.597   1.556  11.311  0.2201 -0.1645  0.2629
39154W        W47754  23.411   4.562  14.443  0.0125  0.0657  0.1665
39155W        W47755   3.049   4.588  13.099  0.0330  0.0541 -0.0376
39156W        W47756  12.563   1.674   3.711  0.2292 -0.2462 -0.0119
39157W        W47757  15.380   2.782  26.932  0.0589  0.1578 -0.0355
39158W        W47758   6.638   3.615  35.334 -0.0395  0.2019 -0.1590
39159W        W47759  18.603   4.047   1.058 -0.0286  0.0155  0.3104
39160W        W47760  19.518   0.522  35.552  0.1572  0.0361  0.2513
39161W        W47761   0.150   4.459  20.112  0.2301 -0.1620  0.1606
39162W        W47762  16.691   2.839  26.309 -0.3637  0.0214  0.1145
39163W        W47763  19.184   1.114  24.968  0.2174  0.0545  0.3842
39164W        W47764   2.706   2.282  22.043  0.0969  0.0325  0.1011
39165W        W47765  15.763   2.782  31.085  0.2665  0.3560  0.0581
39166W        W47766  24.407   3.914  10.237 -0.0870 -0.3691 -0.1176
39167W        W47767   2.698   5.916  33.435 -0.1123  0.2851  0.2825
39168W        W47768   8.172   5.076  10.934  0.4568 -0.2219  0.0761
39169W        W47769  24.662   5.082   2.176  0.1344 -0.2138 -0.1952
39170W        W47770  17.759   2.293  15.707 -0.1313 -0.0416  0.4263
39171W        W47771  26.209   1.019  23.679  0.3592 -0.0379 -0.4365
39172W        W47772  15.359   1.984   9.262  0.2232  0.0697  0.0520
39173W        W47773   4.882   2.140  26.142  0.1090 -0.1580  0.0374
39174W        W47774   0.464   0.558  34.802  0.1019  0.1250  0.1268
39175W        W47775  26.323   3.578  32.352 -0.2503  0.0170 -0.1406
39176W        W47776   9.730   0.896   8.279 -0.0641  0.1850  0.1000
39177W        W47777   1.160   6.416   6.261 -0.1007  0.1266  0.1198
39178W        W47778  24.650   4.125  20.515 -0.2140 -0.2252 -0.1432
39179W        W47779   7.844   2.710  25.970  0.1638 -0.0935 -0.1542
39180W        W47780  23.057   3.899  34.768  0.3501  0.2049 -0.3622
39181W        W47781  26.093   4.504  13.508 -0.0454  0.0162  0.1195
39182W        W47782   3.319   1.937  15.118  0.4627  0.1352  0.1803
39183W        W47783   0.133   5.627  14.053 -0.1315  0.4066 -0.1287
39184W        W47784   4.594   3.194  35.526 -0.0699 -0.0269 -0.0157
39185W        W47785  16.744   3.581  30.990  0.1933  0.1374 -0.2542
39186W        W47786  14.371   4.192  14.941 -0.0078  0.1535 -0.2464
39187W        W47787  25.552   5.770  31.882 -0.3951  0.0255  0.0159
39188W        W47788   3.686   4.966  24.427  0.0771 -0.2704  0.0659
39189W        W47789   7.233   2.830   9.146 -0.2692  0.2855 -0.0226
39190W        W47790  10.316   0.908   5.725  0.1672 -0.0690  0.0475
39191W        W47791  19.680   4.149   6.776  0.0111 -0.0551  0.1911
39192W        W47792   2.057   4.579  13.057  0.1490  0.0316 -0.0496
39193W        W47793   9.447   4.589  22.713 -0.0945  0.0272  0.0794
39194W        W47794  24.201   3.037   5.535  0.1213  0.0187  0.0667
39195W        W47795  22.914   3.306  28.661  0.0552  0.0295 -0.1210
39196W        W47796  21.776   4.737  25.161  0.0603  0.3641  0.1031
39197W        W47797  10.130   0.208  31.548  0.2497  0.1565  0.1923
39198W        W47798  19.927   6.445   6.184 -0.0528 -0.2264  0.0217
39199W        W47799  23.507   2.406  11.587 -0.0620 -0.1057 -0.0562
39200W        W47800  26.221   2.608  27.665 -0.1222 -0.0986 -0.0888
39201W        W47801   8.871   4.621  11.402  0.0346 -0.0380  0.0480
39202W        W47802   6.451   4.260   2.316  0.2026  0.0199 -0.1799
39203W        W47803  23.666   5.423  23.344  0.2557 -0.3397 -0.0056
39204W        W47804  21.248   5.107   2.110 -0.0031  0.0229  0.1518
39205W        W47805  26.035   1.294   1.604 -0.0774  0.0510 -0.3004
39206W        W47806   5.416   1.373   7.553 -0.0792  0.2417  0.0928
39207W        W47807  18.379   6.454   5.168  0.2027  0.2517 -0.2342
39208W        W47808  25.404   4.873  34.538 -0.0696  0.0119 -0.2661
39209W        W47809   6.698   1.852   9.908  0.1566  0.0188 -0.2896
39210W        W47810  26.059   0.152  23.634 -0.0442  0.1057 -0.1351
39211W        W47811  22.899   6.130   3.697 -0.1700 -0.2721  0.1502
39212W        W47812   6.451   5.680  35.995  0.1398 -0.1663  0.0181
39213W        W47813  18.107   3.908   1.159 -0.0919  0.4678 -0.2367
39214W        W47814   5.225   4.058  10.893  0.2003  0.1037  0.1105
39215W        W47815  12.057   0.177  14.941 -0.1749  0.1763  0.0119
39216W        W47816  19.632   1.106  22.722 -0.1358 -0.0998 -0.3182
39217W        W47817   3.301   3.313  28.038 -0.1569  0.1093  0.2860
39218W        W47818  17.504   4.809  14.762 -0.0731  0.3386  0.3032
39219W        W47819  14.984   5.896  26.141  0.0805 -0.3195  0.0703
39220W        W47820  10.682   2.400  29.442  0.0730  0.1062 -0.2459
39221W        W47821  13.782   3.456   9.679  0.2253 -0.1745 -0.0958
39222W        W47822   6.594   5.105   7.170  0.0468  0.1632  0.0451
39223W        W47823  25.598   0.705  34.479  0.1070  0.0801 -0.1037
39224W        W47824  21.335   3.277  11.111 -0.2200 -0.0529 -0.0522
39225W        W47825  23.282   6.592   9.087 -0.1416 -0.0789  0.3773
39226W        W47826  18.823   4.033   7.908 -0.1084 -0.2473  0.0073
39227W        W47827   6.466   2.382  31.880  0.0730 -0.2530 -0.2096
39228W        W47828  10.112   2.531  22.597  0.4295 -0.0903 -0.3644
39229W        W47829  10.832   1.318  30.754  0.2627  0.0975  0.0089
39230W        W47830  18.218   0.700  15.054  0.1517  0.0360  0.0476
39231W        W47831  24.845   0.967  21.995  0.2145  0.3298  0.0807
39232W        W47832  12.795   5.193  12.079  0.3492  0.0676  0.3331
39233W        W47833  18.950   1.876   0.670 -0.0200  0.0005 -0.1040
39234W        W47834  21.888   5.470  34.107  0.0559 -0.0034 -0.0476
39235W        W47835   4.318   2.856  25.743  0.0652  0.0068  0.0266
39236W        W47836  21.192   5.945  26.330 -0.1295 -0.0862 -0.4658
39237W        W47837  18.487   0.420  26.499 -0.0034  0.0041  0.1759
39238W        W47838  21.623   3.164  27.386 -0.2501  0.2050  0.0866
39239W        W47839   5.364   1.100  28.280  0.0699 -0.0926  0.2224
39240W        W47840  21.753   5.591   0.178 -0.0983 -0.1901 -0.1583
39241W        W47841  20.579   2.493  33.717 -0.1843 -0.1835 -0.1126
39242W        W47842  19.115   6.309   4.042  0.1126 -0.0805 -0.3789
39243W        W47843  13.685   4.659  28.648  0.0332 -0.0256  0.0812
39244W        W47844  26.039   3.537  11.741  0.0694 -0.0882  0.1484
39245W        W47845   3.690   1.531   0.402  0.1830  0.1554 -0.3952
39246W        W47846  14.765   2.428  12.057 -0.1893 -0.0067  0.2636
39247W        W47847  22.050   4.072   5.145 -0.1050  0.2586 -0.0603
39248W        W47848  26.088   0.918  29.118 -0.1400 -0.1571 -0.1652
39249W        W47849   6.639   2.185  29.283  0.1859 -0.0711 -0.0582
39250W        W47850  25.000   0.566   0.328  0.2517  0.2787 -0.2871
39251W        W47851  16.293   3.343   2.288 -0.1403  0.2399 -0.0860
39252W        W47852   1.011   0.646  32.849 -0.1615  0.2390 -0.0645
39253W        W47853   6.242   4.829  11.671 -0.0862 -0.2529  0.0719
39254W        W47854  17.868   0.414   4.188  0.0680  0.1096 -0.3966
39255W        W47855  12.620   5.869   0.981 -0.2614 -0.0649  0.2526
39256W        W47856  22.785   6.556  22.597  0.1977 -0.1349  0.0266
39257W        W47857  21.873   5.882   3.804  0.3291  0.0247  0.0049
39258W        W47858  23.112   2.651  29.650  0.1599  0.3921 -0.0977
39259W        W47859  21.281   1.789   3.637 -0.0756  0.0841 -0.1900
39260W        W47860  10.319   3.728   1.765 -0.0322  0.0740  0.0900
39261W        W47861   8.206   3.061  25.714  0.0539 -0.0450  0.0043
39262W        W47862   6.184   4.553  22.413  0.1146  0.0456  0.0151
39263W        W47863  12.870   3.163   8.800  0.0249  0.1234 -0.1121
39264W        W47864  17.189   3.181  35.982  0.1997  0.3979 -0.1576
39265W        W47865  19.338   2.469  14.442  0.0744  0.2284  0.0681
39266W        W47866   6.573   3.814  11.162 -0.3520 -0.2181 -0.1403
39267W        W47867   4.555   0.114  33.522 -0.0457  0.0168  0.1461
39268W        W47868   3.467   5.927   6.955 -0.0110  0.0284  0.1480
39269W        W47869   1.687   0.015  27.039  0.0016 -0.1584 -0.2374
39270W        W47870  25.126   1.673  25.820  0.1353 -0.0002  0.1088
39271W        W47871  23.533   1.247   7.351 -0.1588  0.2506  0.1325
39272W        W47872  20.349   5.355  28.038 -0.0580  0.1037 -0.2123
39273W        W47873   5.639   6.039  15.653 -0.1199 -0.3494 -0.1570
39274W        W47874  17.207   3.904  21.075  0.0573  0.4917  0.3153
39275W        W47875   6.891   4.194   1.429 -0.1693  0.1837 -0.0081
39276W        W47876  13.811   3.295  10.918 -0.3023 -0.0444 -0.2278
39277W        W47877  17.477   0.477  33.003  0.2522 -0.0358 -0.0597
39278W        W47878  19.426   2.991  24.310 -0.0087 -0.1808 -0.1744
39279W        W47879  26.314   5.539   6.623  0.3665 -0.1445 -0.0112
39280W        W47880   7.741   2.745  32.715  0.0398  0.1919 -0.2131
39281W        W47881   0.130   3.364  23.751 -0.4628 -0.1737 -0.2818
39282W        W47882  17.871   6.165  26.519 -0.1308  0.5486  0.1748
39283W        W47883  19.757   4.402  24.829  0.1217 -0.0974 -0.1729
39284W        W47884   7.097   4.921  31.877 -0.1319  0.0433  0.1757
39285W        W47885  20.121   5.795   8.102  0.2305 -0.2944  0.1032
39286W        W47886   9.804   5.856   5.051  0.0816 -0.2631 -0.1206
39287W        W47887  17.881   5.838   0.554 -0.0716  0.2912 -0.1553
39288W        W47888  24.953   4.331   4.572  0.0892 -0.1283 -0.0106
39289W        W47889   3.130   6.604  30.084  0.0839  0.2269  0.1785
39290W        W47890  16.325   5.323  23.870  0.0802  0.2319  0.0219
39291W        W47891   9.573   0.559   8.644 -0.0285  0.0535 -0.2314
39292W        W47892  24.824   4.685  15.081  0.3232  0.2343  0.1257
39293W        W47893  11.128   3.453  21.535  0.0524 -0.0150  0.1027
39294W        W47894  25.003   1.348   5.868 -0.2013 -0.2977 -0.2002
39295W        W47895   0.976   1.375  28.218  0.1932 -0.1028 -0.0635
39296W        W47896   4.852   4.522  22.576 -0.0523  0.1604 -0.2181
39297W        W47897   8.378   0.408   9.139  0.0522 -0.1149 -0.0299
39298W        W47898   4.050   1.003  32.538 -0.0884  0.1452 -0.0870
39299W        W47899   3.435   3.564  20.682 -0.0762  0.1009  0.0578
39300W        W47900   8.998   0.617  25.564 -0.0698 -0.1111 -0.1396
39301W        W47901  25.365   4.123  24.633  0.0795  0.3545 -0.2410
39302W        W47902  17.174   5.007  10.642 -0.1966  0.2602  0.1028
39303W        W47903  24.531   5.052  15.376  0.3043  0.0275 -0.1781
39304W        W47904   5.021   5.471   1.753 -0.1032  0.0906  0.0914
39305W        W47905  14.112   4.442   8.908  0.2085  0.0892 -0.0156
39306W        W47906  16.139   0.760   7.195  0.0913  0.3327  0.0265
39307W        W47907   7.059   1.688  23.459  0.2031 -0.1252 -0.0783
39308W        W47908  12.955   3.876  28.794  0.1290 -0.1290  0.1417
39309W        W47909   4.715   5.739  34.002  0.0498 -0.0796  0.0309
39310W        W47910   4.581   2.564  32.863  0.0303 -0.1902  0.0375
39311W        W47911  14.796   0.642  25.896  0.2015 -0.1169 -0.0897
39312W        W47912  13.829   6.564  29.183  0.1579 -0.1545 -0.0152
39313W        W47913  15.786   2.777  14.448 -0.2249 -0.0508 -0.0181
39314W        W47914   9.078   0.362  13.357 -0.0729  0.0148 -0.0530
39315W        W47915   8.793   0.340   1.304  0.0955 -0.0086 -0.1696
39316W        W47916  25.143   3.757  29.916  0.1729  0.2254 -0.0083
39317W        W47917   7.803   2.784  14.952 -0.4594 -0.2081 -0.0986
39318W        W47918   8.742   1.729   5.338 -0.1740  0.0199  0.1054
39319W        W47919  24.605   0.059   8.594 -0.0274 -0.2655 -0.0476
39320W        W47920  17.519   5.716  32.169  0.2457  0.3720  0.0062
39321W        W47921  17.451   0.243   3.380  0.0867  0.0706  0.0401
39322W        W47922   3.294   1.487  13.103 -0.3940  0.0553  0.1693
39323W        W47923  13.811   5.733   8.683  0.0722 -0.1930  0.2184
39324W        W47924  25.538   1.837   3.729 -0.1899  0.0996  0.1015
39325W        W47925  12.603   4.849  35.981 -0.2248  0.2255 -0.0283
39326W        W47926   5.043   5.787  11.446 -0.2985 -0.1457 -0.4267
39327W        W47927  13.137   3.339  12.488 -0.0061  0.0587 -0.0944
39328W        W47928   0.513   5.213  27.403 -0.0364 -0.0423  0.5094
39329W        W47929   0.063   5.888  23.090 -0.2261  0.0787  0.3449
39330W        W47930  18.277   0.800  25.141  0.0562 -0.0372 -0.1467
39331W        W47931  25.034   5.268   5.449 -0.0907 -0.0981 -0.0359
39332W        W47932  21.183   2.763  14.447 -0.3597 -0.2934 -0.0970
39333W        W47933   1.068   4.607  24.660  0.3080 -0.2397 -0.0981
39334W        W47934  15.477   4.564   9.386 -0.2244 -0.1685  0.3602
39335W        W47935  12.230   3.980  27.499  0.0565 -0.2093  0.0240
39336W        W47936  25.497   3.726   6.089 -0.0346  0.1598  0.1924
39337W        W47937   4.364   5.978   2.794 -0.2302 -0.0226  0.2209
39338W        W47938  15.061   1.615  32.083 -0.2247  0.0257 -0.1372
39339W        W47939  19.103   5.894  34.684 -0.0319 -0.3119  0.1173
39340W        W47940   9.553   4.824   4.716  0.0485 -0.5052 -0.1150
39341W        W47941   9.473   6.587  10.191  0.2912 -0.2495 -0.0018
39342W        W47942  20.540   2.058  28.661 -0.2205  0.0652 -0.1940
39343W        W47943   9.501   5.852  14.448 -0.1586 -0.0209  0.3042
39344W        W47944  20.587   5.941  25.550 -0.0263 -0.3010 -0.1796
39345W        W47945   6.028   4.128   3.968  0.1096 -0.1822  0.3362
39346W        W47946  22.702   2.325   5.384 -0.2400  0.3316 -0.0129
39347W        W47947  19.228   1.665   3.203 -0.0265 -0.1700 -0.0694
39348W        W47948  15.646   0.762   7.525  0.0316  0.1741  0.1232
39349W        W47949  13.742   0.408  32.371 -0.0740  0.1156  0.1887
39350W        W47950  18.335   0.743  13.994  0.1562  0.2134 -0.0480
39351W        W47951   1.251   2.201  21.196 -0.0844 -0.3682 -0.0552
39352W        W47952   6.959   2.971  35.920  0.1414 -0.0958  0.2488
39353W        W47953  14.475   4.482  12.858  0.3442  0.2399 -0.0306
39354W        W47954  25.561   3.544   9.135 -0.1858  0.1773  0.0609
39355W        W47955   8.616   2.088  26.118 -0.1132 -0.0184 -0.2723
39356W        W47956  10.828   3.693   2.899 -0.1156  0.1082  0.0148
39357W        W47957  12.314   1.008  33.381 -0.3614 -0.1781  0.1936
39358W        W47958   2.848   4.902  27.716  0.2253  0.1661 -0.3655
39359W        W47959  13.149   1.681   1.808 -0.0602 -0.0663  0.1485
39360W        W47960  11.570   4.520  23.079 -0.3338  0.1546 -0.0450
39361W        W47961  26.141   0.549  13.962 -0.1852  0.0054 -0.0457
39362W        W47962   9.261   2.795   9.294 -0.0642 -0.0309 -0.1746
39363W        W47963   1.303   4.889  35.133 -0.0525 -0.2200  0.0714
39364W        W47964   5.304   0.325  15.359  0.2060 -0.0848 -0.0297
39365W        W47965  26.086   4.249  33.445  0.0323  0.3143  0.2384
39366W        W47966  15.410   4.133  23.126  0.1245  0.0233 -0.2416
39367W        W47967   0.219   5.645  14.720 -0.0506 -0.2852 -0.0583
39368W        W47968  25.125   0.935  14.990 -0.0863 -0.4603 -0.3773
39369W        W47969   0.625   2.330   3.728  0.2441 -0.0864 -0.0572
39370W        W47970  15.275   5.334   9.832 -0.1389 -0.0395  0.0528
39371W        W47971  25.523   6.548   5.348 -0.2152  0.5287 -0.0952
39372W        W47972   9.104   0.167  32.913 -0.2979  0.2200 -0.0867
39373W        W47973  15.590   5.262  30.347  0.2228  0.1743 -0.1125
39374W        W47974   5.841   6.420   1.017 -0.0922 -0.1999 -0.0976
39375W        W47975  12.575   1.493  21.919 -0.2711  0.2123 -0.1424
39376W        W47976  24.852   4.512  31.027  0.0647 -0.1111 -0.1653
39377W        W47977   0.077   2.601  14.262  0.2748 -0.1374 -0.2020
39378W        W47978  18.682   5.308  25.054  0.1531  0.0085  0.0768
39379W        W47979  16.949   6.559  11.863 -0.2068 -0.0477 -0.0542
39380W        W47980   4.483   6.364  14.506 -0.1730 -0.1034 -0.0863
39381W        W47981  15.781   0.429   3.620  0.2610  0.0278 -0.1557
39382W        W47982  19.114   1.912  11.820  0.3803 -0.0043  0.0147
39383W        W47983   0.249   5.935  36.071  0.0381  0.0355  0.1848
39384W        W47984   9.204   0.794  10.902 -0.3791  0.0621  0.0920
39385W        W47985  17.940   6.488   6.453 -0.0507  0.1623 -0.0686
39386W        W47986   2.820   5.197  28.148 -0.0333  0.0217  0.1920
39387W        W47987   8.891   6.189  29.675 -0.0863  0.0983  0.3069
39388W        W47988  17.524   2.664  33.833  0.1483 -0.1002  0.1870
39389W        W47989  22.938   5.731  34.088 -0.2158  0.1066 -0.0449
39390W        W47990  25.781   1.687   0.076  0.1477 -0.2139  0.1679
39391W        W47991   0.360   6.463   9.981  0.0127  0.0478  0.0434
39392W        W47992  21.546   5.236  26.019 -0.2070  0.2552 -0.0741
39393W        W47993  22.162   4.001   8.424  0.0303 -0.1193  0.1153
39394W        W47994   1.653   2.764   9.417 -0.0228  0.0657  0.3823
39395W        W47995  23.197   6.351   4.812  0.3623  0.1510 -0.1010
39396W        W47996  10.235   4.449  32.431 -0.0610  0.0057 -0.0206
39397W        W47997  18.996   3.426  10.637 -0.0383 -0.2452 -0.1065
39398W        W47998  16.264   0.058  30.371  0.0790  0.0369  0.0875
39399W        W47999  18.666   4.376   5.949 -0.1025 -0.1129 -0.0201
39400W        W48000  20.072   6.347  30.366 -0.0813 -0.1373  0.0193
39401W        W48001  25.858   1.754  30.276 -0.1611  0.0489 -0.0680
39402W        W48002  11.398   1.119  24.487 -0.0482  0.2237  0.0359
39403W        W48003  22.234   1.189   5.000  0.0048  0.1309 -0.1179
39404W        W48004   4.831   6.318  32.302 -0.2141 -0.2750  0.1748
39405W        W48005   1.187   6.595   8.637  0.0595 -0.3679  0.2198
39406W        W48006  22.536   1.863   4.536  0.1114 -0.2284  0.0067
39407W        W48007  17.168   3.757  23.961  0.2669 -0.1414 -0.0753
39408W        W48008   5.903   1.602  36.011 -0.2819  0.2659  0.3096
39409W        W48009   2.234   5.916   4.545 -0.0202  0.0612 -0.0658
39410W        W48010   8.810   6.210  20.412  0.1663  0.3231 -0.2333
39411W        W48011   8.536   5.411  25.699  0.3202  0.1580  0.0535
39412W        W48012  18.117   5.125   1.188  0.4135  0.1159 -0.1707
39413W        W48013  22.243   6.387   5.059 -0.0353  0.0503 -0.1153
39414W        W48014  23.870   3.762  22.907  0.1090 -0.1606 -0.1065
39415W        W48015   6.360   2.391   3.714 -0.1713 -0.1773 -0.2137
39416W        W48016  18.933   4.503   1.334 -0.0531  0.1202 -0.2374
39417W        W48017   2.593   5.524  30.130  0.4009  0.0865  0.0080
39418W        W48018  13.480   5.500  30.217  0.3260  0.0881 -0.1441
39419W        W48019  21.875   1.073   9.179 -0.0564 -0.0656  0.0174
39420W        W48020   0.425   2.833  25.141  0.1623 -0.0621  0.3978
39421W        W48021   6.481   3.790   8.828 -0.1008  0.2046  0.2620
39422W        W48022  23.892   3.410  30.661  0.3411  0.0600  0.0965
39423W        W48023   4.887   5.070  12.629  0.0276 -0.0960  0.0816
39424W        W48024  21.920   3.300  23.034 -0.2100 -0.2245 -0.0511
39425W        W48025   9.415   3.105   7.944  0.3969 -0.0049 -0.0058
39426W        W48026  17.081   5.398  13.171  0.1834  0.1560  0.0490
39427W        W48027   7.106   6.590  25.671  0.1252  0.0348 -0.1288
39428W        W48028  21.318   0.087  26.878 -0.0513 -0.1788 -0.0875
39429W        W48029  24.669   2.120  14.624 -0.0323  0.0214 -0.1203
39430W        W48030  10.301   3.007  15.781  0.2370  0.0827 -0.1475
39431W        W48031  14.220   4.156  26.924 -0.0881 -0.0029  0.0322
39432W        W48032  20.775   6.530   5.575 -0.0428  0.1250  0.0631
39433W        W48033  17.810   0.413   8.151  0.2219  0.3884  0.0614
39434W        W48034  10.441   1.242  25.007  0.0678  0.0555 -0.1071
39435W        W48035   4.711   3.249  27.783  0.0026  0.1097  0.3375
39436W        W48036   9.266   2.416  22.478 -0.0625  0.3143  0.1194
39437W        W48037  14.405   5.700   1.144 -0.2297 -0.2120  0.1626
39438W        W48038  10.383   5.775  28.309 -0.2116 -0.2728  0.1709
39439W        W48039  10.244   4.433   3.958 -0.1509  0.2052 -0.2375
39440W        W48040  18.042   4.575  27.064  0.1820 -0.1253  0.2095
39441W        W48041   5.681   6.023  28.558 -0.0668  0.2017 -0.2667
39442W        W48042  21.840   2.914  24.117  0.4293  0.1030  0.1275
39443W        W48043  21.313   3.026  35.682 -0.1551 -0.1642  0.1302
39444W        W48044   4.370   6.549  21.972  0.1810 -0.2503  0.0106
39445W        W48045  10.986   5.913  33.778 -0.2153  0.0858  0.0304
39446W        W48046   3.143   2.349   0.685 -0.1194  0.1193  0.0317
39447W        W48047   7.829   2.528  24.723  0.2485  0.0921 -0.0792
39448W        W48048   6.229   5.851  30.736  0.0438  0.0335  0.2060
39449W        W48049  20.330   5.893  27.883 -0.1163 -0.3111 -0.2254
39450W        W48050  10.406   4.179  25.477  0.0794 -0.1669  0.2564
39451W        W48051  20.140   3.227  25.476  0.1691  0.1820 -0.2673
39452W        W48052   0.399   3.484   3.611  0.2657  0.0299 -0.0221
39453W        W48053  21.663   5.453  28.531  0.0590 -0.3225  0.3013
39454W        W48054   2.190   3.516  22.391  0.1522  0.0311 -0.1948
39455W        W48055  23.404   5.071  32.014 -0.0171 -0.0556 -0.0859
39456W        W48056   7.999   2.751  26.950 -0.2346  0.2076 -0.1446
39457W        W48057   5.799   3.607  10.278 -0.1320 -0.1139  0.1065
39458W        W48058  18.413   2.053  22.701  0.1248  0.3919  0.0726
39459W        W48059   5.911   4.582   1.443 -0.1930 -0.0109 -0.2002
39460W        W48060  24.667   2.145  31.025 -0.0337  0.2129  0.1569
39461W        W48061   5.142   2.820   3.947 -0.1697 -0.0233  0.0172
39462W        W48062   8.821   5.029  27.446  0.1210 -0.0421  0.1426
39463W        W48063  24.273   3.697  22.643  0.1256  0.0102 -0.1411
39464W        W48064  18.033   5.525  29.265 -0.0353  0.2461  0.1873
39465W        W48065  12.197   3.726   8.707 -0.1726 -0.0347  0.1399
39466W        W48066   0.802   1.348   2.388 -0.0448 -0.0936 -0.1449
39467W        W48067  15.511   1.138  30.457 -0.3477 -0.3796  0.3793
39468W        W48068   7.268   3.515  23.421  0.1377 -0.1714 -0.3075
39469W        W48069  11.443   1.621   0.548  0.1221 -0.1774  0.0444
39470W        W48070  22.480   0.167   0.785  0.2790  0.0017 -0.2706
39471W        W48071   4.055   3.528  31.201 -0.1480  0.1410 -0.0615
39472W        W48072   2.687   0.447   7.328 -0.1251  0.2324  0.1039
39473W        W48073  24.250   6.411   9.852  0.1342  0.1088  0.2179
39474W        W48074  22.197   4.475   8.147 -0.0972  0.1123 -0.0542
39475W        W48075  16.956   3.467   7.037  0.2669 -0.1749 -0.0311
39476W        W48076  21.208   2.259  23.851 -0.4824  0.3046  0.3182
39477W        W48077  21.572   0.851  10.864 -0.4620 -0.1669  0.0511
39478W        W48078  21.162   4.325  23.653 -0.0933  0.0223 -0.2031
39479W        W48079   3.042   1.938  29.780 -0.0597  0.0667  0.1128
39480W        W48080  15.801   4.098  28.569  0.1800 -0.1279 -0.0848
39481W        W48081  19.121   3.981  33.049  0.3300  0.0752 -0.1480
39482W        W48082  17.954   5.931  29.007  0.0618 -0.0289  0.1612
39483W        W48083   4.471   3.404  10.545  0.0474 -0.1566  0.3158
39484W        W48084   8.749   6.043  25.517 -0.1227 -0.0105 -0.1198
39485W        W48085   5.333   0.066  26.386 -0.1363 -0.1191  0.0471
39486W        W48086   3.829   4.576  35.092 -0.0608 -0.0696  0.0343
39487W        W48087   3.089   1.532  26.087 -0.4369 -0.0791  0.0589
39488W        W48088   8.030   0.230  32.061  0.1845  0.0394 -0.1828
39489W        W48089  13.442   4.141  32.933 -0.0492  0.2264 -0.0105
39490W        W48090   9.785   2.680   3.870 -0.2697 -0.2802  0.0091
39491W        W48091  13.520   0.149   8.080 -0.1311  0.1245  0.0623
39492W        W48092   6.407   3.470   7.467  0.2159 -0.0777 -0.2926
39493W        W48093   6.171   1.816  20.892  0.2980  0.0194  0.0737
39494W        W48094  17.491   2.296  29.243  0.2564  0.1354 -0.0498
39495W        W48095  15.443   6.399   4.618 -0.1293 -0.1948  0.2288
39496W        W48096  16.732   3.959   3.294 -0.0627 -0.2425  0.1026
39497W        W48097  24.436   0.012  25.513  0.0355  0.0359  0.2755
39498W        W48098  14.392   0.826  26.207 -0.0115 -0.1752 -0.2886
39499W        W48099   2.269   0.750  10.979 -0.1558  0.1065 -0.0895
39500W        W48100   9.328   4.417   0.338  0.1494  0.0796 -0.0399
39501W        W48101   0.141   3.063  27.458 -0.0628 -0.0720  0.3539
39502W        W48102   7.040   3.450  33.578 -0.1472 -0.0003 -0.0717
39503W        W48103  20.289   3.669  10.527 -0.1462 -0.2948  0.0487
39504W        W48104  11.655   5.294  32.440 -0.1668  0.0394 -0.0265
39505W        W48105  19.805   0.658  28.616 -0.0729  0.0371  0.0067
39506W        W48106  13.912   0.161   6.069 -0.2041 -0.0985 -0.1413
39507W        W48107   8.680   4.095  15.375  0.1965  0.2357  0.1260
39508W        W48108   2.258   4.237  14.474  0.0143  0.0177  0.0553
39509W        W48109  23.995   1.216  21.641  0.1058  0.1039 -0.2335
39510W        W48110  20.959   0.959  22.890  0.0461  0.1477 -0.0996
39511W        W48111  19.821   6.294  22.176 -0.4432  0.2649  0.1495
39512W        W48112  19.088   5.429  33.247  0.1029  0.2493 -0.2916
39513W        W48113  22.590   6.098  10.677 -0.0772 -0.3157  0.1485
39514W        W48114  12.424   4.893  11.858  0.0272  0.0558 -0.1188
39515W        W48115  25.392   0.092  24.395  0.1519 -0.2002  0.0817
39516W        W48116   2.810   3.584   0.374 -0.2409 -0.0412  0.0235
39517W        W48117  21.967   1.397   9.537 -0.2168 -0.0170 -0.2313
39518W        W48118   3.934   5.606  25.669  0.0246  0.1259  0.4480
39519W        W48119  15.133   4.927  14.532  0.1678 -0.0682  0.2554
39520W        W48120  17.870   0.842  27.063 -0.0492 -0.0083  0.0272
39521W        W48121  13.113   4.997   4.488 -0.0967  0.1724  0.1258
39522W        W48122   3.130   4.177  30.051  0.5259  0.1774  0.0697
39523W        W48123  15.232   1.691   9.604 -0.4953  0.0932 -0.1760
39524W        W48124   0.625   1.847  30.120  0.0071 -0.1954 -0.0634
39525W        W48125  13.659   0.167  21.774  0.0294  0.1922  0.1193
39526W        W48126  15.632   5.448  12.754  0.0597  0.1862 -0.0535
39527W        W48127   0.310   5.299  31.319 -0.0537 -0.0820 -0.0765
39528W        W48128  10.879   2.341  35.459  0.0080  0.0527 -0.5324
39529W        W48129  18.873   5.860   5.682 -0.3717 -0.0269 -0.0537
39530W        W48130  19.836   1.876   5.239 -0.1534 -0.0345  0.0447
39531W        W48131   0.452   5.840  12.277  0.2425  0.0486  0.1243
39532W        W48132  11.126   6.252  23.129 -0.0101  0.1374  0.0148
39533W        W48133   9.092   4.248  15.057 -0.3448 -0.1784 -0.1418
39534W        W48134  14.910   2.486   1.223  0.2750  0.0211  0.0249
39535W        W48135  24.663   6.143  35.202 -0.2819  0.1415  0.3713
39536W        W48136  25.622   5.021   6.319 -0.0367 -0.3171 -0.0557
39537W        W48137  23.806   5.480  28.754 -0.2217 -0.0532  0.0059
39538W        W48138  24.315   0.966   8.405  0.0324 -0.2106 -0.1567
39539W        W48139   3.571   4.532  23.759  0.1497  0.1096  0.2923
39540W        W48140   7.230   4.457  13.309 -0.1739 -0.0405 -0.0837
39541W        W48141   2.721   6.604  12.987 -0.3000 -0.1620  0.0026
39542W        W48142  19.164   1.632  12.269 -0.0999 -0.1304  0.1264
39543W        W48143   4.343   2.631  33.564  0.1241  0.0113  0.0387
39544W        W48144   2.122   5.700  21.894 -0.0622  0.0995  0.1089
39545W        W48145  19.229   5.569  24.350  0.0238  0.3943 -0.5071
39546W        W48146  20.014   4.419  22.948  0.1635  0.0189 -0.0799
39547W        W48147  15.088   1.124  28.419  0.2849  0.0557  0.3496
39548W        W48148   4.417   3.348  31.510  0.1411 -0.1134 -0.0158
39549W        W48149  18.344   1.899  34.267 -0.0110 -0.1658  0.0812
39550W        W48150  11.851   2.413   8.340 -0.3454  0.1889 -0.0780
39551W        W48151  14.982   6.605  30.762  0.2414  0.0029  0.0225
39552W        W48152  14.030   2.762  31.184 -0.1040 -0.2031  0.0855
39553W        W48153   2.731   0.399  34.879  0.1469  0.1988 -0.1387
39554W        W48154  20.746   5.270  13.211  0.1379  0.0235  0.1991
39555W        W48155  12.367   2.887  23.703  0.1690  0.1371  0.2703
39556W        W48156  21.701   3.207   7.810 -0.4059 -0.0022  0.0552
39557W        W48157  15.576   5.722  35.323 -0.3042 -0.1941  0.0854
39558W        W48158  25.248   3.324   6.893  0.0447 -0.0998  0.2039
39559W        W48159  22.427   0.749   0.740  0.4046  0.0329  0.1551
39560W        W48160   1.973   6.605   1.080  0.0044  0.0609 -0.0958
39561W        W48161  11.348   4.700  21.618 -0.0737  0.0360  0.1943
39562W        W48162   2.623   1.110  20.601  0.0285  0.1193 -0.2766
39563W        W48163  10.135   5.643   4.707  0.2216  0.2840 -0.2293
39564W        W48164  13.031   5.479   7.497 -0.0576 -0.0507 -0.0978
39565W        W48165   1.434   3.464   6.557  0.1883  0.1437  0.0492
39566W        W48166  10.248   4.397  24.956  0.0556  0.1160  0.0051
39567W        W48167   4.080   0.724   3.205 -0.1768 -0.2215 -0.3417
39568W        W48168   0.965   2.375  22.936 -0.1298 -0.0885  0.0657
39569W        W48169  14.525   1.958   4.538 -0.1261 -0.1571  0.0592
39570W        W48170  17.430   5.591   3.152 -0.0767  0.3306  0.0877
39571W        W48171   2.007   2.658  21.278 -0.0476 -0.3405  0.0253
39572W        W48172   5.741   6.429  25.603  0.2411  0.0728  0.0924
39573W        W48173   0.265   1.417  34.342 -0.2463  0.2320 -0.2668
39574W        W48174  14.788   1.750  25.088  0.2302 -0.1489  0.0190
39575W        W48175  16.083   3.192  34.846  0.2572 -0.1218 -0.1723
39576W        W48176  26.140   0.410  15.329 -0.1031  0.1732  0.0375
39577W        W48177   8.937   1.442  14.564  0.0599  0.0547  0.0106
39578W        W48178  16.215   6.366   1.797 -0.3812  0.0940 -0.2191
39579W        W48179  18.711   2.172   4.262  0.3071 -0.0527 -0.1733
39580W        W48180  19.547   1.532   8.429 -0.1349 -0.1880  0.0334
39581W        W48181   1.910   4.051   4.466 -0.0486  0.3419 -0.0276
39582W        W48182  18.315   3.070   7.088  0.0049  0.2450 -0.2085
39583W        W48183  17.221   3.234  29.562 -0.2330 -0.0190  0.1557
39584W        W48184  22.602   4.877  12.574 -0.0533  0.1196  0.1995
39585W        W48185  18.967   2.058  31.677  0.0814 -0.0570  0.0136
39586W        W48186  11.291   5.089   3.645  0.1651  0.0803  0.0089
39587W        W48187  19.532   2.656  21.036  0.1025  0.0660 -0.2528
39588W        W48188   2.101   0.738  23.954 -0.1448 -0.0468  0.0161
39589W        W48189   4.751   5.958  14.286 -0.0598 -0.2699 -0.1228
39590W        W48190   0.053   0.651  29.721 -0.0611 -0.0850  0.1658
39591W        W48191  23.514   0.393   7.403  0.4917 -0.3267  0.0295
39592W        W48192   4.554   3.139   7.537  0.1201 -0.3868  0.1215
39593W        W48193  11.723   3.428   7.827  0.1308 -0.0012  0.1512
39594W        W48194  23.034   5.801  22.155 -0.0411 -0.1248  0.3235
39595W        W48195  20.736   0.763  21.664 -0.1155  0.0374  0.0760
39596W        W48196   0.071   0.872  35.564  0.2089  0.0620 -0.1331
39597W        W48197  25.894   1.532  22.234  0.1979  0.1549 -0.0331
39598W        W48198  23.788   5.243  34.013 -0.1478 -0.0552 -0.2625
39599W        W48199   3.200   2.924  12.068 -0.0894  0.1301  0.1975
39600W        W48200  14.260   3.501  30.703  0.0580  0.1248  0.0599
39601W        W48201   9.770   5.866  28.486  0.0576  0.0543 -0.1052
39602W        W48202   1.579   0.110  14.860  0.0730  0.0865  0.2327
39603W        W48203   5.862   1.196  12.219  0.0570  0.0522  0.2093
39604W        W48204   4.297   0.810  36.147  0.0351 -0.1311 -0.0491
39605W        W48205  10.212   5.480   3.003  0.0381 -0.2791 -0.4248
39606W        W48206  15.617   1.895  22.564 -0.0950 -0.2349 -0.3288
39607W        W48207   6.978   2.719   2.000  0.1656 -0.0430 -0.0245
39608W        W48208   7.038   5.670  15.092 -0.0981  0.2781 -0.1975
39609W        W48209  12.434   2.703   1.599 -0.1891 -0.0895  0.2760
39610W        W48210   8.095   3.308  29.455 -0.1305  0.2699  0.1323
39611W        W48211  16.130   1.787   8.670  0.1510  0.4489 -0.0348
39612W        W48212  14.082   0.961   9.802 -0.4189 -0.1528  0.0106
39613W        W48213  12.330   2.953  26.424 -0.1119 -0.3548  0.0910
39614W        W48214   9.430   6.475  22.889 -0.1920 -0.0009  0.0311
39615W        W48215  23.618   3.527  10.204  0.1230 -0.2017  0.2364
39616W        W48216  13.919   1.133   4.310  0.2356 -0.3799  0.0111
39617W        W48217  11.034   1.938  24.555 -0.0705 -0.0369 -0.2324
39618W        W48218  19.000   5.121  35.090 -0.0062 -0.0414  0.0930
39619W        W48219  16.960   4.669  21.696  0.1024  0.0870 -0.0625
39620W        W48220  15.778   0.465  13.352 -0.1375 -0.3783  0.0354
39621W        W48221  26.243   3.219  22.991  0.0394 -0.0632  0.0235
39622W        W48222  13.747   3.787  25.325  0.1421  0.1827 -0.0061
39623W        W48223   6.404   6.256  31.161  0.0675 -0.0534  0.1635
39624W        W48224  13.127   0.954  24.676  0.0666 -0.1227  0.0903
39625W        W48225  24.134   0.541  11.074 -0.2616 -0.2391  0.0101
39626W        W48226  17.296   6.192  35.763 -0.2492  0.0994 -0.3506
39627W        W48227  12.773   2.636   0.904 -0.1792 -0.0218 -0.1318
39628W        W48228  13.509   3.217  28.776  0.0362  0.2850  0.3548
39629W        W48229  10.158   2.697  10.998  0.1839 -0.0288 -0.0087
39630W        W48230   2.395   1.688  14.422 -0.0287  0.0180 -0.1633
39631W        W48231   6.183   6.242   9.154  0.0286  0.2527  0.0008
39632W        W48232   6.836   4.718  10.960 -0.1298 -0.1916  0.3336
39633W        W48233  18.371   4.004   9.178 -0.0667 -0.0937  0.1192
39634W        W48234   2.593   2.036   7.799  0.2193  0.1091  0.1220
39635W        W48235   9.786   0.398  24.755 -0.4096 -0.0538 -0.2425
39636W        W48236  19.488   3.622   5.172  0.0442 -0.0984 -0.2603
39637W        W48237  15.467   2.507  34.720 -0.1096  0.3479 -0.2576
39638W        W48238  12.378   5.643   6.018  0.2408  0.1595 -0.0559
39639W        W48239  22.923   0.193  25.776  0.0675 -0.0515 -0.0427
39640W        W48240  15.779   1.395  28.665  0.0154 -0.1261 -0.0299
39641W        W48241  23.558   0.274  21.385  0.2876  0.2237  0.0628
39642W        W48242  16.139   1.755  20.988  0.0898 -0.3073 -0.0863
39643W        W48243  19.309   3.143  20.883  0.1377  0.0943  0.0775
39644W        W48244   8.753   0.742  10.529  0.0445  0.0257 -0.1115
39645W        W48245  16.867   3.968  36.132 -0.1574 -0.1282 -0.3070
39646W        W48246   3.657   3.291  23.777 -0.2689 -0.0032 -0.2660
39647W        W48247  23.653   6.195  27.934 -0.0608 -0.1757  0.2966
39648W        W48248  21.990   2.615  23.507  0.0068  0.0326 -0.1262
39649W        W48249  18.787   4.394   5.181 -0.0439 -0.0213 -0.0350
39650W        W48250  20.193   0.325  12.606  0.2706 -0.1081 -0.0927
39651W        W48251   1.234   2.367  26.398 -0.1061 -0.1838 -0.2547
39652W        W48252   4.408   6.416  30.061  0.0890  0.0537  0.2868
39653W        W48253  13.088   3.065  11.565  0.0052  0.2503 -0.3289
39654W        W48254   2.857   4.846  22.486  0.1977 -0.0171  0.0163
39655W        W48255  18.893   0.261   7.827  0.0302  0.0526  0.0961
39656W        W48256   3.454   2.129  34.328  0.0734  0.0559  0.1917
39657W        W48257  10.349   5.096  34.131  0.1903  0.1791 -0.1594
39658W        W48258  19.683   0.345  29.013 -0.0271 -0.2637  0.0741
39659W        W48259   6.977   5.912  26.463 -0.0645 -0.3933 -0.0623
39660W        W48260   1.245   1.444   5.599  0.1808  0.0587  0.1388
39661W        W48261  26.334   4.694  25.303 -0.0026  0.2150  0.1707
39662W        W48262   8.010   3.140   9.374  0.2339  0.2939  0.0644
39663W        W48263  22.444   4.532   2.397  0.1780 -0.2026  0.2734
39664W        W48264   5.915   0.712  31.142 -0.0888 -0.1468  0.0385
39665W        W48265   6.240   2.289  36.059 -0.0882  0.3668  0.2209
39666W        W48266   0.522   5.126   4.473  0.0952  0.0907  0.0163
39667W        W48267  21.039   0.803   5.987 -0.4737  0.0380  0.2777
39668W        W48268  24.626   4.536   4.916  0.1194 -0.4344 -0.0753
39669W        W48269   5.016   0.888  27.241  0.0855 -0.0224  0.4215
39670W        W48270  21.747   2.253  33.128 -0.0237  0.2104  0.1189
39671W        W48271   0.652   3.448   0.737 -0.1036 -0.1112  0.1265
39672W        W48272  13.977   3.864  34.321  0.4474 -0.0079  0.1852
39673W        W48273  23.096   5.652  21.168 -0.2457  0.2224 -0.0489
39674W        W48274  14.843   3.678   0.861 -0.3418 -0.0351 -0.0593
39675W        W48275  16.286   6.550   8.428 -0.1887 -0.0956  0.2229
39676W        W48276  11.396   4.203  15.466 -0.1597 -0.2455 -0.1752
39677W        W48277  24.087   2.368  29.634  0.0535  0.1637  0.1032
39678W        W48278  15.246   3.184  22.183 -0.0064  0.2321 -0.0837
39679W        W48279  15.967   2.568   5.041  0.3235  0.0929  0.1266
39680W        W48280   6.346   4.436  14.671 -0.1468 -0.0033  0.0035
39681W        W48281   5.756   2.785  13.647 -0.1356 -0.1561  0.0912
39682W        W48282   8.627   3.280  10.587 -0.0444 -0.0462  0.0173
39683W        W48283   5.741   6.032  15.161 -0.0761 -0.3170  0.2714
39684W        W48284   5.387   4.585  10.940 -0.2714  0.1335  0.2780
39685W        W48285   3.353   4.934  23.176  0.0237  0.0471 -0.1429
39686W        W48286  17.992   1.085   8.896  0.0100  0.4045  0.0317
39687W        W48287  22.825   2.138  30.507  0.1985  0.0422  0.1805
39688W        W48288  20.775   4.258  26.668  0.2001  0.3437 -0.0811
39689W        W48289  26.011   3.278  14.807  0.2079 -0.0285 -0.1346
39690W        W48290  15.174   4.060  21.092 -0.0523 -0.1454 -0.0095
39691W        W48291  10.536   4.288  15.135  0.1194 -0.0495  0.0980
39692W        W48292   0.316   0.907  20.994 -0.2534 -0.1695  0.2099
39693W        W48293  26.040   4.387  35.613  0.4092  0.0982 -0.0817
39694W        W48294   4.276   0.383   0.261 -0.1066 -0.3813 -0.0742
39695W        W48295   9.055   4.499  24.415 -0.1787  0.3450 -0.0095
39696W        W48296  21.059   6.429   0.800  0.2353  0.1548 -0.1037
39697W        W48297  23.828   3.375  27.932  0.1012 -0.1061 -0.0499
39698W        W48298  18.840   3.594   9.087 -0.1175  0.1052  0.0682
39699W        W48299  25.575   0.955  31.817 -0.0551  0.3681 -0.2548
39700W        W48300  18.758   2.424  25.584  0.0239  0.1382  0.0135
39701W        W48301   7.867   1.295  27.894 -0.1802  0.1741 -0.2433
39702W        W48302  12.020   6.515  10.857 -0.1799  0.0775  0.0463
39703W        W48303  12.637   6.470  35.984  0.0977 -0.1377  0.0181
39704W        W48304  24.037   4.221  32.402  0.0616  0.0634  0.2677
39705W        W48305   1.954   5.954   6.760  0.1193 -0.0724  0.1728
39706W        W48306   6.035   5.544   9.893  0.1565 -0.0137 -0.0708
39707W        W48307   0.176   3.982  34.290 -0.0344 -0.1297  0.0661
39708W        W48308  12.125   0.951   8.962  0.1019 -0.1454  0.3289
39709W        W48309  22.202   2.711   2.198  0.1781 -0.0733 -0.2415
39710W        W48310  24.200   0.884  35.201  0.0036 -0.1755 -0.2508
39711W        W48311  16.144   1.489  12.609  0.0761 -0.0084 -0.1212
39712W        W48312   5.787   4.094  25.859 -0.1291  0.0007  0.2429
39713W        W48313   7.962   2.497  27.583 -0.0555 -0.0869 -0.1603
39714W        W48314  25.239   1.411  14.187  0.0490 -0.1905 -0.3725
39715W        W48315  22.410   1.331  24.364  0.0452  0.1750 -0.4395
39716W        W48316  18.262   5.391  23.868 -0.0680 -0.1307  0.0052
39717W        W48317  18.999   6.118  34.171  0.2271 -0.1375  0.0867
39718W        W48318   2.037   5.217  22.706  0.0139  0.0442  0.4495
39719W        W48319  17.836   4.046   4.932 -0.0559  0.0524 -0.0035
39720W        W48320  24.503   2.573  27.361 -0.2562 -0.2133  0.2738
39721W        W48321   3.028   4.304   7.450  0.0611  0.0281  0.3110
39722W        W48322  20.670   1.740  28.213 -0.0419  0.0569 -0.0601
39723W        W48323  20.892   0.052   8.636 -0.0387 -0.1482  0.1519
39724W        W48324  21.088   1.170  28.331  0.0527 -0.1429 -0.3921
39725W        W48325   1.377   6.100  31.427  0.1190 -0.0507 -0.2829
39726W        W48326  16.391   5.635  31.318  0.1855  0.0843 -0.0046
39727W        W48327   9.023   0.302   2.090  0.0286  0.2432 -0.1243
39728W        W48328   7.154   5.095  10.994 -0.0704  0.0005 -0.0859
39729W        W48329   3.181   5.774  32.029 -0.0914 -0.1735 -0.0081
39730W        W48330  10.594   4.196  21.146  0.0756  0.2221 -0.1394
39731W        W48331  21.375   1.347   2.086  0.1502  0.4506  0.3077
39732W        W48332  16.419   3.834  11.634 -0.3836 -0.0877  0.1055
39733W        W48333   4.898   4.353  11.059  0.3680  0.0696  0.1454
39734W        W48334  11.229   5.719  21.282  0.1829 -0.2789  0.0585
39735W        W48335   8.781   4.289  23.759 -0.0258  0.0906  0.0927
39736W        W48336  25.660   6.455  33.703  0.0711 -0.2545  0.0976
39737W        W48337  24.528   5.448   5.207  0.0425 -0.2764 -0.1651
39738W        W48338   0.196   0.283  34.381  0.0296 -0.1374  0.1978
39739W        W48339  18.225   6.045  34.268  0.0608 -0.0278  0.0155
39740W        W48340   9.999   2.855  12.845  0.2682 -0.0030  0.2623
39741W        W48341  17.764   0.549   9.164  0.2132 -0.0041 -0.0146
39742W        W48342   6.995   0.686  23.906 -0.0979  0.2717 -0.1027
39743W        W48343   9.847   0.791  27.894  0.1136  0.0348  0.1080
39744W        W48344  14.604   0.035  21.664 -0.1142  0.0022  0.0733
39745W        W48345  10.609   4.214  14.591  0.1416 -0.2997  0.5606
39746W        W48346   4.077   4.390  26.132 -0.2911 -0.0456 -0.1130
39747W        W48347  22.142   3.216   2.160 -0.0663 -0.0101 -0.2323
39748W        W48348  21.113   5.810  35.482  0.0622 -0.3608 -0.0028
39749W        W48349  10.479   5.879   8.601  0.0323  0.2224 -0.0001
39750W        W48350  17.116   1.631  13.313  0.2342  0.0864  0.0463
39751W        W48351  25.777   6.263  34.650  0.0912 -0.1550  0.0572
39752W        W48352   0.290   4.953  26.665 -0.2022  0.2160  0.0622
39753W        W48353  20.672   4.745  30.261 -0.1569  0.3431  0.2740
39754W        W48354  11.534   2.315  14.555 -0.2174 -0.2035  0.0929
39755W        W48355   0.999   1.627   6.123 -0.0313  0.0004  0.4081
39756W        W48356   1.548   4.327  12.275  0.0226  0.0865  0.0503
39757W        W48357   5.244   6.066  14.236 -0.2913 -0.0763 -0.1583
39758W        W48358   5.415   4.796   5.747  0.0705  0.3282  0.1398
39759W        W48359   1.238   5.559  27.617 -0.0076  0.0294  0.0786
39760W        W48360   7.180   4.686  32.282 -0.1885  0.0613 -0.1068
39761W        W48361  18.117   0.670  35.867 -0.3309 -0.0579 -0.0544
39762W        W48362  25.611   0.711   2.941 -0.1847  0.3237 -0.1211
39763W        W48363  15.024   5.045  11.633  0.0691 -0.0700 -0.1148
39764W        W48364   3.566   2.464  24.696  0.0547 -0.1561 -0.1460
39765W        W48365   0.541   0.536  25.076 -0.0276 -0.0547 -0.0055
39766W        W48366  23.901   0.167  29.318  0.0355  0.1943 -0.0185
39767W        W48367  19.276   5.345  26.888 -0.1126 -0.1301  0.1949
39768W        W48368  16.998   2.325  35.102 -0.1012 -0.2124 -0.0974
39769W        W48369  21.749   4.563  11.583 -0.0768 -0.3572 -0.0241
39770W        W48370  15.191   1.422  13.520 -0.0019  0.2895  0.0699
39771W        W48371   3.488   0.855  13.600  0.0712  0.0798 -0.2281
39772W        W48372  13.162   6.555  33.522 -0.1728 -0.0369 -0.0251
39773W        W48373  19.262   4.345   4.858  0.0722  0.0805  0.3610
39774W        W48374  23.417   3.402   6.407  0.4002 -0.0815 -0.1142
39775W        W48375  10.337   4.904  11.346  0.0250  0.1293  0.1451
39776W        W48376   3.882   1.232   6.610 -0.0200 -0.0380  0.4207
39777W        W48377   3.837   4.819  14.072  0.2631 -0.0378 -0.0498
39778W        W48378   1.357   1.024  28.113  0.1098  0.0629  0.1056
39779W        W48379   3.327   1.296   7.970  0.0805  0.3676 -0.2631
39780W        W48380   1.393   0.825   1.391 -0.2233 -0.0787 -0.0415
39781W        W48381   0.388   1.088  30.999 -0.3855  0.1262 -0.0934
39782W        W48382  12.976   6.203  26.209  0.0103 -0.1125  0.0680
39783W        W48383  20.532   2.349   6.703 -0.0815 -0.0289  0.3703
39784W        W48384  16.519   1.762  32.396  0.0037 -0.0576  0.2066
39785W        W48385  13.250   4.637   4.101 -0.2532  0.1566  0.0689
39786W        W48386   7.938   5.971  13.189 -0.1534 -0.0814 -0.2213
39787W        W48387   5.357   3.402  30.576 -0.0441 -0.1637 -0.2094
39788W        W48388   1.284   0.265  24.342 -0.1272  0.1451 -0.1423
39789W        W48389  23.221   3.206  10.309  0.0336  0.0812  0.0501
39790W        W48390  18.978   3.088  12.121  0.1069  0.0621  0.0106
39791W        W48391  26.037   0.805   4.088  0.0171  0.0756 -0.1560
39792W        W48392   7.963   3.261  35.088  0.0907  0.3428 -0.0493
39793W        W48393  12.741   0.352   0.149  0.0113  0.0854  0.0893
39794W        W48394   4.005   0.513  35.337 -0.1530  0.1564  0.2368
39795W        W48395   1.823   6.122  22.833  0.1355 -0.2618  0.1309
39796W        W48396   6.086   1.899   6.691  0.0193 -0.1748 -0.0868
39797W        W48397  11.516   6.121  23.536 -0.2038 -0.0555 -0.2571
39798W        W48398   8.795   5.156  31.599  0.1653  0.1008 -0.4348
39799W        W48399  12.228   1.656  13.620  0.0854 -0.0369 -0.2731
39800W        W48400  17.368   0.532  26.552  0.2065  0.2104 -0.0181
39801W        W48401  25.308   4.224  26.404  0.1779  0.0871 -0.0384
39802W        W48402  24.306   4.893   3.723  0.0785 -0.1754  0.0655
39803W        W48403  10.668   1.661  10.287  0.1953 -0.1532 -0.1080
39804W        W48404   1.447   2.585   8.615 -0.0313  0.0240 -0.1279
39805W        W48405  12.817   4.329  29.667  0.1025 -0.1556  0.2008
39806W        W48406  14.047   3.676  15.751  0.0943 -0.0033  0.0998
39807W        W48407  19.567   3.001  22.895 -0.0573  0.1009 -0.0355
39808W        W48408  10.198   3.076  12.445 -0.3664  0.0582 -0.0295
39809W        W48409  10.590   6.134  23.097  0.2971 -0.0728  0.0051
39810W        W48410  14.448   1.205  30.937 -0.1097 -0.0919 -0.2146
39811W        W48411  24.425   1.450  13.715  0.0002 -0.2137  0.2334
39812W        W48412   6.420   4.189  35.807 -0.1151  0.0815 -0.2675
39813W        W48413  21.860   5.825  23.271 -0.0476 -0.2374 -0.0426
39814W        W48414  16.338   1.601  34.888  0.1086  0.1921  0.0969
39815W        W48415  26.154   3.819  29.024 -0.4139  0.2382  0.2386
39816W        W48416  21.446   5.639  22.898  0.1952  0.0104  0.0469
39817W        W48417   5.545   4.272  29.784  0.1336  0.0328 -0.0031
39818W        W48418   2.225   5.593  10.385 -0.2920  0.3642  0.0845
39819W        W48419   7.397   3.599  28.290  0.1813  0.1123 -0.0317
39820W        W48420  14.875   5.045  13.405 -0.0734 -0.2164  0.3812
39821W        W48421   8.587   5.952   5.092 -0.3816  0.3620  0.1205
39822W        W48422  14.179   3.380  10.013  0.0515  0.0884  0.2328
39823W        W48423   8.168   4.208  21.178  0.0256 -0.0194 -0.1837
39824W        W48424   3.783   0.839   9.009 -0.1974  0.2117 -0.2387
39825W        W48425  21.159   1.426   3.979 -0.0376  0.1677  0.0477
39826W        W48426   7.343   4.233  10.831 -0.1585 -0.0893  0.1859
39827W        W48427   9.828   3.800  20.992 -0.0174 -0.2270 -0.0665
39828W        W48428  24.344   2.236   8.070  0.0066  0.1887  0.2637
39829W        W48429   9.237   4.992  23.566 -0.4085 -0.0571  0.1289
39830W        W48430   6.542   3.826  32.886 -0.1130  0.0825 -0.1458
39831W        W48431   3.276   3.836  25.660 -0.0438 -0.1583 -0.0808
39832W        W48432   0.440   6.143  27.515 -0.0127 -0.3723 -0.1153
39833W        W48433  11.576   5.547   4.906 -0.3294 -0.2481 -0.1113
39834W        W48434  14.444   0.338  26.137  0.0155  0.0909  0.0143
39835W        W48435   3.166   5.289  24.070 -0.1415  0.2128 -0.3928
39836W        W48436  13.633   4.506  29.356 -0.0163 -0.2640 -0.2084
39837W        W48437   5.457   3.553  21.874  0.2956 -0.0214  0.2108
39838W        W48438  23.444   2.615   1.249  0.0722  0.3362 -0.1492
39839W        W48439   5.724   2.817  25.145 -0.3375  0.0256 -0.4974
39840W        W48440   3.083   6.474  26.714 -0.0064 -0.1460 -0.2012
39841W        W48441  13.057   0.681   4.351 -0.2089  0.2285  0.1159
39842W        W48442  15.692   5.050   1.710 -0.1259 -0.0317  0.3737
39843W        W48443  20.230   4.692  23.302  0.2667 -0.1553 -0.1428
39844W        W48444   4.425   5.608  26.837  0.0932  0.0233  0.0997
39845W        W48445  25.636   2.264  25.025  0.0601  0.2830 -0.1524
39846W        W48446  18.156   6.482  10.992  0.2060  0.1303 -0.1439
39847W        W48447   3.224   4.624  21.751 -0.0500  0.2120  0.1526
39848W        W48448  25.158   6.376   2.202 -0.0640  0.3852 -0.0273
39849W        W48449   1.975   3.156  13.130 -0.1228 -0.2556 -0.0156
39850W        W48450   4.323   0.892  22.317  0.0956  0.0569  0.0686
39851W        W48451  25.506   6.129  31.549  0.2181 -0.2828 -0.0779
39852W        W48452  17.975   2.204  22.906 -0.0492  0.3694  0.0627
39853W        W48453  21.539   2.123   3.308 -0.0745 -0.2376 -0.0223
39854W        W48454  11.540   2.032  25.961  0.1102 -0.1211 -0.0553
39855W        W48455   5.618   3.251   3.524  0.0768  0.1663  0.0643
39856W        W48456   6.633   4.282  35.385  0.0439 -0.4550 -0.0518
39857W        W48457   4.725   1.780  31.148 -0.0422  0.0908  0.1463
39858W        W48458  17.056   3.975  27.247 -0.0226  0.2548 -0.0576
39859W        W48459   7.709   2.226  34.936 -0.1599 -0.1658 -0.1743
39860W        W48460  14.803   4.033  21.537  0.1597 -0.1101 -0.0001
39861W        W48461   7.000   5.599   8.900  0.2754  0.0961  0.2834
39862W        W48462  14.779   3.498  33.343  0.4634  0.1181 -0.1804
39863W        W48463  16.650   6.014   4.716  0.1450  0.2137 -0.0921
39864W        W48464  22.935   0.786  10.525  0.3223 -0.0943  0.0623
39865W        W48465   0.348   3.928  22.199 -0.2899 -0.1706 -0.0213
39866W        W48466  17.264   2.777  22.883 -0.0263  0.0145  0.4879
39867W        W48467  20.272   6.178   4.514  0.1848  0.1484  0.0726
39868W        W48468  11.683   2.266  34.992 -0.1555  0.1350  0.0509
39869W        W48469  23.018   1.310  26.599 -0.1078  0.0135  0.0108
39870W        W48470  23.393   0.670  22.823  0.0643 -0.1576 -0.0471
39871W        W48471   5.478   5.280  12.254 -0.0994  0.0002  0.2606
39872W        W48472   6.670   4.081  30.215 -0.3059 -0.1889 -0.3984
39873W        W48473  19.544   5.121  35.995 -0.1042  0.3349 -0.1696
39874W        W48474  10.497   4.403  11.326 -0.2304  0.1035 -0.1292
39875W        W48475  11.140   0.878  26.008 -0.0287 -0.3063  0.0923
39876W        W48476   8.632   5.010   5.155 -0.0214  0.0388  0.4386
39877W        W48477   5.158   4.287  24.011 -0.0349  0.2547  0.0561
39878W        W48478  20.922   6.153   5.232 -0.1438 -0.0393  0.2608
39879W        W48479   0.926   2.634  25.272 -0.0525 -0.1832  0.0958
39880W        W48480  17.702   5.065  35.690  0.1514  0.1261 -0.1115
39881W        W48481  23.916   0.513   6.151 -0.1642  0.3727  0.1467
39882W        W48482  25.079   1.082   4.078  0.0013  0.0561 -0.0162
39883W        W48483  23.559   4.082   4.752 -0.1247  0.0806 -0.2833
39884W        W48484   9.961   0.540  11.629 -0.0780 -0.3290 -0.0914
39885W        W48485   4.405   1.413   7.108 -0.2050  0.2462 -0.3157
39886W        W48486  17.569   2.348  26.748 -0.1304  0.1216  0.3963
39887W        W48487  12.002   4.641  23.384  0.0507  0.1546  0.0389
39888W        W48488   1.629   3.022  12.108 -0.0015 -0.1995  0.1105
39889W        W48489  26.260   2.600  21.129 -0.0896  0.1783  0.1312
39890W        W48490  25.880   5.131  25.247 -0.0490  0.1220 -0.3143
39891W        W48491  16.147   6.517   5.672  0.3224  0.0075 -0.2192
39892W        W48492   6.157   4.080  24.411 -0.0428  0.0285 -0.2750
39893W        W48493   8.477   4.763  31.018 -0.1719  0.0444  0.0569
39894W        W48494  20.529   6.573  14.625  0.3120  0.1251  0.0728
39895W        W48495  17.322   0.707   8.212  0.0402  0.0990  0.1107
39896W        W48496   3.703   2.257   9.141  0.0781  0.0455  0.0688
39897W        W48497  16.965   5.960  23.441  0.2087 -0.1253  0.1862
39898W        W48498  24.138   6.441  21.093  0.3402  0.2554 -0.1959
39899W        W48499  26.160   5.980  25.280  0.1273 -0.1273 -0.3160
39900W        W48500   0.022   6.085   0.414 -0.0805  0.3516 -0.0050
39901W        W48501  24.825   4.943   6.472 -0.0943 -0.0960  0.3884
39902W        W48502  23.972   4.658   8.016  0.2003 -0.0134  0.0711
39903W        W48503  19.624   0.547   5.500  0.1013  0.0716 -0.1289
39904W        W48504  10.620   4.551  30.836 -0.3480 -0.2238 -0.0990
39905W        W48505  11.640   1.229   9.872  0.1146  0.0434 -0.0026
39906W        W48506   1.575   6.502   1.549 -0.0718  0.0639 -0.0884
39907W        W48507  21.179   3.208   1.506  0.1751 -0.0046 -0.1731
39908W        W48508   7.058   4.013   7.007  0.1221 -0.2195 -0.1604
39909W        W48509  25.759   3.911  24.256  0.0868 -0.0566 -0.0014
39910W        W48510  18.055   4.681  29.210  0.2350 -0.1034  0.1709
39911W        W48511  17.414   0.572   3.771  0.0362  0.2288 -0.2270
39912W        W48512  23.983   0.488   0.367 -0.2223  0.4806  0.0279
39913W        W48513  12.427   2.828  11.265  0.0911 -0.0431  0.2126
39914W        W48514  20.939   6.591  36.153  0.1268 -0.2604 -0.1133
39915W        W48515  24.518   1.633  15.449 -0.0531 -0.1196 -0.0220
39916W        W48516  23.021   1.251  28.074 -0.0585  0.0618 -0.1017
39917W        W48517   9.576   4.199   4.128  0.0747 -0.0556 -0.2333
39918W        W48518  26.416   1.318   5.149  0.2298 -0.3571  0.2222
39919W        W48519  21.620   0.176   9.183 -0.2386 -0.2535  0.4230
39920W        W48520  19.875   0.293   7.922  0.1229 -0.0119 -0.0742
39921W        W48521  13.166   5.503  10.066  0.0547  0.1269 -0.0194
39922W        W48522  18.971   3.097   4.262 -0.0758  0.2277 -0.0728
39923W        W48523  22.892   1.029  11.930 -0.4131 -0.1299 -0.0996
39924W        W48524  11.259   1.092  29.203  0.3217  0.0470  0.1442
39925W        W48525  19.795   1.149  12.315  0.1183 -0.0743  0.0436
39926W        W48526   4.402   4.597   5.512 -0.0304 -0.1309 -0.2669
39927W        W48527  10.834   0.239  22.329 -0.0694 -0.1485 -0.0806
39928W        W48528  21.549   5.374   5.709 -0.0606 -0.1447  0.1267
39929W        W48529  17.449   1.957  13.084 -0.1926 -0.0665  0.0262
39930W        W48530  22.398   2.358  24.696 -0.1413  0.0939 -0.2446
39931W        W48531  16.028   3.102  21.927 -0.1541  0.0089  0.0341
39932W        W48532   6.429   2.059  30.866 -0.0618  0.1781 -0.1223
39933W        W48533  23.812   3.431  10.661 -0.3039 -0.0149 -0.2682
39934W        W48534   0.068   1.333  25.141  0.0437  0.2299 -0.1082
39935W        W48535  12.047   4.565   6.722  0.0546 -0.0141  0.2092
39936W        W48536   8.661   6.377   2.903  0.3634 -0.0648  0.4221
39937W        W48537   2.533   6.343  20.242  0.0123  0.0708  0.0125
39938W        W48538  24.398   3.436  31.959 -0.0237  0.0597  0.1230
39939W        W48539  15.234   0.665  36.124 -0.1995 -0.0199  0.1103
39940W        W48540   3.591   1.404  22.434 -0.1557  0.0606  0.3243
39941W        W48541   9.432   1.166   5.634  0.1394  0.3169  0.0984
39942W        W48542  20.679   6.091  12.276  0.2150 -0.0127 -0.2173
39943W        W48543   8.890   3.709  12.811  0.3023  0.0701  0.3493
39944W        W48544   9.173   1.061  11.893  0.4300 -0.1672 -0.2074
39945W        W48545   4.166   0.346   5.408 -0.1689  0.0055  0.3506
39946W        W48546   7.895   4.164   2.820 -0.1349 -0.1163 -0.1481
39947W        W48547  10.321   2.488  14.608  0.4866 -0.2744  0.0356
39948W        W48548  11.747   6.129   1.359 -0.2404 -0.1299 -0.0217
39949W        W48549   2.607   4.344  25.163 -0.1230 -0.4794  0.1961
39950W        W48550  19.589   3.096  27.676  0.2491  0.2307 -0.0273
39951W        W48551   5.018   1.585  11.785  0.1253  0.3452  0.0443
39952W        W48552   6.519   1.406  35.479  0.2676  0.1300 -0.3881
39953W        W48553   3.516   4.416   7.672 -0.1760  0.0321 -0.1909
39954W        W48554  13.872   2.668   4.270  0.2565  0.0637 -0.0150
39955W        W48555  12.184   2.566  34.845  0.0544  0.1974 -0.2842
39956W        W48556   1.730   3.336  22.475 -0.3410 -0.1623 -0.1312
39957W        W48557  20.719   3.337  27.145 -0.0920 -0.2260 -0.3252
39958W        W48558   1.537   4.820  11.533 -0.1127  0.1052 -0.1625
39959W        W48559   1.196   6.601  22.276 -0.1286 -0.1250 -0.0413
39960W        W48560  12.222   4.715  10.372  0.4343  0.0229 -0.1422
39961W        W48561   6.709   5.136   5.011  0.2514 -0.0143  0.2386
39962W        W48562  16.087   5.384   0.821 -0.2254  0.0024  0.3729
39963W        W48563  10.236   5.335  13.959 -0.3813 -0.1904  0.2163
39964W        W48564  20.280   5.877  25.934 -0.1737  0.3719  0.2213
39965W        W48565   8.515   1.552   4.071 -0.0927  0.1112 -0.1074
39966W        W48566   6.626   6.125  22.582 -0.3533  0.1765 -0.2507
39967W        W48567   3.296   6.166  34.679 -0.0296  0.2931  0.1573
39968W        W48568   0.708   1.121  13.308  0.2292 -0.0889  0.1394
39969W        W48569  11.715   2.741   6.355  0.1864 -0.4157 -0.0007
39970W        W48570  17.925   3.184  26.484  0.1769  0.0387  0.0484
39971W        W48571  25.770   1.025  31.212 -0.1087 -0.1301  0.1378
39972W        W48572  17.959   1.466  22.222  0.0410  0.1596 -0.0772
39973W        W48573   9.920   5.003   3.145 -0.0551  0.0432  0.1087
39974W        W48574  22.811   4.940  34.648  0.0690  0.2432  0.1182
39975W        W48575  15.590   1.357   6.087 -0.2083 -0.4650  0.1378
39976W        W48576  21.897   4.005  31.630  0.0218 -0.0238  0.0238
39977W        W48577  18.888   2.077  32.970 -0.0841 -0.0250 -0.2021
39978W        W48578  21.864   4.574  24.160  0.0483 -0.2203  0.0496
39979W        W48579   9.121   3.351  13.637  0.0383  0.1884  0.0102
39980W        W48580  16.768   3.575  27.120 -0.2932  0.0848  0.1977
39981W        W48581   4.187   1.098   9.819 -0.4603 -0.2628 -0.0239
39982W        W48582   5.210   5.463  13.054  0.2335 -0.1567  0.0189
39983W        W48583  17.746   4.722   6.745  0.0086  0.0318 -0.1527
39984W        W48584  12.269   0.027   7.053  0.2118 -0.1454 -0.1662
39985W        W48585  10.986   2.466   4.182  0.1603  0.2830  0.1318
39986W        W48586  17.227   1.650  23.394 -0.2731  0.0399  0.2222
39987W        W48587  24.087   0.650  22.341  0.0164  0.0706  0.0315
39988W        W48588  24.140   5.463   0.773 -0.0061 -0.0158 -0.0992
39989W        W48589   5.115   1.493  28.605  0.1351  0.2689  0.4528
39990W        W48590  21.401   4.680  24.839  0.1887 -0.1186 -0.0689
39991W        W48591  19.819   0.654  25.068 -0.1469 -0.1512  0.1806
39992W        W48592  22.561   4.648   1.172  0.1757  0.0623  0.0507
39993W        W48593   5.343   1.175  33.126 -0.0280 -0.2202 -0.2557
39994W        W48594  17.452   4.123  35.899  0.1394  0.1003 -0.1875
39995W        W48595   3.231   1.491  21.472 -0.2586 -0.1357  0.0370
39996W        W48596  25.317   5.467  13.738 -0.4509 -0.2381  0.0301
39997W        W48597   6.238   2.844   9.112  0.1785 -0.1706 -0.1619
39998W        W48598  12.314   3.874  12.868 -0.1008  0.0570 -0.0712
39999W        W48599  14.332   3.270  33.468  0.0678  0.2098  0.0542
40000W        W48600  24.056   0.084   9.449 -0.0340 -0.2546  0.1166
40001W        W48601   2.858   1.979   1.879 -0.1398 -0.2015  0.2024
40002W        W48602  24.426   4.367   4.474  0.1641  0.2061 -0.2831
40003W        W48603  16.834   4.994  21.996  0.0946  0.0097  0.0135
40004W        W48604  13.838   5.359   9.200 -0.1343  0.2891 -0.1647
40005W        W48605  10.298   6.216  13.546  0.2568  0.0980 -0.1300
40006W        W48606   9.860   3.438   1.123  0.1265 -0.1824 -0.1804
40007W        W48607  15.297   2.941   2.093  0.1258  0.0366 -0.2336
40008W        W48608  18.206   4.010  10.513 -0.0353  0.0864  0.0619
40009W        W48609  18.579   2.437  31.607 -0.1793  0.0496  0.1580
40010W        W48610  20.841   0.577  25.185  0.3771 -0.0483  0.2572
40011W        W48611  25.383   1.868  23.169  0.4430  0.1277  0.0502
40012W        W48612  21.853   5.472  11.499 -0.3218  0.1324  0.0338
40013W        W48613  26.025   0.903   5.084 -0.0316 -0.3125  0.0559
40014W        W48614   5.344   4.820  13.637 -0.1280  0.2513 -0.1127
40015W        W48615  22.805   3.904  12.833  0.1706  0.1172 -0.0618
40016W        W48616   3.893   0.556  12.210 -0.2117  0.3187  0.0870
40017W        W48617  19.779   0.481  13.837 -0.0585  0.0119 -0.1816
40018W        W48618  11.367   1.208  27.748  0.0867  0.1075  0.2488
40019W        W48619  15.701   1.591  30.085  0.2556  0.0463  0.1291
40020W        W48620  22.830   3.637   5.097  0.0035  0.1437 -0.0674
40021W        W48621  17.192   1.219  35.992 -0.1144  0.2813 -0.2314
40022W        W48622  19.005   5.406  29.676  0.0261  0.1292 -0.4350
40023W        W48623  17.777   4.284  10.257  0.1460  0.2499  0.0619
40024W        W48624  10.930   0.443  33.835 -0.0149 -0.1457  0.1053
40025W        W48625  13.167   3.026  14.453 -0.3413 -0.3116 -0.1352
40026W        W48626   5.799   6.607  13.713 -0.0895 -0.2457 -0.0413
40027W        W48627  16.458   2.881   0.665  0.4320  0.0526 -0.1537
40028W        W48628   2.882   3.183  24.446  0.0970  0.1924 -0.2523
40029W        W48629   5.672   6.421   6.917  0.1214  0.1163  0.1730
40030W        W48630  26.023   5.395  10.577  0.0972  0.1813  0.1007
40031W        W48631  20.449   1.635  34.784 -0.3994  0.0738 -0.1136
40032W        W48632  10.870   6.593  12.891  0.2985 -0.2352 -0.2068
40033W        W48633   3.880   0.364  20.927 -0.0471  0.0589  0.0775
40034W        W48634   0.569   5.615   9.095  0.2376  0.0873  0.2546
40035W        W48635   8.070   0.016   2.684 -0.1181 -0.1121 -0.1386
40036W        W48636   1.498   0.873   3.352 -0.3367  0.0312 -0.1193
40037W        W48637  14.884   4.722  31.476  0.3482 -0.0800 -0.0483
40038W        W48638  15.389   4.416  34.552  0.0164  0.1335 -0.1608
40039W        W48639   5.372   4.874  15.221 -0.0151 -0.2309  0.1431
40040W        W48640   1.883   0.890  25.311  0.1996  0.0788 -0.1576
40041W        W48641   5.332   2.863  11.818 -0.2725 -0.0751 -0.0783
40042W        W48642  24.093   3.692  12.884 -0.0600  0.0938 -0.0743
40043W        W48643  14.085   2.245  12.527 -0.0941 -0.0577  0.1685
40044W        W48644  23.015   0.587   2.107 -0.2906 -0.1097 -0.1828
40045W        W48645  26.080   3.224   5.458  0.2737 -0.2865  0.1665
40046W        W48646   8.047   2.918  12.116 -0.0457  0.1634  0.1884
40047W        W48647  18.950   1.739  30.778 -0.1800  0.0804  0.2744
40048W        W48648  19.611   0.121  10.048 -0.0606  0.1607  0.0643
40049W        W48649  17.386   5.245  32.587  0.2725  0.1935  0.0894
40050W        W48650  15.238   1.570  25.613 -0.1707 -0.0279 -0.2397
40051W        W48651   0.637   2.024  35.976  0.3472  0.0435 -0.0976
40052W        W48652  16.293   4.060  28.384 -0.1246  0.1107  0.1142
40053W        W48653   5.381   0.522  34.177  0.0851  0.1052  0.0903
40054W        W48654   8.531   0.388  33.794  0.2344 -0.2251  0.0890
40055W        W48655  10.875   2.358  26.409  0.1210  0.1320 -0.1335
40056W        W48656  12.089   4.109   7.021  0.2143  0.0115  0.0801
40057W        W48657   1.361   5.344   2.091 -0.1296  0.0665  0.3260
40058W        W48658  17.907   1.872   0.723 -0.1887  0.0573  0.0887
40059W        W48659  15.779   1.503   8.947  0.0982 -0.1851  0.0003
40060W        W48660  21.488   1.925   7.102 -0.2937  0.0234  0.1350
40061W        W48661  11.078   4.725  30.960 -0.3492 -0.2602 -0.2012
40062W        W48662  21.626   6.379  10.982  0.0190  0.4522 -0.2888
40063W        W48663  15.858   0.600  10.886  0.3096 -0.4356 -0.0761
40064W        W48664  25.865   4.336  24.540  0.0291 -0.0266  0.3513
40065W        W48665  25.342   3.432  34.521 -0.1093  0.0408  0.1644
40066W        W48666   0.754   2.599  13.067 -0.0543 -0.0364 -0.1088
40067W        W48667  14.196   1.916  13.759 -0.3079 -0.0367  0.0176
40068W        W48668   2.277   0.179   9.764  0.0272 -0.1443 -0.0856
40069W        W48669  20.569   0.947   9.291 -0.6468 -0.1490  0.3432
40070W        W48670   3.706   4.451  21.131  0.0434 -0.1446 -0.1471
40071W        W48671   1.275   2.141  28.202 -0.0887  0.1797 -0.3034
40072W        W48672  12.184   5.351  35.792  0.0439 -0.1005  0.1588
40073W        W48673  24.695   2.770  29.197  0.1472 -0.1569  0.2173
40074W        W48674   7.790   5.237  30.838  0.1771  0.2870 -0.2478
40075W        W48675   0.474   5.068  30.029 -0.0177  0.0838  0.3493
40076W        W48676  18.398   1.416  31.752  0.2430 -0.0211 -0.3122
40077W        W48677  17.785   5.343  26.032  0.0520  0.1211  0.1633
40078W        W48678  24.245   4.910  33.276 -0.0597  0.2010 -0.0177
40079W        W48679  26.215   2.030  10.053  0.2302  0.0856  0.1424
40080W        W48680   5.850   2.341  32.126 -0.2467  0.1647  0.4203
40081W        W48681   4.095   2.638  22.047 -0.1170 -0.0914  0.1528
40082W        W48682   9.844   1.510  28.462 -0.0710  0.2278  0.3423
40083W        W48683  24.786   2.811   4.852 -0.2939  0.4207 -0.1063
40084W        W48684  17.366   4.473   6.272  0.3931 -0.3339 -0.1251
40085W        W48685  23.569   4.928  15.227  0.3200  0.0158  0.1647
40086W        W48686   7.559   4.939   8.356  0.2390  0.0616  0.0428
40087W        W48687   7.828   5.403  35.281  0.1635  0.1018  0.2603
40088W        W48688  17.453   4.121  24.132  0.3733  0.0717 -0.1246
40089W        W48689  21.709   1.641  34.511 -0.0455  0.1392 -0.1362
40090W        W48690  21.743   5.691  10.343  0.1071 -0.1494  0.0847
40091W        W48691   4.534   4.886  20.759 -0.2118 -0.0174 -0.1837
40092W        W48692  16.328   6.218  33.344 -0.1052  0.2296 -0.1203
40093W        W48693  17.281   5.161  10.154 -0.1246  0.0919  0.3118
40094W        W48694  23.372   2.963  21.497  0.2379 -0.2105  0.0507
40095W        W48695  13.460   2.816  10.379 -0.1072 -0.0087 -0.0485
40096W        W48696  11.259   1.794   7.930 -0.2886  0.0357 -0.2194
40097W        W48697  14.756   0.169  31.807 -0.0757 -0.0683  0.0842
40098W        W48698  25.492   3.530   6.519 -0.2112  0.1054  0.1283
40099W        W48699  13.202   4.377   8.962 -0.1482 -0.0459 -0.1401
40100W        W48700  15.032   2.494  34.992  0.2523 -0.1117 -0.2991
40101W        W48701  12.361   5.381  22.818 -0.0202  0.1433 -0.0565
40102W        W48702  10.628   4.109   4.856  0.0340  0.3733 -0.1258
40103W        W48703   1.323   4.301   9.715 -0.0574  0.1751 -0.2490
40104W        W48704  17.442   3.426  13.192 -0.0761  0.0017 -0.3296
40105W        W48705  22.889   0.503  22.728  0.3005  0.0790  0.2421
40106W        W48706   5.147   4.303   0.299 -0.1528  0.1038 -0.1221
40107W        W48707  17.294   5.627  24.267  0.3873 -0.0821  0.0016
40108W        W48708   6.205   3.855  23.423  0.2286 -0.0012 -0.0612
40109W        W48709   5.287   2.154  27.305 -0.0650  0.4187  0.1368
40110W        W48710  23.842   5.533  34.544  0.1104 -0.3429 -0.1869
40111W        W48711  17.356   5.944  28.017 -0.0030  0.2830  0.0440
40112W        W48712  13.304   2.188  26.593 -0.1856 -0.3868 -0.0786
40113W        W48713   2.091   5.936  11.396 -0.1580  0.0490  0.0071
40114W        W48714  22.388   4.186  25.295 -0.2203  0.1323  0.2927
40115W        W48715   4.765   2.581   4.856 -0.0112  0.0610  0.0776
40116W        W48716  24.811   0.554  27.808 -0.0699  0.0110 -0.0840
40117W        W48717   1.112   1.367  12.852 -0.0623  0.1857 -0.0451
40118W        W48718   8.808   2.303   4.847  0.0176 -0.1038 -0.1054
40119W        W48719  15.532   1.241  25.375  0.2540 -0.0400 -0.2956
40120W        W48720  21.983   1.825   7.408 -0.2157 -0.0503 -0.1524
40121W        W48721   2.388   3.765   8.461 -0.0286  0.0761 -0.2076
40122W        W48722  23.953   3.554  32.117  0.0173  0.0619 -0.1572
40123W        W48723   9.115   3.800  13.389 -0.0571  0.0137 -0.0562
40124W        W48724  10.973   0.979  12.662 -0.1068 -0.0554  0.6032
40125W        W48725   3.648   1.460  24.260  0.2015 -0.0718 -0.1417
40126W        W48726  10.775   1.888  35.542  0.0534 -0.0156 -0.4036
40127W        W48727  25.495   1.149  32.807  0.0056 -0.0252  0.1231
40128W        W48728   1.365   2.830  10.127  0.1442  0.0965  0.3673
40129W        W48729   8.758   4.280  31.291  0.2445  0.0935  0.0707
40130W        W48730  17.404   0.001  29.167 -0.1691 -0.2186  0.1052
40131W        W48731   8.756   6.413  35.815  0.0759 -0.2323 -0.3068
40132W        W48732   8.689   0.037  30.695  0.0166 -0.2840  0.0055
40133W        W48733  17.782   2.010  36.089 -0.2586  0.0316 -0.0094
40134W        W48734  20.652   6.050  10.728  0.0431  0.2383  0.1155
40135W        W48735   4.811   2.860   4.415  0.0207 -0.3120  0.0393
40136W        W48736  15.154   6.147  20.438 -0.1714  0.1726 -0.2013
40137W        W48737   6.721   1.215  26.601 -0.0115 -0.3423  0.0241
40138W        W48738   3.107   4.102  13.151 -0.0370 -0.0435 -0.1169
40139W        W48739  19.335   6.589   2.175  0.2600  0.0960  0.0520
40140W        W48740   9.308   1.657  29.245 -0.2063  0.2443  0.2514
40141W        W48741  21.975   2.598  24.470  0.0748 -0.2265  0.0954
40142W        W48742  23.728   2.049   4.189  0.2295  0.2244 -0.2900
40143W        W48743  19.567   5.382   5.961  0.1533  0.0476 -0.0130
40144W        W48744   5.500   6.428  30.465  0.0354  0.4215  0.0289
40145W        W48745   3.149   2.867  22.678 -0.0317  0.1550 -0.1509
40146W        W48746   0.534   4.377   6.478 -0.1324  0.3147  0.1252
40147W        W48747  18.791   2.289  30.742 -0.1276 -0.2347  0.1533
40148W        W48748  24.495   1.159  15.651  0.3368 -0.4370 -0.0556
40149W        W48749  23.779   4.168  32.021  0.0090 -0.2154 -0.0841
40150W        W48750   9.726   0.182   4.100  0.0957  0.1210  0.0824
40151W        W48751   0.999   5.296  12.820 -0.0362 -0.1702 -0.0027
40152W        W48752  16.377   4.727  21.827 -0.1459  0.4765 -0.0124
40153W        W48753   6.885   4.217  11.123  0.0252  0.1420 -0.2247
40154W        W48754   1.606   5.560  32.035 -0.1019  0.0623 -0.0190
40155W        W48755  16.815   6.106  34.541  0.3598 -0.0050  0.2944
40156W        W48756  14.936   1.926  30.450 -0.2132 -0.1381  0.0117
40157W        W48757  12.763   6.531  24.347  0.3826  0.0995  0.1199
40158W        W48758   0.536   4.041   8.160  0.0913  0.0039 -0.3048
40159W        W48759  10.655   0.170  27.229 -0.0458 -0.1820 -0.3005
40160W        W48760  14.261   3.647   4.026  0.1446 -0.2627  0.0745
40161W        W48761  13.360   0.281  23.460  0.3390 -0.0899 -0.2105
40162W        W48762   3.897   0.647  29.812  0.0688 -0.1401  0.1378
40163W        W48763  17.381   0.228  34.208  0.1236 -0.0260  0.2722
40164W        W48764   7.914   1.586  11.413  0.0937 -0.1722  0.0143
40165W        W48765  22.480   5.105   4.422 -0.0025  0.2631  0.1270
40166W        W48766  22.702   5.933  23.509  0.2884 -0.0602 -0.0049
40167W        W48767   9.909   4.305  25.279  0.0667  0.1655 -0.0631
40168W        W48768   1.165   5.955  27.252  0.1823  0.1994  0.2320
40169W        W48769  20.422   4.704  20.995 -0.0055 -0.0718  0.0016
40170W        W48770  15.534   2.634   1.203  0.0027  0.0637 -0.2276
40171W        W48771  17.954   4.013  28.183  0.1305  0.2142 -0.2672
40172W        W48772   9.950   3.044   4.204  0.0824 -0.0414 -0.1659
40173W        W48773   4.147   2.210  32.003 -0.1073  0.0932 -0.2066
40174W        W48774   6.528   5.143  25.490 -0.1570 -0.0967  0.1344
40175W        W48775   7.184   4.828   5.705  0.2178 -0.0669  0.2311
40176W        W48776  23.819   2.705  23.771  0.1270  0.1234  0.3498
40177W        W48777  15.891   4.598   5.775 -0.0632  0.2610 -0.1066
40178W        W48778   7.009   6.055  22.891  0.0996 -0.1152 -0.0656
40179W        W48779   2.390   3.077  22.253  0.1075  0.2198  0.2143
40180W        W48780  22.776   1.994  23.107  0.1409 -0.0005 -0.4996
40181W        W48781  12.172   4.034  24.145 -0.0197 -0.0614 -0.1885
40182W        W48782   8.164   3.100   1.696 -0.0125  0.0842 -0.1792
40183W        W48783   3.319   3.211   3.644 -0.2461  0.0191 -0.1063
40184W        W48784   6.496   5.995  26.719 -0.3136  0.1074  0.0160
40185W        W48785   1.801   0.228  33.113 -0.2062  0.5090 -0.2740
40186W        W48786   8.216   1.825  34.361  0.4172  0.0338 -0.0330
40187W        W48787  23.644   2.449  27.820  0.0679 -0.0647 -0.0168
40188W        W48788  11.720   4.334  14.098  0.1774  0.2938  0.2007
40189W        W48789   3.504   2.225   2.543  0.0565 -0.1744  0.0442
40190W        W48790   4.805   1.175   4.044 -0.2245  0.2148 -0.0452
40191W        W48791   9.980   4.827  24.618 -0.0008  0.0592 -0.2013
40192W        W48792   5.812   1.547  29.843 -0.4529 -0.1951  0.0670
40193W        W48793  15.764   6.418   5.946  0.1593  0.0692 -0.0345
40194W        W48794  20.493   0.025   4.650 -0.0697 -0.1219  0.2467
40195W        W48795  15.399   3.032  10.191  0.1671  0.1389 -0.0906
40196W        W48796  15.359   3.744  28.660 -0.0122 -0.0085 -0.0109
40197W        W48797  10.291   5.161  14.828  0.1633 -0.0376 -0.1141
40198W        W48798  25.620   4.236   3.486  0.1476  0.4027 -0.2647
40199W        W48799  24.796   2.565  32.838  0.3464  0.1127 -0.2354
40200W        W48800  24.468   1.851   1.312 -0.1312  0.1021  0.0999
40201W        W48801  19.151   6.576  28.333  0.0230 -0.0331 -0.2400
40202W        W48802   4.656   6.098  32.782 -0.0425 -0.0885 -0.0135
40203W        W48803  22.136   1.860   8.838  0.0620 -0.1438 -0.0452
40204W        W48804   3.429   0.584  33.754  0.0421 -0.1627  0.3066
40205W        W48805  10.790   4.379   0.550  0.0099 -0.0614 -0.1106
40206W        W48806  22.983   6.417  24.807  0.0926 -0.2951  0.0460
40207W        W48807  10.295   3.986   5.287  0.2101  0.1187 -0.2907
40208W        W48808  18.875   1.923  34.772  0.0431  0.0157  0.3731
40209W        W48809   5.160   6.567  33.169  0.0480 -0.1149  0.0592
40210W        W48810  22.349   3.871  12.530 -0.2922 -0.0700 -0.0802
40211W        W48811   4.197   6.011  14.234  0.0807 -0.2427 -0.1316
40212W        W48812  20.094   5.635   5.343  0.1522  0.0025  0.1616
40213W        W48813  18.313   0.724   6.670 -0.1479  0.1121 -0.0579
40214W        W48814   7.757   3.992  30.789  0.1929 -0.2426 -0.0058
40215W        W48815   7.323   3.533  27.382  0.1020 -0.1702 -0.0568
40216W        W48816  14.909   4.429  27.479  0.1472  0.1094  0.0315
40217W        W48817  14.494   0.633   0.598  0.3610 -0.0377  0.1593
40218W        W48818  16.932   2.658  23.927 -0.1461  0.1327 -0.2220
40219W        W48819  12.274   5.684  29.474 -0.1635  0.0359 -0.2176
40220W        W48820   2.564   3.413  25.918 -0.4555 -0.0232  0.3577
40221W        W48821   9.882   3.640   3.507 -0.0342 -0.0416  0.1060
40222W        W48822   1.422   3.020   7.283 -0.0346  0.1154 -0.0168
40223W        W48823   7.380   0.292  22.682 -0.1279 -0.1414  0.3918
40224W        W48824   2.946   6.274  32.073 -0.0420 -0.1366 -0.1431
40225W        W48825   3.087   4.802  16.094 -0.3485 -0.0653 -0.2562
40226W        W48826  24.870   0.828  33.565 -0.0594  0.1646  0.2401
40227W        W48827   8.530   5.901  35.062  0.0033 -0.0437 -0.0868
40228W        W48828   2.885   3.477  20.572 -0.0870  0.0961  0.0700
40229W        W48829   4.942   1.400  34.745 -0.1074 -0.0652 -0.1918
40230W        W48830  24.870   4.029  11.966  0.1012 -0.1972 -0.2962
40231W        W48831   2.669   1.283  14.078  0.2576  0.1780 -0.1418
40232W        W48832   3.087   5.031  10.520 -0.1775  0.0639 -0.0622
40233W        W48833  17.226   4.343  13.519  0.2083 -0.1758  0.0083
40234W        W48834  17.499   5.932   6.685  0.1342  0.1579  0.3465
40235W        W48835  22.246   0.982  29.134  0.0488 -0.0605  0.2830
40236W        W48836  23.426   0.269  10.099 -0.2530 -0.0933 -0.1599
40237W        W48837  23.935   1.306  35.488 -0.0426  0.0060 -0.0024
40238W        W48838  17.792   5.873   1.067  0.4208  0.1824  0.1753
40239W        W48839   0.823   3.723   8.464  0.2832  0.3128 -0.1884
40240W        W48840  12.598   6.359  32.943 -0.1224 -0.1061 -0.3065
40241W        W48841  19.894   3.784  31.861  0.2375  0.1277 -0.1205
40242W        W48842   7.356   1.966  25.594  0.1966  0.0454 -0.1079
40243W        W48843  26.156   2.905  14.470 -0.0352  0.0628  0.1420
40244W        W48844  26.370   5.695  23.672  0.0345  0.0660 -0.0871
40245W        W48845  26.125   1.032  25.473  0.0207 -0.0634  0.2668
40246W        W48846  22.299   2.547   0.623 -0.0432 -0.1651 -0.0256
40247W        W48847  12.157   1.682   6.980  0.1110 -0.3466 -0.1067
40248W        W48848   4.999   2.938  12.242  0.1472 -0.1257 -0.1120
40249W        W48849   4.062   4.184  11.353  0.1000  0.1851  0.1346
40250W        W48850  11.644   0.607  25.899  0.2788 -0.0343 -0.1235
40251W        W48851   6.571   5.259  22.242 -0.3189 -0.1171 -0.2353
40252W        W48852   9.844   3.962  26.105  0.1365 -0.3281  0.0133
40253W        W48853  19.579   2.472   0.741  0.1382 -0.0385  0.0449
40254W        W48854  11.169   4.000  10.877  0.0101  0.1686  0.1787
40255W        W48855   6.178   1.722   7.416 -0.1988  0.0130  0.2422
40256W        W48856  20.567   6.227  35.090  0.0580  0.2051  0.2419
40257W        W48857  13.701   0.001  32.025  0.0303  0.2108  0.0410
40258W        W48858  19.304   5.614  32.432  0.2086  0.0405 -0.0363
40259W        W48859  20.360   0.527  33.102  0.0244  0.0807 -0.0248
40260W        W48860  14.457   5.652  24.531 -0.0176 -0.1165 -0.1372
40261W        W48861   0.540   1.818   6.386 -0.1951 -0.1606 -0.1716
40262W        W48862   6.365   5.549   3.281  0.0288  0.0412  0.0149
40263W        W48863   6.208   2.000  32.677  0.4313 -0.1587  0.0465
40264W        W48864  25.899   3.998  14.682 -0.0367 -0.1052 -0.0246
40265W        W48865  23.021   5.343   2.542  0.4391  0.0482  0.0826
40266W        W48866  19.070   0.621  23.801  0.1852  0.0193  0.1379
40267W        W48867   7.826   2.048  26.011  0.0750  0.3093  0.0926
40268W        W48868   9.571   1.307   0.243  0.1686  0.2152 -0.1290
40269W        W48869  19.879   0.193  24.275 -0.0868 -0.1409 -0.2463
40270W        W48870   6.559   1.041   8.521 -0.2234 -0.2899 -0.2512
40271W        W48871  16.267   6.339  31.934  0.0212 -0.1777  0.1577
40272W        W48872   0.115   3.047   4.509  0.1611  0.1060  0.3043
40273W        W48873  16.450   0.804   2.628 -0.1553 -0.0090  0.3177
40274W        W48874   0.020   5.374  35.924 -0.2692  0.3504 -0.2058
40275W        W48875  18.140   2.890   1.050  0.1619 -0.1955  0.0296
40276W        W48876  16.707   2.415  28.954  0.1288  0.1096  0.1093
40277W        W48877  10.981   6.570  14.097  0.1910  0.1957 -0.2626
40278W        W48878   9.723   3.047  34.480 -0.0110  0.0789 -0.3709
40279W        W48879   1.053   4.025  33.578 -0.1667 -0.3029 -0.2142
40280W        W48880   8.043   5.531  26.016 -0.0789 -0.0189 -0.2923
40281W        W48881  26.399   0.683  34.551  0.1649  0.0094  0.0887
40282W        W48882  13.105   5.840   1.198  0.0477  0.0924  0.1234
40283W        W48883  20.072   4.121  15.133  0.2151  0.1330 -0.2872
40284W        W48884   0.723   6.278  23.340 -0.2175  0.1342 -0.2566
40285W        W48885  11.002   1.505   4.262  0.2308  0.2143  0.1121
40286W        W48886  10.028   1.831  23.831 -0.1092 -0.0036  0.0800
40287W        W48887   4.186   4.169   5.331 -0.0604  0.0111  0.0780
40288W        W48888  22.807   1.495   7.905 -0.0410 -0.0601  0.1527
40289W        W48889  19.757   3.168   3.699 -0.0467  0.4678  0.1467
40290W        W48890  20.488   4.083   4.461 -0.0776 -0.0933  0.0621
40291W        W48891   8.049   1.620  24.603 -0.0701  0.1338  0.1197
40292W        W48892   3.605   0.093  32.020 -0.0716 -0.0822  0.2435
40293W        W48893   1.834   2.727  10.645 -0.0651 -0.0336  0.0728
40294W        W48894  16.408   1.846   6.422  0.0160  0.1422  0.0736
40295W        W48895   5.738   0.692   1.438  0.1513 -0.1534 -0.0437
40296W        W48896   3.310   6.037  15.305 -0.1354 -0.1837 -0.1183
40297W        W48897  25.802   2.919  25.682 -0.2176 -0.1104 -0.1875
40298W        W48898   5.782   4.241  10.981  0.0573 -0.0466 -0.0173
40299W        W48899  15.777   1.644  22.148 -0.2748  0.3903  0.1541
40300W        W48900  18.616   4.916  30.542 -0.0733  0.1677  0.1727
40301W        W48901  25.737   4.064  29.097 -0.1476 -0.0200  0.4094
40302W        W48902   9.928   4.896   2.212  0.3220 -0.0794  0.2021
40303W        W48903  18.666   6.292   5.940  0.0386 -0.0860  0.3012
40304W        W48904  12.607   0.327  32.798 -0.1127  0.0973 -0.0829
40305W        W48905  25.081   3.345  27.453 -0.1451 -0.0299  0.1544
40306W        W48906   2.773   5.641  21.068  0.0193 -0.1093 -0.1889
40307W        W48907  16.809   1.348  23.121 -0.1779  0.1413 -0.1138
40308W        W48908   6.155   3.975  14.313  0.3477  0.0312 -0.1211
40309W        W48909   4.691   0.868   4.424 -0.1514 -0.0879  0.2143
40310W        W48910  14.758   2.438  15.890 -0.2460 -0.0415  0.1240
40311W        W48911   0.757   4.583   5.774 -0.0359 -0.1291  0.0776
40312W        W48912  10.365   4.049   0.467 -0.1820 -0.1770  0.0485
40313W        W48913  13.362   4.561  11.790  0.1091  0.0786 -0.2785
40314W        W48914   7.913   0.224  11.483 -0.1453 -0.0218 -0.1349
40315W        W48915   7.147   6.238   6.880 -0.1076 -0.0466 -0.0373
40316W        W48916  14.057   1.669   4.466 -0.0851  0.0747  0.0590
40317W        W48917  18.414   3.004   8.372 -0.2813 -0.2117 -0.1668
40318W        W48918  13.609   2.381  36.047  0.0676  0.2392  0.5369
40319W        W48919  16.732   0.216  23.183 -0.0521 -0.0012  0.4025
40320W        W48920   4.056   1.838   3.199 -0.2090 -0.1733 -0.3456
40321W        W48921  21.372   2.261  34.175 -0.1214  0.0792 -0.1990
40322W        W48922   3.923   2.234  15.237  0.0484 -0.1782  0.0165
40323W        W48923   6.354   5.425   5.574  0.3585  0.0976  0.0101
40324W        W48924  15.480   6.238  29.663  0.0344 -0.2252 -0.1311
40325W        W48925  10.444   5.987   9.557  0.4050 -0.2035 -0.0110
40326W        W48926  12.354   3.402  25.826 -0.0020  0.0859  0.1122
40327W        W48927   2.860   0.065  22.624 -0.1759  0.2079  0.0731
40328W        W48928   9.456   4.642   2.362  0.0355  0.0548  0.4816
40329W        W48929   8.122   3.143   6.773 -0.2098  0.0592 -0.1060
40330W        W48930   7.396   1.815  21.586  0.1014  0.1479  0.0263
40331W        W48931  17.530   3.133  31.428  0.1886 -0.0450  0.1986
40332W        W48932  13.531   4.634  26.491  0.0695 -0.1389 -0.3503
40333W        W48933  19.976   4.009  12.360  0.0833 -0.0025 -0.0595
40334W        W48934   2.901   5.668  27.073 -0.0564 -0.0293  0.0606
40335W        W48935   5.480   3.211  14.602 -0.2176 -0.1550 -0.2839
40336W        W48936   2.523   3.575  22.758  0.0797 -0.1222  0.2316
40337W        W48937  24.804   3.925  25.670 -0.2551 -0.0882 -0.1820
40338W        W48938   7.160   2.006  27.966 -0.0711 -0.0687 -0.1785
40339W        W48939  22.423   0.895  12.036  0.0925  0.1010 -0.2038
40340W        W48940  23.137   3.153   4.267 -0.3841  0.0762 -0.2462
40341W        W48941  19.224   4.754  12.076  0.0874 -0.1208 -0.0830
40342W        W48942   5.298   0.730  31.041  0.2070 -0.1429 -0.1231
40343W        W48943  18.764   3.719  25.409  0.0127  0.1465 -0.0278
40344W        W48944   5.847   2.253  31.617  0.0868  0.0245 -0.2411
40345W        W48945  14.706   0.863  27.896  0.1604 -0.1370  0.2453
40346W        W48946  21.612   2.792  31.000  0.2254 -0.1805 -0.3368
40347W        W48947  23.044   3.710   4.252 -0.1814 -0.1714 -0.1576
40348W        W48948   2.102   6.277  13.302 -0.2393  0.3853 -0.1136
40349W        W48949   4.946   5.584   5.573  0.2824 -0.1161  0.1519
40350W        W48950  26.055   0.367  13.453 -0.0496  0.0610 -0.0616
40351W        W48951  13.710   4.996   9.640 -0.0530  0.2566  0.2882
40352W        W48952   7.021   1.866  29.282 -0.0881  0.1337 -0.2817
40353W        W48953  13.236   1.877  27.942 -0.3527 -0.0906 -0.1530
40354W        W48954   1.428   4.100   2.839  0.0800 -0.1396 -0.2901
40355W        W48955  19.559   2.393   6.669 -0.2278 -0.0192  0.0880
40356W        W48956  12.072   1.701  12.319 -0.0926  0.1947 -0.0414
40357W        W48957   0.343   6.378  33.605  0.0370  0.0473  0.1542
40358W        W48958   6.049   6.581  27.762 -0.3418  0.5424  0.1213
40359W        W48959  15.957   0.504  29.755 -0.0822 -0.0037  0.2477
40360W        W48960  23.516   1.617  26.011 -0.3738 -0.2570  0.2636
40361W        W48961  21.678   2.597  34.309 -0.3985 -0.0423 -0.2740
40362W        W48962  22.692   3.622  14.612 -0.1772 -0.0671 -0.0489
40363W        W48963   7.404   6.406  11.508  0.3804  0.0330  0.0271
40364W        W48964   3.464   0.383  12.831 -0.0741  0.0536 -0.0723
40365W        W48965   5.511   5.858   6.579 -0.0944  0.0273  0.1340
40366W        W48966  18.921   2.566  35.547 -0.0337 -0.0305 -0.0591
40367W        W48967  16.822   3.587  35.325  0.0412 -0.2287 -0.2550
40368W        W48968   7.949   1.550  13.654 -0.0971  0.1228 -0.1565
40369W        W48969   3.884   0.352  28.532  0.4209 -0.1386  0.3653
40370W        W48970  23.423   2.125  21.443  0.3424 -0.0525  0.1850
40371W        W48971   9.197   4.661   1.510  0.2710  0.1253  0.0577
40372W        W48972  24.294   6.349  11.847  0.1857 -0.0074  0.0840
40373W        W48973  13.841   5.558  23.756  0.0019  0.3513  0.2001
40374W        W48974   8.405   4.018   1.428 -0.0378 -0.2133 -0.2944
40375W        W48975  13.333   1.362  14.763 -0.0429 -0.1657 -0.0859
40376W        W48976  15.261   2.334  30.525  0.1992  0.1286  0.0920
40377W        W48977  15.135   3.861  22.120  0.2411  0.1627 -0.1774
40378W        W48978  23.707   1.692  30.930  0.0963  0.1047  0.0292
40379W        W48979   0.968   5.296  11.935  0.1235  0.1387 -0.0964
40380W        W48980   4.605   0.990  10.138 -0.2127 -0.0397  0.0396
40381W        W48981   5.106   1.110   8.279 -0.2135 -0.2444  0.1980
40382W        W48982  19.063   2.414  33.634 -0.1890  0.0271 -0.0255
40383W        W48983  18.553   3.222  22.898 -0.0486 -0.1119 -0.0963
40384W        W48984  16.158   1.241   3.582 -0.1317 -0.1514 -0.0156
40385W        W48985   5.085   4.965  34.828 -0.0681  0.2005  0.1595
40386W        W48986  10.659   1.169   7.930 -0.0643 -0.4674 -0.0830
40387W        W48987  11.941   5.278  29.409  0.2897 -0.1645 -0.2282
40388W        W48988   1.376   1.494   2.443  0.0740  0.0211 -0.1151
40389W        W48989  18.014   3.435  33.387  0.0887 -0.1331 -0.4882
40390W        W48990   3.962   2.780   0.729  0.1030  0.0342 -0.1789
40391W        W48991  22.525   4.734  31.181 -0.0495 -0.1231 -0.0174
40392W        W48992  18.371   2.533   8.527 -0.1653  0.3550  0.1983
40393W        W48993  11.980   4.372   6.279 -0.3544 -0.1561 -0.2329
40394W        W48994  20.822   5.735  14.445 -0.0507  0.1310  0.1011
40395W        W48995  17.427   2.354   6.430 -0.1592 -0.2100 -0.0458
40396W        W48996   8.093   4.952  29.994 -0.0612  0.0411  0.1041
40397W        W48997  18.345   2.621  28.495  0.1595  0.0194 -0.0333
40398W        W48998   9.995   3.763   7.458 -0.3932 -0.1315  0.0996
40399W        W48999   1.728   1.880  35.144 -0.0524 -0.1343  0.0575
40400W        W49000   1.541   4.157   6.307 -0.2102 -0.0033 -0.2934
40401W        W49001  16.814   5.486   3.559  0.4953 -0.1196  0.0836
40402W        W49002   9.870   5.206  10.142 -0.0093  0.2808 -0.1631
40403W        W49003  13.620   2.369  11.333  0.0066 -0.0192 -0.0546
40404W        W49004   3.759   1.451   5.630  0.0313 -0.3657  0.1154
40405W        W49005   1.369   1.688  27.395 -0.0623  0.1469 -0.0892
40406W        W49006  23.317   0.830  29.473 -0.1375 -0.1985 -0.2776
40407W        W49007  14.226   2.868   8.156  0.0299  0.0696  0.0197
40408W        W49008   5.994   5.542   4.087  0.0597  0.1998  0.0686
40409W        W49009  13.340   4.971   0.894 -0.0210 -0.1748 -0.1759
40410W        W49010  12.659   2.346  11.091 -0.1805 -0.1876 -0.2311
40411W        W49011  16.678   5.310  28.534  0.0666  0.1848  0.1772
40412W        W49012  19.005   3.485  14.594 -0.1509  0.0754 -0.0867
40413W        W49013  21.245   0.278  33.084  0.0592 -0.0398 -0.2685
40414W        W49014   6.203   3.575   3.321 -0.3215  0.5301 -0.2001
40415W        W49015   9.307   0.187  21.590 -0.1501  0.5310 -0.3876
40416W        W49016  22.379   4.508  21.257 -0.0293 -0.1619 -0.1222
40417W        W49017  12.128   6.245  25.648 -0.1156 -0.2804  0.1142
40418W        W49018   5.324   4.015  31.512  0.5951 -0.0690  0.0786
40419W        W49019  12.107   3.957   6.514  0.5469  0.0785  0.0223
40420W        W49020  15.271   2.284  11.978  0.2611 -0.2059  0.0806
40421W        W49021   1.882   6.495  11.362 -0.3948  0.2349  0.0779
40422W        W49022  24.263   3.760  25.507 -0.0124 -0.1668  0.0611
40423W        W49023   2.975   5.801   6.352  0.2096  0.1048 -0.2116
40424W        W49024  11.717   1.646   7.802  0.0145 -0.3654  0.1323
40425W        W49025   4.172   3.329  25.158  0.0366 -0.1720  0.1049
40426W        W49026   0.108   0.301  23.657  0.1665  0.1949 -0.2283
40427W        W49027  19.429   6.229  27.734  0.1227 -0.0813 -0.0309
40428W        W49028  24.795   1.379   8.947 -0.3983 -0.1634 -0.0500
40429W        W49029  15.718   5.110  13.819  0.3905 -0.1278 -0.2185
40430W        W49030  21.177   0.186  11.256 -0.0843  0.1110  0.0811
40431W        W49031  16.643   5.674  13.022 -0.3766  0.3502  0.0117
40432W        W49032   3.037   5.221   3.784 -0.0333  0.2369 -0.2621
40433W        W49033   0.365   6.009  25.366  0.1149 -0.2868 -0.1277
40434W        W49034  22.350   3.186  15.432 -0.1766  0.2485  0.1110
40435W        W49035   0.681   4.758   0.867  0.0035  0.1229  0.2127
40436W        W49036  10.602   1.956  23.078 -0.0512  0.0893  0.0169
40437W        W49037  10.406   5.402   2.547  0.0500  0.0831  0.0524
40438W        W49038  16.293   5.121  28.768 -0.1121 -0.0675 -0.1576
40439W        W49039  18.394   0.097  22.472  0.3323  0.1440 -0.1708
40440W        W49040  26.178   0.572  28.581 -0.0089  0.0813 -0.0012
40441W        W49041  26.001   6.124  32.131 -0.0034 -0.2416 -0.2552
40442W        W49042  14.431   1.893   9.810 -0.2040  0.1732  0.1229
40443W        W49043  26.059   5.289  12.389 -0.4223 -0.3046 -0.0197
40444W        W49044  13.226   2.788  15.005  0.1915  0.0811  0.0997
40445W        W49045  12.523   4.437  30.025  0.0239 -0.1624 -0.0660
40446W        W49046  25.817   2.028  26.321 -0.2156 -0.1016  0.2674
40447W        W49047  23.774   3.228   2.867 -0.0649 -0.1556  0.0730
40448W        W49048   9.609   0.990  34.116  0.1276  0.1307  0.1289
40449W        W49049   1.271   4.269  24.053  0.0572  0.1137  0.2657
40450W        W49050  16.501   0.731   7.865 -0.0637 -0.0171  0.4116
40451W        W49051   6.019   6.031  29.393  0.0057 -0.1524  0.0425
40452W        W49052   8.253   1.053  35.477  0.2084  0.0937 -0.0371
40453W        W49053  20.207   6.483  22.427 -0.1764  0.3148  0.1323
40454W        W49054  24.822   2.349  26.297 -0.0830 -0.1555 -0.1987
40455W        W49055   7.784   0.112   7.470 -0.1232  0.0425 -0.0874
40456W        W49056  25.448   6.195  13.084 -0.3274 -0.3645  0.0307
40457W        W49057  22.308   0.786   5.270 -0.0364 -0.1847 -0.0320
40458W        W49058   2.634   5.399  24.298 -0.0473  0.1060  0.0227
40459W        W49059  23.443   6.088  31.778  0.1934 -0.0072  0.1067
40460W        W49060   4.218   5.089  27.326  0.0053 -0.0371  0.0799
40461W        W49061  15.906   0.085  34.490  0.0154 -0.2305  0.1951
40462W        W49062  18.793   2.971  33.431 -0.0987 -0.2005  0.2461
40463W        W49063   8.498   4.805  13.476 -0.2448 -0.1001  0.4780
40464W        W49064   5.046   6.603  24.135  0.1124 -0.0475 -0.0269
40465W        W49065  16.471   6.103   0.535 -0.1297  0.0639  0.0442
40466W        W49066   5.999   2.444  26.369  0.2866  0.0628 -0.2027
40467W        W49067   1.123   1.194  31.239 -0.0187 -0.0392 -0.2189
40468W        W49068   1.620   3.398  32.848  0.1651  0.2697  0.0092
40469W        W49069   7.316   5.210   7.257  0.0763 -0.0570  0.3071
40470W        W49070  20.373   3.449   3.231 -0.0038 -0.0557 -0.2035
40471W        W49071   3.687   4.970  27.119  0.0364 -0.1575  0.0669
40472W        W49072  23.164   6.098   9.283 -0.1205 -0.2765 -0.3355
40473W        W49073  13.932   2.552  11.654 -0.2103  0.1555  0.3605
40474W        W49074   3.587   4.109  13.429  0.1058  0.0920 -0.2711
40475W        W49075   6.620   1.899   6.562 -0.1755  0.1354 -0.4021
40476W        W49076  16.099   2.560  33.119  0.1058  0.3383  0.3639
40477W        W49077  15.654   4.452  22.450 -0.1892  0.2205 -0.2607
40478W        W49078  19.002   6.471   0.983 -0.1395  0.2690 -0.0516
40479W        W49079  12.400   5.947  27.877 -0.1907 -0.3947  0.1806
40480W        W49080   4.692   3.240  31.914  0.0317 -0.0354 -0.2732
40481W        W49081  24.443   4.743   8.653 -0.0965 -0.0392  0.0232
40482W        W49082  15.149   3.176  13.965 -0.1151 -0.0138  0.3168
40483W        W49083   9.482   4.680  11.442 -0.2888  0.2996  0.1402
40484W        W49084  13.079   5.347  10.596  0.0764 -0.1129  0.2667
40485W        W49085   8.506   0.826  35.920 -0.0312 -0.1151 -0.1589
40486W        W49086   8.242   1.559   4.486 -0.0162 -0.1363  0.0358
40487W        W49087  18.134   3.686  14.308  0.3620 -0.1476 -0.0243
40488W        W49088  17.968   4.768  35.940 -0.0921 -0.1868  0.0919
40489W        W49089  13.047   3.084  21.884  0.1143 -0.0597  0.0915
40490W        W49090   6.982   2.680  23.404 -0.0124  0.0807 -0.1820
40491W        W49091   9.388   3.332  25.232  0.3710  0.0533  0.1346
40492W        W49092   6.089   0.577  29.683  0.1736  0.1880 -0.1301
40493W        W49093  16.916   2.158  13.197  0.2103 -0.0947  0.3369
40494W        W49094   2.297   4.323  12.647  0.4218  0.1612 -0.2190
40495W        W49095  12.442   3.104  22.739 -0.2451 -0.2146 -0.1064
40496W        W49096  24.146   0.202  11.936  0.1299 -0.1576 -0.1450
40497W        W49097  25.705   4.161  13.701  0.2298  0.1961  0.3362
40498W        W49098   1.381   1.153  22.039  0.1604  0.2454 -0.0310
40499W        W49099   5.068   1.198   4.641  0.0638 -0.1237  0.0262
40500W        W49100   6.134   0.589  30.274  0.4089 -0.2668 -0.1012
40501W        W49101   9.141   3.698   2.443 -0.0534  0.2915  0.0263
40502W        W49102  15.844   1.100  12.510  0.1224  0.0463 -0.1310
40503W        W49103  10.711   4.453  25.785 -0.4864  0.0994 -0.3036
40504W        W49104  12.328   2.119  12.219  0.1447 -0.0027  0.3550
40505W        W49105  12.637   3.936  33.569 -0.1088  0.0515 -0.0064
40506W        W49106  11.989   5.960   4.070 -0.2948  0.0467  0.1274
40507W        W49107  15.505   1.655  26.055  0.0575  0.3120 -0.4338
40508W        W49108   8.445   4.257  10.320 -0.1528 -0.2315  0.0372
40509W        W49109  15.382   2.981  29.031  0.3887 -0.1657 -0.1713
40510W        W49110  14.314   1.075  23.740 -0.0923  0.1360 -0.1695
40511W        W49111  20.412   3.745  11.073 -0.0419  0.0751 -0.2363
40512W        W49112  22.820   2.850   9.436  0.0223 -0.1668  0.3443
40513W        W49113   7.584   3.822  25.056  0.3295  0.2132  0.0338
40514W        W49114  15.058   2.446   6.232 -0.0455 -0.0092  0.0778
40515W        W49115   8.141   4.047   4.303 -0.1038  0.0684 -0.0148
40516W        W49116   7.130   2.112  34.910  0.2107 -0.2474  0.2624
40517W        W49117  25.386   2.480  33.759  0.1221  0.0918  0.4467
40518W        W49118  23.103   5.800  13.691  0.0021 -0.0951  0.3727
40519W        W49119   5.739   1.931   5.384 -0.2538 -0.1374  0.0359
40520W        W49120   2.072   5.093  34.991  0.3074 -0.1672 -0.0685
40521W        W49121  13.378   6.206  23.950 -0.0522  0.1061 -0.2250
40522W        W49122   4.935   4.741  28.814 -0.1873  0.0110  0.1916
40523W        W49123  12.516   0.285  29.404 -0.0849 -0.2902  0.0291
40524W        W49124   1.709   1.015  28.498  0.0357 -0.1902  0.2488
40525W        W49125  18.064   0.278  25.969  0.2808 -0.2440  0.1724
40526W        W49126  14.925   4.495  13.598  0.0171 -0.0798  0.0341
40527W        W49127  18.337   2.199  32.964 -0.3233 -0.0213 -0.0530
40528W        W49128  20.935   5.208   0.727 -0.0231  0.1054  0.2711
40529W        W49129  16.782   2.860   9.581 -0.2356 -0.2070  0.1186
40530W        W49130   9.086   2.782   7.808 -0.2494  0.3377 -0.1300
40531W        W49131  11.626   6.188   4.314 -0.2597 -0.3038 -0.0986
40532W        W49132  13.613   1.397  13.130  0.0224 -0.2042  0.1121
40533W        W49133   9.227   1.075  15.187 -0.2961 -0.0198  0.5567
40534W        W49134  23.507   2.730  13.915 -0.0027  0.1195  0.1195
40535W        W49135  23.051   3.794  23.080 -0.1406 -0.1084  0.0663
40536W        W49136   8.605   0.418  27.510  0.1190  0.2956  0.1177
40537W        W49137  10.273   4.485  23.182  0.3576  0.1262 -0.0386
40538W        W49138  12.535   4.011  10.231 -0.3060 -0.2430  0.0919
40539W        W49139  21.182   2.245  23.356  0.3373 -0.0011 -0.2905
40540W        W49140  15.701   1.539  32.632  0.4142  0.1425 -0.2370
40541W        W49141  18.374   2.056  21.101  0.1039 -0.0924  0.0320
40542W        W49142  10.307   4.873  23.748 -0.1787  0.1392  0.1610
40543W        W49143  19.736   2.060   9.854 -0.1871  0.0370 -0.2208
40544W        W49144  11.184   6.515  22.676  0.4225 -0.3328 -0.0933
40545W        W49145  11.536   2.126  33.984 -0.1160 -0.1946 -0.0529
40546W        W49146  23.350   0.231  22.463  0.4104  0.1589 -0.0809
40547W        W49147   3.329   0.361   1.232  0.2868  0.2127  0.2554
40548W        W49148   5.820   0.298  12.921 -0.0891  0.0980  0.0728
40549W        W49149  19.185   3.724  26.219 -0.1009 -0.1198  0.0492
40550W        W49150  25.019   2.416   1.917  0.2840 -0.5645 -0.0771
40551W        W49151  15.444   0.539   0.457 -0.0037  0.1832  0.0788
40552W        W49152   8.926   3.187   9.153  0.2133  0.1304  0.1240
40553W        W49153   1.718   0.773  21.074 -0.1845  0.0247  0.2658
40554W        W49154  13.632   5.546  10.478 -0.0573 -0.1913  0.3055
40555W        W49155  20.234   4.294  32.559  0.0487 -0.0269 -0.0549
40556W        W49156   3.945   0.364   9.278 -0.2805  0.2797  0.1039
40557W        W49157  17.720   2.455   2.611 -0.1836  0.1779  0.5640
40558W        W49158   2.893   1.707   8.639 -0.0856 -0.2422 -0.4183
40559W        W49159  13.815   4.774  31.228  0.3434 -0.0686 -0.0556
40560W        W49160   1.025   1.333  26.700  0.2183  0.2698  0.1058
40561W        W49161   4.532   3.205  24.833 -0.2424  0.2735  0.0241
40562W        W49162  10.768   1.561   2.216  0.4644  0.3975 -0.3229
40563W        W49163   7.912   4.522  35.237  0.1951  0.1526 -0.0601
40564W        W49164  17.547   5.358  26.806 -0.0122 -0.1775 -0.0416
40565W        W49165  21.509   1.310   8.316  0.4147  0.3079  0.0761
40566W        W49166  19.027   4.629  20.966  0.0104 -0.2104  0.1234
40567W        W49167  10.525   2.147  13.483 -0.1904 -0.0065 -0.3973
40568W        W49168   2.278   6.546   8.067 -0.3414  0.0926 -0.1866
40569W        W49169  17.332   3.266  35.500 -0.1843  0.1448 -0.0405
40570W        W49170   1.063   2.383  15.257  0.2670  0.0738  0.0123
40571W        W49171   4.181   3.606   6.937 -0.2905  0.2089  0.1669
40572W        W49172  15.034   2.985  21.810 -0.2053 -0.0150  0.0831
40573W        W49173  26.132   1.934  32.208 -0.0033 -0.0481 -0.2487
40574W        W49174   4.925   1.602  30.419 -0.1493  0.0398  0.1572
40575W        W49175  10.935   4.819   0.241 -0.1835 -0.0399  0.1523
40576W        W49176  21.830   4.867  24.583  0.1809  0.1367 -0.2114
40577W        W49177  16.348   5.408  31.785  0.1906 -0.1918  0.0427
40578W        W49178   8.218   6.180  14.866  0.2158  0.0067  0.0272
40579W        W49179  23.985   1.627   6.625 -0.2698  0.1404 -0.0514
40580W        W49180  13.798   5.421  35.678 -0.1400  0.3182 -0.0841
40581W        W49181  23.603   2.120  22.598  0.1584  0.3536 -0.1796
40582W        W49182  17.731   0.341  12.163  0.0580  0.2323 -0.1510
40583W        W49183  15.238   1.164  27.108 -0.2036  0.0516 -0.0224
40584W        W49184  16.279   3.265  27.389 -0.0045  0.2712  0.0536
40585W        W49185  17.335   1.127  31.563 -0.1762 -0.0240  0.3017
40586W        W49186   8.460   0.615   7.127 -0.0752  0.2171 -0.0322
40587W        W49187   2.898   4.466   3.337  0.0933 -0.6058 -0.1866
40588W        W49188   5.357   2.646   9.886  0.2915 -0.0783 -0.1001
40589W        W49189  19.517   4.709  13.920  0.0980 -0.0341 -0.0585
40590W        W49190  17.166   3.432  12.268  0.1255  0.1675 -0.1493
40591W        W49191   1.823   0.253  10.538 -0.4650 -0.0205  0.1141
40592W        W49192   9.236   2.177  24.096 -0.2769 -0.0058  0.2214
40593W        W49193  13.057   5.798   4.907  0.0416 -0.1070  0.0931
40594W        W49194  25.184   0.203  14.770  0.0695  0.3414 -0.0057
40595W        W49195   5.717   2.090  33.823 -0.1198 -0.2071 -0.0450
40596W        W49196  23.388   6.244  13.899  0.1221 -0.2544 -0.1040
40597W        W49197   5.299   5.567  31.542  0.0572  0.1400 -0.0825
40598W        W49198  16.699   0.680  20.536  0.0381  0.0036  0.1045
40599W        W49199   9.655   2.172  26.650 -0.1746 -0.0437  0.0195
40600W        W49200   6.997   5.556   3.607  0.2785 -0.1597  0.0308
40601W        W49201   7.181   2.077   5.493  0.2745  0.3484 -0.1476
40602W        W49202  11.260   4.013  26.558 -0.0774 -0.0207 -0.0388
40603W        W49203  10.140   5.115  30.336  0.0597 -0.0280 -0.0956
40604W        W49204  12.651   1.315   8.754 -0.1029 -0.0070 -0.1816
40605W        W49205   8.224   5.338   2.052 -0.0610 -0.0913 -0.0228
40606W        W49206  14.268   5.981  35.998 -0.1873  0.1356  0.1635
40607W        W49207   6.561   3.293   4.976 -0.2475 -0.1014 -0.1100
40608W        W49208   4.073   5.844  11.153 -0.1911 -0.0489 -0.1256
40609W        W49209  15.632   1.116  29.779  0.2033 -0.1131 -0.1709
40610W        W49210  19.545   2.295  23.531 -0.0177  0.2426  0.0241
40611W        W49211   9.271   3.284  14.428  0.1431 -0.0459 -0.0943
40612W        W49212  24.160   5.236  13.331 -0.0533 -0.3370  0.2031
40613W        W49213  13.538   0.282  28.328  0.1396 -0.1301  0.1269
40614W        W49214   2.753   0.294  30.988  0.0676 -0.4628 -0.4645
40615W        W49215   9.063   1.084  24.682  0.1801 -0.3378 -0.1426
40616W        W49216  14.733   5.053   1.715 -0.0135  0.2712 -0.0096
40617W        W49217   8.513   6.002  27.391  0.2252  0.0436  0.1935
40618W        W49218   1.197   3.821  25.203 -0.0973  0.1603  0.1381
40619W        W49219   9.433   4.796  12.299 -0.3086 -0.1461  0.2354
40620W        W49220  25.233   3.765   8.120  0.1526  0.1105  0.0379
40621W        W49221  24.415   3.077  15.165  0.2025  0.3046 -0.1093
40622W        W49222   2.122   2.000  34.905 -0.1839 -0.2162 -0.1634
40623W        W49223  11.887   4.762  10.742  0.1261  0.1079 -0.1256
40624W        W49224  22.184   4.782   7.158  0.4269 -0.0477 -0.3462
40625W        W49225   6.695   3.672  13.465  0.0229  0.0187 -0.0684
40626W        W49226  10.368   0.551   8.137 -0.1263  0.2039  0.0434
40627W        W49227  23.712   1.124  34.647 -0.0833  0.1691  0.0159
40628W        W49228  12.410   2.458  11.622  0.1450  0.1510  0.1115
40629W        W49229  25.305   6.006  14.004  0.0651 -0.0244  0.0843
40630W        W49230  17.236   1.848  27.673  0.2671  0.1990 -0.0682
40631W        W49231  15.348   4.844   2.204 -0.0144  0.1560 -0.2740
40632W        W49232  10.722   3.432  11.242 -0.6055 -0.2229  0.1387
40633W        W49233   3.916   0.449   4.631 -0.0321  0.2724 -0.1983
40634W        W49234  23.250   3.983  33.811  0.0901  0.2500  0.1699
40635W        W49235  24.859   4.169  10.235 -0.0380 -0.1801 -0.3131
40636W        W49236  19.019   1.212  33.465  0.2237  0.1773  0.4025
40637W        W49237  25.399   3.511  32.241  0.2465  0.1998  0.1810
40638W        W49238  15.000   0.223   1.721 -0.0034  0.1404  0.0232
40639W        W49239  21.351   0.546  25.986 -0.2703  0.0307  0.1497
40640W        W49240  24.478   1.881  23.607 -0.2061  0.0217 -0.0604
40641W        W49241  16.398   1.951  28.867 -0.1311  0.0568  0.0967
40642W        W49242  10.687   0.311  35.596  0.0449  0.3145  0.1170
40643W        W49243  10.734   2.983   6.753 -0.0980  0.4029 -0.0199
40644W        W49244  17.035   0.299   3.725  0.2370  0.1564 -0.0644
40645W        W49245  23.271   1.512  33.484 -0.0618  0.1360  0.1086
40646W        W49246   0.092   3.147  12.229 -0.2261  0.0705 -0.1165
40647W        W49247  19.623   6.219  20.250 -0.3891  0.2291  0.1796
40648W        W49248   7.628   1.736  32.481 -0.0010  0.1883 -0.0828
40649W        W49249  20.586   2.840  14.920  0.1433  0.0856  0.1038
40650W        W49250   6.285   3.771  26.989  0.2759  0.0531 -0.0437
40651W        W49251   4.821   0.390   1.972 -0.0235 -0.1541  0.3760
40652W        W49252   1.542   0.455   8.317 -0.1594 -0.1653  0.2063
40653W        W49253   7.123   0.066  10.054 -0.2411  0.0317 -0.2368
40654W        W49254   6.363   5.103  26.962  0.2871 -0.0102  0.2745
40655W        W49255  22.402   1.815   3.510  0.3541 -0.1563  0.0180
40656W        W49256  15.882   1.095  35.890  0.2638 -0.0415  0.0955
40657W        W49257  12.683   6.169  11.317 -0.0471  0.0114 -0.2952
40658W        W49258  19.274   0.726  14.315 -0.1567 -0.1150 -0.3253
40659W        W49259  15.333   4.843  34.342  0.1502  0.0728 -0.1108
40660W        W49260  23.411   0.153  26.739  0.0803 -0.0528  0.3363
40661W        W49261   5.949   3.490  31.245  0.0339 -0.0746 -0.0166
40662W        W49262   0.119   5.433  13.081 -0.2070  0.1786  0.1163
40663W        W49263  19.140   0.127   6.562 -0.1293 -0.1674 -0.1326
40664W        W49264  19.678   5.672  15.217  0.1232  0.1199 -0.0358
40665W        W49265  16.436   1.307  23.445  0.3336  0.1977 -0.0465
40666W        W49266  13.830   1.545  33.637  0.0522 -0.0191  0.0828
40667W        W49267  10.501   5.207  24.493 -0.1007 -0.1168  0.0022
40668W        W49268  15.177   5.535  33.203 -0.0885  0.0212 -0.0048
40669W        W49269   8.932   4.763  31.224  0.0924  0.0016  0.1475
40670W        W49270  24.662   4.711  24.850  0.1692  0.0206 -0.0714
40671W        W49271  22.680   4.051  15.411 -0.0569  0.0586  0.1240
40672W        W49272  24.513   2.326  23.931  0.0471 -0.0046 -0.1332
40673W        W49273   7.245   6.485  20.469 -0.2014  0.0679  0.0301
40674W        W49274  23.203   0.856  35.364  0.4225 -0.0700 -0.1734
40675W        W49275   3.274   1.113   9.248  0.2175 -0.0029  0.0232
40676W        W49276  23.914   1.745   1.347 -0.2021  0.1283  0.1776
40677W        W49277   7.939   4.556  23.121 -0.0716 -0.1877  0.0575
40678W        W49278  12.498   2.279  14.237 -0.1960  0.1604 -0.1999
40679W        W49279   9.000   0.876   5.879  0.1205 -0.1575  0.0546
40680W        W49280  21.524   1.067  13.818  0.0696 -0.1213 -0.2552
40681W        W49281  15.822   1.972  12.165 -0.0323 -0.2083 -0.2561
40682W        W49282  13.674   2.846  34.750  0.0642  0.3695 -0.0242
40683W        W49283   4.704   0.899  33.902 -0.0844  0.1107  0.1713
40684W        W49284  21.081   1.126  21.431 -0.0303  0.0540  0.1441
40685W        W49285   2.326   2.909   8.021 -0.1676  0.2714  0.2542
40686W        W49286  14.212   5.155   9.666 -0.0713 -0.1722  0.0126
40687W        W49287   6.326   1.561   5.763  0.1903  0.0913  0.0993
40688W        W49288   9.650   2.433  21.210  0.0314  0.3011  0.2485
40689W        W49289  23.956   5.403  29.918  0.2447  0.0986  0.1454
40690W        W49290   1.199   1.778  24.900 -0.1938  0.0778  0.0664
40691W        W49291  26.161   5.009  25.696  0.1753 -0.0156  0.1717
40692W        W49292  25.923   1.120   8.178 -0.0596 -0.0910 -0.0300
40693W        W49293  12.304   1.477  15.067  0.2412  0.1636 -0.2401
40694W        W49294  17.451   4.759  29.833 -0.3112 -0.0929  0.2883
40695W        W49295  24.998   3.826  27.144 -0.1346 -0.0350 -0.1438
40696W        W49296  23.135   5.320  24.047 -0.1960  0.1968 -0.0330
40697W        W49297  21.524   0.831  27.843 -0.3967 -0.1891  0.2888
40698W        W49298  17.379   4.635  25.718  0.2862 -0.3055 -0.0262
40699W        W49299  22.345   0.496  30.735 -0.3713 -0.1344 -0.2972
40700W        W49300   8.527   2.628   4.482  0.0607  0.0264  0.0301
40701W        W49301  19.077   3.782  21.362  0.0816  0.0072 -0.3431
40702W        W49302  15.925   2.722  34.939 -0.0415 -0.0928 -0.2283
40703W        W49303  17.042   5.508   5.321 -0.0636  0.0388  0.2597
40704W        W49304  21.490   1.865   9.237 -0.0006  0.3249 -0.2603
40705W        W49305  15.036   1.477  23.362  0.3319  0.0399  0.0663
40706W        W49306   9.442   3.490   2.050 -0.1173 -0.0355 -0.0280
40707W        W49307  23.316   2.449  31.606 -0.2155  0.1692 -0.3902
40708W        W49308   0.578   3.412  24.493 -0.0936 -0.0525 -0.0912
40709W        W49309   6.895   0.976  32.391  0.0064  0.1202 -0.4084
40710W        W49310   0.240   1.843  12.997  0.4275 -0.0313  0.0461
40711W        W49311  13.855   0.856   1.681 -0.2198  0.1634 -0.0033
40712W        W49312  19.581   1.002   7.657  0.0249  0.1350 -0.2463
40713W        W49313  12.554   1.115   1.505  0.0886  0.2177 -0.2678
40714W        W49314   6.981   2.476   5.135  0.0583 -0.1395  0.1678
40715W        W49315  16.347   2.229  23.106 -0.2280  0.1257  0.2518
40716W        W49316  26.053   2.200  13.389  0.4150 -0.0356 -0.0483
40717W        W49317   0.099   4.319  13.867  0.1349 -0.0845  0.2831
40718W        W49318   7.343   5.499  33.722  0.1250 -0.2219 -0.1660
40719W        W49319  12.150   5.993  14.445  0.1693 -0.1351  0.1801
40720W        W49320  15.662   3.589   6.473  0.3590 -0.1724 -0.0605
40721W        W49321  13.780   5.712  36.101  0.1992 -0.4798  0.1324
40722W        W49322   0.279   1.727   4.275  0.1805  0.2710 -0.2384
40723W        W49323   1.870   0.803  13.713  0.1519  0.2378  0.1328
40724W        W49324   5.509   0.908  20.240  0.1268  0.1261  0.2706
40725W        W49325   6.696   6.317   5.444  0.3006  0.0956  0.1632
40726W        W49326  20.473   0.346   5.930  0.1255  0.1711 -0.2164
40727W        W49327   2.126   3.075  22.639  0.1055 -0.1057 -0.4211
40728W        W49328  23.041   0.641  22.263 -0.1269  0.2380  0.0231
40729W        W49329   9.785   6.512   2.253 -0.2376  0.1357 -0.0486
40730W        W49330  25.774   4.106  26.615 -0.1392  0.1052 -0.2271
40731W        W49331  21.249   5.539   2.857 -0.1141  0.0509 -0.0581
40732W        W49332  26.060   3.666  30.127 -0.0843  0.0141  0.0321
40733W        W49333  20.933   5.295   1.503  0.0610 -0.2213 -0.0910
40734W        W49334  25.037   3.957  34.817  0.1047  0.2327 -0.2671
40735W        W49335  13.686   2.163  22.040  0.0323 -0.1410  0.6399
40736W        W49336  13.594   0.508  28.794  0.0382 -0.0383  0.2667
40737W        W49337  15.644   1.218   1.536  0.0339  0.0920  0.2048
40738W        W49338  14.274   5.310  28.503 -0.0207  0.0805  0.1636
40739W        W49339   7.048   2.687   8.318  0.3003 -0.1303  0.1310
40740W        W49340  14.600   1.167   9.678  0.0224  0.1571 -0.1631
40741W        W49341  19.734   4.678   8.915  0.2850 -0.4059 -0.2325
40742W        W49342  25.666   1.681  13.098  0.2258  0.1502 -0.2580
40743W        W49343  19.289   3.229  13.571  0.0943 -0.1575  0.2341
40744W        W49344   0.204   4.445   7.967 -0.0192 -0.1511 -0.1801
40745W        W49345   3.750   1.054  30.953  0.1080 -0.2717 -0.0976
40746W        W49346  19.321   5.143   5.107 -0.1763 -0.0252 -0.0729
40747W        W49347   7.989   5.484  22.339  0.1594  0.3441  0.2244
40748W        W49348   2.499   0.995  12.777  0.1381  0.1470 -0.0057
40749W        W49349  22.365   3.687  34.261  0.1429 -0.0603 -0.0677
40750W        W49350  21.746   5.006  27.238  0.0076 -0.1609  0.0209
40751W        W49351  17.810   0.526   1.582  0.1825  0.1255  0.0224
40752W        W49352  23.248   3.229  12.970  0.3073 -0.0346 -0.2516
40753W        W49353   2.517   6.196  34.443 -0.1710  0.2304  0.1190
40754W        W49354  24.540   2.430   6.269  0.1903  0.1541  0.1044
40755W        W49355  26.353   3.871  24.518  0.0859  0.0719  0.0139
40756W        W49356  18.998   4.677  15.412  0.0819  0.1758  0.0510
40757W        W49357  18.195   0.110  27.429  0.3226 -0.1397  0.0084
40758W        W49358  21.326   1.148  23.558 -0.0529 -0.0118  0.3071
40759W        W49359  11.277   1.290  24.952 -0.2283 -0.3105  0.1449
40760W        W49360   1.824   0.563   5.075  0.2467 -0.1139 -0.1417
40761W        W49361  23.954   5.547   2.449  0.3519  0.0207 -0.1621
40762W        W49362  15.536   4.651  25.278 -0.0313  0.0933  0.1551
40763W        W49363  21.412   2.475  29.240  0.2807 -0.1289  0.0051
40764W        W49364  14.496   2.853   8.900  0.2633  0.2044 -0.0118
40765W        W49365   3.364   5.924   6.076  0.2284  0.0369  0.0515
40766W        W49366  10.176   0.349   0.409 -0.1059  0.1310 -0.2122
40767W        W49367  18.258   4.465  14.450  0.1101 -0.3777 -0.1550
40768W        W49368  13.885   5.952  11.562  0.0581 -0.0949  0.2085
40769W        W49369   2.788   1.826  14.809 -0.1663  0.3022  0.0836
40770W        W49370  15.300   4.622   0.186  0.1898  0.0971 -0.1432
40771W        W49371  12.054   5.174   8.918  0.1941 -0.0866  0.0735
40772W        W49372  18.050   0.721  11.519 -0.3181  0.2783  0.3474
40773W        W49373  14.721   6.298   6.228  0.3209  0.3442  0.1052
40774W        W49374   2.970   2.206   8.169 -0.0547  0.2076 -0.3756
40775W        W49375   8.584   5.986   3.179  0.1563  0.3326 -0.2563
40776W        W49376   0.411   5.333  29.583 -0.4780 -0.3224 -0.0219
40777W        W49377   7.446   3.381   6.322  0.3062  0.2840  0.2213
40778W        W49378  21.219   1.330   0.275  0.0806 -0.0047  0.1319
40779W        W49379  11.429   4.416   1.425 -0.1056  0.3300 -0.0341
40780W        W49380  15.989   5.702  33.502  0.3105 -0.2637  0.0562
40781W        W49381   9.099   4.665  26.015  0.3090 -0.1938  0.0343
40782W        W49382  14.101   2.381  33.297 -0.0335  0.3288  0.0070
40783W        W49383  22.340   5.003  21.059 -0.1928  0.0692  0.0021
40784W        W49384   0.507   5.931  28.021 -0.1894  0.1086 -0.0167
40785W        W49385   5.188   2.681  14.801  0.2522  0.1884  0.1481
40786W        W49386  12.599   2.405  23.940  0.1258  0.0397  0.2630
40787W        W49387   9.077   0.611  35.846  0.2068 -0.0928 -0.1524
40788W        W49388  12.363   3.645   3.482  0.2015 -0.0004 -0.1169
40789W        W49389  16.663   5.149   4.138 -0.2124  0.3289  0.0696
40790W        W49390   4.854   5.374   4.637  0.3520 -0.0658  0.0733
40791W        W49391  19.419   1.905   2.027 -0.1521 -0.0415 -0.0431
40792W        W49392  20.194   1.153  30.029 -0.2579  0.2027 -0.1543
40793W        W49393   2.084   1.831  12.192  0.0580  0.0978  0.1047
40794W        W49394  18.947   4.706  12.493 -0.1965 -0.0864 -0.0642
40795W        W49395  23.348   6.542  34.366 -0.0062 -0.1887 -0.0139
40796W        W49396  14.474   5.222  31.137  0.1240 -0.2137  0.1681
40797W        W49397  24.843   5.792   9.454  0.1960  0.0985 -0.2331
40798W        W49398  17.324   2.703  21.766  0.1058 -0.2000 -0.1115
40799W        W49399  22.310   0.949   6.675  0.1215 -0.1830 -0.0089
40800W        W49400   4.231   2.198   5.417  0.1245  0.0569 -0.0137
40801W        W49401  11.314   1.847  11.449  0.4571  0.0290 -0.2154
40802W        W49402   2.090   4.120   6.432  0.2147 -0.3673  0.0460
40803W        W49403  17.327   0.589  34.984  0.0111  0.3449 -0.0615
40804W        W49404   3.897   1.181  28.061  0.3536  0.3893  0.0268
40805W        W49405   6.220   2.344  34.574  0.0727 -0.1002  0.0113
40806W        W49406  15.999   3.205  14.216 -0.0682  0.0484 -0.0040
40807W        W49407   2.764   4.717   4.090 -0.3488 -0.0054  0.0650
40808W        W49408  10.008   2.843  13.311 -0.0295  0.0251  0.1946
40809W        W49409  20.951   4.171  29.073 -0.0350 -0.1201 -0.1321
40810W        W49410  15.779   5.158  12.356  0.0093 -0.5415  0.4449
40811W        W49411  17.065   2.943  25.382  0.0573  0.0466  0.0081
40812W        W49412  10.729   0.640  23.731 -0.0390 -0.0992 -0.0542
40813W        W49413   3.321   5.941  12.016  0.0914 -0.0130 -0.3285
40814W        W49414   9.453   0.045  22.049 -0.0189  0.2848 -0.2150
40815W        W49415  16.301   0.183  24.299 -0.2998 -0.2111 -0.2291
40816W        W49416  15.737   3.882   1.307  0.2580  0.0499 -0.0875
40817W        W49417   3.410   4.694  34.505  0.0198  0.1001  0.0885
40818W        W49418  17.127   4.386  20.922  0.2149  0.0588 -0.0712
40819W        W49419  23.315   5.796  35.683  0.1362  0.0276 -0.1303
40820W        W49420  21.964   0.419  14.792 -0.0343 -0.0701 -0.3694
40821W        W49421   6.411   0.131  23.279 -0.0288  0.0950  0.0900
40822W        W49422  18.243   6.407  15.309  0.1568  0.1498  0.0426
40823W        W49423   5.221   3.353  11.981  0.1310 -0.2670 -0.0612
40824W        W49424  16.077   3.567  21.585 -0.2484  0.1042  0.2739
40825W        W49425  10.996   2.123  29.202  0.2055  0.0888  0.2417
40826W        W49426  12.474   0.819  32.049 -0.1258  0.1312 -0.3531
40827W        W49427  15.897   5.933  24.305 -0.0460  0.0614 -0.2338
40828W        W49428  18.217   3.428  26.151 -0.1054  0.1742  0.3059
40829W        W49429  17.211   3.790   9.582  0.1923 -0.1877  0.1116
40830W        W49430  11.985   6.566   2.978  0.0467 -0.0584 -0.0337
40831W        W49431   1.560   1.389  23.889 -0.2103  0.1054  0.0531
40832W        W49432   0.198   0.970   9.904  0.0942  0.1138  0.1186
40833W        W49433  16.606   0.460  32.027 -0.0894  0.1500 -0.3207
40834W        W49434  15.639   1.069  10.659 -0.0144 -0.1498 -0.2698
40835W        W49435   9.682   4.745  26.458  0.3704  0.1207 -0.0158
40836W        W49436   9.523   3.320   4.352  0.1482  0.1953 -0.0143
40837W        W49437  25.493   4.892  25.018  0.1649  0.2413 -0.0381
40838W        W49438  12.612   0.230  27.810 -0.1286 -0.5686  0.1199
40839W        W49439  12.657   3.140   7.748  0.0202 -0.0540 -0.1140
40840W        W49440  12.638   3.140   1.728 -0.1158 -0.2075 -0.1223
40841W        W49441  17.002   5.245  14.033  0.0654 -0.0113 -0.0706
40842W        W49442  21.013   2.717  11.566  0.1102 -0.1439  0.0323
40843W        W49443   4.812   4.246  28.706 -0.0416 -0.0122 -0.0373
40844W        W49444   6.395   5.014  23.203  0.2200 -0.0894  0.2853
40845W        W49445  12.495   0.621  21.343 -0.0215 -0.2952 -0.0209
40846W        W49446  19.578   0.222   6.394  0.0543  0.2491  0.1485
40847W        W49447   0.851   2.646   6.021  0.1842  0.1468  0.0213
40848W        W49448   0.744   0.325   9.866  0.1411  0.1744 -0.1583
40849W        W49449  19.491   6.510   4.365 -0.1779 -0.0535 -0.0955
40850W        W49450  10.015   0.106   3.321  0.2911 -0.2814 -0.1096
40851W        W49451  14.287   5.450  35.847  0.0369 -0.1167 -0.1066
40852W        W49452  21.665   4.414  23.675  0.3481 -0.0739  0.1250
40853W        W49453   5.785   4.299  30.548 -0.0649  0.2282  0.2123
40854W        W49454  26.398   1.259  22.951  0.0124 -0.3577  0.0528
40855W        W49455  10.412   0.379   1.898  0.2991  0.1731  0.0642
40856W        W49456   1.049   3.928  14.248  0.2152  0.0873 -0.2112
40857W        W49457  16.732   2.880   1.475  0.1375 -0.1876  0.0403
40858W        W49458  18.041   0.995   1.023 -0.0181 -0.0216 -0.0906
40859W        W49459  14.426   4.498  29.273  0.0878  0.0979 -0.2319
40860W        W49460  14.346   4.285  21.412  0.0405  0.0699  0.2035
40861W        W49461  13.865   6.151   4.327 -0.2551  0.1572  0.0078
40862W        W49462  14.620   2.545  13.998 -0.2477  0.0913 -0.0656
40863W        W49463  12.102   4.772   9.213  0.1674  0.0047 -0.2403
40864W        W49464   5.917   5.985   5.127 -0.0547 -0.1561 -0.1963
40865W        W49465  13.842   2.428  21.016 -0.1433 -0.0433 -0.5164
40866W        W49466   1.967   0.518  27.661  0.2669  0.1323  0.2734
40867W        W49467  16.964   3.070   6.714 -0.0826  0.3227  0.2251
40868W        W49468  10.715   1.085   5.500  0.5816 -0.2359 -0.0182
40869W        W49469  20.519   0.444  23.599  0.0655  0.0590 -0.0811
40870W        W49470  11.109   1.904   1.930 -0.1163 -0.1090  0.2895
40871W        W49471   4.637   2.112  11.366  0.1742 -0.1399 -0.1242
40872W        W49472   4.030   4.538  24.631 -0.1248  0.1043  0.2605
40873W        W49473  25.067   5.813   0.615  0.0262 -0.0676 -0.4129
40874W        W49474  22.743   1.237   9.473  0.2669 -0.0101 -0.2608
40875W        W49475  22.616   1.455   1.437 -0.1098  0.2409 -0.1166
40876W        W49476  23.107   6.575   3.890  0.0790  0.1532  0.0800
40877W        W49477   2.227   5.961   8.830 -0.3178  0.0485  0.3621
40878W        W49478  20.894   1.747  35.989 -0.0382 -0.1519 -0.2712
40879W        W49479   5.842   6.327  14.226 -0.2961  0.2429 -0.0668
40880W        W49480   6.646   4.210   3.033 -0.0789  0.2621 -0.1876
40881W        W49481  20.612   2.097  22.286  0.3863 -0.1496 -0.0277
40882W        W49482   8.801   3.978  30.782 -0.1203  0.0157 -0.0591
40883W        W49483  20.054   2.398  27.286 -0.1955  0.3151 -0.3181
40884W        W49484   2.302   1.009  26.128 -0.1053  0.2495 -0.0897
40885W        W49485  15.522   2.795  28.598 -0.0221  0.2036 -0.1505
40886W        W49486   1.714   1.972  14.868 -0.0948 -0.1323 -0.0097
40887W        W49487  26.418   6.139  33.932 -0.0842  0.2184 -0.1051
40888W        W49488  16.077   1.519  29.135 -0.0441  0.0205  0.1632
40889W        W49489   0.181   5.017   0.097 -0.2515 -0.3927 -0.1183
40890W        W49490  23.580   6.054   7.903  0.0585  0.0517 -0.1630
40891W        W49491  12.430   1.363  25.765  0.1218  0.1346 -0.3386
40892W        W49492   9.580   5.064   4.283  0.0732  0.0522  0.2437
40893W        W49493  15.309   3.504  34.443  0.3409 -0.2888 -0.2950
40894W        W49494  20.978   3.156  31.374 -0.0005 -0.2423  0.0169
40895W        W49495  20.889   0.806   0.962 -0.3220 -0.0042 -0.1393
40896W        W49496  14.979   5.446   2.993  0.0621  0.0196 -0.2439
40897W        W49497   9.264   3.499   5.855 -0.0765  0.1221 -0.2926
40898W        W49498  19.781   5.085  22.579  0.3328 -0.2054  0.0721
40899W        W49499   3.642   1.132   7.619 -0.1912 -0.3571 -0.0097
40900W        W49500   6.934   4.294  20.909 -0.1185 -0.0797 -0.3580
40901W        W49501   1.342   5.827  30.131  0.1294 -0.0000 -0.2409
40902W        W49502   7.372   5.454  20.539 -0.0193  0.0737 -0.4450
40903W        W49503   3.589   3.580  15.975 -0.0007 -0.0680  0.1078
40904W        W49504   3.318   4.651  24.661  0.4047  0.2536 -0.1070
40905W        W49505  21.292   3.821  30.863  0.0549  0.0118  0.4365
40906W        W49506  13.283   3.377   0.041 -0.0286 -0.0432 -0.5258
40907W        W49507  17.549   2.473  14.726 -0.2853  0.1273 -0.2598
40908W        W49508   7.240   4.955   0.836 -0.0897 -0.1332 -0.2125
40909W        W49509  13.053   1.567   8.348  0.0492  0.1685  0.2901
40910W        W49510   3.309   0.913  27.156  0.2048 -0.0021  0.2100
40911W        W49511   7.940   5.787   0.961  0.0050 -0.0232  0.0243
40912W        W49512  19.961   6.228  34.370 -0.1097 -0.0342 -0.0765
40913W        W49513  10.202   2.378  10.415 -0.2439  0.1859 -0.0176
40914W        W49514  25.711   1.992  11.194  0.1815 -0.0204 -0.1587
40915W        W49515   2.451   4.344  27.650 -0.0722  0.1238 -0.2379
40916W        W49516  12.581   5.368   7.212  0.1348  0.2257 -0.0779
40917W        W49517  16.298   6.421   4.615  0.1730 -0.0412  0.2356
40918W        W49518   8.689   1.324  11.684 -0.2082 -0.0002  0.1325
40919W        W49519  19.956   5.183  30.614  0.2634  0.1958 -0.1064
40920W        W49520   0.710   2.347   1.365  0.3136 -0.1170 -0.1122
40921W        W49521  24.720   1.983   0.851 -0.0571 -0.0180 -0.2015
40922W        W49522   9.786   5.619   8.331 -0.1264  0.2292  0.2045
40923W        W49523  11.363   6.232   8.142 -0.1026 -0.1540 -0.2638
40924W        W49524  21.212   4.056  34.176  0.2180  0.3160  0.0112
40925W        W49525   3.515   5.854  24.738  0.1145  0.2032 -0.0997
40926W        W49526   9.416   5.842  34.669 -0.1625 -0.1504 -0.3042
40927W        W49527   6.412   2.537   0.831  0.2566 -0.1120  0.1885
40928W        W49528  16.970   4.341  34.522  0.4137  0.3326 -0.0014
40929W        W49529   0.261   1.274  14.145 -0.2188 -0.0855 -0.2235
40930W        W49530  23.802   5.178  27.834  0.0518  0.0816 -0.2176
40931W        W49531  17.285   0.747  29.645 -0.2440  0.1722 -0.1674
40932W        W49532   4.054   5.290  13.822  0.0884 -0.1982 -0.2159
40933W        W49533  18.289   1.671  29.740 -0.2181 -0.0647 -0.1647
40934W        W49534  14.583   1.675  29.261  0.1633  0.2205 -0.0410
40935W        W49535  14.451   0.212   0.902  0.0867 -0.0904  0.3084
40936W        W49536  21.253   2.060  31.662  0.0586  0.4871  0.3225
40937W        W49537   7.988   0.665  34.397 -0.0056  0.0601 -0.1190
40938W        W49538  15.519   3.779   9.990 -0.1096  0.0413  0.0260
40939W        W49539  22.226   3.169   5.316  0.0061  0.1291 -0.0260
40940W        W49540  20.025   0.354   6.223  0.1627  0.4900 -0.0505
40941W        W49541   8.757   1.625  30.452 -0.0160  0.3732  0.3040
40942W        W49542  17.534   3.176   5.567 -0.1816 -0.1346 -0.1272
40943W        W49543  19.391   4.882  13.494  0.1813 -0.1322 -0.0829
40944W        W49544  18.088   2.957  11.743 -0.2979  0.1359 -0.0010
40945W        W49545  15.079   4.787  27.851 -0.0139 -0.1898  0.2235
40946W        W49546   3.613   2.270   8.666  0.0683 -0.1143  0.3512
40947W        W49547   7.931   1.708  13.004 -0.2982 -0.0645 -0.3981
40948W        W49548   7.965   4.023  24.559  0.0833  0.0595  0.2075
40949W        W49549  13.546   1.525  10.322  0.2200  0.0762 -0.0604
40950W        W49550   9.868   1.609  12.378  0.1276 -0.1284  0.0516
40951W        W49551   9.036   6.228  27.632  0.1207  0.1517 -0.0268
40952W        W49552   8.309   1.896   9.172  0.1529 -0.0197 -0.0353
40953W        W49553   2.967   1.325   0.900  0.3441  0.3918 -0.1217
40954W        W49554   1.133   5.539  34.035  0.0885  0.2177  0.0460
40955W        W49555  11.861   1.640   0.873 -0.3963 -0.2083 -0.0412
40956W        W49556   9.835   2.257   8.080 -0.0855  0.1414 -0.2163
40957W        W49557  13.396   4.773  30.063  0.2859  0.2274 -0.0947
40958W        W49558  16.358   0.972   6.292 -0.1548 -0.1250  0.1645
40959W        W49559  17.357   4.216   4.895  0.0046  0.2074  0.0237
40960W        W49560  11.525   2.778  28.793  0.0305 -0.0225  0.0045
40961W        W49561   2.651   0.935   7.380  0.0107  0.2803 -0.0608
40962W        W49562   2.292   6.019  22.746  0.1043  0.1281  0.4500
40963W        W49563  15.664   3.425   1.611  0.0171 -0.0224  0.2382
40964W        W49564  13.486   5.008  14.845  0.3801 -0.1550  0.5588
40965W        W49565   5.896   0.786  29.244  0.0774 -0.0763  0.0387
40966W        W49566   0.720   0.077  31.404 -0.1217  0.1697 -0.0824
40967W        W49567  17.573   3.366  24.820  0.2534 -0.0652  0.1563
40968W        W49568  19.402   4.570  27.998  0.0820  0.0131 -0.2202
40969W        W49569   9.468   5.291  12.234 -0.3223 -0.0727  0.0341
40970W        W49570  17.984   0.766   5.977 -0.1973 -0.0026  0.0922
40971W        W49571   8.666   3.501  31.748 -0.0826  0.1576 -0.0290
40972W        W49572   3.803   4.183  26.474 -0.2142 -0.0466  0.4026
40973W        W49573  17.807   1.071  35.192  0.0431  0.0067  0.0093
40974W        W49574  21.551   4.061   8.215  0.3417  0.0426  0.1435
40975W        W49575  25.712   4.383  20.357  0.0029  0.1090  0.2728
40976W        W49576   1.939   3.538   3.470 -0.0008  0.3054 -0.0711
40977W        W49577  18.986   4.077  12.779 -0.1827  0.1757 -0.1600
40978W        W49578  10.281   2.679  25.477 -0.0424 -0.1578 -0.1573
40979W        W49579   5.234   1.951  12.044  0.2431  0.3593 -0.0631
40980W        W49580   2.668   4.807   6.670  0.0384  0.1837  0.0421
40981W        W49581  10.129   3.731  28.749 -0.1068 -0.1746 -0.2746
40982W        W49582   1.007   4.167   8.402 -0.1894 -0.3481 -0.0397
40983W        W49583   3.466   6.156  26.219  0.0984  0.0790 -0.2505
40984W        W49584  19.010   5.966  22.234 -0.1120  0.0751 -0.2653
40985W        W49585  25.601   0.243  27.857 -0.0269  0.1098  0.2214
40986W        W49586  21.791   5.581  11.956 -0.0471  0.0545  0.2274
40987W        W49587   1.780   4.308   3.216 -0.1145 -0.0409 -0.1559
40988W        W49588  13.410   6.137  11.456 -0.0082 -0.1802 -0.1623
40989W        W49589  24.984   0.063  34.421  0.2435  0.1957  0.0428
40990W        W49590  14.985   6.204   2.514  0.0697  0.0518 -0.0421
40991W        W49591  21.872   3.561  34.429  0.0449 -0.1341 -0.1736
40992W        W49592  16.285   6.161   6.644  0.0636  0.0334 -0.0032
40993W        W49593  20.156   2.700  31.619  0.2158  0.2528 -0.3074
40994W        W49594  23.161   0.070  25.374 -0.0737  0.0537  0.2426
40995W        W49595  22.500   0.631   2.822  0.0524  0.0096 -0.1988
40996W        W49596   9.026   3.268  22.984 -0.2474  0.3167 -0.2782
40997W        W49597  21.656   6.174   3.036 -0.0689 -0.2877 -0.2797
40998W        W49598  24.251   4.585  20.875  0.1793 -0.0042 -0.0650
40999W        W49599  20.987   6.317  23.996  0.0977  0.1033 -0.3615
41000W        W49600  14.117   4.507   8.437 -0.2031 -0.0202 -0.0613
41001W        W49601  26.351   1.227  25.914  0.2331  0.1884 -0.2902
41002W        W49602   1.029   3.719   0.083 -0.0445 -0.0211  0.3228
41003W        W49603  16.069   6.091  32.937  0.1904 -0.0049  0.1302
41004W        W49604  20.999   3.985  24.282 -0.0086 -0.1723  0.0528
41005W        W49605  23.950   2.606  29.163 -0.4741  0.3540 -0.2116
41006W        W49606  15.289   6.187  32.510  0.2520  0.0993  0.1842
41007W        W49607   8.599   0.635  32.849 -0.0484 -0.1045  0.0537
41008W        W49608  24.373   5.313  11.922 -0.2826  0.1558  0.2630
41009W        W49609  22.021   2.223  27.194 -0.1359  0.2097 -0.1473
41010W        W49610  12.760   3.304  24.491  0.4654 -0.0600  0.1408
41011W        W49611   1.624   0.572  15.142 -0.3208 -0.1315  0.3195
41012W        W49612   4.791   4.271   7.156 -0.0068  0.4283  0.0911
41013W        W49613  16.782   5.602  21.730 -0.3101 -0.0176 -0.0088
41014W        W49614  21.726   5.203  33.695 -0.1051  0.2013  0.0358
41015W        W49615  16.652   4.642   0.601  0.1862 -0.3049  0.0014
41016W        W49616  14.911   6.117   5.187  0.0220  0.0506 -0.0771
41017W        W49617  12.359   1.575  26.262 -0.1814  0.0730  0.1080
41018W        W49618  16.217   3.403   2.769  0.0411  0.0357  0.0794
41019W        W49619   8.164   3.373  31.516 -0.1482 -0.0576 -0.2002
41020W        W49620  13.363   1.529   2.677  0.1332 -0.0603  0.0885
41021W        W49621   5.456   3.490   5.376  0.0561  0.0071 -0.0565
41022W        W49622   6.377   2.645  33.536  0.0910  0.1028  0.0744
41023W        W49623  21.487   2.910   7.168 -0.0488  0.1279 -0.0088
41024W        W49624   7.092   5.680   6.043 -0.2691 -0.0238  0.0551
41025W        W49625  22.688   4.932   4.841 -0.0419 -0.2444  0.1869
41026W        W49626  20.429   4.148   9.233  0.0418 -0.2620  0.1444
41027W        W49627  21.860   3.995   8.920 -0.1737 -0.0938 -0.0614
41028W        W49628   2.557   0.948  33.951  0.0963 -0.3090 -0.1593
41029W        W49629  13.822   2.512   9.047  0.0461 -0.1321  0.3444
41030W        W49630  22.927   4.744   3.654 -0.0123 -0.0785  0.0760
41031W        W49631  13.572   3.851  35.647  0.0068  0.2248 -0.0931
41032W        W49632  19.784   6.214  22.772  0.1802 -0.1401  0.0129
41033W        W49633  19.980   4.450   7.130  0.2651  0.2527 -0.1870
41034W        W49634  20.351   5.382   4.960 -0.0103 -0.2135 -0.2730
41035W        W49635  19.007   4.292  33.933 -0.1738  0.2874 -0.1938
41036W        W49636   4.278   1.914  15.447 -0.3735 -0.0134  0.0682
41037W        W49637  12.333   2.639  33.421  0.0535 -0.2831 -0.0523
41038W        W49638  12.761   2.355   0.534 -0.2999  0.1215  0.2867
41039W        W49639   4.366   2.090  35.816  0.1469 -0.0597  0.3175
41040W        W49640  17.191   0.992   5.252  0.1103  0.2619 -0.0017
41041W        W49641  20.643   6.536   1.850 -0.1392 -0.1781  0.3458
41042W        W49642  13.266   1.017   6.133  0.0240  0.0053 -0.0430
41043W        W49643   6.213   6.372  20.506  0.0243 -0.3058  0.0475
41044W        W49644  21.903   0.920   7.019 -0.1438 -0.1538  0.1308
41045W        W49645  25.905   3.047   2.727 -0.0526  0.1485  0.1978
41046W        W49646   1.623   6.408  31.087 -0.2913  0.1657  0.0534
41047W        W49647  21.036   3.400  28.683 -0.0604  0.0350 -0.0071
41048W        W49648  18.125   6.379  11.537 -0.1628 -0.1001 -0.1847
41049W        W49649  18.556   3.111   0.976 -0.0994 -0.0869 -0.2797
41050W        W49650  25.266   3.936   5.533 -0.0631 -0.0713  0.0072
41051W        W49651   9.847   6.466  10.602 -0.0370  0.1393  0.2789
41052W        W49652  16.094   5.934   2.893  0.1951 -0.0956  0.0540
41053W        W49653   7.359   4.955  29.405  0.0357  0.0568  0.3300
41054W        W49654   6.881   2.021  31.998  0.0131  0.1274  0.1501
41055W        W49655  10.005   3.000  24.494  0.0939  0.0195  0.1857
41056W        W49656  10.652   0.362   1.436 -0.2018  0.0577  0.0641
41057W        W49657   7.398   0.054  30.406 -0.0675 -0.2675  0.1825
41058W        W49658   4.627   2.030   6.278  0.0048 -0.0143 -0.1099
41059W        W49659  18.482   1.963  15.532 -0.0635  0.1867 -0.5621
41060W        W49660  19.557   5.857  13.234  0.2321  0.2253 -0.0622
41061W        W49661  10.009   5.650   6.782  0.0236  0.4191 -0.0873
41062W        W49662  17.624   5.192  10.554  0.0019 -0.0449  0.1806
41063W        W49663  21.283   1.952   0.948  0.0731 -0.2580  0.2056
41064W        W49664  25.292   0.210  10.359 -0.0877 -0.0625  0.0445
41065W        W49665  19.832   0.054  34.703  0.0197  0.1519  0.2201
41066W        W49666   0.752   2.327  20.805 -0.0503 -0.1372 -0.2608
41067W        W49667   5.969   0.608   0.162  0.1026 -0.2807 -0.2684
41068W        W49668   8.512   6.589  20.465  0.0919  0.1577 -0.2022
41069W        W49669   3.000   5.999  33.806 -0.1193  0.2697  0.1062
41070W        W49670  14.329   0.767  11.124 -0.0046 -0.2303 -0.1062
41071W        W49671   1.779   4.274  22.101  0.1889 -0.2222 -0.1899
41072W        W49672  11.902   5.614  23.712  0.0910 -0.0723 -0.1147
41073W        W49673  13.650   3.390  27.068 -0.0983  0.0006  0.0178
41074W        W49674   1.403   4.836  13.651 -0.1696 -0.0302 -0.0346
41075W        W49675   9.001   3.838  24.096 -0.1404  0.0950 -0.0147
41076W        W49676   6.692   5.043  27.763  0.0226  0.1263 -0.1320
41077W        W49677  16.764   1.937   1.530  0.1995 -0.0576  0.0575
41078W        W49678  11.110   2.263  32.187 -0.2135  0.1065  0.2880
41079W        W49679  19.067   0.649   4.306  0.0606  0.0133  0.1487
41080W        W49680  18.576   5.355   5.720 -0.2404 -0.0297  0.0167
41081W        W49681  15.198   6.057   0.497  0.2112  0.1851 -0.1294
41082W        W49682  19.272   0.957   8.077  0.0586 -0.0287 -0.0398
41083W        W49683   4.322   4.598   5.028  0.2509 -0.0157 -0.0215
41084W        W49684  25.601   6.520  23.578 -0.0854 -0.1171 -0.1741
41085W        W49685   7.208   0.101   6.100 -0.0991  0.0081  0.2815
41086W        W49686  11.438   3.708  28.353 -0.1503 -0.1154 -0.1430
41087W        W49687  23.357   5.448  33.853  0.4419 -0.1452 -0.0556
41088W        W49688  18.052   3.368  35.459 -0.1150  0.2037 -0.2583
41089W        W49689  17.027   1.902  10.395  0.0494  0.0102  0.1075
41090W        W49690   4.340   6.053   6.386  0.0977  0.0650 -0.1764
41091W        W49691   4.943   4.653   1.216  0.0782  0.1338 -0.0162
41092W        W49692  24.212   1.095  12.412  0.0708  0.0856 -0.3778
41093W        W49693   2.720   2.891  12.062  0.2566 -0.0774 -0.4290
41094W        W49694  21.186   3.047   5.802  0.1723 -0.0482  0.2096
41095W        W49695  25.551   0.515  35.475  0.0688 -0.0318  0.1554
41096W        W49696   6.223   0.740   8.248  0.0328  0.0959  0.1388
41097W        W49697  10.579   2.203  31.851 -0.2650 -0.0394  0.0331
41098W        W49698  12.174   5.330  12.826 -0.2547  0.1190 -0.0817
41099W        W49699  19.402   2.271   9.024 -0.1416 -0.0810 -0.1976
41100W        W49700  21.724   6.187  26.060 -0.1352 -0.1516  0.1610
41101W        W49701   6.391   5.818   6.726  0.4719  0.0404 -0.2923
41102W        W49702  14.105   5.173  33.782 -0.1662 -0.0818 -0.1990
41103W        W49703   2.177   0.352  11.496  0.1028 -0.1064 -0.0103
41104W        W49704   7.907   2.402   8.422  0.0582 -0.0495  0.3516
41105W        W49705  17.632   0.756  21.482 -0.2677  0.1909  0.0287
41106W        W49706  11.057   0.889  32.421 -0.3364  0.1356 -0.2929
41107W        W49707   6.582   5.617  12.185 -0.0759  0.0040 -0.0030
41108W        W49708  16.564   6.602  13.366  0.4448  0.2391  0.0014
41109W        W49709   7.617   5.655   1.302 -0.1575  0.1545 -0.1071
41110W        W49710  25.071   0.635  10.229  0.1136 -0.2171 -0.1345
41111W        W49711   3.956   0.047  35.603 -0.2258 -0.0719  0.2362
41112W        W49712  21.865   1.446  30.840 -0.2458 -0.2472 -0.1876
41113W        W49713  12.556   1.888  28.437  0.1565 -0.1716 -0.3695
41114W        W49714  12.186   3.912  13.322  0.2998  0.0316  0.0447
41115W        W49715   0.886   2.156  31.445 -0.3197 -0.3890  0.1019
41116W        W49716  13.347   2.710   2.062 -0.0704  0.0746  0.1531
41117W        W49717   5.654   0.137   4.984  0.3026  0.1734 -0.0051
41118W        W49718  21.201   4.846   6.969  0.2438  0.0353 -0.1925
41119W        W49719  16.585   2.560  31.754 -0.1672  0.1203  0.1904
41120W        W49720  12.186   4.574  13.919  0.1762 -0.0734 -0.0645
41121W        W49721   0.997   0.516  30.382 -0.1719 -0.0999  0.2156
41122W        W49722   0.355   6.107  12.712 -0.1637 -0.0394 -0.4317
41123W        W49723  13.849   0.051  22.204  0.1703 -0.0682 -0.1266
41124W        W49724   7.927   1.717  30.459 -0.2334 -0.4326  0.0868
41125W        W49725  18.473   1.437  23.888 -0.1107 -0.0623 -0.0049
41126W        W49726  14.185   4.944   8.790 -0.1066 -0.0193 -0.2614
41127W        W49727   7.266   5.760  30.264 -0.2233 -0.2605 -0.1314
41128W        W49728   0.014   1.654  22.333  0.1354  0.2324  0.1909
41129W        W49729  24.178   5.287  27.481 -0.0310 -0.1986 -0.1210
41130W        W49730  24.579   3.323  28.283 -0.2189  0.1780 -0.2437
41131W        W49731   7.288   5.201   3.363 -0.2177 -0.0763  0.0869
41132W        W49732  18.873   6.302  12.790  0.1037 -0.0184  0.0238
41133W        W49733  13.907   1.273  32.074 -0.0477  0.1672  0.0442
41134W        W49734  21.978   3.383   6.844  0.1207 -0.3345 -0.0943
41135W        W49735   7.653   2.106  21.188  0.1246  0.0751 -0.0118
41136W        W49736   1.015   4.099   2.370 -0.2058 -0.3334  0.2411
41137W        W49737  13.757   6.450  29.914 -0.1338  0.1527  0.1633
41138W        W49738   4.291   2.056  35.307 -0.1844  0.1851 -0.2133
41139W        W49739  16.739   0.873  33.022 -0.0088  0.1829  0.0529
41140W        W49740  20.286   3.526  24.178  0.0585 -0.1170  0.0489
41141W        W49741   0.833   5.322  35.036  0.0454  0.0313  0.2004
41142W        W49742  11.225   0.117  12.611 -0.0670  0.1126  0.0983
41143W        W49743  24.037   3.697   4.567 -0.3148  0.1661  0.3711
41144W        W49744  16.207   4.880   7.973 -0.0161  0.0025 -0.3417
41145W        W49745  15.550   5.550   2.278 -0.1286 -0.0048  0.0466
41146W        W49746  21.496   1.622  26.697 -0.1635  0.1026  0.1299
41147W        W49747  25.022   1.898   2.667 -0.0949 -0.0307  0.2855
41148W        W49748   5.455   1.734   3.882  0.2018  0.1647 -0.1978
41149W        W49749  12.057   1.453  11.845 -0.4300  0.3801 -0.0447
41150W        W49750   1.885   4.074  30.329  0.1833  0.1655  0.0821
41151W        W49751  14.511   6.021  11.057  0.0150  0.2568  0.0822
41152W        W49752   5.751   5.045   2.950 -0.1029 -0.1426 -0.1616
41153W        W49753  14.094   3.292  14.471  0.3782  0.1319 -0.0003
41154W        W49754  12.482   1.231  35.252  0.0182 -0.1491 -0.1682
41155W        W49755  11.298   2.482  31.188  0.0207  0.1391  0.2474
41156W        W49756   8.005   0.998   0.851 -0.0786 -0.0739 -0.1857
41157W        W49757   4.185   2.311   6.174  0.0327 -0.2366 -0.1451
41158W        W49758  17.709   4.360  34.970  0.1802  0.0985  0.3136
41159W        W49759  22.688   6.083   7.463 -0.1669  0.0820 -0.2476
41160W        W49760   8.457   3.220  12.054  0.2470  0.2369  0.2498
41161W        W49761  22.115   5.998   0.467 -0.0514  0.0979 -0.1171
41162W        W49762   2.200   1.636  20.578  0.1409  0.0689 -0.0881
41163W        W49763  17.994   5.761  25.005 -0.2714  0.1536 -0.1458
41164W        W49764  23.627   1.654   3.906  0.3022 -0.3000 -0.0120
41165W        W49765   0.644   5.505  13.654 -0.1421  0.1007 -0.0840
41166W        W49766  10.968   5.490  33.493  0.1347 -0.1352  0.1462
41167W        W49767  20.195   3.637   1.578 -0.1053 -0.2304  0.0416
41168W        W49768  19.239   1.456  28.207 -0.1450  0.0403  0.1475
41169W        W49769   9.621   6.120  27.527 -0.4965 -0.1714  0.2490
41170W        W49770  23.211   4.350  24.270 -0.0665  0.0562  0.2439
41171W        W49771   6.800   3.016  26.417 -0.0313 -0.1653 -0.0320
41172W        W49772   4.063   0.497  32.641  0.1213  0.0646 -0.1283
41173W        W49773  15.954   3.432  29.199  0.1681 -0.5314  0.0238
41174W        W49774   5.123   0.023  12.393  0.0851  0.0036  0.0694
41175W        W49775   8.876   1.018  28.624  0.1778  0.1154 -0.0552
41176W        W49776  21.838   5.318  14.800  0.1967  0.3511  0.1613
41177W        W49777  19.185   0.887  26.089 -0.0787 -0.0928  0.1942
41178W        W49778  24.032   5.149  22.531 -0.0658 -0.0219  0.0912
41179W        W49779   5.078   3.599  25.231  0.2445 -0.1768  0.0936
41180W        W49780   4.611   6.368   3.414  0.0911 -0.2760  0.2666
41181W        W49781  23.107   1.410  35.386  0.2184  0.3625 -0.0640
41182W        W49782  23.608   4.052  20.498  0.1292 -0.0246 -0.2261
41183W        W49783  25.532   2.667  35.226 -0.1319 -0.1697  0.2413
41184W        W49784  26.099   0.007  15.021 -0.2913 -0.0471  0.2188
41185W        W49785  12.772   5.619  15.122 -0.1188  0.0218  0.1562
41186W        W49786  22.072   2.125  27.710 -0.2139 -0.0948 -0.1085
41187W        W49787  16.787   4.328   8.436  0.1487  0.1906 -0.0386
41188W        W49788   3.919   0.073  12.067 -0.1033  0.2641  0.0527
41189W        W49789  19.790   3.895  24.711  0.3085 -0.0616  0.4976
41190W        W49790   9.470   2.007  11.303 -0.0238  0.1590  0.1404
41191W        W49791   7.878   2.016   9.469  0.0075 -0.0118  0.0973
41192W        W49792   6.392   0.008  31.539  0.1343  0.0712 -0.0508
41193W        W49793  15.909   4.878  27.553 -0.1039 -0.1815  0.1131
41194W        W49794  16.630   4.212  12.602  0.0128  0.1796  0.0109
41195W        W49795  12.909   3.145  28.182 -0.2150  0.0402 -0.1085
41196W        W49796   2.520   3.761  28.428 -0.1922  0.0609  0.3903
41197W        W49797  18.661   0.588  15.240 -0.1587  0.1215  0.3564
41198W        W49798  21.212   0.170  12.848  0.0364  0.1828 -0.1223
41199W        W49799   7.864   5.415   9.124  0.0502  0.2086 -0.0014
41200W        W49800   1.892   4.562   6.467 -0.0706  0.0042  0.1624
41201W        W49801   1.586   3.901  23.800  0.1682 -0.0815 -0.1667
41202W        W49802   1.674   5.912  12.886  0.2917 -0.0382 -0.0178
41203W        W49803  13.890   0.381  27.231 -0.1942 -0.3673  0.1843
41204W        W49804  11.521   1.281  33.191  0.0397 -0.0043  0.2009
41205W        W49805   6.564   0.532   8.627 -0.1118  0.1579  0.3641
41206W        W49806   8.912   3.613  27.163  0.1277  0.2268 -0.1869
41207W        W49807  10.064   6.159   6.941  0.1929 -0.2969  0.0108
41208W        W49808   1.773   0.348   7.866 -0.0544  0.1659 -0.2914
41209W        W49809  24.851   6.363  12.211  0.3109 -0.1410  0.0888
41210W        W49810  15.672   2.870  15.758 -0.1837  0.0459  0.1012
41211W        W49811  23.991   0.178  11.371 -0.0785 -0.1029 -0.1343
41212W        W49812   7.405   6.355  15.090  0.1814 -0.1161 -0.3323
41213W        W49813  13.670   6.509  36.130  0.1892  0.1216 -0.1651
41214W        W49814  26.217   6.537  24.768  0.0873  0.1971  0.1219
41215W        W49815   5.877   4.822  14.943 -0.0523  0.0176  0.1390
41216W        W49816  21.768   2.900   2.046  0.2130  0.1897 -0.0772
41217W        W49817   1.303   5.059  24.587  0.1448 -0.0549  0.1052
41218W        W49818   7.215   4.207  21.653 -0.0975 -0.3517  0.0383
41219W        W49819   6.574   1.964  10.412 -0.0307 -0.1459 -0.1407
41220W        W49820   3.158   1.973   6.578  0.1461 -0.1278 -0.2305
41221W        W49821   6.748   1.696   8.022 -0.1925 -0.0417 -0.2984
41222W        W49822   6.347   6.027  33.013 -0.2811  0.0402  0.1925
41223W        W49823  25.593   2.306  28.405  0.1686 -0.2019 -0.0158
41224W        W49824  11.651   0.572  21.526  0.0434 -0.0414  0.2061
41225W        W49825  20.567   0.845  30.370  0.1893  0.0474 -0.0973
41226W        W49826  17.888   0.971   7.974 -0.0220  0.0700  0.0028
41227W        W49827  26.104   0.354  33.210  0.0117 -0.2400  0.0682
41228W        W49828   5.227   1.010  23.183 -0.0600 -0.3644  0.2260
41229W        W49829  13.078   1.926  28.436  0.0862  0.2275 -0.1889
41230W        W49830  12.968   1.699   8.801 -0.3123  0.0010 -0.2011
41231W        W49831  24.391   6.324  33.073 -0.0916  0.2019 -0.2783
41232W        W49832  21.639   1.832  33.981  0.2508 -0.1729 -0.1292
41233W        W49833   6.725   4.173   0.948 -0.1815  0.0020  0.0344
41234W        W49834  11.933   3.112  32.838 -0.2243 -0.1570  0.2652
41235W        W49835  19.053   0.351  34.802 -0.1071 -0.2358  0.0605
41236W        W49836  12.559   4.904   8.542  0.0184 -0.1649 -0.0548
41237W        W49837  23.949   0.228  35.072  0.0916 -0.1871 -0.1779
41238W        W49838   9.451   2.370  14.228 -0.0108  0.1954 -0.0067
41239W        W49839   5.619   3.066  34.176  0.1088  0.2184  0.1400
41240W        W49840  14.904   4.311  21.914  0.0591 -0.3850 -0.3271
41241W        W49841   8.159   4.955  35.244 -0.0295  0.1681  0.1417
41242W        W49842  12.144   4.969  24.467  0.1722  0.1002 -0.0149
41243W        W49843  23.747   2.610  14.874 -0.0988 -0.0411 -0.2067
41244W        W49844  21.421   6.442  20.624  0.0645  0.2343  0.1394
41245W        W49845   2.237   0.496  32.908 -0.1426  0.0115  0.3750
41246W        W49846   9.152   3.728  22.678 -0.2946 -0.1159  0.0546
41247W        W49847  11.860   4.735  21.863  0.2500 -0.0080 -0.0039
41248W        W49848   9.974   1.267  22.015 -0.1835 -0.3413  0.0987
41249W        W49849  21.413   1.047  20.344  0.2325  0.0471  0.1899
41250W        W49850  25.327   5.416  22.068 -0.1465 -0.1086  0.1871
41251W        W49851  16.166   0.804  25.158 -0.1938 -0.0965  0.0472
41252W        W49852  26.424   3.106  21.560 -0.1591 -0.0279  0.1918
41253W        W49853   6.568   6.564  32.405  0.0051  0.1067  0.1747
41254W        W49854   2.345   2.693  35.907 -0.1107 -0.1283  0.0708
41255W        W49855  20.138   2.621  13.221 -0.1906 -0.0430  0.0840
41256W        W49856  19.404   2.475   7.948  0.0280 -0.1766 -0.2997
41257W        W49857  23.505   2.037  35.127 -0.0439 -0.0540  0.2225
41258W        W49858  22.168   1.473  35.987 -0.0565  0.1373 -0.0686
41259W        W49859   5.365   5.157   5.399 -0.0467 -0.0992 -0.1004
41260W        W49860  15.592   3.205  36.140  0.0251 -0.0890 -0.4893
41261W        W49861   2.741   3.643   0.881  0.1267  0.0133 -0.0164
41262W        W49862  15.869   2.790  29.189  0.2395  0.0316 -0.2043
41263W        W49863   8.965   0.778   4.105  0.1948  0.0819 -0.0944
41264W        W49864  10.848   4.909  32.259 -0.3473 -0.1111 -0.2575
41265W        W49865  19.527   3.218  28.171  0.0314  0.1324 -0.0496
41266W        W49866  22.536   3.006  12.426  0.0675 -0.0573  0.0179
41267W        W49867  17.610   3.476  10.638  0.3069 -0.0072  0.0781
41268W        W49868  17.386   1.284  29.607 -0.0285 -0.1591  0.2678
41269W        W49869   6.652   0.410   0.677 -0.2544  0.1306  0.3410
41270W        W49870   2.000   0.389  26.725 -0.1036 -0.0607  0.0685
41271W        W49871  10.146   3.003   9.704 -0.0995  0.0504 -0.2015
41272W        W49872  22.603   3.519   5.509  0.0902  0.2079 -0.0885
41273W        W49873  22.107   2.832  25.509  0.0003 -0.0823 -0.1238
41274W        W49874  23.888   4.978   0.905 -0.0446 -0.0877  0.0737
41275W        W49875  21.705   4.125  27.526  0.0303 -0.1905 -0.1174
41276W        W49876   5.764   3.644   3.125 -0.1443 -0.0243  0.0855
41277W        W49877  13.746   4.450   5.987 -0.0445  0.2026 -0.1615
41278W        W49878  10.007   1.323  24.708 -0.0615  0.1598 -0.0221
41279W        W49879  18.835   5.055  35.529 -0.0565  0.0546 -0.1129
41280W        W49880  15.636   3.827  11.262 -0.2622  0.1237 -0.3695
41281W        W49881  19.012   1.180  21.471 -0.0998  0.0898  0.1551
41282W        W49882  23.251   5.933  29.355  0.0305  0.0133  0.5755
41283W        W49883   2.823   2.827  21.809 -0.1745  0.0021  0.1651
41284W        W49884  21.647   2.221  23.580 -0.0486 -0.0977  0.0528
41285W        W49885  23.512   0.523   7.899  0.1060 -0.4361 -0.3638
41286W        W49886   6.604   4.541  11.375 -0.0014 -0.1697 -0.1764
41287W        W49887  25.493   5.764  21.410  0.0237 -0.0527 -0.3901
41288W        W49888  11.762   3.194  14.477 -0.2046 -0.3493 -0.2080
41289W        W49889  12.520   4.049  32.015 -0.2417 -0.0616  0.0961
41290W        W49890   8.825   0.056  21.710  0.0093 -0.0508 -0.0231
41291W        W49891  23.580   6.407  23.365  0.0943  0.1553 -0.0750
41292W        W49892  19.175   4.599  24.983  0.0267 -0.0981  0.0460
41293W        W49893  24.914   2.243  22.374  0.0863 -0.1140  0.0871
41294W        W49894  25.033   4.834   4.850  0.0216 -0.3611 -0.1636
41295W        W49895   0.180   4.231  24.968  0.0964  0.0632  0.1243
41296W        W49896   9.051   2.628   0.835 -0.0645  0.2154 -0.1735
41297W        W49897  16.808   4.837  15.025 -0.1187  0.0263  0.1015
41298W        W49898  17.243   3.426  13.743  0.0334 -0.2000 -0.5517
41299W        W49899  12.361   1.594   1.690 -0.0922  0.0327  0.0809
41300W        W49900  11.668   2.110   0.686 -0.0055  0.2367 -0.3221
41301W        W49901   5.809   5.812  29.001 -0.0385  0.0076  0.3311
41302W        W49902  21.760   4.325   5.445 -0.1683 -0.1683 -0.0273
41303W        W49903   5.355   6.351  28.202  0.1861 -0.1677 -0.0689
41304W        W49904  11.907   1.138  29.545  0.1155  0.0114 -0.1695
41305W        W49905  16.197   2.359   2.485 -0.1459 -0.0940  0.0939
41306W        W49906  19.041   1.626  26.598 -0.1439 -0.0752  0.1305
41307W        W49907  11.203   0.804  23.696 -0.1491 -0.3287 -0.0854
41308W        W49908  23.144   3.740  25.097 -0.3289  0.0520  0.2525
41309W        W49909   6.643   1.682   1.859 -0.1676  0.1268  0.0680
41310W        W49910  17.817   6.002   6.302  0.1275  0.1714 -0.2984
41311W        W49911   7.581   5.513   5.157  0.1481 -0.0886  0.0505
41312W        W49912  21.882   2.091   8.422 -0.2549  0.1985 -0.1923
41313W        W49913   2.049   1.707  21.037 -0.1164 -0.0108  0.1056
41314W        W49914   7.093   4.279  28.054 -0.4332  0.3233 -0.0381
41315W        W49915   4.121   1.690  24.279  0.0847 -0.2906  0.4847
41316W        W49916  22.361   0.723  23.453 -0.0083 -0.1658  0.0413
41317W        W49917   4.321   3.113  27.296 -0.1352  0.1006  0.2158
41318W        W49918  25.592   1.452  12.229  0.1424  0.0246  0.0513
41319W        W49919   9.257   0.877   4.877  0.0068 -0.0412  0.0190
41320W        W49920  15.381   1.736  33.003 -0.0150 -0.1347 -0.1021
41321W        W49921   2.949   1.359   7.580  0.1675  0.0917 -0.1008
41322W        W49922   1.129   0.625  35.587 -0.0437 -0.0427 -0.0749
41323W        W49923  18.116   6.295  23.229 -0.0414  0.0798 -0.1739
41324W        W49924  13.724   3.015   9.403  0.0016  0.1092  0.3777
41325W        W49925   2.770   5.216  26.784 -0.0107 -0.1369  0.0001
41326W        W49926  21.012   2.610   6.604  0.1893  0.3876 -0.1236
41327W        W49927  11.582   6.104  32.091  0.1372  0.1364  0.1042
41328W        W49928  25.233   6.356  11.862 -0.1369 -0.0232  0.3534
41329W        W49929   3.413   3.069  11.592  0.1458  0.2594  0.2922
41330W        W49930   7.702   4.729  21.933 -0.0098 -0.1955  0.1531
41331W        W49931  18.909   1.035  25.658  0.1090  0.2561  0.0380
41332W        W49932   3.836   3.396  28.566  0.0289  0.0909  0.0729
41333W        W49933  12.958   3.269   4.690  0.0166 -0.1961  0.1170
41334W        W49934  19.508   4.012  34.609 -0.0835 -0.3620 -0.0176
41335W        W49935   4.589   3.244  23.483  0.0648 -0.2908 -0.1473
41336W        W49936   8.389   0.720  13.553 -0.1867  0.2253 -0.0052
41337W        W49937  15.423   2.246  26.888 -0.1734 -0.1433 -0.2727
41338W        W49938   6.411   2.446  13.531 -0.1435 -0.2572 -0.1353
41339W        W49939  19.419   1.344   3.660  0.1479 -0.1732  0.0422
41340W        W49940  20.884   2.415  34.147  0.0047 -0.0482  0.2849
41341W        W49941  14.672   5.190  35.039 -0.0765  0.2975 -0.0834
41342W        W49942  22.689   0.815  21.514  0.1759 -0.2684 -0.3782
41343W        W49943  12.180   4.220  24.991  0.0696  0.4192  0.1405
41344W        W49944   5.444   5.899  35.995  0.0297  0.0977 -0.1267
41345W        W49945  11.847   1.353   3.048 -0.0820 -0.1911 -0.4057
41346W        W49946  19.520   5.262   9.142  0.1173 -0.1208 -0.0922
41347W        W49947  22.467   0.833  13.178 -0.1462 -0.0771  0.0782
41348W        W49948   8.403   0.839  24.225 -0.0309 -0.0264  0.0313
41349W        W49949   6.169   5.582   8.745 -0.1025  0.3667 -0.1057
41350W        W49950   0.724   4.141   7.021 -0.0577  0.0729  0.4076
41351W        W49951   5.461   5.497  30.698 -0.0530 -0.0858  0.1560
41352W        W49952  20.010   0.658   8.558 -0.1270  0.1059 -0.1705
41353W        W49953   0.872   1.132  20.686  0.1823 -0.0220 -0.1835
41354W        W49954  16.541   5.060   7.188 -0.1213  0.0235 -0.2847
41355W        W49955  23.332   0.249  14.971 -0.0818 -0.1958  0.0724
41356W        W49956  17.533   3.314  23.094 -0.0242  0.1506 -0.0491
41357W        W49957   6.927   2.226  34.442 -0.2502  0.1749  0.4134
41358W        W49958   9.908   1.466  31.818  0.2388  0.0106  0.1656
41359W        W49959  14.980   0.118  11.095  0.0466  0.4387  0.1732
41360W        W49960   6.925   3.955  26.658  0.2569 -0.1259  0.0283
41361W        W49961   3.645   4.917  29.076 -0.0454  0.2971  0.0749
41362W        W49962   6.877   0.750   7.631 -0.0003 -0.0999  0.1394
41363W        W49963   4.302   4.469  10.798  0.0134  0.0465  0.0915
41364W        W49964   1.857   2.674   8.919  0.1319 -0.2239 -0.3263
41365W        W49965  23.595   1.256  10.064  0.1013 -0.3956  0.0643
41366W        W49966   7.380   3.393  14.106 -0.0836  0.0032  0.0872
41367W        W49967  11.107   1.293  35.314 -0.1207  0.1626 -0.5393
41368W        W49968  16.918   4.083   4.475 -0.1528  0.0249  0.1346
41369W        W49969  24.156   3.804  27.347  0.0776 -0.1104  0.0623
41370W        W49970  25.554   2.484   2.113 -0.2947  0.2435 -0.1907
41371W        W49971   8.574   6.048  11.406 -0.1163  0.1863  0.1918
41372W        W49972  18.919   3.550  28.623  0.0122 -0.1527 -0.0433
41373W        W49973  24.431   2.359  29.228  0.1125 -0.1883  0.3221
41374W        W49974   4.870   2.913  11.759 -0.0420 -0.0580 -0.1268
41375W        W49975   1.629   2.896   7.742  0.0101 -0.1189 -0.1961
41376W        W49976   1.076   1.580  33.676  0.1011 -0.2393  0.0487
41377W        W49977   2.425   0.009  25.923 -0.0169  0.1333 -0.0650
41378W        W49978  12.919   5.688  35.545 -0.0129 -0.2536 -0.1302
41379W        W49979  10.588   0.926  22.068  0.1151 -0.0385 -0.0293
41380W        W49980   6.400   5.119  30.437  0.2157  0.0984 -0.1744
41381W        W49981  12.533   0.733  27.904 -0.0976  0.4034  0.0745
41382W        W49982  21.601   5.161   1.226 -0.0148  0.0910  0.1581
41383W        W49983  10.492   1.656  14.858 -0.1010  0.1519 -0.1360
41384W        W49984   2.764   3.725   7.104 -0.2437 -0.1274  0.1127
41385W        W49985  14.636   3.053  33.141 -0.3024 -0.2634 -0.1407
41386W        W49986  13.141   2.447  35.828  0.1658 -0.0607 -0.2895
41387W        W49987   9.951   1.539  22.553  0.0465 -0.0036  0.1143
41388W        W49988  18.891   0.185   9.374 -0.0535 -0.2131  0.0328
41389W        W49989  19.419   5.671   8.783 -0.0821 -0.0271 -0.1805
41390W        W49990   3.677   5.070  28.608  0.1125  0.1745  0.4560
41391W        W49991  12.474   2.339  23.004 -0.3603  0.0727  0.1935
41392W        W49992  19.019   3.298  21.232 -0.0586 -0.1113  0.2639
41393W        W49993  14.680   5.082   8.847 -0.0110 -0.1724  0.2056
41394W        W49994   0.297   5.186  25.396 -0.1089  0.0189  0.1886
41395W        W49995  19.922   5.857  24.893  0.1865 -0.0492 -0.1758
41396W        W49996  25.848   6.578  13.274 -0.1002 -0.2904  0.0471
41397W        W49997  26.051   0.008  35.060 -0.0843 -0.3744 -0.0076
41398W        W49998   0.060   4.485  27.488  0.0054  0.1486  0.1159
41399W        W49999   2.406   0.551  13.621  0.1612 -0.2078  0.1125
41400W        W50000   7.125   4.967  11.516 -0.0352 -0.0173  0.0922
41401W        W50001  13.047   0.167  34.498  0.2372 -0.0683 -0.0030
41402W        W50002  13.062   1.568  21.879 -0.2048  0.2077  0.3501
41403W        W50003   6.407   0.443  26.452 -0.1776 -0.0017  0.1024
41404W        W50004   8.438   1.260  24.632 -0.2312 -0.0486 -0.2823
41405W        W50005  10.661   4.294  33.027 -0.2703 -0.2790  0.1358
41406W        W50006  17.005   3.068   4.908 -0.0887  0.4766  0.3105
41407W        W50007   6.692   3.144  27.670  0.0812 -0.4285  0.0733
41408W        W50008  10.713   2.828  25.574 -0.0940  0.0949 -0.1752
41409W        W50009   5.819   1.903  24.959  0.1436 -0.0332 -0.3071
41410W        W50010   4.774   1.301  23.098  0.0453 -0.2173  0.3172
41411W        W50011   7.704   5.406   6.149 -0.0925 -0.0762  0.0602
41412W        W50012  17.989   3.188  24.384  0.0989  0.1662 -0.3040
41413W        W50013   3.435   0.106  26.376  0.0240 -0.0680 -0.0664
41414W        W50014  25.257   0.549  27.566  0.2391  0.0728  0.2405
41415W        W50015  10.082   0.632   6.597  0.0685 -0.0158  0.0534
41416W        W50016   4.142   2.565   5.779  0.3773 -0.0682  0.0920
41417W        W50017  12.896   2.624  10.711 -0.1708 -0.4372  0.0129
41418W        W50018  11.919   4.537  25.946  0.0430 -0.2700 -0.0141
41419W        W50019   6.480   5.001  33.516 -0.3906  0.0597  0.4316
41420W        W50020   7.786   5.372  28.392  0.0161  0.2873 -0.0819
41421W        W50021  16.945   0.170   0.286  0.3543 -0.3081  0.1486
41422W        W50022   3.168   2.247   7.723 -0.0363  0.1976  0.1194
41423W        W50023   7.668   0.559  28.305  0.1272 -0.3457 -0.1827
41424W        W50024  15.358   1.470  34.629 -0.1056 -0.0641  0.0844
41425W        W50025  21.370   4.411   2.876  0.1295 -0.3219 -0.2030
41426W        W50026  12.300   1.616  20.295 -0.0492  0.2508 -0.2060
41427W        W50027   5.327   4.166   9.772 -0.2034 -0.2013  0.0500
41428W        W50028  11.940   3.875  10.536  0.1960 -0.1662  0.0066
41429W        W50029  19.704   4.120  31.314  0.1244  0.0677  0.2645
41430W        W50030   3.525   2.667   0.090 -0.0911  0.0202 -0.0103
41431W        W50031   7.695   5.362   3.592 -0.1603  0.1799 -0.1669
41432W        W50032  16.999   5.173  32.905  0.0544  0.0369 -0.0553
41433W        W50033   2.787   4.387  11.324  0.0748 -0.0461 -0.0699
41434W        W50034  12.580   4.198  29.051  0.3316  0.3183 -0.1302
41435W        W50035  22.878   4.920  12.110  0.1800 -0.1593 -0.0668
41436W        W50036  21.618   5.415   8.127 -0.1156  0.0735 -0.0842
41437W        W50037  23.590   5.828   7.026 -0.0997 -0.3051 -0.2419
41438W        W50038   1.741   0.959  27.041 -0.1090  0.0946 -0.0797
41439W        W50039  25.309   2.286  20.741  0.0429  0.0642 -0.1419
41440W        W50040  11.614   4.348  15.874 -0.0603  0.0120  0.3231
41441W        W50041   7.433   2.273   8.206  0.1167 -0.0735 -0.1219
41442W        W50042   0.170   2.983  11.285  0.1322  0.1144 -0.0814
41443W        W50043  20.648   4.069  25.195 -0.0594 -0.4181  0.0072
41444W        W50044  24.259   3.382  27.741  0.1796 -0.0241 -0.1454
41445W        W50045   1.652   3.351  30.796 -0.2568  0.1967  0.1652
41446W        W50046  13.664   3.643  22.988  0.3682  0.3722  0.2185
41447W        W50047  11.216   4.804  33.995  0.0280 -0.1315  0.0957
41448W        W50048  14.929   0.946   2.905 -0.1222  0.1422  0.1205
41449W        W50049   9.931   6.444  29.208 -0.1736 -0.1836  0.1277
41450W        W50050  14.182   0.928  23.221 -0.3083 -0.2924  0.1157
41451W        W50051  15.765   1.932   8.293  0.0669  0.1022  0.0355
41452W        W50052   3.277   3.374  28.712 -0.1623 -0.0717 -0.1551
41453W        W50053  11.100   3.726  24.317  0.0829 -0.1142 -0.0439
41454W        W50054  24.657   3.618  29.881 -0.0277  0.3656  0.0865
41455W        W50055   4.446   0.473  22.020 -0.0464  0.0470 -0.2213
41456W        W50056  22.119   2.905  27.340 -0.1112 -0.0018  0.3125
41457W        W50057  16.683   2.119  24.302 -0.2013  0.1132  0.1564
41458W        W50058   4.376   1.428  22.241 -0.0868 -0.1171  0.1071
41459W        W50059   9.577   6.382  32.164  0.1276 -0.4179  0.2463
41460W        W50060   5.376   1.682  10.061 -0.0732 -0.2674 -0.4341
41461W        W50061  13.352   2.459  13.834 -0.1200  0.2701 -0.0668
41462W        W50062  14.288   0.053  35.159  0.1729 -0.0808  0.0024
41463W        W50063   2.793   2.882   6.481 -0.1311 -0.0764  0.3115
41464W        W50064  13.233   6.271  27.742  0.1844 -0.3507  0.3712
41465W        W50065  15.429   4.195  32.135  0.0688 -0.2101 -0.2514
41466W        W50066  13.564   1.855   6.223 -0.0388 -0.0015  0.1077
41467W        W50067  21.099   1.361   7.406  0.2203  0.1171 -0.0838
41468W        W50068  19.195   5.845   3.143  0.0690  0.2049 -0.0959
41469W        W50069  14.326   3.608  12.995 -0.2408  0.1131 -0.1341
41470W        W50070  25.637   6.283  11.449  0.1220 -0.0752  0.0332
41471W        W50071  18.963   3.675  20.879  0.2390 -0.2712 -0.1364
41472W        W50072  15.069   6.497   2.133  0.0381  0.0566  0.0675
41473W        W50073  22.103   6.006   4.772 -0.2795 -0.1113  0.0304
41474W        W50074  23.846   3.043   0.055  0.2974 -0.0097  0.2584
41475W        W50075   5.938   0.852   2.775 -0.2255  0.0056  0.4170
41476W        W50076  24.427   0.944  11.401  0.2096 -0.1592  0.1182
41477W        W50077  19.405   5.192  34.080 -0.1130 -0.2956  0.0338
41478W        W50078  11.013   4.555  12.685  0.0029 -0.0393  0.0330
41479W        W50079  13.952   0.258   1.163  0.0769  0.0051 -0.2064
41480W        W50080  15.099   5.719  27.045 -0.3085 -0.2423  0.0203
41481W        W50081  23.479   2.861  20.876 -0.1034  0.0817  0.1636
41482W        W50082  21.241   0.629  21.313 -0.1271  0.0485 -0.1705
41483W        W50083   5.307   3.656  12.812  0.0708 -0.1022  0.0508
41484W        W50084  23.434   0.843   3.712  0.0669  0.0388  0.0562
41485W        W50085   1.344   5.035  15.562  0.0677 -0.1850 -0.0399
41486W        W50086  15.246   0.888   9.132 -0.1501  0.2439 -0.0166
41487W        W50087  18.503   1.258   2.219  0.2287  0.1609 -0.1606
41488W        W50088  22.329   6.418   6.588 -0.2694  0.3124  0.1946
41489W        W50089  21.081   0.404  21.705  0.4333 -0.0549 -0.1885
41490W        W50090  12.086   1.503  24.671  0.0274 -0.1664  0.2559
41491W        W50091   5.096   1.576   4.209 -0.1711 -0.0853  0.1240
41492W        W50092   1.471   4.365  33.857  0.0931 -0.0130 -0.1198
41493W        W50093   1.387   4.961   0.885  0.0478 -0.0849 -0.1700
41494W        W50094   5.026   1.862  21.134  0.0275  0.1718  0.1045
41495W        W50095   2.811   3.218   2.563 -0.0801  0.1858  0.0247
41496W        W50096  16.309   3.838   4.801 -0.0261 -0.0395 -0.0557
41497W        W50097   3.098   5.126   5.477 -0.2190  0.1287  0.1177
41498W        W50098   8.330   4.512   4.501  0.0588  0.3752  0.0840
41499W        W50099  25.551   3.375   2.947  0.1619 -0.3222 -0.0016
41500W        W50100  24.329   5.038  13.741  0.0197  0.3852 -0.0399
41501W        W50101  24.143   4.292  11.170  0.1099 -0.0019 -0.1196
41502W        W50102  23.580   0.217   0.478 -0.0712 -0.0003 -0.0714
41503W        W50103   7.920   3.952   8.219  0.1772  0.0315  0.0857
41504W        W50104   0.010   6.448  11.715 -0.4355  0.2338 -0.1604
41505W        W50105  14.129   6.304  29.599  0.0363 -0.1220 -0.2591
41506W        W50106  15.956   5.940  25.996  0.1234  0.2892 -0.3696
41507W        W50107  17.369   3.658  22.752  0.0681  0.1178 -0.0666
41508W        W50108   2.345   4.892  12.661 -0.1932  0.1727  0.0579
41509W        W50109   9.786   2.118  25.040  0.0511 -0.1087 -0.1866
41510W        W50110   1.165   3.729  21.637 -0.0867  0.0388  0.0155
41511W        W50111  24.495   1.929  20.952  0.0241  0.1219  0.1806
41512W        W50112   2.472   3.204  34.994  0.0851  0.3366 -0.1034
41513W        W50113  21.054   2.225  11.233 -0.2123 -0.2798 -0.1026
41514W        W50114   5.267   2.631  35.980 -0.3250  0.0357  0.0600
41515W        W50115   8.207   1.404  25.554 -0.1648 -0.0137 -0.2718
41516W        W50116   6.633   0.528  32.366 -0.3090 -0.1921 -0.2782
41517W        W50117  18.398   0.422  28.451 -0.0235 -0.2084 -0.0015
41518W        W50118  24.901   1.269  28.025 -0.2063 -0.1153  0.0313
41519W        W50119   1.673   3.835  12.458  0.0100 -0.2202  0.1440
41520W        W50120   1.817   3.395  26.427 -0.1151 -0.1752 -0.1436
41521W        W50121  13.502   3.614  12.725  0.5486 -0.0117  0.0090
41522W        W50122  25.337   5.551   1.869  0.0853 -0.1029  0.1732
41523W        W50123  26.254   0.605   8.975 -0.0571 -0.0369  0.1641
41524W        W50124  24.744   4.356  36.107  0.0553  0.0173  0.2243
41525W        W50125  19.556   5.686  34.584  0.1920 -0.0100 -0.0647
41526W        W50126  17.198   5.576  28.364 -0.1799 -0.1714  0.0794
41527W        W50127   4.876   0.888  34.748  0.0395  0.0590  0.0024
41528W        W50128   0.919   1.106  32.225  0.1065 -0.2411 -0.1894
41529W        W50129  24.577   3.516  25.885 -0.0881  0.0070 -0.1262
41530W        W50130   5.358   3.517  26.923 -0.0152 -0.0953 -0.2333
41531W        W50131  23.493   0.111  12.185 -0.0951 -0.0111  0.1617
41532W        W50132  16.434   4.664   3.526 -0.0222 -0.2887 -0.0033
41533W        W50133  10.246   6.237   8.956  0.1478 -0.1947  0.0739
41534W        W50134   9.607   2.973   6.882 -0.2441 -0.1339 -0.2798
41535W        W50135   5.133   6.332  21.665  0.0807 -0.2360  0.2133
41536W        W50136   7.644   6.052   1.641 -0.1203 -0.0487  0.0545
41537W        W50137   7.807   3.092  23.093  0.0826  0.1762  0.0130
41538W        W50138   3.809   0.597  32.175 -0.0931 -0.2257  0.0976
41539W        W50139  13.162   4.546  32.998 -0.2016  0.1035 -0.0455
41540W        W50140  11.180   3.259   8.067  0.1052 -0.1240 -0.0301
41541W        W50141  14.003   3.888  22.640 -0.1137  0.0443  0.0512
41542W        W50142  19.156   0.266  26.837  0.0323  0.0416 -0.1703
41543W        W50143   9.665   0.297   1.525  0.0641 -0.3115 -0.3521
41544W        W50144   5.287   0.390   4.079 -0.0173  0.2634 -0.0694
41545W        W50145  22.779   0.553  14.372 -0.0147  0.0955  0.1805
41546W        W50146  26.158   6.468  22.609 -0.0474  0.2017 -0.0706
41547W        W50147  10.740   2.996  28.986  0.0655  0.0254 -0.3080
41548W        W50148  20.083   3.571  30.172  0.2153  0.2673 -0.2609
41549W        W50149  10.490   3.307  26.265  0.1937 -0.0536 -0.2760
41550W        W50150   0.256   0.157   3.619  0.1565 -0.0212 -0.1042
41551W        W50151  21.663   6.207   0.701 -0.1572 -0.0611  0.0045
41552W        W50152   8.653   4.531  15.061  0.1281 -0.2873  0.0196
41553W        W50153   0.966   0.958  22.936 -0.1599  0.4477 -0.0084
41554W        W50154   6.779   1.905  10.879  0.2314 -0.2618  0.3050
41555W        W50155   6.297   2.636  21.476  0.1610  0.0836  0.0576
41556W        W50156  21.513   2.427   1.206  0.0014  0.0427 -0.1524
41557W        W50157   2.108   4.973   6.720  0.0658  0.0250 -0.2451
41558W        W50158   6.640   5.180  34.039 -0.1555  0.0301 -0.1344
41559W        W50159   5.872   0.133   8.347  0.1709 -0.1742  0.1653
41560W        W50160   7.499   0.215  14.615 -0.1795  0.1658 -0.2018
41561W        W50161  22.340   1.976   8.346 -0.2190  0.0141 -0.1325
41562W        W50162  19.192   4.434  23.540 -0.2314 -0.0446 -0.1289
41563W        W50163  25.124   5.535  12.351  0.0047  0.0912 -0.3636
41564W        W50164   4.995   2.136  31.812 -0.1989  0.1309 -0.0398
41565W        W50165   5.801   3.131  24.805 -0.1830 -0.3138 -0.0233
41566W        W50166  18.273   2.366  15.234 -0.0198 -0.4275  0.2521
41567W        W50167  10.659   5.286  13.062  0.0526  0.3482 -0.1388
41568W        W50168   0.442   2.108   9.281 -0.0965  0.1798 -0.1523
41569W        W50169  10.442   1.656   3.808  0.1426  0.2198 -0.2182
41570W        W50170  24.739   1.820   3.129  0.2069 -0.0753  0.2493
41571W        W50171  11.557   1.994   3.599 -0.0240  0.0739 -0.3457
41572W        W50172  21.032   0.171  31.238  0.1901 -0.0888  0.3067
41573W        W50173  20.548   3.622  22.208  0.1622  0.0859 -0.0779
41574W        W50174  19.636   1.315   6.144  0.3893 -0.2179 -0.1188
41575W        W50175   0.571   3.135  11.687  0.1240 -0.2743  0.0910
41576W        W50176   7.653   3.338  27.639 -0.2414  0.1958 -0.2169
41577W        W50177   7.036   0.919   8.560 -0.0845  0.2853 -0.6551
41578W        W50178  20.600   0.965  30.863  0.4158 -0.0358 -0.1483
41579W        W50179   6.687   2.229  33.661 -0.1998 -0.2734 -0.1938
41580W        W50180  19.273   0.727  23.017  0.0392  0.0048 -0.1464
41581W        W50181   4.772   4.275   6.597  0.0742 -0.0891  0.2071
41582W        W50182   5.751   6.290  20.545 -0.2031 -0.0736 -0.1908
41583W        W50183   7.072   0.179  10.611 -0.2024 -0.1306 -0.3459
41584W        W50184  14.154   4.374  28.505  0.1216 -0.3234  0.0477
41585W        W50185  14.289   5.788  34.576  0.4622 -0.1222 -0.1071
41586W        W50186  15.250   2.085   7.928  0.1895  0.3046  0.1687
41587W        W50187   9.600   2.977   9.972 -0.0490  0.1019 -0.0626
41588W        W50188   5.723   3.981  20.700 -0.4782 -0.3087  0.0090
41589W        W50189  12.296   3.625  29.252  0.0392  0.2183 -0.0837
41590W        W50190   8.903   0.590  11.846 -0.0674  0.0230  0.1478
41591W        W50191  11.039   4.160   4.322  0.1182  0.2000 -0.0991
41592W        W50192   3.370   5.244  20.832 -0.0911 -0.0084  0.0334
41593W        W50193   6.013   0.422  32.989  0.2523 -0.0170  0.2387
41594W        W50194  20.773   4.612   4.209 -0.2381 -0.5835  0.1093
41595W        W50195  23.618   2.508  34.888 -0.0720  0.0956 -0.4503
41596W        W50196  13.158   4.936  34.257  0.0526 -0.0228  0.2905
41597W        W50197   5.304   5.577   8.157 -0.4807  0.2563  0.1192
41598W        W50198  20.158   2.053  29.043 -0.1974 -0.0182  0.1324
41599W        W50199  14.221   0.246  24.107 -0.1468 -0.2840 -0.0191
41600W        W50200   3.996   0.025  11.077 -0.2639  0.1018 -0.2106
41601W        W50201   1.516   4.367   3.666 -0.1193  0.1209  0.1252
41602W        W50202  12.667   4.722  29.333 -0.2872 -0.0881 -0.1516
41603W        W50203   9.120   1.203  10.273  0.0036  0.0902 -0.1618
41604W        W50204   2.734   4.889  31.659  0.0883 -0.2375  0.0407
41605W        W50205  26.198   0.096  10.798 -0.0574  0.2502  0.0223
41606W        W50206   9.902   2.205   4.829  0.1468  0.2093  0.0994
41607W        W50207  24.777   3.462  32.389  0.1037  0.0202 -0.3269
41608W        W50208   6.365   0.659  10.416 -0.0291  0.0636 -0.1144
41609W        W50209   2.027   0.569  10.113  0.2772 -0.1761  0.0273
41610W        W50210  25.777   5.767  11.561  0.0477 -0.0642 -0.0748
41611W        W50211  10.009   5.869   8.699 -0.0977 -0.2866 -0.2830
41612W        W50212   7.092   4.237  32.426  0.0526  0.0215  0.0541
41613W        W50213  21.206   5.756  32.422 -0.0546 -0.5409  0.0218
41614W        W50214  22.838   0.836  33.844 -0.1150 -0.0239 -0.0079
41615W        W50215  12.137   5.206  10.629  0.4264  0.3384  0.1271
41616W        W50216  18.379   3.945  22.808  0.0752 -0.1486  0.3472
41617W        W50217  23.964   0.658   7.712 -0.5596  0.2698  0.3620
41618W        W50218   8.014   5.929   6.009  0.1026  0.0763  0.0324
41619W        W50219   9.360   0.499   4.209 -0.1289  0.0504 -0.0507
41620W        W50220  16.052   4.924  32.148  0.1136 -0.0084  0.1602
41621W        W50221  10.949   1.759  21.022  0.1111 -0.0466 -0.1826
41622W        W50222  12.677   2.212  10.515 -0.1065  0.2598 -0.1854
41623W        W50223  21.764   3.669   8.406 -0.1428  0.1451  0.1845
41624W        W50224  16.561   5.908  28.850  0.2717  0.0934 -0.2030
41625W        W50225  10.114   0.777  24.650  0.0839 -0.4568 -0.2014
41626W        W50226   6.898   3.325   2.090 -0.0659 -0.0040 -0.1047
41627W        W50227  10.094   5.945  30.796  0.1188  0.0688  0.0906
41628W        W50228   3.379   4.481  26.511  0.1761 -0.0885 -0.0891
41629W        W50229  25.301   5.561  35.839  0.0478 -0.1477  0.0672
41630W        W50230  22.184   1.029  35.293 -0.0119  0.0355  0.0706
41631W        W50231  11.862   1.872  34.801  0.0595 -0.0296 -0.4189
41632W        W50232  23.844   5.952   6.617 -0.3494 -0.2016 -0.1020
41633W        W50233   7.768   5.946   5.146 -0.0113 -0.2006  0.0671
41634W        W50234   9.192   6.029  22.798  0.0113 -0.0802 -0.1261
41635W        W50235   1.787   0.193  34.115  0.1334  0.1058  0.2000
41636W        W50236  13.953   0.496   9.685  0.0212 -0.2299 -0.0504
41637W        W50237   9.303   0.752  10.100  0.0765 -0.1523  0.0194
41638W        W50238  15.483   0.885  22.356  0.0507  0.1582 -0.0105
41639W        W50239  12.369   1.118  10.922  0.0249  0.1246  0.2553
41640W        W50240  17.790   2.034   6.313  0.0741  0.2043 -0.1151
41641W        W50241  12.328   5.177  27.407 -0.0430  0.5002 -0.2928
41642W        W50242   7.760   5.510  22.808  0.1573  0.0517  0.1744
41643W        W50243  21.239   3.650   8.366  0.0113  0.1002  0.0779
41644W        W50244  12.082   1.786   2.952 -0.0977  0.0448 -0.0055
41645W        W50245   3.978   4.432  31.535  0.0179  0.2580  0.4237
41646W        W50246   6.937   6.211   2.355  0.0552  0.0944  0.0383
41647W        W50247   3.287   3.102   7.758 -0.0508 -0.0722 -0.1049
41648W        W50248  13.571   6.210   2.448 -0.2371 -0.2770  0.1144
41649W        W50249  19.576   4.142  28.554 -0.0602 -0.3660  0.0344
41650W        W50250  13.789   5.315  25.641 -0.0795 -0.0499 -0.0181
41651W        W50251   1.525   3.264  12.949 -0.3631 -0.2054 -0.0610
41652W        W50252   9.116   1.713  27.998 -0.0701 -0.4900 -0.0323
41653W        W50253   1.375   2.188  13.788  0.0278  0.0843  0.0205
41654W        W50254   3.085   3.361   1.257  0.0128  0.0820  0.1253
41655W        W50255  24.104   2.727  21.954  0.0549 -0.2078 -0.0172
41656W        W50256   8.906   5.460   0.866  0.3747  0.0041  0.0408
41657W        W50257   2.447   1.784  13.037  0.0924 -0.0769 -0.1696
41658W        W50258  19.058   6.123  28.075  0.1409 -0.1885  0.2888
41659W        W50259   2.535   1.807   5.479 -0.0707 -0.0320 -0.1249
41660W        W50260  21.659   0.276  15.414 -0.1270 -0.1932  0.1181
41661W        W50261   6.527   0.731  25.999 -0.0878 -0.4655  0.1363
41662W        W50262  15.527   1.398   0.933 -0.1909  0.0308  0.1049
41663W        W50263  20.912   5.437   5.881 -0.1410 -0.2399  0.0467
41664W        W50264   1.063   2.015   1.294  0.1872  0.1972 -0.1381
41665W        W50265  17.285   3.937   2.465 -0.0654 -0.0684 -0.1729
41666W        W50266   8.738   1.336  25.023 -0.3030 -0.2684  0.2871
41667W        W50267  24.782   2.434  32.281  0.1046  0.1038 -0.0390
41668W        W50268   7.097   1.617  35.137  0.1209  0.1689  0.2521
41669W        W50269  18.659   2.371  14.328 -0.0854  0.1556 -0.2030
41670W        W50270  22.663   0.623   6.580  0.1574  0.0014 -0.3654
41671W        W50271   9.956   2.290  11.269  0.2563 -0.1601 -0.1238
41672W        W50272  10.091   0.395  24.350 -0.2279  0.2861  0.1197
41673W        W50273  14.474   3.674  27.544 -0.0051  0.2143  0.3101
41674W        W50274  23.362   3.667  30.397 -0.4352  0.1241  0.0323
41675W        W50275  11.033   0.253  28.627  0.1189 -0.1161  0.0389
41676W        W50276   5.574   4.340   8.529  0.1079  0.0244  0.0892
41677W        W50277  24.217   0.506  26.388 -0.2144 -0.1846  0.1262
41678W        W50278  14.360   0.744   7.413 -0.1107  0.0335 -0.0389
41679W        W50279  14.870   3.569  10.661  0.0759 -0.0272 -0.1912
41680W        W50280  18.099   6.199  14.022 -0.0144  0.3014  0.0933
41681W        W50281   5.401   3.378  11.521  0.0530 -0.0999  0.1065
41682W        W50282  20.771   0.764   3.374  0.0551  0.0693  0.1857
41683W        W50283  19.994   1.280  31.529  0.2323  0.1087 -0.0429
41684W        W50284  21.402   4.362  27.915  0.0156  0.0955  0.2011
41685W        W50285   3.484   4.503   8.229  0.0865  0.4411  0.0395
41686W        W50286  21.226   0.507  34.852  0.0025  0.1469 -0.2346
41687W        W50287  17.600   2.151  27.986  0.1779 -0.0019  0.2200
41688W        W50288   4.780   3.747  25.686 -0.0288 -0.0866  0.3159
41689W        W50289   3.775   0.517  14.979 -0.1139  0.1583  0.2137
41690W        W50290   2.970   6.168   8.578  0.3089 -0.2043 -0.0973
41691W        W50291   6.731   5.855   7.160  0.0684 -0.2282 -0.4883
41692W        W50292  11.748   0.644  10.586  0.3172  0.0909  0.0972
41693W        W50293   5.143   1.458  27.736 -0.2046 -0.1188  0.0702
41694W        W50294  25.092   1.988  35.326 -0.2457 -0.3635  0.0634
41695W        W50295   7.648   3.918   1.973  0.2759 -0.0240  0.1506
41696W        W50296  19.610   6.069  13.731 -0.1956  0.2480 -0.0696
41697W        W50297   8.566   3.669   9.929 -0.1914 -0.0261  0.0108
41698W        W50298  17.800   4.854   0.396  0.2090  0.2712 -0.1076
41699W        W50299  21.476   4.854  27.696 -0.1075 -0.0266 -0.1830
41700W        W50300  10.834   0.815  35.438 -0.0440 -0.3605  0.2933
41701W        W50301  10.761   6.497  33.270 -0.2085  0.1252  0.1327
41702W        W50302  22.080   1.007  31.471 -0.0004 -0.2339 -0.0356
41703W        W50303   3.675   3.655  13.688  0.4402  0.3893  0.4742
41704W        W50304  20.019   6.019  25.449 -0.0858 -0.1283 -0.3060
41705W        W50305   9.735   6.126   8.325 -0.1748  0.1951 -0.0256
41706W        W50306  23.878   0.198  33.500 -0.0609 -0.1148 -0.0321
41707W        W50307  25.480   5.270  10.235 -0.4860  0.0115  0.2936
41708W        W50308   8.400   0.188  26.260  0.3260 -0.3645 -0.0137
41709W        W50309  11.998   1.463  36.138 -0.0025 -0.0009  0.0672
41710W        W50310   3.011   3.150   4.412  0.0502 -0.3622 -0.0197
41711W        W50311  15.353   2.527  23.879  0.3201  0.1023  0.0149
41712W        W50312  15.780   4.106   9.762 -0.1769 -0.2161 -0.2011
41713W        W50313   2.604   0.101   3.302  0.3187  0.1469 -0.1262
41714W        W50314   7.249   5.403  27.588  0.0308 -0.0755 -0.0891
41715W        W50315   9.422   3.878  10.545  0.1003  0.2029  0.0362
41716W        W50316   0.428   0.805   1.008 -0.0731 -0.1368  0.1293
41717W        W50317   9.012   4.088   3.728 -0.0893 -0.1075  0.1826
41718W        W50318   6.374   0.797  11.032 -0.1355 -0.0479 -0.0772
41719W        W50319   0.045   1.669  33.977 -0.0996 -0.3326 -0.3944
41720W        W50320   9.515   0.444   4.690 -0.3529  0.0468 -0.0300
41721W        W50321   7.303   0.682  33.322  0.2500  0.3840  0.2383
41722W        W50322  13.878   5.627  26.704 -0.0497 -0.2829  0.0085
41723W        W50323  13.382   3.982  34.364  0.0713 -0.1677 -0.0025
41724W        W50324  23.554   2.691  31.203  0.2152  0.1766 -0.1229
41725W        W50325   2.433   3.770  27.030  0.0605 -0.1819 -0.2014
41726W        W50326   8.013   5.465  34.302 -0.2619 -0.3294  0.0766
41727W        W50327  11.187   0.516   9.129  0.0317  0.0992  0.0893
41728W        W50328   2.470   4.765  27.375 -0.2428  0.2765  0.1531
41729W        W50329  12.748   4.111  24.252 -0.2148 -0.0234  0.0043
41730W        W50330  15.233   2.303  29.757 -0.2321  0.1142 -0.0915
41731W        W50331   9.186   3.740  24.938  0.1455  0.3935 -0.0715
41732W        W50332  26.148   1.698  28.569 -0.2078 -0.1382 -0.1324
41733W        W50333   0.224   0.690  36.114 -0.2035  0.1373  0.2050
41734W        W50334  11.659   6.406  34.265  0.2639  0.0663 -0.3807
41735W        W50335  14.638   2.135   6.842 -0.2209 -0.1918 -0.1895
41736W        W50336  15.943   0.262  22.490 -0.0220  0.3031  0.1806
41737W        W50337   8.410   0.393   2.892 -0.0656 -0.0733  0.0145
41738W        W50338   2.738   3.162  21.438  0.1379  0.3020  0.1355
41739W        W50339  25.072   5.212  28.248  0.4198  0.0443 -0.0906
41740W        W50340  20.986   1.687  21.680  0.0252  0.0527 -0.0121
41741W        W50341   3.603   2.897  31.439  0.2026 -0.2182 -0.0829
41742W        W50342   6.237   5.611  27.003  0.0921  0.0438 -0.1283
41743W        W50343  24.797   0.224  13.879 -0.1815  0.0191 -0.0718
41744W        W50344  11.214   6.356  10.717  0.1883  0.2583  0.0905
41745W        W50345  10.458   2.297  26.753  0.0224 -0.2770 -0.1042
41746W        W50346  24.768   1.494   8.441 -0.0942 -0.3029 -0.0032
41747W        W50347  16.714   4.376  28.856 -0.1927 -0.0377 -0.0788
41748W        W50348   4.409   4.891  30.950 -0.3246  0.1668 -0.2050
41749W        W50349   1.033   4.997   3.908  0.1715 -0.0062 -0.0208
41750W        W50350   2.668   1.554  27.704  0.3422 -0.0239 -0.1867
41751W        W50351  10.434   0.293  11.926 -0.0333  0.2267 -0.1562
41752W        W50352   5.515   2.344  10.298  0.1819 -0.1254 -0.1587
41753W        W50353  25.722   4.496   6.363  0.1561 -0.0466  0.2506
41754W        W50354  12.344   2.779  23.218 -0.1057 -0.3074 -0.0244
41755W        W50355  12.830   5.096  32.389 -0.2985 -0.1010  0.0413
41756W        W50356  10.924   3.039  34.675 -0.0699 -0.1685 -0.0500
41757W        W50357  19.988   5.003  27.744  0.4257  0.0776 -0.1522
41758W        W50358  21.365   3.975   9.236 -0.1077  0.0118  0.2017
41759W        W50359  22.118   3.325  12.343  0.0610 -0.1340  0.4415
41760W        W50360   9.673   1.568  24.127  0.0141 -0.4737 -0.0901
41761W        W50361  13.179   0.608  28.530 -0.1355  0.0677 -0.0178
41762W        W50362   5.835   1.675  26.717  0.1114 -0.2332  0.1523
41763W        W50363  23.602   6.076  32.704 -0.1752  0.0118 -0.3125
41764W        W50364  10.987   4.362  22.029 -0.2298 -0.3347  0.0611
41765W        W50365   8.184   1.126  32.196  0.0502  0.0028  0.3106
41766W        W50366  20.429   5.148  34.863  0.2704 -0.4860 -0.1149
41767W        W50367   5.828   3.757   7.709  0.1028  0.0342  0.1397
41768W        W50368   7.392   5.742   3.327 -0.3513 -0.1792 -0.3840
41769W        W50369   3.240   2.152   5.519 -0.1060  0.2540 -0.0203
41770W        W50370  17.870   2.321  24.485  0.0269  0.2134  0.4338
41771W        W50371   0.578   2.244  25.253  0.1667  0.0703  0.1257
41772W        W50372   4.713   5.177  33.681 -0.1915 -0.2017  0.0890
41773W        W50373  17.017   2.426   1.528 -0.2585  0.1434 -0.1423
41774W        W50374  10.212   6.065  10.126 -0.1298  0.0261 -0.4581
41775W        W50375  11.745   5.563  11.395 -0.4017  0.0520 -0.1490
41776W        W50376   0.460   3.318  20.041 -0.1337 -0.2747  0.1151
41777W        W50377   5.995   3.799  29.243  0.0979 -0.1220  0.3828
41778W        W50378  22.907   1.317  29.883 -0.0815  0.2500 -0.2293
41779W        W50379  24.522   2.383  20.548  0.1610  0.1561 -0.2336
41780W        W50380  23.589   1.561  15.772  0.0282 -0.1311 -0.1449
41781W        W50381   6.427   2.691   8.152  0.0085 -0.0825  0.0269
41782W        W50382  13.388   0.277  22.308  0.0248  0.2264  0.2041
41783W        W50383  16.057   1.028  29.550 -0.1826 -0.2612 -0.0714
41784W        W50384  15.013   5.513  30.931  0.0886 -0.0374 -0.0080
41785W        W50385  22.865   2.332  24.860 -0.1536  0.1777 -0.0599
41786W        W50386  24.962   3.865  14.405 -0.0965 -0.1237 -0.0281
41787W        W50387   5.731   0.297   7.482  0.2840  0.3412  0.2074
41788W        W50388   7.884   4.842  34.409  0.3286 -0.0353  0.1224
41789W        W50389   0.213   3.885   0.614 -0.0477 -0.3145  0.1105
41790W        W50390  21.483   0.875   9.972 -0.0058 -0.1329 -0.0709
41791W        W50391  19.646   0.018  23.364  0.0384 -0.2517  0.3084
41792W        W50392   0.739   1.018  14.197 -0.1322  0.1842  0.0450
41793W        W50393  18.173   3.019  22.607 -0.0935 -0.0283  0.3477
41794W        W50394   0.813   2.571  10.576  0.0581  0.1187 -0.1550
41795W        W50395  12.344   0.064   8.805 -0.1930  0.3551  0.2702
41796W        W50396  13.096   2.855  36.146 -0.0474 -0.1006  0.0854
41797W        W50397   8.420   1.310  33.535 -0.1313  0.2499  0.2373
41798W        W50398  20.136   0.566  21.632 -0.0710  0.1763  0.1450
41799W        W50399   4.836   6.586  26.209 -0.3835 -0.1252  0.0546
41800W        W50400  13.827   3.301  11.898  0.1131  0.1355  0.1245
41801W        W50401  14.993   4.747   9.000 -0.2537  0.1434  0.2944
41802W        W50402  24.557   1.189  28.403  0.1923 -0.2925 -0.1126
41803W        W50403  20.928   4.404  15.533 -0.2281 -0.3326  0.4331
41804W        W50404  20.123   3.494  26.879  0.0132 -0.1979 -0.0979
41805W        W50405   0.828   4.430  32.434  0.1208  0.1378  0.0097
41806W        W50406   5.469   4.371  11.428 -0.2230  0.3631  0.1826
41807W        W50407  18.394   3.296   5.794  0.0402  0.3368 -0.3300
41808W        W50408  24.746   6.306  11.667 -0.1824  0.3526  0.2083
41809W        W50409  17.330   1.310   4.897 -0.0033  0.3234  0.2185
41810W        W50410   4.717   6.122  21.898 -0.1232  0.2366 -0.1982
41811W        W50411  11.886   3.374  28.347  0.1603 -0.3819 -0.1995
41812W        W50412  18.778   6.445   2.297 -0.0844  0.0182  0.0465
41813W        W50413  13.302   3.010  26.357  0.1667 -0.2330  0.0609
41814W        W50414  24.418   5.596   2.214 -0.0624  0.0435  0.2288
41815W        W50415   5.148   4.574  27.483 -0.1641  0.1553  0.2651
41816W        W50416  23.592   0.670  31.822 -0.2267  0.1312  0.2239
41817W        W50417  26.186   3.821  28.391 -0.0346 -0.1064 -0.2440
41818W        W50418  15.976   2.119  32.219  0.0720  0.1197  0.1920
41819W        W50419   4.646   0.686  32.781  0.3461 -0.2093  0.0441
41820W        W50420   6.780   2.409   6.620 -0.0204  0.1886 -0.0578
41821W        W50421   5.328   4.006   8.852  0.0630 -0.1265 -0.0403
41822W        W50422   8.547   1.117   6.030 -0.2868  0.2483  0.1138
41823W        W50423  17.632   5.391  14.936  0.2769 -0.0054 -0.0014
41824W        W50424   7.996   4.236  33.573  0.0662  0.1690 -0.2913
41825W        W50425   6.030   1.366  33.882 -0.1040 -0.0564  0.0586
41826W        W50426  26.075   0.125   5.656 -0.0309 -0.0056  0.3678
41827W        W50427  25.125   5.881   4.362 -0.0570 -0.2655 -0.0534
41828W        W50428   6.611   5.062  34.867  0.0547 -0.1061  0.4446
41829W        W50429   3.416   6.463   3.474  0.1751  0.2871  0.2689
41830W        W50430  17.445   1.242  11.836  0.1539 -0.0206  0.0234
41831W        W50431  20.422   0.029   6.365  0.0272  0.1423 -0.1103
41832W        W50432  13.326   5.193  22.094 -0.3229 -0.1608  0.4311
41833W        W50433  18.576   2.532  27.551  0.1198 -0.0813  0.0175
41834W        W50434   0.535   3.707   4.075  0.1352  0.1499 -0.1614
41835W        W50435   3.128   6.079   3.520  0.2834 -0.0658 -0.0732
41836W        W50436  15.179   2.424   9.398  0.2435 -0.1819  0.2440
41837W        W50437   3.487   2.704   4.159  0.0435 -0.1801 -0.0375
41838W        W50438  21.651   2.795  11.922 -0.1570 -0.0526 -0.4359
41839W        W50439  23.288   5.671  28.814 -0.0674 -0.1686 -0.2337
41840W        W50440  18.056   6.054  14.485 -0.0705  0.2240  0.1265
41841W        W50441  26.276   4.009  12.070  0.1679 -0.0890  0.0043
41842W        W50442   0.796   0.347  31.858 -0.2557 -0.0329 -0.2662
41843W        W50443  22.652   0.993   3.143 -0.3347  0.1781  0.1292
41844W        W50444   5.793   3.121  31.486  0.0827 -0.0361 -0.1697
41845W        W50445  12.136   2.158  23.957 -0.0195 -0.2545  0.1102
41846W        W50446  16.504   0.114  23.821  0.2789  0.0135  0.2372
41847W        W50447  22.264   5.678   0.127 -0.1031  0.3005  0.0561
41848W        W50448   8.913   3.242   5.073  0.4531  0.0213 -0.1326
41849W        W50449  16.233   6.069  31.091  0.0470 -0.0789  0.1292
41850W        W50450  21.696   2.605  25.343 -0.0958 -0.1190  0.1852
41851W        W50451  14.326   3.107   5.868  0.0652  0.1080  0.1282
41852W        W50452  11.857   5.774   4.509 -0.2917 -0.1013  0.1981
41853W        W50453   3.398   0.288  15.426 -0.1191 -0.0039 -0.0215
41854W        W50454  20.719   3.741  27.674  0.0809 -0.0170  0.4314
41855W        W50455   8.174   1.239  27.022  0.2721  0.3176  0.1166
41856W        W50456  25.760   3.668   3.711 -0.0542  0.0198  0.2079
41857W        W50457  18.928   0.922   2.894 -0.1368 -0.1642  0.1524
41858W        W50458   8.677   5.078  21.003 -0.0182 -0.0696 -0.1646
41859W        W50459  13.424   6.057  12.831 -0.2218  0.0702 -0.0301
41860W        W50460  14.708   5.102  24.623 -0.1504  0.1348  0.1172
41861W        W50461   2.901   1.003   5.981 -0.1186 -0.3228  0.0337
41862W        W50462  16.168   4.737  33.950  0.3754  0.3443 -0.0226
41863W        W50463  24.316   1.819  25.251  0.3432 -0.1384 -0.2155
41864W        W50464   3.392   2.975  14.142  0.1857  0.0131 -0.2375
41865W        W50465  24.609   5.102  28.019  0.2958  0.1493 -0.0456
41866W        W50466   4.066   0.756  20.569 -0.0534  0.0437 -0.4602
41867W        W50467   3.023   3.101  12.486 -0.0237  0.1785 -0.0261
41868W        W50468   8.857   2.526   4.036  0.1076  0.1881  0.3024
41869W        W50469   2.574   0.629  29.687 -0.0773  0.1059  0.1013
41870W        W50470  24.236   5.226  14.687 -0.0239  0.0547  0.0880
41871W        W50471  14.099   4.895   9.285 -0.1266  0.1918 -0.2101
41872W        W50472  24.951   3.456  11.867  0.1970  0.0695 -0.4204
41873W        W50473  14.980   4.074  15.598  0.0219 -0.0572 -0.2558
41874W        W50474  19.126   3.680  15.062  0.0828 -0.1200  0.1237
41875W        W50475  14.192   1.481   9.677 -0.0032 -0.1024 -0.0250
41876W        W50476  10.245   1.227  15.512  0.0781  0.0496 -0.1635
41877W        W50477  19.496   4.933  14.614 -0.0712  0.0560  0.1436
41878W        W50478  22.322   4.506  23.115 -0.1738 -0.0668 -0.0377
41879W        W50479   0.943   4.066  22.948  0.1062  0.1695  0.0137
41880W        W50480   3.930   2.905  26.057  0.1874  0.0072 -0.2606
41881W        W50481   2.829   1.088  33.387  0.1003 -0.3343  0.0262
41882W        W50482  18.685   2.260   0.408  0.1159 -0.0659 -0.2264
41883W        W50483  19.055   1.660  28.634 -0.1911 -0.0858  0.0155
41884W        W50484  11.872   1.482  14.768 -0.3278 -0.3652  0.0091
41885W        W50485  19.890   1.004   5.384 -0.0494  0.0458  0.1445
41886W        W50486   7.028   5.927   2.830  0.1616 -0.1451  0.0282
41887W        W50487  14.700   2.968  15.637  0.0969  0.3181  0.0218
41888W        W50488  20.703   6.002  13.290 -0.0255 -0.3190  0.0031
41889W        W50489  19.044   5.072   3.626 -0.1210  0.2207 -0.1443
41890W        W50490   6.887   1.934   3.443 -0.1187 -0.1873  0.0615
41891W        W50491  12.256   4.776  26.974  0.0937  0.1941  0.0411
41892W        W50492  12.381   2.809  27.758  0.0222  0.0303 -0.1915
41893W        W50493   3.758   0.464  21.498  0.2789  0.0655  0.2007
41894W        W50494  12.428   2.233  29.464  0.2067 -0.3299 -0.2329
41895W        W50495  11.196   0.750   1.257  0.0395 -0.1151  0.4801
41896W        W50496   6.536   2.039  26.287  0.0042  0.1868  0.0025
41897W        W50497  12.879   0.604  34.146  0.0301  0.0273  0.4264
41898W        W50498  14.746   2.200  24.917  0.0789  0.1807 -0.0463
41899W        W50499   2.749   1.377  13.114  0.0184 -0.1666 -0.1406
41900W        W50500   8.854   1.526  13.282 -0.2966  0.0047  0.0266
41901W        W50501  18.072   4.461  26.120 -0.2610 -0.0807  0.2656
41902W        W50502  12.017   2.977   4.711  0.2234  0.0517  0.0973
41903W        W50503  22.688   4.560  26.752  0.1134  0.0185  0.0464
41904W        W50504  15.548   1.542  11.391  0.0898 -0.0111 -0.0599
41905W        W50505  20.768   2.676   7.059  0.0844 -0.0554 -0.0514
41906W        W50506  13.864   4.723  14.086 -0.0112  0.0413 -0.1566
41907W        W50507  22.606   4.998  35.690 -0.0842 -0.0208  0.0633
41908W        W50508  11.669   2.212   4.463 -0.1932  0.3065  0.1381
41909W        W50509  14.758   2.636  10.577 -0.0319  0.0042  0.0170
41910W        W50510  18.226   5.020  29.497 -0.0410  0.1906 -0.0339
41911W        W50511   9.911   3.026  22.654  0.0168  0.0293 -0.0462
41912W        W50512  10.497   4.649   4.698  0.0070  0.0403  0.3782
41913W        W50513   2.992   0.656   1.540  0.0059  0.3115  0.0693
41914W        W50514   9.811   0.205  32.032  0.0506  0.0091  0.0624
41915W        W50515  18.715   5.761  27.331 -0.1015 -0.1620  0.1147
41916W        W50516  14.248   5.752  14.824 -0.0224  0.1914 -0.1629
41917W        W50517  15.162   2.411  10.974  0.2460  0.2488 -0.1450
41918W        W50518  26.169   3.127  34.851 -0.0462 -0.0427  0.0012
41919W        W50519  15.497   0.553  23.249 -0.5860  0.1741  0.0602
41920W        W50520  25.198   0.922  23.478  0.0910 -0.1821 -0.0440
41921W        W50521   9.381   1.400  34.350  0.1287  0.2687 -0.0606
41922W        W50522  22.952   2.549   6.380 -0.1776  0.0387  0.5114
41923W        W50523  14.163   5.427   8.852 -0.4197  0.0176  0.0731
41924W        W50524  14.055   4.505  15.214 -0.2039  0.0264 -0.2456
41925W        W50525  15.129   0.494  31.600 -0.3336 -0.2986  0.0684
41926W        W50526  12.946   4.514  27.708 -0.1238 -0.2848 -0.0509
41927W        W50527   7.820   5.031  10.532  0.1764  0.4520  0.0445
41928W        W50528  18.377   2.227  26.528 -0.0843 -0.2337  0.0972
41929W        W50529  11.529   3.495   1.287 -0.2600  0.1058  0.0244
41930W        W50530   6.773   2.401  20.047  0.4374  0.0940 -0.1430
41931W        W50531  15.927   3.758   4.522 -0.0078  0.1253  0.2770
41932W        W50532  18.820   0.367  12.201 -0.0354 -0.1868 -0.1018
41933W        W50533  19.711   4.342  35.671  0.0564 -0.1882 -0.0969
41934W        W50534   8.260   5.030  23.163 -0.0010 -0.1447 -0.1345
41935W        W50535  12.275   0.375  28.216 -0.1327  0.1928  0.0482
41936W        W50536   5.406   4.119  34.980 -0.0788  0.0328 -0.0763
41937W        W50537   5.866   1.306   4.900  0.3221  0.1865  0.0385
41938W        W50538   8.863   0.421  10.114 -0.1992 -0.1692 -0.1749
41939W        W50539   1.785   2.839  34.996 -0.1146 -0.0035  0.0420
41940W        W50540  19.493   5.369  13.446  0.1382  0.0044 -0.0942
41941W        W50541  13.063   1.099   2.677  0.0500 -0.0292 -0.1285
41942W        W50542   7.709   5.808   7.918 -0.0863 -0.2587 -0.2526
41943W        W50543  10.837   1.070  28.930  0.0369  0.2194  0.1767
41944W        W50544   7.682   0.320  26.922  0.2394  0.1088 -0.0834
41945W        W50545  13.252   1.290  12.521 -0.1071 -0.2584  0.1119
41946W        W50546   5.957   2.731   7.277  0.0009 -0.1205  0.2575
41947W        W50547   4.818   2.286   5.288  0.1053  0.1193 -0.2049
41948W        W50548  14.798   5.748   6.827 -0.2341  0.2751  0.1082
41949W        W50549  15.555   5.289  21.346 -0.1299  0.0406 -0.2775
41950W        W50550   3.496   3.156  10.886  0.2740  0.1277  0.0811
41951W        W50551   2.242   6.535  13.883  0.2488 -0.1515 -0.1940
41952W        W50552   5.354   2.770   3.503  0.0068  0.4655  0.1421
41953W        W50553   1.312   1.672  20.153  0.3279  0.0311  0.0148
41954W        W50554   1.348   1.284  33.997  0.2223  0.0088 -0.0914
41955W        W50555  11.949   6.546   6.673  0.0092  0.1951 -0.0768
41956W        W50556  16.406   1.039  26.402 -0.0859 -0.2212 -0.0627
41957W        W50557  12.037   0.781  23.542 -0.3121 -0.0094  0.3514
41958W        W50558  20.504   3.947   7.880  0.0661  0.0771 -0.3967
41959W        W50559  14.461   1.665  24.633 -0.0147 -0.0126 -0.0621
41960W        W50560   6.760   1.776  35.627  0.3133  0.0143  0.2842
41961W        W50561  14.829   3.456  28.545 -0.2179 -0.3440  0.1279
41962W        W50562  13.966   6.450  32.910  0.2850 -0.1241 -0.1466
41963W        W50563  12.788   3.929   9.544 -0.2277  0.0901 -0.0918
41964W        W50564  23.455   3.674  28.177 -0.1599 -0.3554 -0.2872
41965W        W50565  23.025   4.097  28.106 -0.0325 -0.1765  0.0150
41966W        W50566   9.075   0.552  31.265 -0.0938  0.0175 -0.0386
41967W        W50567   1.881   6.197  24.992  0.1163  0.0637 -0.2963
41968W        W50568   0.505   2.485  35.729  0.0978  0.2541  0.2049
41969W        W50569  25.743   5.262  33.219  0.4326 -0.3075  0.0998
41970W        W50570  21.949   3.458  20.783 -0.0012 -0.1797  0.3044
41971W        W50571   1.254   0.368  31.568 -0.3475 -0.2984 -0.1298
41972W        W50572  10.615   4.380   2.413  0.0467 -0.3238 -0.0363
41973W        W50573   3.297   2.278  20.307  0.2611 -0.1877 -0.0135
41974W        W50574  16.536   6.167   2.152  0.2821  0.1442  0.3059
41975W        W50575   2.158   4.468   3.557  0.2106  0.4052 -0.1077
41976W        W50576  17.640   5.084   6.455 -0.2531 -0.1703  0.0399
41977W        W50577  20.595   1.206   1.711 -0.0140 -0.2997 -0.0951
41978W        W50578  23.247   2.492  12.528 -0.1478 -0.0172  0.2824
41979W        W50579   6.569   3.041  34.974 -0.2541 -0.0075 -0.0815
41980W        W50580  13.548   6.219   8.629  0.0023 -0.0150  0.2041
41981W        W50581   1.973   0.672  13.205 -0.0911  0.0656  0.1502
41982W        W50582   3.295   4.235  34.279 -0.1900  0.0403  0.1672
41983W        W50583  18.985   3.377  29.532 -0.4424  0.0145 -0.2813
41984W        W50584  16.122   2.555  31.993  0.1081 -0.2777 -0.0661
41985W        W50585  26.121   5.007  33.347 -0.0502 -0.0766  0.1662
41986W        W50586   3.235   5.860  26.687  0.0332  0.1727  0.0812
41987W        W50587   3.200   1.073  30.850 -0.0440  0.0263  0.0938
41988W        W50588  13.840   4.483  34.952 -0.1981 -0.2748  0.1103
41989W        W50589  24.026   3.250  29.308  0.1665 -0.1614  0.2431
41990W        W50590  16.506   4.452   8.894 -0.0086 -0.0401 -0.4002
41991W        W50591  24.267   0.891   7.114  0.2832  0.0065 -0.0938
41992W        W50592   1.776   5.520  33.557  0.3505  0.0819  0.3321
41993W        W50593   2.739   1.596  34.255 -0.1646 -0.1392  0.3802
41994W        W50594  10.458   5.013  33.650  0.0036  0.0815  0.1451
41995W        W50595   4.593   6.312  22.370  0.0845  0.1149 -0.0528
41996W        W50596   1.418   2.869  13.878 -0.1658  0.0700 -0.0241
41997W        W50597   1.775   0.003  30.487  0.0150  0.1018 -0.1592
41998W        W50598  19.645   4.694  31.421  0.2317 -0.4846  0.2344
41999W        W50599  11.811   3.692  32.529  0.2266 -0.2692 -0.0009
42000W        W50600   8.954   2.837   0.058 -0.1700 -0.0926  0.0451
42001W        W50601  24.255   2.780  29.987 -0.2505 -0.0027 -0.3737
42002W        W50602  20.244   1.834  29.462 -0.1435 -0.0717  0.0492
42003W        W50603   7.634   4.597  10.681 -0.1711  0.0640 -0.1593
42004W        W50604  22.748   2.885  26.395 -0.1367 -0.3097 -0.0566
42005W        W50605  25.965   0.076   9.828 -0.0715  0.0548 -0.0423
42006W        W50606   1.799   5.757   8.788 -0.1218  0.1504  0.0171
42007W        W50607   1.133   3.629   3.019  0.2543 -0.1552  0.0926
42008W        W50608  22.420   1.631   7.534 -0.2470  0.1662 -0.1543
42009W        W50609  14.995   0.551  11.509 -0.0397 -0.1294 -0.2883
42010W        W50610  22.918   3.500  34.462 -0.0552 -0.1692  0.1252
42011W        W50611   8.790   4.903  26.354  0.0661  0.1194  0.0810
42012W        W50612   5.521   4.560  14.128 -0.2533 -0.1901 -0.3900
42013W        W50613  10.565   6.554   2.598  0.0990 -0.0999 -0.2112
42014W        W50614  13.908   2.559  14.439  0.1878 -0.2342  0.3085
42015W        W50615  13.423   5.127   7.537 -0.0235  0.1885  0.0149
42016W        W50616  16.771   2.984  23.544 -0.1175  0.0448 -0.1900
42017W        W50617  20.048   5.736  34.476 -0.2776  0.1359 -0.0451
42018W        W50618   1.928   6.442  29.432 -0.0904  0.0898  0.2110
42019W        W50619   2.419   1.298  29.146 -0.1119 -0.2872  0.0023
42020W        W50620  20.103   4.276  27.547  0.0417  0.1544 -0.1618
42021W        W50621  25.066   5.927   3.176 -0.1072  0.0365  0.1557
42022W        W50622  21.344   0.837   0.513 -0.0736  0.0657  0.1230
42023W        W50623  23.368   3.663  10.630 -0.2769 -0.0673 -0.1416
42024W        W50624   9.718   3.281  29.918  0.0735  0.2132 -0.0028
42025W        W50625   6.783   3.727  30.982  0.0062  0.0858  0.0527
42026W        W50626   5.822   5.393   9.421 -0.0623  0.0977 -0.0636
42027W        W50627   8.434   4.459   6.852 -0.0321 -0.1064  0.1004
42028W        W50628  14.711   1.884  24.105  0.1220  0.1999 -0.1242
42029W        W50629  21.143   6.491  33.572  0.0669 -0.1286 -0.2222
42030W        W50630  25.619   3.023  22.241 -0.0120  0.3286  0.1324
42031W        W50631   7.563   4.789  30.992 -0.2610  0.2530 -0.1807
42032W        W50632   9.092   6.448  34.633 -0.1650  0.0626  0.0722
42033W        W50633   3.606   6.333   8.086 -0.2209 -0.4066 -0.1367
42034W        W50634  18.767   5.169  31.857 -0.0809  0.1206  0.0746
42035W        W50635   6.664   3.699   9.275 -0.2791  0.0542  0.2811
42036W        W50636  10.114   1.639   0.167  0.1446  0.3033 -0.0755
42037W        W50637  25.088   1.081  12.828  0.2475 -0.2464 -0.3831
42038W        W50638  13.182   0.094  21.751  0.2027  0.2289  0.0419
42039W        W50639   6.025   0.515  14.941  0.3780 -0.2641 -0.0174
42040W        W50640  16.138   6.347   4.136  0.3329 -0.0555  0.4231
42041W        W50641   5.805   5.971   3.326  0.1384 -0.1465  0.3399
42042W        W50642   3.225   3.718   8.656  0.2615  0.0625 -0.0279
42043W        W50643  10.845   3.764  26.196  0.0355 -0.0195 -0.1299
42044W        W50644  24.664   1.328   4.021 -0.2217  0.1575  0.0136
42045W        W50645  24.846   2.784  28.704  0.3170  0.0436 -0.1891
42046W        W50646   2.684   5.436  23.811  0.2924  0.1621 -0.1980
42047W        W50647  15.743   4.840  13.431  0.1241  0.1477  0.3351
42048W        W50648   3.778   3.148  26.742  0.2355 -0.1338 -0.0227
42049W        W50649  19.860   5.639  23.577  0.0629  0.0117 -0.0375
42050W        W50650   0.583   6.496  31.833 -0.1791  0.0971  0.1462
42051W        W50651  15.972   5.037   7.055 -0.0033 -0.1544 -0.0512
42052W        W50652  17.386   5.911  11.240 -0.0635 -0.0747 -0.0961
42053W        W50653  16.325   6.600  21.262 -0.1656 -0.1670 -0.1182
42054W        W50654  21.611   5.944  13.128  0.3052 -0.1701 -0.1025
42055W        W50655  15.840   0.023   1.138  0.1798  0.0842  0.0012
42056W        W50656  23.923   2.626  25.173  0.0031  0.2195 -0.1960
42057W        W50657   7.302   5.855   7.434 -0.3140 -0.1315  0.1978
42058W        W50658  21.642   6.408  24.384  0.0823 -0.1826  0.0529
42059W        W50659   2.398   4.331  35.937  0.0709  0.1885 -0.1069
42060W        W50660  23.861   1.682  14.311 -0.1117  0.0778 -0.1046
42061W        W50661  22.426   4.849  10.708 -0.0657 -0.0727  0.0304
42062W        W50662   4.186   5.549   7.636  0.0746  0.1859  0.0977
42063W        W50663  21.593   3.406  34.963  0.0160 -0.0222  0.1135
42064W        W50664   9.434   2.050  10.790  0.2881 -0.1978  0.0142
42065W        W50665  24.682   3.513  10.273  0.2173  0.2154  0.1470
42066W        W50666  13.108   5.463   2.302 -0.0917  0.2334  0.0835
42067W        W50667   3.597   1.913   7.028  0.2024 -0.2800 -0.1880
42068W        W50668  16.538   6.125  31.563 -0.1473  0.1598  0.0545
42069W        W50669   0.332   4.573  30.017 -0.1103 -0.0469  0.2247
42070W        W50670   2.876   1.519  20.740  0.1519 -0.2567  0.1459
42071W        W50671   2.137   4.577  10.318  0.0382  0.1287 -0.0898
42072W        W50672  19.471   0.355  33.266  0.0500 -0.1778 -0.1135
42073W        W50673   3.949   0.037  24.833  0.1237 -0.4795  0.0163
42074W        W50674   1.036   1.528  11.399  0.0476  0.2546 -0.2466
42075W        W50675  21.838   1.387  27.093 -0.1616  0.2463 -0.2787
42076W        W50676  19.680   1.840   6.566 -0.1382 -0.1797  0.0364
42077W        W50677   1.853   1.821   0.233  0.2580  0.1678  0.2197
42078W        W50678  16.067   3.112  32.355  0.0503 -0.0854 -0.3369
42079W        W50679  10.955   0.722   3.733 -0.2719 -0.0941  0.0462
42080W        W50680  14.708   2.337  21.963  0.1663  0.1812  0.3007
42081W        W50681   9.210   1.627  36.028 -0.0149 -0.1266  0.1727
42082W        W50682  21.972   2.617   7.107  0.1463  0.1146 -0.0258
42083W        W50683   6.580   0.777   9.521  0.4177 -0.3317 -0.0941
42084W        W50684  21.723   3.781   4.776  0.0632  0.4883  0.1675
42085W        W50685  22.936   5.662  24.418  0.1824  0.0948  0.1113
42086W        W50686  12.263   4.967  31.660 -0.2020 -0.1310  0.1681
42087W        W50687  17.809   1.557   8.818 -0.3129 -0.0383  0.0506
42088W        W50688   9.244   3.992  32.883  0.1237 -0.0946  0.1307
42089W        W50689   4.760   0.532   9.292 -0.1043 -0.0823 -0.1761
42090W        W50690   7.842   1.371  35.608 -0.1987 -0.2567  0.0153
42091W        W50691  15.798   5.641  29.535  0.2857 -0.2524 -0.2782
42092W        W50692  24.021   3.952  23.766 -0.0271  0.1930  0.1222
42093W        W50693   6.122   4.978  30.920  0.2658  0.0020  0.1428
42094W        W50694  25.725   2.293  36.090 -0.1897  0.1527 -0.0411
42095W        W50695  16.393   5.736   3.315 -0.3263 -0.0567  0.0999
42096W        W50696  14.978   3.419   8.379 -0.2072  0.0991  0.0166
42097W        W50697  17.926   3.653  13.281  0.0816  0.0612  0.2193
42098W        W50698  20.893   2.159   7.049 -0.1903 -0.1120  0.1638
42099W        W50699  25.922   5.011  20.357  0.3299  0.1678 -0.0142
42100W        W50700   5.188   5.062   2.645  0.1376  0.1437 -0.0318
42101W        W50701  23.669   2.730  22.797 -0.0947 -0.0859  0.1567
42102W        W50702   8.972   4.076   2.768 -0.0312 -0.2451  0.4298
42103W        W50703  20.004   0.746  22.818  0.1810 -0.1630  0.1567
42104W        W50704  21.009   2.160  13.111 -0.3323 -0.1573  0.2326
42105W        W50705  21.588   1.099  28.398 -0.1329  0.0088 -0.0864
42106W        W50706   7.856   3.352   6.018  0.0605  0.3276 -0.1104
42107W        W50707  21.189   1.391  12.526  0.1948 -0.0687  0.1313
42108W        W50708  21.751   2.624  27.084 -0.2642  0.3145  0.2684
42109W        W50709   3.876   5.041   6.032 -0.0855  0.0019  0.1929
42110W        W50710   0.643   0.225  28.115 -0.0587 -0.0691  0.2053
42111W        W50711  26.100   4.005  12.564  0.1212  0.0544  0.1812
42112W        W50712  13.262   5.379  28.062 -0.0624  0.0106 -0.3975
42113W        W50713  13.576   3.085  29.860 -0.1748  0.0671 -0.1285
42114W        W50714  23.957   0.198   0.839 -0.4351 -0.0527  0.0298
42115W        W50715  16.648   3.652  33.930 -0.1466  0.2753 -0.0546
42116W        W50716  16.810   2.827  26.778 -0.2866  0.3349  0.1493
42117W        W50717  16.222   4.238  21.042  0.1308  0.1630 -0.2882
42118W        W50718  23.120   6.189  30.519 -0.2826 -0.0351 -0.0824
42119W        W50719  21.221   0.899  29.265 -0.3319  0.0108  0.0885
42120W        W50720   6.333   5.124  20.354 -0.2550  0.0940  0.0049
42121W        W50721   2.985   5.675   7.532 -0.0629 -0.1389 -0.0974
42122W        W50722   3.972   2.472   4.947  0.0945  0.1216  0.0947
42123W        W50723   0.981   3.853   0.749  0.2358 -0.0056  0.1775
42124W        W50724  26.076   3.816  29.580 -0.0476 -0.0055  0.1261
42125W        W50725   2.247   5.306   9.938  0.0329  0.1676  0.0723
42126W        W50726   0.686   6.075  21.667  0.1750 -0.2803 -0.1213
42127W        W50727  16.394   2.644  35.648  0.0490 -0.0516 -0.1177
42128W        W50728  16.372   3.274  30.096 -0.1739  0.0016  0.0957
42129W        W50729   5.928   0.603   6.609  0.0244 -0.1536  0.0190
42130W        W50730   6.522   3.491   1.188 -0.3437  0.0691 -0.2001
42131W        W50731  26.100   6.099  11.313 -0.0395 -0.1734 -0.0496
42132W        W50732  16.337   5.770   6.309  0.2921 -0.0489  0.1004
42133W        W50733  10.110   2.533   8.845  0.1973  0.1886  0.0198
42134W        W50734  22.803   1.485  30.802  0.2902 -0.0370 -0.0313
42135W        W50735  24.870   0.995   2.616  0.0157 -0.1353 -0.3034
42136W        W50736  17.472   4.837  36.143 -0.1252 -0.2529 -0.2771
42137W        W50737  25.887   6.476  12.784 -0.0287 -0.3653 -0.3338
42138W        W50738  14.744   5.462  22.981  0.0560 -0.2481  0.0404
42139W        W50739  14.722   3.842  15.263 -0.0355 -0.0003  0.0490
42140W        W50740  25.628   0.557  10.163 -0.0580  0.0700 -0.2236
42141W        W50741  24.630   2.986  26.755 -0.1003 -0.0318  0.1604
42142W        W50742  11.130   2.389  15.358 -0.0573  0.3284 -0.3132
42143W        W50743  18.414   1.034   6.329 -0.0128 -0.0072 -0.2127
42144W        W50744   8.435   1.731   1.714 -0.3040 -0.2471 -0.3626
42145W        W50745  19.322   1.472   0.458  0.0576  0.1856 -0.0438
42146W        W50746   0.621   1.844  27.012  0.2904  0.0916  0.0497
42147W        W50747   9.763   3.572  28.339 -0.1344  0.1324  0.0135
42148W        W50748  13.699   5.448  27.112  0.1104  0.1055  0.0085
42149W        W50749  22.430   0.205   5.262  0.2270 -0.2186 -0.1803
42150W        W50750  17.190   0.266  35.499  0.2375  0.1446  0.3211
42151W        W50751  17.710   2.355  33.422  0.4177  0.1680  0.0547
42152W        W50752  25.168   6.091   2.629 -0.1028  0.1288  0.2341
42153W        W50753   1.961   5.388  13.626  0.3974 -0.0556 -0.0461
42154W        W50754   6.635   2.584  34.613  0.2118  0.1904  0.0487
42155W        W50755  20.246   4.187  32.058 -0.3824 -0.1711  0.0273
42156W        W50756  10.372   4.838   1.270 -0.4092  0.1899 -0.1130
42157W        W50757   7.769   3.594  23.180 -0.2705 -0.1074  0.0629
42158W        W50758   1.843   1.942  23.983 -0.1432 -0.0076  0.1991
42159W        W50759   9.036   0.423  22.083 -0.0259 -0.1745  0.2121
42160W        W50760  10.591   6.457  26.567 -0.3498  0.1859 -0.0566
42161W        W50761  18.900   1.704  33.352  0.0179 -0.2270 -0.3724
42162W        W50762  20.145   0.236  10.008  0.2265  0.2069  0.0556
42163W        W50763  16.046   3.040  33.292 -0.0524  0.0335  0.0565
42164W        W50764   6.837   0.772  26.390 -0.1767  0.1052 -0.0617
42165W        W50765  25.715   1.142  27.412 -0.4366  0.5048  0.4155
42166W        W50766   0.023   4.944  29.769 -0.4046 -0.1094  0.0310
42167W        W50767  14.674   3.539   1.733  0.0175 -0.1800  0.2454
42168W        W50768   2.957   6.384   9.356 -0.3036  0.1561 -0.2521
42169W        W50769  25.060   0.154  23.432 -0.1794 -0.0506  0.2127
42170W        W50770  16.229   3.652   6.804 -0.2246 -0.0401 -0.0362
42171W        W50771  25.228   0.558  36.004 -0.2589 -0.1742 -0.4063
42172W        W50772  24.088   3.536  14.058  0.0622 -0.1025 -0.3287
42173W        W50773  16.966   4.874  33.748  0.0422 -0.3416  0.2050
42174W        W50774  18.119   4.381  22.628  0.0401 -0.3368  0.0028
42175W        W50775  18.144   1.289  14.223  0.1866  0.2517  0.0075
42176W        W50776   1.517   5.008  23.922 -0.1142 -0.1139  0.0502
42177W        W50777  17.879   0.086  26.857  0.3475 -0.2358  0.3991
42178W        W50778  10.740   5.113   4.937 -0.3739  0.2756  0.0407
42179W        W50779   7.751   1.195   1.270 -0.0263 -0.0205  0.2817
42180W        W50780   2.761   6.205  28.530 -0.0420 -0.0089  0.1410
42181W        W50781   5.548   2.690   6.823  0.2456  0.0536 -0.1897
42182W        W50782   9.998   4.316   8.274  0.2697  0.1507 -0.0421
42183W        W50783   2.520   5.627  10.936 -0.2493  0.1639  0.0451
42184W        W50784  18.793   1.914  23.283  0.1232 -0.2322  0.0789
42185W        W50785  24.435   2.845   2.436 -0.0273  0.0513  0.1980
42186W        W50786   0.660   3.890  35.834 -0.4457  0.2670 -0.2299
42187W        W50787   5.433   0.937  32.239  0.0614  0.0374  0.4018
42188W        W50788  25.549   5.093  34.977 -0.0082 -0.0142  0.2243
42189W        W50789  14.960   0.829  12.664  0.1210  0.0498  0.0607
42190W        W50790   1.227   4.437  11.351  0.0050  0.0513  0.2481
42191W        W50791  13.735   0.660  34.513  0.0845 -0.1834 -0.2533
42192W        W50792  22.300   0.375  31.763  0.0980  0.0130 -0.1190
42193W        W50793  12.344   1.926   6.574  0.1275  0.3681 -0.0544
42194W        W50794  22.030   2.078  35.286 -0.2152  0.0187 -0.3960
42195W        W50795   8.604   0.479   5.649  0.1316  0.3560 -0.0577
42196W        W50796  20.759   6.165  28.580 -0.0921  0.0571 -0.2300
42197W        W50797  13.289   0.862  33.627  0.0978  0.0069  0.1898
42198W        W50798   0.024   6.366   4.407 -0.0592 -0.2765 -0.0336
42199W        W50799  14.772   3.970  26.016  0.0515 -0.0506  0.1747
42200W        W50800   9.695   4.839  25.945 -0.1244  0.2010 -0.0284
42201W        W50801   8.903   5.361  12.697 -0.3381 -0.0914  0.0970
42202W        W50802  14.719   2.526  14.842  0.1184  0.1494 -0.2817
42203W        W50803  19.917   4.575  20.476  0.0545  0.1863 -0.1445
42204W        W50804   0.825   1.372   9.624  0.1337 -0.1645  0.0182
42205W        W50805  19.275   5.794  25.611 -0.0110  0.0214 -0.2656
42206W        W50806   4.651   2.236  33.285 -0.1647  0.1927  0.1807
42207W        W50807  20.909   1.025   5.564  0.0061  0.1875 -0.0977
42208W        W50808  10.143   1.495  21.588  0.0444 -0.0769 -0.0910
42209W        W50809   8.412   5.315   3.051  0.1935  0.1260  0.1240
42210W        W50810   7.846   4.417   4.448 -0.1396  0.0301 -0.2839
42211W        W50811  11.761   0.478  13.878  0.1615 -0.0553  0.0907
42212W        W50812  13.976   4.218  28.971 -0.2945 -0.1559 -0.0088
42213W        W50813  21.952   4.172  11.344 -0.1047  0.0209 -0.0240
42214W        W50814  19.783   2.863  15.214 -0.1662  0.0699 -0.5236
42215W        W50815   1.657   3.413   7.637  0.0973 -0.0124  0.2078
42216W        W50816  21.116   2.201   4.549  0.0390 -0.2604 -0.2280
42217W        W50817  10.957   1.208  26.328  0.2322 -0.0306 -0.2166
42218W        W50818  17.404   0.356  23.859 -0.0279 -0.2509  0.1534
42219W        W50819  16.873   1.358  32.438  0.3406 -0.1486  0.2798
42220W        W50820   1.609   4.933  22.806 -0.0978  0.3043  0.0505
42221W        W50821  18.446   3.086  34.998  0.3513  0.0115  0.1540
42222W        W50822  19.896   0.678  24.127 -0.2007  0.0604 -0.2211
42223W        W50823  13.025   3.591   9.953  0.1193 -0.1193 -0.1673
42224W        W50824   1.893   5.205   2.877 -0.0238 -0.0900  0.1943
42225W        W50825  17.472   5.408  11.372  0.2682 -0.1021 -0.6438
42226W        W50826  23.117   4.160  30.457 -0.0064 -0.0567 -0.1284
42227W        W50827  14.857   6.211   3.395 -0.1029 -0.1608 -0.0994
42228W        W50828  14.097   1.971  15.231 -0.2861 -0.0913  0.2921
42229W        W50829  16.165   4.296  30.969 -0.0220 -0.0156  0.3007
42230W        W50830   7.095   0.983   9.662 -0.2675  0.0894  0.1002
42231W        W50831  14.823   2.491  29.548 -0.1708  0.0814 -0.0390
42232W        W50832  24.602   3.190  22.365 -0.2861  0.0121 -0.0250
42233W        W50833  14.371   4.766   3.873 -0.1729  0.2511 -0.0739
42234W        W50834  19.619   3.125  26.891 -0.0923  0.3969  0.0568
42235W        W50835  18.382   3.161   0.071  0.2686  0.1006  0.1221
42236W        W50836  15.210   2.679   1.659 -0.1048 -0.0294  0.1646
42237W        W50837   9.505   4.801  20.982  0.2338 -0.3819  0.0351
42238W        W50838   8.512   1.891  24.752 -0.0896 -0.0724 -0.0879
42239W        W50839  18.761   4.172  20.980  0.2061 -0.1717 -0.2214
42240W        W50840  18.452   4.885  32.078 -0.0309 -0.0430  0.1536
42241W        W50841  23.909   0.762   8.193  0.3191 -0.0802 -0.2379
42242W        W50842  21.230   4.155  30.512 -0.0954  0.0947 -0.2294
42243W        W50843   2.175   4.611  29.151 -0.4055  0.0083  0.1479
42244W        W50844   8.477   0.253  35.083 -0.2769  0.1941 -0.1289
42245W        W50845   0.602   1.503   3.041 -0.0403 -0.0565 -0.0277
42246W        W50846  20.084   4.110  10.344  0.0547 -0.1332  0.2874
42247W        W50847   1.512   6.331   9.356  0.0542 -0.2811 -0.1730
42248W        W50848   5.933   3.185   4.317 -0.0324 -0.1376  0.1460
42249W        W50849  12.839   3.406  12.118 -0.0819 -0.2313  0.0987
42250W        W50850   2.568   2.357   7.353  0.2893 -0.2055 -0.3081
42251W        W50851  24.448   0.712  26.966  0.2380  0.0292 -0.1698
42252W        W50852  10.933   3.333   4.430  0.0915 -0.0081 -0.1714
42253W        W50853  13.300   3.810  13.820 -0.1670  0.4236 -0.0164
42254W        W50854  25.391   0.217  15.557 -0.0946  0.0318  0.1093
42255W        W50855  11.028   0.749   6.425 -0.2700  0.1498 -0.0406
42256W        W50856   6.253   3.138  32.967 -0.1290  0.0499  0.1100
42257W        W50857  13.716   5.402  10.949  0.1942  0.0625 -0.0733
42258W        W50858  25.562   1.695  14.537  0.0293  0.1534 -0.0854
42259W        W50859   0.718   2.437  24.814 -0.1684 -0.1786 -0.2394
42260W        W50860  15.589   5.072  11.608  0.3678  0.1205  0.1792
42261W        W50861   5.614   3.795  28.500  0.0968  0.1052  0.0275
42262W        W50862   9.508   5.737  31.497 -0.2921  0.1744 -0.3385
42263W        W50863  10.857   5.561  32.869 -0.0760  0.1380  0.1660
42264W        W50864  17.691   2.056  27.409 -0.0100  0.1056 -0.1215
42265W        W50865  24.567   2.184  31.893  0.1715  0.0108 -0.2567
42266W        W50866  13.619   0.959   4.786  0.0937 -0.2765  0.2013
42267W        W50867  12.181   4.678  32.074 -0.1658  0.0548 -0.0053
42268W        W50868   9.399   1.506  27.590  0.0105 -0.0176  0.1599
42269W        W50869   4.505   5.261  24.109  0.2805  0.0778 -0.0137
42270W        W50870  23.276   2.442   3.083 -0.0585  0.1096  0.1179
42271W        W50871  21.865   0.035  30.206 -0.3411 -0.1584  0.0581
42272W        W50872  19.986   0.204  21.318 -0.1050 -0.0923  0.0358
42273W        W50873  26.174   1.379  34.248 -0.5816 -0.0039 -0.0922
42274W        W50874   1.246   5.950  28.936  0.0978  0.2160  0.1983
42275W        W50875  26.116   0.272  10.244  0.2121  0.0949  0.1753
42276W        W50876  25.390   3.901  21.204  0.1493 -0.0742  0.2280
42277W        W50877  25.696   4.079  35.813 -0.1395 -0.0809 -0.1478
42278W        W50878  15.651   5.421  27.241 -0.0097 -0.1306  0.0003
42279W        W50879   5.902   3.211   5.348 -0.1084 -0.4217 -0.4296
42280W        W50880  17.192   4.219   8.038 -0.0205  0.2529 -0.1581
42281W        W50881   1.574   1.287  31.428 -0.1381 -0.2670  0.1279
42282W        W50882  20.444   0.992   0.345  0.0461  0.0714 -0.0517
42283W        W50883  19.552   4.257  23.195  0.3168 -0.1107  0.2837
42284W        W50884   5.163   1.070  29.255 -0.1819 -0.0690  0.2671
42285W        W50885  22.789   0.676  13.912 -0.0106  0.0138 -0.1807
42286W        W50886   3.228   4.251   2.269  0.0322  0.0213  0.0117
42287W        W50887  12.537   3.207   6.356 -0.2873 -0.0196  0.3009
42288W        W50888   1.668   0.456   3.109 -0.0127  0.1213  0.5372
42289W        W50889  22.058   3.033  25.985  0.1271  0.0419  0.1073
42290W        W50890  18.272   3.761  25.223  0.2471 -0.1200  0.1508
42291W        W50891  22.044   3.612  33.942  0.0914  0.0883  0.4182
42292W        W50892  22.662   1.148   0.532  0.0764  0.0504  0.1091
42293W        W50893  18.136   2.900  10.060 -0.2515  0.3662 -0.1485
42294W        W50894  25.396   6.119   5.644  0.1170 -0.0061 -0.1236
42295W        W50895   0.745   5.610   6.565 -0.1974  0.0431  0.0566
42296W        W50896   5.946   5.742  33.102  0.3162 -0.2256 -0.3142
42297W        W50897  22.883   0.793  30.218 -0.2253  0.0815 -0.0763
42298W        W50898   1.400   0.578  33.240  0.2047  0.3815  0.1432
42299W        W50899   6.386   4.963  12.984 -0.0290 -0.0106  0.0856
42300W        W50900  20.736   4.175  13.933 -0.1192  0.1762  0.2514
42301W        W50901  12.575   2.114  34.158 -0.1189  0.2357  0.1270
42302W        W50902  22.062   4.243   2.235  0.2651  0.2808 -0.3370
42303W        W50903   7.918   0.856  22.126  0.0443  0.0408 -0.3657
42304W        W50904  26.040   6.325  14.512  0.0083  0.0880  0.0210
42305W        W50905  14.689   2.076   1.066  0.0908  0.1784  0.1396
42306W        W50906  15.261   3.909  30.877  0.0084 -0.1047  0.1829
42307W        W50907   8.747   3.472  24.413 -0.0627  0.0860  0.3113
42308W        W50908  19.215   4.735   7.276 -0.0536 -0.0169 -0.2532
42309W        W50909  21.924   4.122  12.369 -0.2088 -0.2444  0.0680
42310W        W50910  20.845   0.055  28.252 -0.1583  0.4453 -0.0942
42311W        W50911  10.285   1.465  12.679  0.2812 -0.0340  0.2520
42312W        W50912  12.234   3.272  29.931  0.1951  0.1170  0.2364
42313W        W50913   4.101   3.015  22.358 -0.0118  0.1588 -0.1504
42314W        W50914   9.813   2.876  33.504 -0.0598  0.1895  0.0703
42315W        W50915   6.046   3.808  28.738  0.4919  0.0004 -0.2038
42316W        W50916  18.734   2.424  32.613  0.0982 -0.1150 -0.0450
42317W        W50917   2.054   3.619  27.955 -0.2034 -0.4419 -0.1554
42318W        W50918  25.490   1.555  26.509  0.0886 -0.0128 -0.0382
42319W        W50919  18.814   4.097   9.442  0.0105 -0.0030 -0.1611
42320W        W50920  12.821   0.008  15.162 -0.2026 -0.0506  0.1586
42321W        W50921   7.907   1.574   1.612 -0.1575  0.0403  0.1357
42322W        W50922   7.158   1.586   8.698  0.2724 -0.1131 -0.0164
42323W        W50923   6.575   0.495  29.611 -0.1866 -0.0317  0.5277
42324W        W50924   8.801   2.622   7.392 -0.0005 -0.0495 -0.0486
42325W        W50925  25.872   3.722  11.263  0.2594  0.1971  0.0878
42326W        W50926  25.406   3.801   2.663  0.0102 -0.0626 -0.1836
42327W        W50927  16.153   0.391  31.901  0.1173  0.0034 -0.1124
42328W        W50928   7.556   5.003   4.010 -0.0838 -0.1051  0.0228
42329W        W50929   6.779   2.286  15.103  0.1712  0.0065  0.2962
42330W        W50930   7.018   1.317   5.924 -0.0366 -0.1983  0.0586
42331W        W50931  23.026   4.840  29.908  0.0819  0.1144  0.1551
42332W        W50932   9.586   5.761   9.503  0.0953  0.0373 -0.0464
42333W        W50933   7.406   5.314   5.603 -0.0205 -0.1240 -0.0812
42334W        W50934  11.412   3.174   1.674  0.2448  0.1676 -0.0983
42335W        W50935   3.777   3.138  27.372  0.0670  0.0579  0.1345
42336W        W50936  19.362   0.048  25.646 -0.0005 -0.0157 -0.0249
42337W        W50937   8.850   3.375   9.631  0.2701  0.0740 -0.2184
42338W        W50938   3.572   6.231  26.703 -0.0933  0.3342  0.2920
42339W        W50939  25.452   0.643  14.745  0.0497 -0.1274  0.0506
42340W        W50940  15.041   4.200   1.757 -0.0323  0.1468 -0.1216
42341W        W50941  25.158   0.194   3.377 -0.1638 -0.1971 -0.2020
42342W        W50942  11.982   0.154  32.181  0.0993  0.1854  0.0759
42343W        W50943   4.650   0.701   0.288  0.0647  0.0286  0.0016
42344W        W50944  26.208   6.050  29.406 -0.2520  0.3461 -0.0309
42345W        W50945   1.552   0.100   9.073 -0.0947 -0.2305 -0.0576
42346W        W50946   2.927   1.840  26.432 -0.0726 -0.0243 -0.0466
42347W        W50947   0.787   5.756  30.219  0.0109  0.3349 -0.0452
42348W        W50948  17.532   3.701  32.731  0.0706  0.0975 -0.2106
42349W        W50949  19.000   6.046  32.649 -0.0452  0.0146  0.1335
42350W        W50950  13.152   6.272   3.152 -0.0928 -0.0872  0.1732
42351W        W50951  25.949   5.561  31.669 -0.0335  0.0663  0.0986
42352W        W50952  19.776   4.898  33.907 -0.0917  0.1788  0.1746
42353W        W50953  22.287   0.955   5.753 -0.1781 -0.2252 -0.1333
42354W        W50954  10.454   0.717  11.608 -0.0977  0.1172  0.3405
42355W        W50955  23.513   1.986   4.768 -0.1077 -0.0097  0.3388
42356W        W50956  14.525   0.453  33.133  0.0826 -0.2869 -0.1519
42357W        W50957  26.008   3.479  24.374  0.0025  0.3328 -0.1197
42358W        W50958  20.850   1.527  24.360 -0.0362 -0.0510  0.0143
42359W        W50959  18.038   4.931   7.565  0.0164  0.1094 -0.2979
42360W        W50960  17.905   6.214  25.153  0.0439 -0.2732 -0.2742
42361W        W50961  13.916   3.126   5.574 -0.1515 -0.3481  0.1695
42362W        W50962  25.864   3.627  26.791 -0.0315  0.0432 -0.0884
42363W        W50963  20.553   2.853  25.835  0.1763 -0.0998 -0.0706
42364W        W50964  10.746   4.393  10.877 -0.0518  0.2052  0.3004
42365W        W50965   7.996   4.089  23.194 -0.4739  0.2121 -0.0089
42366W        W50966   7.609   0.682   8.391  0.1894 -0.4324  0.0984
42367W        W50967  18.087   5.461  15.091  0.2687  0.0353 -0.0756
42368W        W50968   8.282   0.680  31.847  0.0208 -0.0638 -0.1855
42369W        W50969   0.310   4.412  34.066  0.0526 -0.0047  0.0239
42370W        W50970  17.322   0.796  21.891  0.0094  0.1578  0.0063
42371W        W50971   9.619   4.386  29.839  0.2372  0.2482 -0.0538
42372W        W50972  10.953   5.383  25.788  0.3236 -0.0939  0.1888
42373W        W50973  23.413   1.484   3.051  0.0020 -0.2090 -0.1615
42374W        W50974  16.239   2.519   3.267 -0.0253  0.3180  0.0437
42375W        W50975  12.208   1.058  27.709  0.1481 -0.2438 -0.0840
42376W        W50976  21.094   1.099  29.777 -0.3758  0.0243  0.1845
42377W        W50977  15.732   2.323  31.822  0.1217 -0.1171  0.0679
42378W        W50978   1.041   0.838   8.976  0.0082  0.3317  0.0299
42379W        W50979  11.699   4.836  24.697  0.1386 -0.1451 -0.1484
42380W        W50980   2.703   2.465  28.133 -0.1632  0.0094 -0.3136
42381W        W50981   3.394   5.023   1.869 -0.1243  0.1594  0.0690
42382W        W50982   6.476   2.949   2.237 -0.3606 -0.0865 -0.0962
42383W        W50983   9.376   4.837  13.443 -0.0070 -0.0205 -0.1082
42384W        W50984  11.253   0.502  11.399  0.0150  0.0278 -0.0967
42385W        W50985   2.480   1.165  27.959  0.0424  0.2188 -0.0752
42386W        W50986  23.727   1.796  24.027 -0.0018 -0.0586 -0.1119
42387W        W50987  18.832   2.143  24.995  0.0581 -0.2614 -0.1468
42388W        W50988   4.498   4.742   1.416  0.0706 -0.2800  0.1223
42389W        W50989   7.970   1.731   1.057  0.3286 -0.0234 -0.3352
42390W        W50990   7.114   5.790  27.906  0.1970 -0.3436  0.2017
42391W        W50991   6.768   0.259   7.445  0.0875 -0.5336  0.0682
42392W        W50992  11.254   3.959  21.817 -0.1055 -0.1959  0.1038
42393W        W50993  19.166   3.823  26.800 -0.1783  0.2578  0.2873
42394W        W50994  26.047   3.269  33.911  0.2265 -0.0243  0.0602
42395W        W50995  21.317   4.664   6.222 -0.0888  0.0158  0.0728
42396W        W50996  20.449   1.415   0.064 -0.2360  0.1274 -0.4711
42397W        W50997  14.173   6.109  24.289  0.0088 -0.2437 -0.1673
42398W        W50998  19.099   5.845  21.041 -0.1070  0.0509 -0.0349
42399W        W50999  19.069   3.031  26.744  0.1256 -0.1854 -0.1906
42400W        W51000   3.318   0.584  36.065 -0.0726 -0.0294 -0.1171
42401W        W51001  21.313   4.911  22.608  0.0659 -0.0034 -0.0165
42402W        W51002   7.861   1.049  29.555  0.0921 -0.1214  0.0865
42403W        W51003  23.255   2.635  22.493 -0.2061  0.2783 -0.1532
42404W        W51004  18.866   5.046  21.396 -0.2930  0.1197 -0.1410
42405W        W51005  23.469   4.366  31.618 -0.4910 -0.0583 -0.2976
42406W        W51006  14.836   4.789   6.737 -0.0754 -0.2190  0.1322
42407W        W51007  13.648   0.758  36.016  0.2511  0.0804  0.1915
42408W        W51008  12.904   5.339   5.433  0.1001  0.0645  0.3669
42409W        W51009  11.296   2.074  21.694  0.1151 -0.0899 -0.0268
42410W        W51010  21.733   2.764  35.756  0.0811  0.1280 -0.1417
42411W        W51011  20.974   2.573  34.872 -0.1007  0.2386  0.2099
42412W        W51012  21.288   2.658  25.627  0.0877  0.1565  0.4396
42413W        W51013  21.450   5.416  10.720  0.0568  0.0040 -0.0639
42414W        W51014  12.005   0.256  27.138 -0.2908 -0.2992  0.1170
42415W        W51015   8.901   3.480  11.803  0.1388  0.0003 -0.0705
42416W        W51016  15.117   3.500  33.988  0.1717 -0.2170 -0.1571
42417W        W51017   9.480   4.569  22.165 -0.3352  0.0407  0.0589
42418W        W51018  10.444   0.295  10.402  0.1903 -0.3291  0.0846
42419W        W51019  19.027   4.241   2.324  0.1500  0.1533  0.2600
42420W        W51020   8.545   1.976   8.485  0.1567  0.2416  0.4455
42421W        W51021  21.104   0.557  24.333 -0.0922 -0.2082  0.0546
42422W        W51022   4.750   4.011  21.910 -0.0582 -0.1065  0.0155
42423W        W51023   4.035   1.397   8.616  0.1004 -0.0538 -0.0332
42424W        W51024   8.133   5.049  30.535  0.2219  0.3027  0.0904
42425W        W51025  12.470   0.824  26.112  0.3378  0.0063  0.1003
42426W        W51026  22.846   4.684  25.345 -0.0425 -0.0699  0.3397
42427W        W51027  14.490   4.781  26.033 -0.0121 -0.5487 -0.0048
42428W        W51028  19.639   5.464   8.194  0.0619 -0.0914  0.0386
42429W        W51029  11.289   0.266  20.961 -0.0402 -0.1944  0.0456
42430W        W51030   7.342   0.669   3.766 -0.0446 -0.2501  0.1678
42431W        W51031   6.493   3.287   4.108 -0.1048  0.1565 -0.0381
42432W        W51032   7.600   4.710   5.349  0.2227 -0.1209 -0.0295
42433W        W51033   1.548   3.712   5.138 -0.1935 -0.0541 -0.1415
42434W        W51034   1.599   2.517  21.463 -0.0798 -0.3092  0.0511
42435W        W51035  21.235   6.241   4.716 -0.1493 -0.0076 -0.0665
42436W        W51036  13.667   0.750   6.919 -0.1860  0.1334 -0.0045
42437W        W51037   3.247   5.486  12.680  0.0478  0.0660 -0.2798
42438W        W51038  26.123   4.329  25.001  0.0150  0.2213 -0.2465
42439W        W51039  20.674   5.049  11.150  0.2243  0.0916  0.0513
42440W        W51040  10.470   4.204   1.939  0.2480  0.0971  0.0646
42441W        W51041  20.825   2.936  22.537  0.0105 -0.5805 -0.3031
42442W        W51042   4.743   6.072  11.743  0.2320 -0.2235 -0.3644
42443W        W51043  13.202   5.502   4.539  0.0595  0.2191  0.0145
42444W        W51044  19.317   4.646  30.054  0.1253 -0.0579 -0.1796
42445W        W51045   7.862   3.726   0.128 -0.2184  0.0722  0.0537
42446W        W51046   1.758   2.161   8.865  0.3214  0.4421  0.0391
42447W        W51047  20.418   0.128   7.673 -0.0130 -0.0139 -0.2925
42448W        W51048   5.003   1.686  11.212 -0.0294 -0.0058 -0.1013
42449W        W51049  15.489   1.047   6.467  0.1807 -0.0583 -0.0764
42450W        W51050   0.951   3.811  28.802 -0.1826  0.1208  0.2077
42451W        W51051   2.864   4.469  26.446 -0.4497 -0.2632 -0.0569
42452W        W51052  18.624   4.224  33.020  0.0538 -0.2220 -0.0258
42453W        W51053   5.527   0.100  33.978 -0.0399 -0.1029  0.0095
42454W        W51054   9.918   4.013  24.266 -0.0267 -0.0753  0.0104
42455W        W51055   4.447   0.149  21.130 -0.1394 -0.3417  0.2486
42456W        W51056   4.776   5.213  32.612 -0.1683 -0.0193 -0.1892
42457W        W51057   2.229   6.441  28.941  0.0111 -0.0006  0.1448
42458W        W51058   8.015   2.199  26.741  0.2889  0.4545 -0.0479
42459W        W51059  24.596   1.239   1.890 -0.2250  0.1853 -0.4961
42460W        W51060  13.750   6.607  35.538 -0.1693 -0.0983 -0.0687
42461W        W51061  14.427   5.412   9.301  0.0138 -0.0166 -0.0382
42462W        W51062   3.182   4.471  11.659  0.3731 -0.0221 -0.0158
42463W        W51063   4.493   0.634  21.509  0.1040  0.1915 -0.0641
42464W        W51064   4.182   0.894   4.654  0.1894  0.0458  0.0556
42465W        W51065   3.664   4.321   2.552 -0.0009 -0.3146  0.0427
42466W        W51066  19.467   6.428  15.340 -0.1741 -0.1173  0.1706
42467W        W51067  13.873   6.489   0.443 -0.0692  0.0926 -0.2559
42468W        W51068  11.776   5.403  13.177  0.0904 -0.0904 -0.0948
42469W        W51069  17.412   5.735   5.598  0.1187  0.0868  0.0057
42470W        W51070  15.341   0.356   5.861 -0.2489 -0.1425  0.1057
42471W        W51071   3.970   0.163   2.613 -0.0292  0.0122  0.0591
42472W        W51072  18.678   1.501  25.659 -0.1443 -0.3026  0.0198
42473W        W51073  21.871   0.652  23.578  0.1208 -0.0815  0.2436
42474W        W51074   8.808   2.364  23.798 -0.0992  0.2235 -0.0416
42475W        W51075  14.395   1.597   4.106  0.0670 -0.0209  0.0965
42476W        W51076  14.165   5.367  34.268 -0.0779  0.1229  0.1741
42477W        W51077  20.077   6.313   0.990  0.2343  0.2445 -0.1237
42478W        W51078   3.683   2.991   9.878 -0.0197 -0.2022 -0.1683
42479W        W51079  12.851   2.084   1.967 -0.0553  0.2191  0.0977
42480W        W51080  19.240   5.804   4.283 -0.1278 -0.0796 -0.3832
42481W        W51081   3.273   6.393  33.731  0.1649 -0.1949 -0.0669
42482W        W51082   0.436   2.173  27.306 -0.0696  0.0054 -0.0462
42483W        W51083  12.804   0.218  25.187 -0.2992  0.0863  0.1734
42484W        W51084   7.010   5.958  23.785  0.0589 -0.0622  0.1349
42485W        W51085   3.895   5.767  27.498 -0.0786 -0.1479 -0.2666
42486W        W51086   1.161   2.542  31.821 -0.0525 -0.0831  0.1950
42487W        W51087   8.660   0.405  25.919  0.1267  0.2885  0.1374
42488W        W51088   6.854   0.375  26.808 -0.1666 -0.2184 -0.0084
42489W        W51089  17.799   2.681  14.338 -0.0341 -0.1638  0.4318
42490W        W51090  25.707   4.399  34.560 -0.0212  0.1120  0.0070
42491W        W51091  21.305   2.878  20.670 -0.0657 -0.3347 -0.3648
42492W        W51092  24.668   0.999  35.447 -0.2980  0.0021 -0.1545
42493W        W51093  22.701   3.829   3.397 -0.1666  0.2727 -0.3041
42494W        W51094  25.099   2.933   0.535 -0.2294 -0.1556  0.0216
42495W        W51095  11.143   1.911  12.901 -0.3218  0.2122 -0.2912
42496W        W51096   0.309   5.652   2.138  0.0036  0.0053 -0.2461
42497W        W51097  25.050   2.923  10.271  0.1383 -0.1842  0.0371
42498W        W51098   3.301   0.164  22.940 -0.0261  0.1012  0.1153
42499W        W51099   8.770   5.763   7.308 -0.2534 -0.2450 -0.1678
42500W        W51100   0.903   6.385  10.475 -0.0066  0.2468 -0.2215
42501W        W51101   1.194   1.196  11.090  0.1524 -0.3249 -0.0014
42502W        W51102   5.239   3.278  33.234  0.0370 -0.2392  0.4246
42503W        W51103   6.631   6.310  31.964 -0.1633  0.0757 -0.2118
42504W        W51104   7.235   3.284  14.598  0.0073 -0.0388  0.0592
42505W        W51105  22.773   0.938   5.689  0.0610 -0.1615 -0.1275
42506W        W51106   3.117   5.652  29.298  0.2200  0.0223 -0.2499
42507W        W51107   9.373   2.697  31.298  0.3584 -0.0967  0.2614
42508W        W51108  24.101   3.140   0.443 -0.2283 -0.1669 -0.1957
42509W        W51109  26.245   5.637  11.057 -0.1580 -0.1751 -0.1214
42510W        W51110   7.249   4.248   6.502 -0.2190  0.0192  0.1716
42511W        W51111  10.825   2.381  23.013 -0.1138 -0.0782  0.1023
42512W        W51112  22.012   4.052  34.579 -0.0438 -0.0926 -0.3421
42513W        W51113   5.174   4.320  24.768  0.1711 -0.1432  0.1166
42514W        W51114  24.273   5.236  28.881 -0.0686 -0.0185 -0.1006
42515W        W51115  24.371   2.572  12.929 -0.0150 -0.0246  0.0158
42516W        W51116   5.160   3.302  12.496  0.2009 -0.3870 -0.1341
42517W        W51117  26.372   0.667   7.306 -0.0922  0.0238  0.0521
42518W        W51118  22.465   4.543   8.568  0.0239 -0.0144 -0.1305
42519W        W51119   1.540   4.649  24.378  0.2113  0.1551  0.2427
42520W        W51120  20.876   5.883  32.838  0.2396  0.0092 -0.0769
42521W        W51121  25.181   3.671  34.107 -0.2003  0.1495 -0.3475
42522W        W51122  14.800   0.626  15.898 -0.1591  0.0888 -0.1523
42523W        W51123  25.903   6.066  13.167  0.0319 -0.1001  0.2045
42524W        W51124   1.693   1.757  33.285  0.0796  0.0402 -0.3770
42525W        W51125  10.957   1.679  26.171 -0.0689 -0.3301 -0.1048
42526W        W51126  20.316   2.536  26.888  0.0342 -0.2032  0.1792
42527W        W51127   7.192   1.853   7.674 -0.1555 -0.2084  0.1383
42528W        W51128   7.941   0.956  35.883 -0.0525 -0.2635  0.0676
42529W        W51129  18.143   5.320  10.796  0.2468  0.1357 -0.2782
42530W        W51130  18.830   0.317  14.206  0.2486 -0.1225  0.1349
42531W        W51131   4.635   5.768   1.705  0.0179 -0.1576 -0.1050
42532W        W51132  10.194   4.466  14.430  0.2628 -0.1941 -0.2795
42533W        W51133   3.519   4.677  28.325  0.1781 -0.1033 -0.1953
42534W        W51134  12.322   3.439   6.749  0.1493 -0.0605 -0.0660
42535W        W51135  10.185   5.915  35.961  0.1751 -0.1437  0.0398
42536W        W51136   5.427   2.399   5.292  0.0380  0.0163  0.5716
42537W        W51137  11.887   6.214  23.848 -0.1999  0.1557 -0.1153
42538W        W51138   9.002   2.945   9.786  0.0360 -0.0828 -0.0232
42539W        W51139   4.669   6.160  22.907  0.3956 -0.3314  0.1570
42540W        W51140  16.597   0.543  25.272 -0.2324 -0.0213  0.2616
42541W        W51141  25.176   6.341   3.508  0.2234 -0.1551  0.1849
42542W        W51142  22.253   2.730  22.484  0.3665  0.0083  0.0002
42543W        W51143  10.720   5.101  32.732  0.1667 -0.0416 -0.0179
42544W        W51144  19.838   2.289  25.674 -0.1163 -0.0297  0.2643
42545W        W51145   0.907   5.571  20.237 -0.0806  0.2126  0.2252
42546W        W51146   2.105   6.507  25.532 -0.0438  0.0313 -0.0852
42547W        W51147   4.628   4.954  29.901 -0.0585  0.1606 -0.3983
42548W        W51148   6.053   3.684  32.011  0.0376  0.1445 -0.1441
42549W        W51149  15.452   2.566  31.408  0.2311  0.6813 -0.1034
42550W        W51150  24.335   1.975   2.875 -0.4137  0.0928  0.1686
42551W        W51151  24.237   2.380   2.505  0.3130 -0.0105  0.2053
42552W        W51152  12.064   4.181  11.481 -0.0515  0.0323 -0.0331
42553W        W51153   6.913   0.619  24.457  0.1899  0.0518 -0.0563
42554W        W51154  23.523   4.529   5.006  0.1804 -0.4324  0.0051
42555W        W51155   0.241   1.074  15.234  0.3328 -0.0898  0.1406
42556W        W51156   7.716   1.045  22.860  0.4679 -0.0068  0.0294
42557W        W51157   0.014   6.371  33.112  0.0331 -0.0311 -0.3035
42558W        W51158  16.044   6.528   6.343  0.2305 -0.3546 -0.0305
42559W        W51159  21.585   3.249   2.400  0.3277  0.1770  0.2667
42560W        W51160  14.656   5.571   4.028  0.1287  0.0169 -0.1508
42561W        W51161   3.437   1.075   6.739 -0.2291  0.0717  0.2907
42562W        W51162  25.682   0.660  33.063  0.0320  0.2791  0.0365
42563W        W51163   8.015   1.746  21.947  0.4489  0.0851  0.1296
42564W        W51164   3.439   6.109  24.044 -0.3193 -0.2139 -0.2641
42565W        W51165   1.334   0.023   3.721  0.0050 -0.1606  0.1530
42566W        W51166  11.314   2.163   2.408  0.4026  0.2067  0.0197
42567W        W51167  21.121   0.043  24.370  0.3967  0.0333  0.0173
42568W        W51168  23.015   0.272  28.869 -0.0811 -0.1036 -0.0931
42569W        W51169   8.765   6.591  33.882  0.1447  0.2943 -0.0970
42570W        W51170   1.458   2.604   3.158 -0.0637  0.1634 -0.1886
42571W        W51171   3.635   0.556  27.157  0.0416 -0.2489 -0.0860
42572W        W51172  19.587   4.271  29.949  0.1174  0.2049  0.0048
42573W        W51173  26.289   0.343  23.183 -0.0559  0.2863 -0.0192
42574W        W51174  10.192   5.036  36.004 -0.2526 -0.2879 -0.0423
42575W        W51175   4.963   1.907   7.357 -0.0981 -0.1188 -0.0517
42576W        W51176   2.523   1.030  35.101 -0.1217  0.0342 -0.3505
42577W        W51177  26.244   4.494  11.939  0.0099 -0.0575 -0.2136
42578W        W51178  14.832   4.745  10.227  0.1482 -0.1576  0.2281
42579W        W51179  13.315   1.668   5.622 -0.1748 -0.1831  0.3236
42580W        W51180  22.864   6.144   1.918 -0.0835 -0.0969 -0.2312
42581W        W51181  17.040   3.970  14.849  0.0981  0.0414 -0.1074
42582W        W51182  23.400   4.031  14.660 -0.0618 -0.1245 -0.0869
42583W        W51183  23.928   4.872   5.948 -0.0697  0.0803 -0.1876
42584W        W51184   7.832   2.210  12.818 -0.0955  0.0867  0.1028
42585W        W51185   1.993   4.274  27.790 -0.0261 -0.1120  0.2573
42586W        W51186   0.656   5.446   9.612 -0.0129  0.0322 -0.2021
42587W        W51187  12.718   0.395  20.891 -0.0123  0.0449 -0.4234
42588W        W51188  25.767   3.967  22.882  0.2521 -0.0712  0.2375
42589W        W51189   7.570   2.518  13.546 -0.0019  0.0201  0.0371
42590W        W51190  13.627   6.410  14.696 -0.1877 -0.1966  0.1200
42591W        W51191  11.476   5.577  27.124  0.1198  0.1321  0.0053
42592W        W51192   3.191   3.888   0.360  0.3064  0.2620 -0.2118
42593W        W51193  13.695   5.552  21.585 -0.1634 -0.0815  0.3489
42594W        W51194  10.573   3.338  35.415  0.0059  0.2289  0.1761
42595W        W51195   1.875   4.557  14.494  0.1406  0.1818  0.0543
42596W        W51196  22.352   0.926  32.498  0.0982  0.0574  0.0612
42597W        W51197   0.375   5.356  28.129 -0.1776 -0.0293 -0.0556
42598W        W51198   0.168   0.109  29.019  0.0773  0.0510  0.6709
42599W        W51199  18.561   6.562  27.727 -0.0361 -0.2743 -0.2728
42600W        W51200   3.565   2.285   4.479 -0.2865 -0.1060  0.1828
42601W        W51201  15.707   2.236  11.755  0.3124  0.1684  0.2976
42602W        W51202  12.353   0.199  10.564  0.3145 -0.2496 -0.2239
42603W        W51203  17.924   2.547  21.110 -0.0771  0.0836  0.1221
42604W        W51204  16.721   0.714  11.080  0.1579 -0.0452 -0.0359
42605W        W51205  24.345   2.620  31.778  0.0574 -0.0397  0.0125
42606W        W51206  15.704   3.849  33.852 -0.0904 -0.1950  0.2620
42607W        W51207   0.067   5.414  29.993 -0.1035 -0.0849  0.1357
42608W        W51208   7.089   5.069  29.755  0.2180 -0.1130 -0.1562
42609W        W51209  24.195   2.309   2.031  0.0949 -0.1394  0.1263
42610W        W51210  18.937   5.005  22.473  0.1532  0.2794 -0.3274
42611W        W51211   7.816   2.606  30.942  0.0443 -0.0504 -0.2081
42612W        W51212   8.734   2.467   5.351  0.2550  0.2092 -0.0209
42613W        W51213   3.313   3.460  31.387 -0.0072  0.0347 -0.0670
42614W        W51214  22.119   3.783  14.571  0.3338  0.0540 -0.2670
42615W        W51215  16.207   2.331  11.389 -0.0249 -0.0887  0.4504
42616W        W51216   1.025   2.576   5.562 -0.0756  0.2335  0.3127
42617W        W51217  23.797   1.894   2.986  0.1133 -0.2657  0.0392
42618W        W51218  25.923   2.716  13.419 -0.1431 -0.0354  0.0344
42619W        W51219  16.191   4.028  34.633 -0.0341 -0.0228 -0.0049
42620W        W51220   7.112   1.014  11.934  0.2307 -0.2473 -0.0884
42621W        W51221  16.815   1.054   2.342  0.2594 -0.3893  0.1292
42622W        W51222  17.829   5.898  13.066 -0.0477 -0.1020  0.4331
42623W        W51223  23.557   0.705  34.302  0.0664 -0.1267  0.0919
42624W        W51224  14.001   3.628  33.270  0.0251  0.3418 -0.0313
42625W        W51225  12.445   0.189  22.676 -0.0553 -0.2892 -0.3204
42626W        W51226  24.476   3.891  11.122 -0.1413  0.0319  0.1483
42627W        W51227  19.008   3.367  28.149 -0.1759 -0.1612  0.1112
42628W        W51228  13.298   3.230  32.719 -0.0996 -0.0929  0.1961
42629W        W51229  23.598   6.300  30.605 -0.1576  0.3544 -0.0838
42630W        W51230  16.589   5.192  25.222  0.0551  0.2172  0.1681
42631W        W51231  13.265   1.191  21.112  0.2812  0.3538  0.1105
42632W        W51232  22.521   5.315  27.107 -0.0683  0.1272  0.0214
42633W        W51233   8.802   5.073  13.742 -0.1230 -0.0982  0.4442
42634W        W51234   3.758   3.042   7.779 -0.1420 -0.0391  0.0345
42635W        W51235   6.600   4.237  29.779 -0.1128  0.1664  0.0053
42636W        W51236   2.325   5.350  15.823  0.1418 -0.0921  0.1415
42637W        W51237  16.033   3.427  24.560 -0.2149  0.0979  0.1318
42638W        W51238  10.409   5.375  23.014  0.1363 -0.3562 -0.0308
42639W        W51239   2.375   5.888  26.747 -0.1329 -0.0475  0.0232
42640W        W51240  19.862   2.788   2.823 -0.1010  0.1213 -0.0542
42641W        W51241  25.691   1.337   1.194 -0.0864 -0.2523 -0.0164
42642W        W51242   3.898   6.198  30.296 -0.0426  0.4275  0.0616
42643W        W51243   6.815   5.311   6.367 -0.0529  0.0043 -0.2893
42644W        W51244   4.133   1.402   4.652  0.0970  0.2234  0.0069
42645W        W51245   5.388   4.487   7.327  0.1263  0.0280 -0.1747
42646W        W51246  13.044   0.095   1.520 -0.2318  0.2874  0.0709
42647W        W51247  13.349   1.067  31.784 -0.2555  0.0827 -0.2785
42648W        W51248  16.407   5.637   3.839 -0.0978  0.0882 -0.1760
42649W        W51249  25.871   4.922  28.300  0.3573  0.1221 -0.1876
42650W        W51250  12.362   1.364  25.070 -0.3185  0.0233 -0.0513
42651W        W51251   2.852   2.331  13.887  0.0424  0.3313 -0.0379
42652W        W51252  16.252   5.138  15.459  0.1155 -0.1067  0.0623
42653W        W51253   9.026   2.861   5.429 -0.0726 -0.1985  0.1032
42654W        W51254  18.002   0.657  32.244 -0.2088  0.3209 -0.0666
42655W        W51255  12.974   2.052  32.132  0.2013 -0.1567 -0.1252
42656W        W51256  13.875   5.350  14.936  0.4092 -0.0027  0.4534
42657W        W51257   6.129   6.472   7.785 -0.0844 -0.0907 -0.2515
42658W        W51258   2.756   4.947   0.822  0.0567  0.0622 -0.1453
42659W        W51259   4.814   1.071  35.223  0.0739  0.2182  0.0154
42660W        W51260  19.669   6.013  21.139 -0.2915  0.1002 -0.1222
42661W        W51261   6.781   0.395  25.736 -0.0004  0.2201  0.0361
42662W        W51262  16.139   2.199   3.665 -0.0666  0.1418 -0.1763
42663W        W51263  15.394   4.569   5.252  0.0563  0.0211  0.0517
42664W        W51264  12.695   2.682  30.941  0.0153  0.2715  0.0214
42665W        W51265  19.118   4.939  14.277  0.2323 -0.0918 -0.0662
42666W        W51266  16.568   4.256  33.144  0.3922 -0.4104 -0.3129
42667W        W51267  21.121   3.244   3.756 -0.0771  0.2545  0.2893
42668W        W51268  20.818   1.149   0.575 -0.2448  0.0009  0.4222
42669W        W51269  11.398   3.639   7.001 -0.0418 -0.0151 -0.2003
42670W        W51270   1.398   0.056   2.937 -0.0785 -0.0775  0.0225
42671W        W51271   2.967   6.049  34.307 -0.1732  0.0055  0.2179
42672W        W51272  20.934   1.446  22.726  0.0429  0.0348 -0.0807
42673W        W51273  21.219   2.997  10.131 -0.1041  0.2162 -0.0068
42674W        W51274   5.808   5.185  10.478 -0.0301  0.1739 -0.0961
42675W        W51275  10.588   4.301  29.985 -0.3059 -0.1227  0.1830
42676W        W51276   1.307   2.257   2.749 -0.2479  0.3488 -0.1604
42677W        W51277  23.258   6.071   2.732 -0.0399 -0.1337 -0.0649
42678W        W51278  20.399   0.572  26.563 -0.2990  0.0163 -0.1082
42679W        W51279   3.254   5.189   7.626  0.2169  0.0853  0.0634
42680W        W51280   2.920   6.316  10.308  0.3051 -0.0279  0.2962
42681W        W51281  25.298   3.400  30.400  0.1715 -0.0829 -0.2531
42682W        W51282   6.300   5.617  30.248  0.0313 -0.0660  0.0673
42683W        W51283  15.346   3.623  13.711  0.1981 -0.2441 -0.2956
42684W        W51284  20.540   5.868   0.186 -0.0741  0.3546 -0.3355
42685W        W51285   8.425   5.217  32.462 -0.1451  0.1676 -0.2903
42686W        W51286   1.298   1.954  12.870  0.0390  0.1775  0.0524
42687W        W51287  25.584   4.672   2.279  0.2681 -0.1554  0.1097
42688W        W51288  10.500   3.931   7.467 -0.1873  0.0190  0.0053
42689W        W51289   8.495   0.459  20.913 -0.0039  0.3449 -0.0407
42690W        W51290   5.227   0.434  32.212 -0.0139  0.0460 -0.2951
42691W        W51291   7.939   2.977  24.843  0.1315  0.1351 -0.1990
42692W        W51292   4.191   3.984   3.215 -0.3068  0.1604  0.2531
42693W        W51293   2.746   2.092  24.196 -0.1492  0.2161 -0.0024
42694W        W51294  18.660   5.318  25.989  0.3139  0.4148  0.0477
42695W        W51295  12.077   6.405  20.905  0.0125  0.1715 -0.1032
42696W        W51296   9.701   3.875   0.278  0.2035  0.0923  0.3552
42697W        W51297   2.118   4.982  29.486 -0.2222  0.2547  0.0868
42698W        W51298  24.355   1.118  26.474  0.0552  0.0058 -0.0559
42699W        W51299   7.358   2.999  22.339  0.0202  0.2505 -0.1978
42700W        W51300  17.592   6.070  34.091 -0.1896  0.0577 -0.1744
42701W        W51301  14.778   4.110  35.839  0.0689 -0.3793  0.0218
42702W        W51302  10.973   0.899  13.895  0.2007  0.5729 -0.1004
42703W        W51303  26.244   4.136  26.905 -0.0503 -0.0520 -0.2829
42704W        W51304  13.794   2.984  26.258  0.5767 -0.2415  0.1983
42705W        W51305   8.672   4.643  22.594 -0.0126 -0.1120 -0.2167
42706W        W51306  26.035   0.074  32.763  0.2868  0.0306 -0.0348
42707W        W51307  19.879   3.849  28.203 -0.0984 -0.1167 -0.1820
42708W        W51308   8.090   2.790   8.105 -0.1349  0.1411 -0.1923
42709W        W51309   1.243   4.690  29.341  0.0814  0.0659 -0.1400
42710W        W51310  12.160   2.758   1.967  0.1300 -0.1061  0.0416
42711W        W51311  24.785   2.467  27.749 -0.2379 -0.1130  0.2670
42712W        W51312  20.496   4.495  25.860  0.1546 -0.0311 -0.0329
42713W        W51313   3.635   2.327   5.833  0.1899  0.1315 -0.0325
42714W        W51314   1.283   4.079  35.032  0.5305  0.0269  0.0869
42715W        W51315   4.680   5.746  20.568  0.0382 -0.1790  0.1459
42716W        W51316  13.419   5.302  23.617 -0.2347  0.0703  0.0074
42717W        W51317  18.181   4.064   4.096  0.1360 -0.0685 -0.0853
42718W        W51318   2.883   5.976   8.007  0.2392  0.3452 -0.1385
42719W        W51319  19.699   3.212  22.302  0.3646 -0.1295 -0.0808
42720W        W51320   3.715   5.029  21.270 -0.0537  0.1361  0.2405
42721W        W51321  17.418   2.707   8.951 -0.0988 -0.1573 -0.4267
42722W        W51322  10.004   4.521  22.072 -0.2910 -0.0433  0.0724
42723W        W51323  22.071   2.314  31.073 -0.0407  0.0498 -0.1488
42724W        W51324  25.718   1.160  12.624 -0.2721  0.1735  0.1509
42725W        W51325  19.964   6.478  32.685 -0.0938  0.0344 -0.0281
42726W        W51326   3.486   2.293   8.118 -0.0216 -0.1735  0.0481
42727W        W51327  14.219   2.284   6.515 -0.2126  0.0467 -0.1354
42728W        W51328   5.556   2.418  35.540 -0.0067  0.1028  0.0650
42729W        W51329  20.830   4.901  21.766 -0.1259  0.1748  0.1373
42730W        W51330  21.813   5.058   7.853 -0.0003 -0.1456  0.0793
42731W        W51331   9.330   6.105  23.526 -0.0494  0.0416  0.1483
42732W        W51332   6.108   2.926   0.127 -0.0515  0.0929  0.0506
42733W        W51333  17.871   6.272   9.801 -0.0720  0.0877  0.1268
42734W        W51334  25.553   1.108  30.679 -0.0362 -0.0968 -0.0673
42735W        W51335  23.078   6.538   1.616 -0.0523  0.2677 -0.3752
42736W        W51336  17.058   5.605  30.096  0.1218 -0.2975 -0.2250
42737W        W51337   3.579   2.097   9.590  0.1739  0.2195  0.0548
42738W        W51338  17.593   3.113   4.572  0.2036 -0.0086 -0.1391
42739W        W51339   6.638   3.545  35.945 -0.0545  0.1523 -0.2006
42740W        W51340  25.834   3.025   8.481 -0.2652  0.0133 -0.1874
42741W        W51341  21.196   6.220  35.857 -0.0893  0.1658  0.2403
42742W        W51342   2.828   0.023  27.846  0.0216  0.0069  0.2479
42743W        W51343  11.712   1.128   5.768 -0.1135  0.1827  0.1797
42744W        W51344  22.035   1.049   6.213 -0.2372 -0.5266 -0.0707
42745W        W51345   4.413   6.412  35.226  0.0714  0.0010 -0.0084
42746W        W51346  16.514   5.413  13.922 -0.0120 -0.0977  0.2888
42747W        W51347   5.618   3.853  33.161 -0.1257  0.2684  0.0509
42748W        W51348   8.756   4.545   5.430 -0.0015 -0.1112 -0.0452
42749W        W51349  24.743   4.184   6.392 -0.2495 -0.4421  0.1987
42750W        W51350   9.293   2.315  25.114 -0.0358 -0.1089  0.1672
42751W        W51351   4.857   0.319   4.314 -0.1028 -0.2220  0.1883
42752W        W51352  21.651   2.139   3.799 -0.2451  0.5110 -0.0408
42753W        W51353  20.816   1.274   1.073  0.4328  0.2120 -0.1338
42754W        W51354   8.366   2.708   6.451  0.1509  0.4826 -0.1233
42755W        W51355  12.218   6.416  10.175  0.0326  0.1177 -0.0296
42756W        W51356  15.608   2.058  10.916 -0.0073 -0.1566 -0.1552
42757W        W51357   5.013   1.573   5.004 -0.2342  0.0150 -0.0041
42758W        W51358   6.890   5.334  34.498 -0.0075 -0.2820 -0.1675
42759W        W51359   3.942   3.295  25.663 -0.0378  0.0137 -0.1152
42760W        W51360   2.581   5.344  32.908  0.1502  0.0559  0.3745
42761W        W51361  16.429   3.579  22.357 -0.3109 -0.1961  0.1872
42762W        W51362   4.358   4.765  24.871 -0.2458 -0.1565  0.1834
42763W        W51363   3.416   4.911  15.350 -0.1886  0.0567  0.0520
42764W        W51364  11.661   1.552  20.507  0.0580 -0.2936  0.1469
42765W        W51365   6.543   2.045   4.772 -0.1238 -0.2940  0.0453
42766W        W51366  15.928   2.810   4.565  0.0374 -0.2372 -0.0501
42767W        W51367   6.476   4.949  14.536 -0.0012 -0.1129 -0.1881
42768W        W51368   6.947   1.654  25.518  0.0996 -0.2814  0.1399
42769W        W51369   2.035   3.463   0.687  0.4211 -0.1027  0.1992
42770W        W51370   7.321   0.179  33.330 -0.1801 -0.2554 -0.1499
42771W        W51371   9.754   1.450   8.000  0.2699  0.1745 -0.0979
42772W        W51372  24.337   1.594  35.368 -0.1270  0.0554 -0.0556
42773W        W51373   1.356   5.051  29.875 -0.0026  0.1156  0.0988
42774W        W51374  10.076   1.135  12.246  0.0277  0.3696 -0.2160
42775W        W51375  14.545   4.000   7.424 -0.2765  0.0386  0.5658
42776W        W51376  21.802   6.486  20.992  0.0174  0.0568 -0.0964
42777W        W51377  23.527   4.148  22.974  0.1450 -0.1470  0.0110
42778W        W51378  26.293   4.909   1.534  0.1293 -0.1754  0.1732
42779W        W51379  21.772   6.385  34.539 -0.1816 -0.0991  0.2583
42780W        W51380   5.305   0.582  12.380 -0.0590  0.2209 -0.0512
42781W        W51381  22.632   0.130  21.244  0.2168  0.1175  0.1216
42782W        W51382   7.550   3.042  35.236 -0.2027 -0.1804 -0.0098
42783W        W51383   8.540   0.215   1.964  0.1358  0.0071 -0.0856
42784W        W51384   6.857   0.840  23.023  0.1562 -0.3269 -0.0652
42785W        W51385  17.775   0.800   2.466 -0.0600 -0.2283  0.0716
42786W        W51386  18.154   1.588  31.186  0.0585 -0.1965 -0.0187
42787W        W51387   3.267   0.685  24.310 -0.1942 -0.0894 -0.0016
42788W        W51388  13.922   1.372  23.110 -0.2046 -0.1935  0.1910
42789W        W51389  23.125   3.195   1.276 -0.3985  0.0163  0.1423
42790W        W51390  22.756   0.274   3.186 -0.0509 -0.3570  0.2271
42791W        W51391  25.774   1.750  12.581  0.2451 -0.0289 -0.1056
42792W        W51392  11.776   4.896  10.189 -0.2997  0.1225 -0.0882
42793W        W51393   2.018   1.360   5.971 -0.1393 -0.1198 -0.1285
42794W        W51394   7.349   2.371  24.797  0.2082 -0.4019 -0.2865
42795W        W51395  17.633   6.555  25.384 -0.0324 -0.2432  0.0895
42796W        W51396   8.913   3.674  35.068 -0.1163 -0.0335  0.1031
42797W        W51397  13.841   5.231  10.090  0.0553  0.2126 -0.1864
42798W        W51398  10.884   3.004  23.231  0.0849 -0.1805 -0.0577
42799W        W51399   6.240   1.228  14.305  0.0355  0.0919 -0.0102
42800W        W51400  18.734   6.323  13.488 -0.1061  0.0106 -0.1018
42801W        W51401   3.018   2.413  14.897 -0.1563 -0.2436 -0.0872
42802W        W51402   3.925   0.623   8.206 -0.2109 -0.1830  0.0106
42803W        W51403  10.973   0.671  29.486 -0.2244  0.1867 -0.3120
42804W        W51404   9.459   6.471  29.002  0.0115 -0.2372 -0.0570
42805W        W51405   2.444   4.605  22.637 -0.1110 -0.0447 -0.2418
42806W        W51406   4.788   2.792  25.325 -0.0938 -0.1137 -0.0029
42807W        W51407   2.024   3.284   6.043 -0.1336 -0.1404 -0.0026
42808W        W51408  19.881   0.520  26.841 -0.1100 -0.1838 -0.0430
42809W        W51409  25.999   5.711   8.266  0.0052  0.0846  0.0257
42810W        W51410  22.765   6.459   1.119  0.2310 -0.4056  0.0197
42811W        W51411   1.961   1.618  13.457 -0.2427 -0.0087 -0.1683
42812W        W51412   0.424   3.589  20.517  0.1516 -0.0469  0.0211
42813W        W51413  13.958   2.429   8.230 -0.0484 -0.0482 -0.1412
42814W        W51414  17.490   5.157   7.012  0.1624 -0.0612 -0.3219
42815W        W51415  12.900   6.451   4.378 -0.1583  0.1512  0.0377
42816W        W51416  25.985   2.172   8.135  0.0018  0.0799 -0.0733
42817W        W51417   8.399   3.101  35.433  0.1432 -0.1227  0.2379
42818W        W51418  23.716   2.208   1.410  0.0320  0.1303  0.1531
42819W        W51419   2.278   2.285  33.891  0.1698  0.0108 -0.1581
42820W        W51420   7.076   6.214   8.625  0.2907 -0.2414  0.0408
42821W        W51421   6.446   6.314  21.132 -0.3321  0.0335  0.2489
42822W        W51422  25.975   1.059  11.227 -0.0384  0.2914 -0.2165
42823W        W51423   7.192   6.301   5.396  0.0132  0.1592 -0.1296
42824W        W51424   4.742   0.915   5.625 -0.1042  0.0701  0.1576
42825W        W51425  24.916   0.434  22.222 -0.3405 -0.2703  0.3494
42826W        W51426  19.505   5.391   1.812  0.1075  0.2507 -0.0773
42827W        W51427  15.871   0.894  33.501  0.1648 -0.3124  0.3396
42828W        W51428  18.868   1.964  21.230  0.1977 -0.1005 -0.1530
42829W        W51429   2.367   0.125   5.838  0.1519 -0.1072 -0.0216
42830W        W51430  25.610   4.652   9.590 -0.2431 -0.0811 -0.0452
42831W        W51431  20.400   1.076  27.571  0.0862  0.0272 -0.0295
42832W        W51432   5.815   6.317  34.660 -0.1112 -0.0107  0.0032
42833W        W51433   6.787   5.575  21.289  0.1822  0.1920 -0.1603
42834W        W51434  15.930   3.736  32.903  0.3546  0.0268 -0.2770
42835W        W51435  18.240   2.864  27.245 -0.0685 -0.1110  0.1529
42836W        W51436  22.891   1.934  10.936  0.3608 -0.0700 -0.0255
42837W        W51437  18.464   4.428   1.593 -0.2799  0.2669  0.1818
42838W        W51438  11.868   5.804  26.193 -0.2500 -0.0644  0.0867
42839W        W51439   1.208   4.394  21.397  0.0170 -0.0765  0.4274
42840W        W51440  24.596   5.752   8.150  0.0348  0.2882  0.0882
42841W        W51441  19.014   4.269   3.855  0.0525  0.2042  0.0584
42842W        W51442  23.284   5.355   0.324 -0.0869 -0.1940  0.0126
42843W        W51443   9.888   2.275  28.107  0.0019  0.0383 -0.2399
42844W        W51444  16.958   2.734   2.026  0.0867 -0.0202 -0.0926
42845W        W51445  18.466   1.681  13.922  0.0720 -0.3041 -0.1096
42846W        W51446  18.317   0.876  27.305 -0.0580 -0.1403  0.2831
42847W        W51447  22.768   1.418  20.794  0.1759  0.0292 -0.1955
42848W        W51448  22.991   5.852  23.929  0.0500 -0.1471 -0.1977
42849W        W51449   8.266   3.699   5.960  0.2031 -0.0141  0.0911
42850W        W51450   2.577   3.242  32.926 -0.0606 -0.2064  0.0319
42851W        W51451   2.312   0.471  25.770 -0.1024  0.3107  0.1039
42852W        W51452  21.943   0.840  12.289 -0.0403  0.0430  0.2200
42853W        W51453  18.248   1.375  34.263 -0.5190  0.3635 -0.1286
42854W        W51454  16.847   0.899   6.086  0.0566  0.2506 -0.2891
42855W        W51455   3.852   2.645  21.598 -0.0972 -0.0958 -0.0846
42856W        W51456  25.541   1.131  13.774 -0.4571 -0.1310 -0.2523
42857W        W51457  20.735   1.895   5.865 -0.1962 -0.0195  0.0877
42858W        W51458   1.995   5.845  32.338  0.1450  0.0593  0.0386
42859W        W51459   2.405   3.350  11.903 -0.1679 -0.1558  0.0710
42860W        W51460   1.719   4.324  26.132 -0.0229 -0.4130  0.0172
42861W        W51461  20.618   2.033  21.696 -0.0040  0.2298  0.1519
42862W        W51462   2.240   0.253   0.712  0.1733 -0.2848  0.1706
42863W        W51463  22.371   0.914  27.994  0.2469 -0.0122 -0.3470
42864W        W51464  16.354   4.670  22.858 -0.0141 -0.2789 -0.0015
42865W        W51465   9.243   3.275  21.402 -0.1373  0.2448 -0.2813
42866W        W51466  23.136   3.860  11.342 -0.1920 -0.1142  0.2570
42867W        W51467  11.862   5.298  13.715  0.1959  0.2193 -0.3537
42868W        W51468   9.930   3.352  15.110 -0.0478  0.2143  0.0221
42869W        W51469  26.150   0.343  26.184  0.0121 -0.0515  0.0296
42870W        W51470   8.068   2.502  21.945 -0.0535 -0.1082 -0.0485
42871W        W51471  25.603   1.791   8.923 -0.1035  0.1152  0.2115
42872W        W51472   5.885   4.151  22.523 -0.0166 -0.0800  0.2154
42873W        W51473  15.427   3.688  32.899 -0.1032 -0.2199 -0.0104
42874W        W51474   0.306   2.382  13.130  0.0646  0.0894  0.2299
42875W        W51475   0.770   1.608  14.350 -0.0224 -0.0219 -0.3418
42876W        W51476  13.407   4.805  14.384 -0.2477 -0.1178 -0.0165
42877W        W51477  17.909   0.883  34.031 -0.0251  0.0611 -0.1727
42878W        W51478   1.731   6.480  23.718 -0.1302 -0.0360 -0.0435
42879W        W51479   7.019   0.373  15.012 -0.1306 -0.1577 -0.0073
42880W        W51480  21.405   3.468  35.451 -0.0194  0.0155  0.1146
42881W        W51481  20.266   5.982  23.819  0.0991  0.2594  0.1149
42882W        W51482  14.558   4.897  13.795  0.3307  0.0623  0.3123
42883W        W51483  20.536   1.202  28.296  0.0457  0.1609 -0.0002
42884W        W51484  12.295   0.213  28.931 -0.0564 -0.0117 -0.0902
42885W        W51485   0.106   1.524  10.133  0.1309 -0.1587  0.0677
42886W        W51486   6.152   1.294  32.823  0.0680 -0.0718 -0.2762
42887W        W51487   9.673   6.403  30.244 -0.0417 -0.0511 -0.1853
42888W        W51488  17.056   5.711  11.601 -0.0770 -0.2519  0.0008
42889W        W51489   2.177   6.424   6.658 -0.1360 -0.1506  0.1759
42890W        W51490  25.396   0.109  35.695  0.2108 -0.0880 -0.0277
42891W        W51491  13.533   1.356  11.186  0.0083  0.1709 -0.1603
42892W        W51492   9.784   2.164   0.947  0.1078 -0.0233  0.1734
42893W        W51493  17.944   2.832  31.348 -0.1135 -0.0338 -0.0851
42894W        W51494   4.615   3.889   5.164  0.0882 -0.1223  0.1776
42895W        W51495  15.004   3.976  35.041  0.2527 -0.0015 -0.1207
42896W        W51496   6.565   1.699  23.561 -0.0019  0.1263 -0.2718
42897W        W51497  13.083   5.563  12.277  0.1192  0.2455  0.0186
42898W        W51498   6.289   3.153  21.652 -0.1659  0.4340 -0.0246
42899W        W51499  11.586   1.106   0.356  0.0329  0.2178  0.3951
42900W        W51500  12.034   6.172  23.064 -0.3282  0.3538  0.0018
42901W        W51501  11.861   3.049  25.148 -0.0668 -0.1772  0.0442
42902W        W51502   0.430   2.091  33.884 -0.1653  0.0517 -0.2657
42903W        W51503  23.746   4.909   3.735  0.0079  0.2184 -0.0891
42904W        W51504  10.027   1.812   8.325 -0.0716 -0.0232 -0.0577
42905W        W51505   9.467   4.275  26.553 -0.0597  0.0173  0.0588
42906W        W51506   3.342   1.265  33.910  0.5191 -0.1199 -0.1918
42907W        W51507   3.094   1.122  13.392  0.0450  0.2832  0.2379
42908W        W51508   0.780   0.546  22.154  0.2962 -0.0022 -0.2140
42909W        W51509   4.788   1.696  26.396  0.0137 -0.0525 -0.0802
42910W        W51510  19.526   0.451  26.006  0.1000 -0.1245 -0.0876
42911W        W51511  17.705   5.596  15.396 -0.0204  0.1544 -0.0506
42912W        W51512  22.634   4.739   9.896  0.0178  0.0380  0.1084
42913W        W51513   5.038   3.048  22.160  0.0032  0.1038  0.0456
42914W        W51514  10.108   6.506  28.751 -0.3286  0.0737  0.0594
42915W        W51515  15.371   3.855  25.669  0.2389  0.3357 -0.0712
42916W        W51516  24.173   2.582  35.222 -0.1717 -0.0697 -0.2517
42917W        W51517  23.376   0.377   1.788  0.0517 -0.3539  0.0774
42918W        W51518   9.484   6.160   6.964  0.1037  0.1035 -0.1527
42919W        W51519   1.239   5.502  14.230  0.1159 -0.1627  0.2772
42920W        W51520   2.607   6.096  11.218 -0.0944 -0.2522 -0.0411
42921W        W51521  24.449   0.794  33.299 -0.0869  0.0500 -0.2877
42922W        W51522  26.313   3.503  13.672 -0.3332 -0.0913 -0.0561
42923W        W51523   0.006   3.520  31.502  0.4267 -0.2534 -0.0797
42924W        W51524  12.384   3.314   5.557 -0.0010 -0.1715  0.0430
42925W        W51525   0.707   0.417   2.676 -0.0571  0.1927  0.0762
42926W        W51526  13.050   3.203  24.025 -0.0975 -0.2452  0.2489
42927W        W51527  18.320   3.081   1.431 -0.0791 -0.0962 -0.0920
42928W        W51528  18.576   2.801  14.031 -0.2493  0.1289 -0.0899
42929W        W51529  10.249   0.084   1.294 -0.2872  0.1181  0.1229
42930W        W51530  14.198   5.795  23.268  0.0042  0.0596  0.2954
42931W        W51531   2.915   0.484   0.150  0.3154 -0.0388 -0.0607
42932W        W51532   7.451   4.741   7.630  0.0651 -0.0361  0.2794
42933W        W51533   9.565   1.855  28.207  0.0095  0.1635 -0.0334
42934W        W51534   5.697   0.002  32.570  0.3656  0.0343  0.2843
42935W        W51535  10.937   0.626  27.135 -0.0292  0.1156 -0.0521
42936W        W51536  13.260   1.699   9.772  0.1371 -0.2162 -0.2158
42937W        W51537  22.732   1.757  13.076  0.2170 -0.0878  0.0723
42938W        W51538  13.928   3.533  22.162 -0.1099 -0.0345  0.3324
42939W        W51539  13.758   3.070  32.028 -0.2417 -0.1162  0.1509
42940W        W51540  22.267   5.522  10.262 -0.1230  0.0512 -0.0953
42941W        W51541   6.296   5.473   2.679 -0.1802 -0.0382  0.0522
42942W        W51542  20.488   4.774   3.230  0.1219  0.0483  0.0233
42943W        W51543  25.091   5.558  30.395  0.0226  0.0354 -0.1378
42944W        W51544  11.616   0.178  12.902  0.3339  0.0680  0.1058
42945W        W51545  22.596   6.480  29.905 -0.2232  0.0574  0.1764
42946W        W51546   0.730   4.657   4.092 -0.1025 -0.0844 -0.2796
42947W        W51547   5.624   0.264  11.000  0.0560  0.0938 -0.0180
42948W        W51548  14.450   1.321  32.909 -0.1193 -0.1024  0.1631
42949W        W51549   7.437   1.655  33.321  0.1055  0.1121  0.0151
42950W        W51550  20.131   0.048   3.395  0.0435  0.1197  0.2728
42951W        W51551   8.595   1.085   4.014  0.0261  0.0569 -0.1897
42952W        W51552  17.147   3.750   8.931 -0.0628  0.0726 -0.0028
42953W        W51553   0.702   2.174   5.673  0.2852 -0.1169  0.1304
42954W        W51554   7.558   5.713  25.782  0.0531 -0.0333 -0.2319
42955W        W51555  12.381   1.928  24.320 -0.1267 -0.0194  0.1639
42956W        W51556  12.263   2.567   9.391 -0.0722 -0.0042  0.0093
42957W        W51557   3.800   1.379   9.960  0.1437  0.2434  0.4614
42958W        W51558  10.446   1.689   6.265 -0.0731  0.2892 -0.1936
42959W        W51559  19.119   6.168   6.645  0.2357  0.1384  0.0798
42960W        W51560   9.469   1.641   3.640  0.0937 -0.2308  0.0531
42961W        W51561  25.346   2.562   9.460  0.0312  0.2494  0.1478
42962W        W51562  17.744   5.835  31.358  0.1070  0.1341  0.0755
42963W        W51563  10.114   0.507   1.434  0.1447  0.2550  0.2488
42964W        W51564  17.564   0.603  13.239  0.0458 -0.0443  0.3408
42965W        W51565  19.010   0.852   9.878  0.4003  0.0912  0.1310
42966W        W51566   9.063   1.718   1.105 -0.0283 -0.0289 -0.1251
42967W        W51567   0.744   1.603  31.254  0.2472  0.0984  0.0055
42968W        W51568  13.991   3.016  27.005  0.0903  0.4108 -0.2164
42969W        W51569  25.523   0.454  23.522 -0.0805 -0.2349  0.2294
42970W        W51570   9.470   0.033   2.806  0.0774  0.1169  0.1106
42971W        W51571  12.095   1.699  31.417 -0.0045  0.0961  0.1392
42972W        W51572   6.512   1.582   2.597 -0.1443  0.1212 -0.0885
42973W        W51573   4.010   3.827  14.249 -0.1630  0.0702 -0.1433
42974W        W51574  22.520   0.469  24.904 -0.0420 -0.2354  0.1915
42975W        W51575  22.660   3.483  29.753  0.3595  0.1189  0.1326
42976W        W51576  14.276   5.723  12.381 -0.1641  0.2311  0.0024
42977W        W51577  19.372   3.956  27.308  0.0101  0.2137  0.1849
42978W        W51578  10.266   2.268   1.535 -0.1575  0.0295  0.0896
42979W        W51579  10.311   3.722   7.060 -0.2091  0.3934  0.0498
42980W        W51580   5.785   5.662  22.667 -0.1604  0.2092 -0.0581
42981W        W51581   3.884   6.048  22.572 -0.1506  0.0163  0.0928
42982W        W51582   9.698   1.517  23.641  0.4538  0.0383  0.1108
42983W        W51583  21.796   5.961  25.463  0.1535  0.1485 -0.0938
42984W        W51584  16.712   3.536   1.477  0.1623 -0.0026  0.1208
42985W        W51585   4.560   2.761  22.037  0.2350 -0.0593  0.0432
42986W        W51586   8.145   2.574   1.396  0.0807  0.2582  0.0379
42987W        W51587   5.277   4.705  26.121 -0.2014 -0.1011  0.0838
42988W        W51588  22.183   3.978  35.294  0.1763 -0.2062  0.0694
42989W        W51589  10.885   4.799  21.825 -0.0482  0.1039 -0.1443
42990W        W51590   4.368   4.925  13.464 -0.0560 -0.0067  0.3060
42991W        W51591   4.792   0.436  32.053  0.3311  0.3178 -0.3595
42992W        W51592   7.530   2.743  26.800  0.1835 -0.0172  0.2635
42993W        W51593   3.631   5.687  11.650 -0.2971  0.2846  0.1557
42994W        W51594  10.929   5.209   0.613  0.0471  0.0261 -0.0903
42995W        W51595   8.618   2.687  34.530  0.1584  0.0312 -0.2709
42996W        W51596   2.388   0.454  30.090 -0.0335  0.0302 -0.0429
42997W        W51597  21.686   1.911  12.225  0.1054 -0.0869 -0.2311
42998W        W51598  12.997   4.727   1.229 -0.0577 -0.1693 -0.0123
42999W        W51599  10.404   0.080  29.320 -0.0981 -0.2864 -0.1932
43000W        W51600   3.119   3.832   1.556 -0.1596  0.3503  0.0611
43001W        W51601  20.803   0.534   7.852 -0.1176 -0.0005  0.2311
43002W        W51602  25.137   4.807  23.271  0.0886 -0.1252 -0.0354
43003W        W51603   4.535   0.770  11.671  0.3074 -0.0003  0.3039
43004W        W51604   1.867   0.165  11.814  0.0329 -0.0402 -0.1365
43005W        W51605   1.241   3.596  26.267 -0.1866 -0.3800 -0.1494
43006W        W51606  10.581   3.455  23.700  0.0725 -0.2138 -0.3222
43007W        W51607  23.866   0.513  33.098 -0.1284  0.0140  0.1980
43008W        W51608  12.633   3.835  33.015 -0.0710  0.3790 -0.2018
43009W        W51609  16.567   6.587  13.869 -0.0583  0.2463 -0.1269
43010W        W51610  23.341   5.305   1.308  0.0432  0.1219  0.2039
43011W        W51611   9.606   3.081  26.121 -0.2292  0.0204  0.2288
43012W        W51612   4.077   3.016  13.706  0.0256  0.2679  0.0806
43013W        W51613  25.000   0.946   7.388  0.1035  0.3401 -0.0175
43014W        W51614  10.356   1.767  27.155 -0.4662  0.1527 -0.0064
43015W        W51615  17.335   6.439  30.308  0.2457 -0.4246 -0.2550
43016W        W51616   2.571   5.406  23.342 -0.0629  0.1088 -0.0351
43017W        W51617  10.150   3.913  12.501  0.1640  0.2017  0.0408
43018W        W51618   3.912   4.924   4.842 -0.3833  0.1692 -0.0977
43019W        W51619  12.177   3.563  35.461  0.0929  0.0206  0.0398
43020W        W51620  20.986   5.180  12.327 -0.1942  0.3146  0.1129
43021W        W51621  25.191   3.035  13.734 -0.2773  0.2399 -0.1962
43022W        W51622  21.675   0.302  31.971  0.0047 -0.1404  0.2247
43023W        W51623  12.537   4.575   9.516  0.0863  0.0679  0.1228
43024W        W51624  11.788   5.033  32.041 -0.1519 -0.1667 -0.2637
43025W        W51625  14.021   4.424  22.780  0.0703  0.0232 -0.2438
43026W        W51626  21.603   4.706   1.413 -0.1411  0.2323  0.1329
43027W        W51627  22.591   0.231   8.029  0.1278 -0.0115 -0.2707
43028W        W51628  15.164   1.705   1.896 -0.1823  0.1485 -0.0828
43029W        W51629   9.139   3.024  34.360  0.1294 -0.0375  0.0968
43030W        W51630  16.857   4.913   3.669 -0.1726  0.2117 -0.4168
43031W        W51631   2.180   0.870   2.057 -0.0712 -0.1194  0.3907
43032W        W51632   6.103   1.238   9.841 -0.1045 -0.1158  0.3324
43033W        W51633  22.687   0.418  34.171 -0.1124  0.0934 -0.0166
43034W        W51634   4.658   0.373  35.945 -0.0420 -0.0439 -0.0078
43035W        W51635   1.984   6.144  27.561  0.0570  0.0016  0.2287
43036W        W51636  12.408   1.165   7.226  0.3587 -0.0080 -0.3272
43037W        W51637  14.706   2.179   8.653 -0.0581  0.0309  0.2851
43038W        W51638   2.917   5.254   6.393 -0.0455  0.4869  0.0772
43039W        W51639  24.766   1.311  15.174  0.0485  0.2347  0.2814
43040W        W51640  19.577   3.941  26.465  0.2613  0.1707  0.0745
43041W        W51641  24.839   5.873  14.242  0.1309  0.2432 -0.2008
43042W        W51642  20.492   3.734  26.219  0.1808  0.2139 -0.1038
43043W        W51643  14.937   5.366   7.748 -0.0856  0.2170 -0.0411
43044W        W51644  23.197   3.915  30.897 -0.1117 -0.2911 -0.0629
43045W        W51645  22.172   5.852  25.774 -0.0251 -0.0740  0.0472
43046W        W51646  17.156   6.433  33.447 -0.2007 -0.0407  0.2898
43047W        W51647  23.475   0.361  29.535  0.1263 -0.2597  0.1516
43048W        W51648   2.145   2.699  31.510  0.2208 -0.0712  0.0746
43049W        W51649   7.028   4.795   0.057 -0.0271  0.2683 -0.0123
43050W        W51650  24.613   4.976   5.538 -0.2487  0.2460  0.2314
43051W        W51651   5.995   5.886  20.718 -0.1676 -0.0493 -0.2530
43052W        W51652   3.226   4.629  22.252 -0.0290 -0.3029 -0.2487
43053W        W51653   9.564   0.259  10.967  0.2749  0.2082 -0.1349
43054W        W51654   6.764   1.539  10.295 -0.1048 -0.0725 -0.1782
43055W        W51655  24.272   2.539  35.901  0.0330  0.3229  0.1620
43056W        W51656  22.979   0.337  12.104  0.1532 -0.0682  0.2517
43057W        W51657  17.993   4.122  27.198 -0.0290 -0.2230  0.0904
43058W        W51658  18.509   6.326  31.258 -0.0755 -0.0925 -0.3379
43059W        W51659   3.710   0.239   2.152  0.1136 -0.1637 -0.0834
43060W        W51660  17.399   2.751  35.891  0.1805  0.0882  0.1845
43061W        W51661  24.011   1.680  10.997 -0.1856  0.0647  0.0271
43062W        W51662  19.318   2.134  12.298  0.0975 -0.0741  0.1559
43063W        W51663   1.276   2.145   3.215  0.1258 -0.1107  0.1331
43064W        W51664   5.787   2.137   0.568 -0.0105  0.1373  0.2333
43065W        W51665   4.339   1.643   5.914  0.2176 -0.1317 -0.1314
43066W        W51666  10.370   0.531  22.576  0.0926 -0.0463 -0.2784
43067W        W51667   1.884   4.908   4.548 -0.2166  0.0138 -0.0772
43068W        W51668   1.243   3.910  12.219  0.0124  0.3397  0.5302
43069W        W51669  10.435   1.508  25.431  0.0876  0.0212 -0.1230
43070W        W51670  23.038   5.382  25.480  0.4059  0.1635 -0.1140
43071W        W51671   8.254   0.086   9.587 -0.0470  0.1544 -0.2534
43072W        W51672  18.808   6.125  24.717  0.1952 -0.0013  0.1902
43073W        W51673  21.326   1.993   7.809  0.3625 -0.3085  0.0099
43074W        W51674  24.182   3.044  33.400  0.2112 -0.2239 -0.0447
43075W        W51675  16.134   5.912  30.259 -0.0341 -0.0908 -0.0806
43076W        W51676  10.708   1.181   9.792 -0.2037 -0.0923 -0.0887
43077W        W51677  23.484   1.526  27.834 -0.0187 -0.1040 -0.0887
43078W        W51678  12.027   2.055  28.393  0.0789 -0.0445 -0.0121
43079W        W51679  16.677   3.641  13.301 -0.0126 -0.0253 -0.0017
43080W        W51680   6.690   5.943  35.678  0.0859  0.2124  0.3582
43081W        W51681   3.749   2.755  23.603  0.0583 -0.0108  0.2151
43082W        W51682  24.419   2.450  21.090 -0.1139 -0.1028  0.1456
43083W        W51683   3.952   0.618  24.577  0.3033  0.0979  0.1512
43084W        W51684   9.359   0.667  23.944 -0.0273 -0.1104  0.0410
43085W        W51685   8.540   3.788   4.063  0.0568  0.2211 -0.0990
43086W        W51686   3.990   1.101  20.954  0.1198  0.2706  0.1228
43087W        W51687  11.570   5.285  27.531  0.0119  0.3258 -0.1014
43088W        W51688   9.888   3.279  13.061  0.1967  0.0073  0.0604
43089W        W51689   3.258   6.266  27.114  0.1003  0.0768 -0.1979
43090W        W51690  18.633   3.118  10.913 -0.0647  0.2720  0.0073
43091W        W51691  16.658   4.445  34.908  0.1157  0.0378 -0.0430
43092W        W51692   1.838   4.987   7.991  0.1201 -0.0656 -0.2550
43093W        W51693  25.637   2.558   8.583 -0.1542 -0.1034 -0.1655
43094W        W51694  12.800   3.160  27.145  0.2647  0.4110 -0.0071
43095W        W51695   5.824   0.677  22.546 -0.3258 -0.0152 -0.1243
43096W        W51696  13.970   1.420  30.549 -0.3700  0.2738  0.1668
43097W        W51697  26.011   1.040  35.476 -0.2575  0.2215  0.0280
43098W        W51698  18.947   4.377   0.210  0.0269  0.1412  0.2707
43099W        W51699   9.298   3.535   0.521 -0.1769  0.1160  0.2138
43100W        W51700  15.264   6.290  25.433 -0.5545  0.0993  0.1101
43101W        W51701   0.250   2.379   1.110  0.1354 -0.3307  0.1708
43102W        W51702   1.462   1.283  29.350 -0.2585  0.1917  0.4929
43103W        W51703   4.505   6.242  21.463  0.0304  0.1095 -0.3522
43104W        W51704  14.606   5.997  12.601  0.1275 -0.4976  0.1100
43105W        W51705  13.217   6.217  25.702  0.1010 -0.0496  0.1243
43106W        W51706  15.560   4.708  12.314  0.0887 -0.1017 -0.0548
43107W        W51707   7.942   0.154  35.268 -0.1377 -0.0408  0.1032
43108W        W51708   1.379   0.129   8.038  0.1787  0.3748 -0.2609
43109W        W51709   2.056   0.115  35.350  0.3671  0.1668  0.1657
43110W        W51710  10.826   1.702  11.427 -0.3089  0.1777  0.2435
43111W        W51711  19.735   1.679  22.446  0.1234 -0.0089  0.3757
43112W        W51712   6.809   1.373  29.818 -0.2080 -0.3958 -0.1194
43113W        W51713  16.105   1.450  11.390 -0.2115 -0.0997  0.0332
43114W        W51714  22.152   5.283  23.843 -0.1311 -0.0428  0.2555
43115W        W51715  23.140   4.266  21.860 -0.0188  0.1537  0.0433
43116W        W51716   2.242   3.370  31.013  0.0216 -0.1145  0.0269
43117W        W51717  25.767   5.516  32.743  0.1318  0.1491  0.3403
43118W        W51718   4.420   4.127   5.939  0.3133 -0.1385  0.1287
43119W        W51719   7.757   5.576   7.168  0.0612  0.1270  0.1010
43120W        W51720  11.539   0.320  31.723 -0.0409  0.0717 -0.2605
43121W        W51721   8.208   2.480  30.611  0.0212  0.0066  0.3954
43122W        W51722  20.905   3.586  31.060 -0.2047  0.0321  0.1097
43123W        W51723  18.190   3.477  23.865  0.0790 -0.1336 -0.1561
43124W        W51724   5.764   0.610  35.857  0.0668  0.0854  0.1132
43125W        W51725   9.879   2.945   8.746 -0.1652 -0.1383 -0.2081
43126W        W51726  20.901   5.430  29.606 -0.1095  0.2385 -0.2910
43127W        W51727  23.755   2.812  14.407 -0.1243  0.0933  0.0544
43128W        W51728  16.646   2.338  14.977 -0.2750  0.0065 -0.2891
43129W        W51729  24.297   1.069   1.050 -0.0605  0.0353 -0.1169
43130W        W51730  16.987   0.361   9.799  0.0938 -0.0937  0.0827
43131W        W51731  16.734   4.627  30.232  0.1804  0.2496 -0.1118
43132W        W51732   7.381   2.347   5.912 -0.1280  0.1369  0.1289
43133W        W51733  24.651   3.871  31.652  0.0287 -0.0665  0.2351
43134W        W51734   0.770   5.851  28.765  0.3113  0.1019  0.0458
43135W        W51735  24.481   5.363  23.570 -0.0305 -0.2007  0.0421
43136W        W51736  22.577   2.300   1.566 -0.0823  0.2053  0.5317
43137W        W51737   9.138   0.167   8.107  0.1475  0.1877  0.1465
43138W        W51738   7.751   3.226  13.093 -0.0243  0.1137  0.0237
43139W        W51739  12.773   0.633   9.171 -0.1388  0.2085  0.4034
43140W        W51740  14.999   2.209   0.683  0.0275  0.3724  0.3101
43141W        W51741   6.790   0.054   5.773  0.1363  0.0708 -0.1971
43142W        W51742  19.958   2.026  10.301  0.1429 -0.1134  0.0203
43143W        W51743   9.565   3.904   6.432 -0.2268  0.0197 -0.0091
43144W        W51744  21.042   6.418  23.147  0.1179 -0.3982  0.1822
43145W        W51745  26.039   4.520  14.002 -0.3058 -0.0638 -0.0811
43146W        W51746  16.281   3.370  24.978 -0.2090  0.0088  0.0295
43147W        W51747  21.490   1.723  33.236  0.3596 -0.0263 -0.3400
43148W        W51748  18.129   3.543  10.370  0.0787  0.0254  0.2135
43149W        W51749  11.548   1.163  34.237  0.0568  0.1580  0.0380
43150W        W51750   7.174   2.152   9.975  0.3408  0.0626  0.0414
43151W        W51751  26.043   4.389   2.184 -0.3413 -0.3391  0.1068
43152W        W51752   8.652   0.712  24.671  0.1673 -0.0951 -0.0418
43153W        W51753  25.438   0.078  29.274  0.0466 -0.1466 -0.0807
43154W        W51754   9.559   1.427  21.052 -0.3762  0.2270  0.4376
43155W        W51755  25.890   4.267   7.127  0.1216  0.4008  0.0971
43156W        W51756  25.980   1.283   3.330  0.1327 -0.2333 -0.2255
43157W        W51757  13.346   2.847   2.566  0.0321  0.3189  0.0448
43158W        W51758  19.415   5.938  30.400  0.2499 -0.2436  0.1975
43159W        W51759  23.757   4.569  20.658  0.1384 -0.1989 -0.0472
43160W        W51760  23.928   5.475   6.747  0.0789  0.1657  0.1250
43161W        W51761   8.082   6.382  23.144 -0.0352 -0.2012 -0.6214
43162W        W51762  16.747   0.878  32.491  0.1327  0.2970  0.1152
43163W        W51763   3.899   3.544   3.062 -0.0858 -0.3464  0.0727
43164W        W51764   3.536   4.007  12.450 -0.1107 -0.1192  0.1690
43165W        W51765  19.360   1.920  30.382 -0.2280 -0.2912  0.1694
43166W        W51766   8.688   0.969   6.559  0.1367  0.1644 -0.0811
43167W        W51767  22.437   3.855   7.954 -0.1253 -0.1745 -0.0721
43168W        W51768   9.045   5.632  34.372 -0.0991  0.0440  0.0800
43169W        W51769  11.536   3.768   3.671 -0.1291 -0.0714  0.0774
43170W        W51770   6.729   5.047   1.818 -0.2175 -0.0759  0.1161
43171W        W51771  23.776   6.344  34.317 -0.4123  0.2499 -0.1409
43172W        W51772   4.543   5.517   9.062  0.3205  0.1642  0.2283
43173W        W51773   2.275   4.162  30.605  0.0337 -0.0836 -0.0238
43174W        W51774   2.739   4.393  22.020 -0.1353 -0.0686  0.1126
43175W        W51775   5.859   4.269  34.926  0.1367  0.0103  0.1831
43176W        W51776   6.959   5.876   1.990  0.1408 -0.2546 -0.2722
43177W        W51777  13.260   1.939  14.772  0.1988  0.1298  0.0955
43178W        W51778  19.708   2.420  33.362 -0.0170 -0.1485 -0.1098
43179W        W51779  26.330   3.381   7.153 -0.0807  0.0265  0.2522
43180W        W51780   5.427   1.636  21.873  0.0504  0.0127 -0.1092
43181W        W51781   0.824   0.609  11.194 -0.0010  0.0222 -0.0953
43182W        W51782   1.922   2.769   6.738 -0.1459  0.1297  0.0005
43183W        W51783   2.058   0.972  32.687  0.1325 -0.2522  0.2257
43184W        W51784  18.260   2.185  28.829 -0.0738 -0.0568  0.2192
43185W        W51785   4.573   0.387  25.912 -0.2519  0.0865  0.0379
43186W        W51786   0.179   2.296  34.662 -0.1094  0.1738 -0.4012
43187W        W51787   3.861   3.713   1.858  0.0374 -0.0491  0.3080
43188W        W51788  19.429   5.169  29.821  0.4114 -0.0787  0.3303
43189W        W51789  18.594   1.739  10.538  0.2869  0.0894  0.1302
43190W        W51790   3.315   0.753  14.539 -0.1656  0.2594 -0.2432
43191W        W51791  20.813   4.314  14.677 -0.1194  0.0942  0.1221
43192W        W51792  15.381   6.047  22.476  0.3289  0.0546 -0.1935
43193W        W51793   4.777   0.527   5.216  0.1451  0.1283 -0.0836
43194W        W51794  18.821   5.375   5.071  0.1066 -0.1028  0.0663
43195W        W51795   4.306   2.827  25.081  0.2493  0.1116 -0.2599
43196W        W51796  21.342   6.544  34.569  0.3399  0.1151 -0.3028
43197W        W51797  13.050   6.320   8.668  0.0817 -0.0328 -0.0338
43198W        W51798  21.207   2.315   3.708 -0.1571 -0.0270  0.0067
43199W        W51799  13.378   2.096  22.742  0.0654 -0.0489  0.0610
43200W        W51800   8.784   0.122   9.376 -0.2386  0.1730 -0.0080
43201W        W51801   2.653   2.082  12.634  0.1628 -0.0698 -0.2104
43202W        W51802   8.170   0.323   3.664 -0.1698 -0.1373 -0.0059
43203W        W51803  14.425   5.744  30.183  0.1367  0.0301 -0.3500
43204W        W51804   7.117   1.884  11.825  0.1711 -0.0086  0.1962
43205W        W51805  23.704   2.258   5.151  0.0578 -0.0722 -0.2228
43206W        W51806  14.318   5.031  21.541 -0.2099  0.1267  0.3164
43207W        W51807  21.323   4.280  22.244 -0.0556 -0.2581  0.0495
43208W        W51808   8.445   1.106   1.685 -0.0749 -0.0224 -0.0493
43209W        W51809   8.736   4.227  30.182 -0.3623 -0.0516  0.2453
43210W        W51810  10.359   5.606  15.033  0.2065 -0.1646 -0.1246
43211W        W51811  18.695   1.889  32.535 -0.0389 -0.0069 -0.1224
43212W        W51812  15.973   4.930  24.536  0.0570  0.0901 -0.2069
43213W        W51813  18.441   5.386  32.195  0.1439  0.1926 -0.1657
43214W        W51814   0.083   4.089  34.862  0.0409 -0.2062  0.1365
43215W        W51815   8.716   4.161   6.199  0.0618  0.1388 -0.0831
43216W        W51816  24.779   0.885  28.812 -0.2797 -0.0085  0.0198
43217W        W51817  12.824   2.603  22.629 -0.1189 -0.0226  0.1982
43218W        W51818  23.438   0.617  24.660  0.0313 -0.2481  0.0855
43219W        W51819  13.352   3.939  10.807  0.1853 -0.0767  0.1594
43220W        W51820   2.169   3.105   3.396  0.1556  0.2437 -0.0889
43221W        W51821  23.138   0.072  27.236 -0.0247 -0.1755 -0.2073
43222W        W51822  14.044   3.855  28.649 -0.1425 -0.3213  0.1223
43223W        W51823   4.575   3.280   8.894 -0.0832 -0.0139 -0.0886
43224W        W51824   8.306   3.970  13.669 -0.0956 -0.1587 -0.3750
43225W        W51825  11.001   3.588  29.317  0.2004  0.0800 -0.1156
43226W        W51826  20.160   2.068   9.592  0.1195 -0.0455  0.3204
43227W        W51827  16.923   1.913   2.428  0.0217 -0.1533  0.3039
43228W        W51828  12.334   2.386  35.942 -0.1463 -0.1145  0.1677
43229W        W51829   5.805   4.950   4.059  0.0583  0.1233 -0.0795
43230W        W51830   3.611   3.969  11.145 -0.0677 -0.0556  0.0695
43231W        W51831  24.416   5.270  26.439 -0.0267 -0.0874 -0.0227
43232W        W51832  13.786   6.396   7.861 -0.2070  0.0143 -0.1358
43233W        W51833  24.512   3.988   8.988 -0.3332 -0.1261  0.2393
43234W        W51834  20.075   1.152   6.030 -0.1329  0.0104  0.1624
43235W        W51835  12.921   1.021  32.154  0.0030 -0.5519  0.2033
43236W        W51836  26.151   6.212   1.607 -0.0973 -0.0947  0.1962
43237W        W51837  14.986   5.626  12.010 -0.1467  0.1373  0.0484
43238W        W51838  15.205   3.133   4.818 -0.0194  0.0859  0.0512
43239W        W51839  14.659   2.544   0.791  0.2092 -0.3901 -0.2793
43240W        W51840   6.676   3.690   6.885  0.1270 -0.0301 -0.0235
43241W        W51841  25.935   3.899  30.563  0.0925  0.0908 -0.0008
43242W        W51842  19.921   5.271  29.641  0.2267 -0.1868 -0.0600
43243W        W51843  15.358   6.107   4.197  0.2200 -0.0407  0.2309
43244W        W51844  11.688   0.920  14.123 -0.4568 -0.2242 -0.2136
43245W        W51845   6.385   3.760   9.775 -0.1451 -0.0726  0.0007
43246W        W51846  19.985   4.742   9.426  0.0915 -0.1161  0.1036
43247W        W51847  16.431   1.358  11.807 -0.1004  0.2292 -0.0763
43248W        W51848  23.154   5.144   5.762 -0.1666 -0.2074  0.1203
43249W        W51849   4.521   0.587  26.831  0.0078 -0.3412 -0.0559
43250W        W51850  21.289   2.214  13.584  0.2675 -0.4642  0.1131
43251W        W51851  14.198   6.233   6.237 -0.2250 -0.1763 -0.0656
43252W        W51852  20.262   1.743  11.971  0.0020  0.2723  0.0676
43253W        W51853  15.612   5.289  23.206  0.1919 -0.2646  0.0743
43254W        W51854  12.963   3.193  15.176  0.0831  0.0028  0.2042
43255W        W51855  16.624   1.311  29.047 -0.3522  0.2117  0.1321
43256W        W51856   0.882   4.828   5.348 -0.0962 -0.0960  0.0721
43257W        W51857  14.108   2.584   2.644 -0.0406  0.1342  0.0215
43258W        W51858  12.454   3.714  22.689  0.0611  0.2586 -0.0184
43259W        W51859  21.319   1.378  24.093 -0.1773 -0.1204  0.2676
43260W        W51860   1.939   5.345   4.755 -0.2049 -0.0946  0.1008
43261W        W51861  17.417   1.036  30.044  0.4199 -0.0156  0.2085
43262W        W51862  19.451   1.000   9.744 -0.2348 -0.1748 -0.4612
43263W        W51863  17.763   0.409  29.253  0.1452 -0.2145 -0.3323
43264W        W51864  26.170   3.685  12.972 -0.0585  0.1131 -0.0160
43265W        W51865   1.348   4.252  22.390 -0.1169 -0.0137 -0.1690
43266W        W51866   6.279   6.148  23.364  0.1096 -0.0840  0.0037
43267W        W51867  21.133   1.966  29.852 -0.0342  0.2860 -0.0212
43268W        W51868  13.729   0.420   5.602  0.1524  0.1029 -0.0082
43269W        W51869  14.038   2.083  11.654  0.0100  0.0583  0.1004
43270W        W51870   9.739   5.432   3.004 -0.1719  0.1420  0.0701
43271W        W51871  17.214   3.184  22.590 -0.1321 -0.0337  0.1145
43272W        W51872   4.137   5.367  21.431 -0.2617  0.1132 -0.0744
43273W        W51873  21.400   1.562  30.567  0.0858 -0.1842 -0.3111
43274W        W51874   6.286   3.670  22.920  0.1839  0.3794  0.1117
43275W        W51875  17.752   4.916  34.740  0.0921  0.2985  0.2110
43276W        W51876  15.578   5.497   4.061  0.1676 -0.1340  0.2456
43277W        W51877  25.125   5.480  24.316 -0.0875 -0.1253  0.2433
43278W        W51878  15.255   1.546   6.407 -0.0498 -0.0974 -0.2900
43279W        W51879   0.037   3.532  29.785 -0.0741 -0.1505 -0.0420
43280W        W51880  14.421   3.834  13.742 -0.0346  0.3169 -0.0072
43281W        W51881   5.864   1.682   8.653  0.2950  0.2856  0.0143
43282W        W51882  24.353   3.471  21.762 -0.0047 -0.2366 -0.0580
43283W        W51883  11.403   4.979  28.447  0.0963 -0.3094  0.2300
43284W        W51884  10.804   2.611  24.590  0.1047  0.0019  0.1727
43285W        W51885  21.217   6.117  24.515  0.0955 -0.0794  0.1419
43286W        W51886   7.180   6.239   7.761  0.1728 -0.0541  0.0546
43287W        W51887  20.379   1.011  20.887  0.0089  0.2079 -0.0738
43288W        W51888  13.178   1.736   0.999 -0.0516 -0.0625  0.1059
43289W        W51889   9.396   1.101   3.406  0.2328 -0.0208  0.1830
43290W        W51890  18.037   4.899  14.734 -0.1471  0.0126 -0.0446
43291W        W51891  26.203   3.922  25.224 -0.1135  0.1733 -0.3145
43292W        W51892  17.212   2.094  14.857 -0.1244 -0.0226 -0.2065
43293W        W51893  14.885   5.276  34.147  0.0939  0.0231 -0.0880
43294W        W51894   0.376   3.506  32.459 -0.1749  0.1396 -0.1017
43295W        W51895   3.566   5.214  34.649 -0.0042 -0.0538 -0.0584
43296W        W51896   3.015   4.326  26.891 -0.1313 -0.2252 -0.1254
43297W        W51897  11.026   1.087  33.966 -0.0914 -0.3712  0.0999
43298W        W51898  22.983   3.100  12.069  0.1488 -0.2136  0.1422
43299W        W51899   9.923   0.466  13.630 -0.2570  0.1021  0.1548
43300W        W51900  21.380   2.528  13.132 -0.1863 -0.1741  0.0209
43301W        W51901  10.001   1.156  29.589  0.0907  0.2879  0.0221
43302W        W51902  15.359   0.136   0.937 -0.2597  0.1108  0.0001
43303W        W51903  12.876   5.349  20.947 -0.2255 -0.0926 -0.2125
43304W        W51904   8.008   1.590   4.980  0.0689  0.1072 -0.0130
43305W        W51905  26.295   3.786  14.401  0.2655 -0.3075 -0.2314
43306W        W51906   4.069   1.153  26.094 -0.1809 -0.0831 -0.0176
43307W        W51907  12.130   3.901  12.390 -0.0817  0.1106 -0.2156
43308W        W51908  16.884   1.784   2.943 -0.2476 -0.1563 -0.0625
43309W        W51909   9.559   4.674  23.786 -0.0272 -0.0779 -0.4240
43310W        W51910  23.469   1.912  14.096 -0.0102 -0.2255  0.1442
43311W        W51911   0.105   3.188  12.839 -0.3137  0.1745  0.2510
43312W        W51912  25.417   3.558  22.033  0.1749 -0.2320  0.0501
43313W        W51913  19.239   3.848  25.569 -0.0980 -0.1377  0.1452
43314W        W51914  23.151   4.634  28.109 -0.2689  0.2898 -0.4223
43315W        W51915  13.043   3.687   9.068 -0.0680  0.1783 -0.1445
43316W        W51916  12.268   2.271   2.047 -0.0768  0.2646 -0.0256
43317W        W51917   1.010   3.799  10.851  0.0930 -0.0767  0.5559
43318W        W51918  13.074   2.060  29.702 -0.0554 -0.0971  0.0836
43319W        W51919  24.433   5.656  24.012 -0.0617  0.0032 -0.1201
43320W        W51920   3.223   1.882   2.820 -0.0444 -0.1665 -0.3437
43321W        W51921   6.159   4.350  11.315  0.1545 -0.0836  0.1129
43322W        W51922  24.434   6.090  29.416  0.1440 -0.2848 -0.1478
43323W        W51923  25.137   1.083   1.740 -0.0107 -0.3045  0.2638
43324W        W51924   7.845   0.956  10.865  0.0935  0.0902 -0.1306
43325W        W51925   3.770   2.655  26.545  0.2976  0.0162 -0.0481
43326W        W51926   1.542   0.632  11.721  0.1486 -0.0779 -0.0271
43327W        W51927   0.998   1.263   4.190  0.2720  0.1397 -0.0868
43328W        W51928   8.114   5.105  24.015 -0.1730  0.2268  0.1633
43329W        W51929  23.042   4.163  33.362 -0.0224 -0.0743 -0.0785
43330W        W51930  26.418   6.072  20.538 -0.0269  0.0824 -0.2942
43331W        W51931  25.707   3.278  21.735  0.1192 -0.0358 -0.2105
43332W        W51932   3.516   4.290  25.565  0.0179 -0.0609 -0.0053
43333W        W51933   4.543   0.241  24.174 -0.0479  0.3569 -0.0273
43334W        W51934  20.568   1.169  25.670  0.2330  0.0652  0.3129
43335W        W51935  20.153   2.746  25.566  0.1971 -0.1911 -0.1674
43336W        W51936  18.388   4.282  14.904 -0.1745  0.1514 -0.0566
43337W        W51937  24.113   3.079  26.583 -0.0569  0.1711 -0.1113
43338W        W51938  21.135   3.127  12.704 -0.1565 -0.1008  0.3034
43339W        W51939   1.898   3.072  14.350 -0.1615 -0.0875  0.0636
43340W        W51940  21.870   0.628  36.106 -0.1382  0.1491 -0.0376
43341W        W51941   3.411   1.154  12.506 -0.2085 -0.2790 -0.0151
43342W        W51942   8.037   2.139  33.111 -0.1441 -0.0039  0.0434
43343W        W51943  11.072   3.188  14.781  0.0156  0.2790 -0.1799
43344W        W51944  11.296   2.198  30.621  0.1935 -0.3043 -0.0245
43345W        W51945  18.149   3.458  11.565 -0.0622 -0.0046 -0.0034
43346W        W51946  22.481   2.058  27.053 -0.1327  0.3998 -0.0481
43347W        W51947   1.019   2.751  22.555 -0.1358 -0.1094  0.0539
43348W        W51948  16.551   5.924  22.264 -0.3108 -0.1519  0.1185
43349W        W51949   7.351   3.049  13.407  0.0562 -0.0743 -0.0016
43350W        W51950  15.231   1.606  21.986 -0.0262 -0.1078 -0.2102
43351W        W51951  10.458   1.420  28.769 -0.0298  0.0350  0.2173
43352W        W51952  26.176   2.709   3.897  0.1549  0.1653 -0.0225
43353W        W51953  20.992   0.459  30.290 -0.0372 -0.1542  0.0250
43354W        W51954  15.866   2.970  33.894 -0.0696 -0.0302  0.0728
43355W        W51955  14.912   3.850  25.451  0.0486 -0.2380 -0.0929
43356W        W51956  22.198   0.688  35.661  0.0437 -0.2368  0.3901
43357W        W51957   8.096   1.905   7.705  0.0582  0.0305  0.0435
43358W        W51958  24.877   2.779  24.706  0.1522 -0.2692  0.2777
43359W        W51959  19.795   2.509  23.085  0.0676  0.0196  0.0071
43360W        W51960  18.111   1.719   4.204 -0.1840 -0.2571  0.0869
43361W        W51961   1.840   5.060  24.523  0.1656  0.0798 -0.2766
43362W        W51962  19.954   3.953  22.959 -0.4261  0.2977 -0.1482
43363W        W51963   5.596   5.431  34.020  0.0253  0.0408  0.1070
43364W        W51964  25.477   3.728   4.131  0.0295  0.0532  0.1921
43365W        W51965  18.467   1.063   8.660  0.3398 -0.1463  0.0416
43366W        W51966   0.269   3.326   7.493  0.0554  0.3993 -0.0174
43367W        W51967  24.332   0.509   8.622 -0.2535 -0.0967  0.0927
43368W        W51968  10.601   2.598  33.965  0.0185 -0.0700  0.1644
43369W        W51969  22.283   0.032   3.349  0.0698  0.0245  0.1541
43370W        W51970  17.833   0.367  14.978  0.2631 -0.0349  0.2919
43371W        W51971  20.474   5.203  15.895 -0.2572 -0.2113 -0.0694
43372W        W51972  23.006   1.429  22.489  0.0595  0.2242  0.0020
43373W        W51973   7.097   0.942   8.025 -0.0287 -0.0060  0.0565
43374W        W51974  14.034   0.717  24.468  0.2527  0.1059  0.0127
43375W        W51975  14.939   0.652  27.074  0.2496  0.2344 -0.1371
43376W        W51976   8.344   1.675  26.024 -0.0702  0.1188 -0.4501
43377W        W51977   2.396   4.669  14.175 -0.0392  0.1882  0.0655
43378W        W51978   4.166   5.384  26.446 -0.0301 -0.1992 -0.0012
43379W        W51979  14.201   6.379   2.977 -0.0239 -0.1965  0.3887
43380W        W51980   1.220   3.042   3.551 -0.0222  0.1093 -0.3991
43381W        W51981  10.203   0.839  29.171 -0.1425  0.0557  0.1063
43382W        W51982   6.146   1.771  33.584 -0.0533  0.3189  0.1841
43383W        W51983   3.283   1.764  20.465 -0.0229  0.1380  0.1437
43384W        W51984  14.846   2.093   9.528 -0.1831  0.1731 -0.0456
43385W        W51985  15.258   4.354   2.224  0.0467 -0.0983  0.4653
43386W        W51986   9.432   6.130   6.363  0.1340  0.5602  0.0801
43387W        W51987  10.470   4.457  27.573  0.2441  0.0163 -0.1188
43388W        W51988  10.540   6.143  14.169 -0.1113  0.5511 -0.4267
43389W        W51989   9.138   1.531   3.274 -0.2870  0.2784 -0.2585
43390W        W51990  21.287   5.928  33.129  0.1385 -0.4559 -0.1655
43391W        W51991   3.551   5.438   2.228  0.0940  0.2771  0.3630
43392W        W51992   8.039   5.177   0.228 -0.1735  0.1332  0.1100
43393W        W51993   6.616   5.459  26.695  0.1345 -0.1536  0.0993
43394W        W51994  22.827   5.957  25.969  0.0478 -0.0294  0.1789
43395W        W51995  13.265   3.898  14.866  0.2065 -0.2805  0.0037
43396W        W51996  14.310   3.059  32.790  0.0033 -0.0055  0.2166
43397W        W51997   7.397   1.457  34.401 -0.3228 -0.1986  0.0401
43398W        W51998  15.304   6.055  10.577 -0.2295 -0.0693 -0.0630
43399W        W51999   7.488   3.839   1.477  0.0291  0.0529  0.0275
43400W        W52000   5.369   2.435  31.568 -0.0964  0.1610  0.2057
43401W        W52001   3.964   4.601  28.561  0.4149 -0.3551 -0.1188
43402W        W52002  14.566   5.597  26.760  0.2831 -0.1047  0.0498
43403W        W52003   3.386   1.205   9.708  0.0915  0.3903  0.0936
43404W        W52004  15.424   5.716  21.136 -0.0717 -0.1593 -0.0169
43405W        W52005  21.399   1.337  35.932 -0.0908  0.3122 -0.1825
43406W        W52006  17.810   4.092   8.053  0.1482 -0.0551  0.1381
43407W        W52007   1.091   5.046  22.288 -0.0559 -0.0575  0.0130
43408W        W52008  19.570   4.910   2.729  0.0856 -0.0577 -0.0861
43409W        W52009  26.321   4.854  12.424 -0.0500  0.3698  0.2304
43410W        W52010   1.542   4.468  13.110  0.1088  0.2342  0.0126
43411W        W52011  14.692   3.673  21.964  0.0499 -0.2418 -0.2058
43412W        W52012  17.533   0.494  27.080 -0.0549  0.2911  0.0530
43413W        W52013   9.327   5.682  27.594  0.1175 -0.1768 -0.2341
43414W        W52014  24.706   4.228  33.528 -0.1006  0.0445  0.1909
43415W        W52015   1.872   2.643  27.672 -0.1488  0.2349  0.2104
43416W        W52016  16.949   2.688  28.606 -0.0917 -0.0432  0.3245
43417W        W52017  11.110   1.990  32.660  0.2771 -0.0799 -0.0552
43418W        W52018  18.271   2.905  34.078  0.4791  0.1215 -0.1168
43419W        W52019  12.907   0.316  35.831  0.1073  0.1954 -0.1466
43420W        W52020  15.701   5.797  34.817 -0.0948 -0.0371 -0.3136
43421W        W52021  10.268   4.391  24.478  0.0097 -0.2522  0.0069
43422W        W52022   7.986   0.189   2.076  0.0412  0.1345 -0.3468
43423W        W52023  20.406   2.466  27.705  0.0484 -0.0960 -0.0168
43424W        W52024   5.151   0.668  35.130 -0.1672 -0.0703  0.0038
43425W        W52025  10.707   3.464  14.542 -0.2555  0.2463 -0.1086
43426W        W52026   5.711   2.620   3.258 -0.2165 -0.0661 -0.1413
43427W        W52027   7.981   6.441   5.763  0.2938 -0.0484 -0.1475
43428W        W52028  18.143   3.983  34.231  0.1465 -0.2879  0.1380
43429W        W52029   9.182   1.797   7.289  0.2863  0.0651  0.3068
43430W        W52030   6.106   3.759  25.607  0.0258  0.0091  0.3209
43431W        W52031  21.452   3.515   1.038 -0.1967 -0.2738 -0.0710
43432W        W52032  21.210   2.783  32.480  0.1901 -0.1960 -0.1804
43433W        W52033   0.205   3.084   6.676 -0.0725 -0.1833  0.0197
43434W        W52034   0.829   2.930   4.787  0.1727  0.1564  0.2639
43435W        W52035   8.961   1.614   1.792 -0.0981 -0.2501  0.3304
43436W        W52036   7.721   1.399  22.164  0.0738 -0.0133  0.1035
43437W        W52037  23.503   4.459  22.572  0.2025  0.0345 -0.0243
43438W        W52038  15.015   3.309  11.860 -0.1555  0.0941  0.1730
43439W        W52039  23.967   1.819   8.023  0.0259 -0.2830  0.0036
43440W        W52040  18.812   4.794   0.355 -0.1800 -0.2546  0.3637
43441W        W52041  15.095   0.634  33.826  0.2126  0.1018  0.1407
43442W        W52042  10.477   4.678   9.968  0.3829 -0.2429  0.1042
43443W        W52043  14.026   4.118  29.586  0.1624  0.0224  0.1984
43444W        W52044  22.023   0.694  13.145 -0.0744  0.2497 -0.0013
43445W        W52045  25.587   6.425   0.667 -0.0168  0.1744  0.1832
43446W        W52046   0.226   0.187  25.333 -0.0749  0.1920  0.3366
43447W        W52047   5.290   2.084   8.060  0.0723  0.1005  0.2090
43448W        W52048  17.156   3.710  33.561  0.1421  0.2432  0.0517
43449W        W52049  11.350   1.667   3.918 -0.1916 -0.2086  0.0726
43450W        W52050  19.779   2.256   8.303 -0.0513  0.0023 -0.3967
43451W        W52051  19.343   2.239  21.262 -0.0701 -0.0048 -0.0121
43452W        W52052  13.729   2.238  12.072 -0.3209  0.0751 -0.2446
43453W        W52053   9.879   4.742   0.180  0.1985  0.0555 -0.0527
43454W        W52054   7.277   3.473  20.711  0.0532  0.0760 -0.1821
43455W        W52055  15.203   1.813   0.393  0.0862 -0.1933  0.0948
43456W        W52056  20.370   1.898  10.020 -0.0286 -0.0018  0.0049
43457W        W52057  22.488   6.274   0.700  0.0121  0.0067  0.0126
43458W        W52058   9.302   2.884   6.424  0.0317 -0.0555 -0.1660
43459W        W52059   1.778   5.036  20.867  0.0848  0.3562  0.1244
43460W        W52060  15.048   6.244  11.826  0.0299  0.2326 -0.1067
43461W        W52061   7.697   0.263   3.733  0.0906  0.3532 -0.1547
43462W        W52062   7.555   5.088  20.857 -0.0243 -0.1185  0.3459
43463W        W52063  13.141   0.394   1.974 -0.0583  0.1916  0.2208
43464W        W52064   0.271   5.249  22.520  0.0619  0.1060  0.1226
43465W        W52065  12.759   4.754  15.465 -0.3340 -0.2333 -0.1275
43466W        W52066   1.694   1.658   8.740 -0.0475  0.1891 -0.1331
43467W        W52067  18.487   6.159   0.635  0.5449 -0.0159 -0.1504
43468W        W52068  18.603   5.810   7.449 -0.0013 -0.0969  0.1002
43469W        W52069   8.527   2.314  10.280  0.0775 -0.1576 -0.1857
43470W        W52070   9.093   4.433  29.857  0.1779 -0.1640 -0.0394
43471W        W52071  13.531   5.968  14.433 -0.0309 -0.0846 -0.1353
43472W        W52072  14.306   5.576  25.443 -0.3724  0.2590  0.0515
43473W        W52073  22.995   1.696  21.112 -0.2032  0.0080 -0.1645
43474W        W52074  22.143   1.737  34.889  0.1119  0.1538  0.0445
43475W        W52075  21.253   4.854  11.404 -0.0756  0.2259 -0.0963
43476W        W52076   8.059   0.563   4.426 -0.1915  0.0091 -0.0236
43477W        W52077  22.074   5.276  30.136  0.1842  0.2201 -0.1191
43478W        W52078   4.586   3.835  27.712 -0.1841  0.0632 -0.1936
43479W        W52079  21.566   3.885  24.344  0.1654  0.1915  0.1168
43480W        W52080  21.466   4.472  21.690  0.1211 -0.0102 -0.0740
43481W        W52081  22.484   3.612  28.818  0.1666  0.0787  0.0056
43482W        W52082   9.940   1.619   3.852 -0.0684  0.5189 -0.0187
43483W        W52083  13.750   2.964   4.680 -0.0789 -0.1333  0.0014
43484W        W52084  20.569   4.290   3.104  0.1346 -0.0628 -0.1409
43485W        W52085  21.346   2.687  33.322  0.3602  0.0531 -0.2062
43486W        W52086  13.490   0.299  20.819  0.1277  0.0264  0.0593
43487W        W52087  25.670   5.822  36.053 -0.1587  0.0841  0.0883
43488W        W52088  13.410   4.286   2.833  0.0624 -0.0745 -0.3846
43489W        W52089  22.759   1.954   9.618  0.1144  0.0579 -0.0640
43490W        W52090  15.610   4.175   3.168 -0.1203 -0.0260 -0.1338
43491W        W52091   3.896   4.782  11.957 -0.0386 -0.0376 -0.0821
43492W        W52092  18.913   4.241   9.939 -0.0601 -0.1599  0.1218
43493W        W52093   5.328   1.879   0.529  0.0549  0.1427 -0.2203
43494W        W52094  14.563   0.482  31.441  0.1851 -0.0759  0.1537
43495W        W52095   1.236   4.084  21.972 -0.1054  0.0972 -0.3013
43496W        W52096  10.247   6.417  25.187  0.1124  0.0542 -0.0816
43497W        W52097  12.741   0.294  14.166 -0.0157 -0.0578 -0.1251
43498W        W52098  11.070   1.752  13.356  0.0395  0.0280 -0.0244
43499W        W52099   1.132   0.401  26.310  0.1415  0.0744 -0.0065
43500W        W52100  24.463   6.041   7.718 -0.1949 -0.0658  0.1303
43501W        W52101  11.563   3.043   3.009 -0.5968  0.0720  0.2085
43502W        W52102  24.136   0.932   5.510 -0.0434 -0.0120 -0.0945
43503W        W52103  19.514   3.704   3.707  0.1261  0.3636  0.0479
43504W        W52104   2.662   5.469   9.599  0.0374  0.0453  0.5063
43505W        W52105  21.972   2.697   3.780 -0.2374  0.0937 -0.2953
43506W        W52106  20.051   2.033  33.523 -0.3827  0.0494 -0.0201
43507W        W52107  14.059   5.977   4.787 -0.0191 -0.2079  0.0087
43508W        W52108   3.773   2.550  25.687  0.1288 -0.0269  0.2168
43509W        W52109  12.508   2.756   8.111 -0.0053  0.0057  0.0666
43510W        W52110  13.930   5.784   3.862 -0.0433 -0.1710 -0.2489
43511W        W52111  17.832   0.094   7.756 -0.1153  0.2333 -0.2440
43512W        W52112  20.354   4.739  22.091  0.0992  0.0277 -0.0001
43513W        W52113  12.163   2.043   8.497  0.0550 -0.1405 -0.1019
43514W        W52114  15.326   1.139  35.121 -0.1858  0.0419 -0.0757
43515W        W52115   0.336   3.135  29.665 -0.0005 -0.0239 -0.1307
43516W        W52116   5.906   1.422  34.508 -0.0052  0.0336 -0.1290
43517W        W52117   5.433   0.969  12.106  0.2125  0.1148  0.1027
43518W        W52118   9.477   2.366  28.591 -0.1119  0.0962 -0.2254
43519W        W52119  12.209   6.475  27.979 -0.1855  0.2017  0.0134
43520W        W52120   4.910   3.510  15.789 -0.0728  0.0893  0.0651
43521W        W52121   8.094   0.202  27.178  0.3666  0.0605 -0.0034
43522W        W52122   1.973   2.505   0.962 -0.0607 -0.1665  0.0627
43523W        W52123   4.191   5.192   8.498  0.0458  0.1061 -0.1111
43524W        W52124   5.422   0.773   6.656 -0.1763 -0.1969 -0.3307
43525W        W52125  18.214   1.887  35.878  0.2429  0.1828 -0.1352
43526W        W52126  25.183   5.937  12.701  0.0095  0.0534  0.2930
43527W        W52127  12.996   4.454   5.318  0.2728 -0.2516  0.0498
43528W        W52128  20.416   5.551  35.962 -0.0402  0.1479 -0.0597
43529W        W52129  10.538   6.352   3.584 -0.2095  0.0433  0.3718
43530W        W52130   3.468   5.896  22.735  0.0410  0.0175  0.2638
43531W        W52131  18.104   6.134  22.208  0.0216  0.1500  0.3348
43532W        W52132  10.846   1.340  22.974 -0.3736  0.0842 -0.0730
43533W        W52133   5.781   0.717  12.484 -0.2502 -0.0282 -0.2775
43534W        W52134   8.844   3.626  27.680  0.3565  0.0422  0.0806
43535W        W52135  16.261   4.248   5.111 -0.3771  0.1178  0.2792
43536W        W52136  13.877   6.495  25.433  0.1996  0.2058 -0.0882
43537W        W52137  18.931   2.427  23.330  0.1566  0.1705 -0.0801
43538W        W52138  16.322   5.791  27.808  0.2899 -0.3005  0.1491
43539W        W52139   2.964   1.880  12.984  0.1432 -0.1111  0.3518
43540W        W52140   9.046   0.461   9.639  0.1439 -0.3347  0.0505
43541W        W52141  21.107   4.502  30.126  0.1464 -0.0012  0.1479
43542W        W52142   3.276   6.487  14.478 -0.1948  0.0620 -0.0319
43543W        W52143  12.503   2.821   8.871  0.1566 -0.1243 -0.2872
43544W        W52144  11.362   0.391   9.854  0.1048  0.2438 -0.0092
43545W        W52145  13.665   1.302   5.256 -0.0282 -0.1171  0.0367
43546W        W52146  15.202   3.586  28.171  0.0801  0.0095  0.1161
43547W        W52147  15.724   0.851   1.215 -0.0094 -0.1882 -0.0079
43548W        W52148   9.048   5.773  29.549  0.1113  0.0260 -0.1549
43549W        W52149   4.583   5.763   3.646  0.3493  0.1249  0.1966
43550W        W52150   0.509   6.076  22.269 -0.0496  0.0014  0.1015
43551W        W52151   5.870   4.721  13.809 -0.1529  0.1944 -0.0722
43552W        W52152  11.993   0.223   7.899 -0.2367 -0.3101  0.1013
43553W        W52153  15.862   1.236   5.661 -0.1060  0.0137 -0.0130
43554W        W52154   6.904   0.463   4.339 -0.0450 -0.0563 -0.0633
43555W        W52155  24.175   2.661  26.273  0.2327 -0.1243  0.2040
43556W        W52156   9.522   0.008  23.381 -0.1345 -0.1456 -0.0424
43557W        W52157  17.213   3.546  22.135 -0.1636  0.0183 -0.2640
43558W        W52158   2.476   4.682   4.926 -0.0167 -0.1514 -0.6777
43559W        W52159   7.501   0.421   4.405  0.2320 -0.0232  0.0215
43560W        W52160  12.243   1.036   4.313 -0.1398  0.0639 -0.0995
43561W        W52161   4.574   1.070   1.581 -0.2036 -0.1321  0.1030
43562W        W52162   8.245   1.373   2.041 -0.0280  0.1990  0.2183
43563W        W52163  16.832   5.095  30.429 -0.3294 -0.0661 -0.0486
43564W        W52164  11.117   3.909   6.684 -0.3192  0.0445 -0.1758
43565W        W52165  20.055   1.271  22.670  0.1232 -0.1833  0.0774
43566W        W52166  23.203   2.991  11.218  0.0824  0.0279  0.2524
43567W        W52167   9.228   4.273  24.010 -0.0141 -0.1579  0.0669
43568W        W52168   9.727   3.933  28.847  0.2428  0.1980  0.0091
43569W        W52169   0.518   5.512  35.869 -0.0335  0.0351  0.1655
43570W        W52170   2.634   1.885  11.735 -0.2143 -0.0565 -0.1273
43571W        W52171  17.874   2.023  29.147  0.0401  0.0374 -0.2964
43572W        W52172   5.233   6.292   9.323  0.0728 -0.1199 -0.0318
43573W        W52173  12.921   5.224  27.639 -0.0267  0.1302 -0.0657
43574W        W52174  20.250   0.102  24.627 -0.0207 -0.2344  0.2288
43575W        W52175  11.795   5.347  24.623  0.0198  0.1016  0.2599
43576W        W52176   2.293   1.019  32.045 -0.0210  0.1267  0.0756
43577W        W52177  22.043   0.938   1.734  0.1985 -0.0508 -0.0598
43578W        W52178  17.725   3.527  26.129 -0.0535  0.3091 -0.2181
43579W        W52179  20.056   0.417   4.720 -0.0534  0.1297 -0.0029
43580W        W52180  23.611   5.409  29.592 -0.0159 -0.2754  0.1151
43581W        W52181  16.610   6.204  32.855 -0.4911  0.2864 -0.3207
43582W        W52182  14.872   2.453  25.765 -0.0728  0.0309 -0.0899
43583W        W52183   9.903   2.223  12.916 -0.1172  0.1313  0.3304
43584W        W52184   1.525   5.996  14.337  0.0161 -0.2258  0.3097
43585W        W52185   7.890   2.603  26.485  0.0383  0.2268 -0.0323
43586W        W52186  22.870   5.236  31.935 -0.0451  0.2009 -0.0293
43587W        W52187  11.191   1.542   4.724 -0.0055  0.0562  0.2528
43588W        W52188  10.640   4.153   7.074 -0.0765 -0.0570  0.1599
43589W        W52189  17.134   0.949  22.763  0.2118  0.1038  0.0219
43590W        W52190  18.531   2.426   7.690  0.0779 -0.1618  0.0259
43591W        W52191  23.312   2.424  24.533  0.2906  0.1173 -0.0883
43592W        W52192  13.561   4.349   4.969 -0.2140  0.0355  0.1968
43593W        W52193  13.107   0.637  13.653 -0.0456  0.2025  0.2518
43594W        W52194  24.766   3.735  21.581 -0.0207 -0.1627 -0.0335
43595W        W52195   6.920   0.440  14.127 -0.2146  0.0274  0.3823
43596W        W52196   5.899   5.062  29.346  0.4712  0.0509 -0.5116
43597W        W52197   8.510   3.646   5.548 -0.0224 -0.0389  0.2223
43598W        W52198  15.662   1.232  26.889 -0.1167 -0.1306 -0.0552
43599W        W52199  13.705   4.203  28.402 -0.1579 -0.1800 -0.1509
43600W        W52200   6.828   3.092   7.394 -0.0108 -0.1418 -0.0721
43601W        W52201   9.589   5.260  13.044 -0.1698 -0.3625  0.3481
43602W        W52202  14.623   3.675  16.402  0.1403  0.0996 -0.1692
43603W        W52203  14.316   0.594  31.864 -0.2053 -0.0144 -0.1410
43604W        W52204   5.678   1.542  12.971  0.2353 -0.2231 -0.2885
43605W        W52205  22.462   5.793   8.318  0.2641 -0.1072  0.0962
43606W        W52206  11.894   0.653  25.056  0.0940  0.3791  0.0731
43607W        W52207  19.740   2.013  23.855 -0.1518 -0.1000 -0.1478
43608W        W52208   5.537   5.065  23.044 -0.0672  0.0835  0.0853
43609W        W52209  22.609   6.277   4.656 -0.0582 -0.2132  0.1005
43610W        W52210   3.663   0.020   8.795  0.3496 -0.1912 -0.2599
43611W        W52211   5.708   0.354  27.542 -0.0220 -0.0137  0.2404
43612W        W52212  25.941   5.549  32.201  0.0965 -0.0274  0.0646
43613W        W52213  26.426   4.024   3.746  0.0566  0.1006  0.0369
43614W        W52214  13.906   5.515   4.762  0.1356  0.0629  0.1014
43615W        W52215  23.450   5.279  21.203 -0.0301  0.1157 -0.2039
43616W        W52216  16.278   4.838  15.027  0.1070  0.0273 -0.0703
43617W        W52217  25.734   4.524  29.310  0.0316  0.1660  0.2383
43618W        W52218  18.127   3.057   6.423  0.0633  0.1479 -0.0188
43619W        W52219   8.239   2.350  23.439  0.0880 -0.2481  0.1174
43620W        W52220   9.832   1.674   9.837  0.3957 -0.2320  0.0589
43621W        W52221  16.433   0.027   6.721 -0.1293 -0.0045 -0.0515
43622W        W52222  23.310   5.489   8.063 -0.0006 -0.1624 -0.4671
43623W        W52223  20.761   1.497  29.690  0.3652  0.1595 -0.1069
43624W        W52224  23.306   2.311  35.564 -0.1651 -0.0274  0.0403
43625W        W52225  12.503   4.263  31.492  0.0365 -0.1261 -0.1661
43626W        W52226   7.405   2.537  33.033  0.0646  0.1162 -0.1055
43627W        W52227  25.525   2.445  25.516 -0.0706 -0.1320  0.0090
43628W        W52228   5.609   3.154  23.743 -0.2885  0.4677 -0.0536
43629W        W52229  20.663   1.369  15.458  0.0248  0.0566 -0.2373
43630W        W52230  21.810   4.737  33.842  0.0940  0.2106  0.0493
43631W        W52231   3.210   1.410  26.580  0.1000  0.0283 -0.0950
43632W        W52232  15.227   3.453  29.398  0.2902  0.0474 -0.0714
43633W        W52233   9.759   5.923  30.393  0.2246 -0.3465  0.1945
43634W        W52234   1.313   1.531   9.672  0.0459  0.0028 -0.1953
43635W        W52235   2.948   3.103  32.050  0.2148 -0.2450  0.0241
43636W        W52236  12.313   4.535  28.775 -0.0768  0.4151 -0.1181
43637W        W52237  14.742   0.535  35.562  0.0128 -0.0185  0.1434
43638W        W52238  24.964   1.123  23.995  0.1006  0.0763  0.0572
43639W        W52239  21.366   1.078  11.288 -0.0017 -0.1242  0.0216
43640W        W52240  22.286   5.249   3.280  0.1561 -0.0044  0.1170
43641W        W52241   2.669   6.170   7.621 -0.0139  0.2654  0.0040
43642W        W52242   2.024   1.791  25.352  0.1802 -0.2942  0.1577
43643W        W52243   1.510   1.792  22.746  0.1365 -0.0827  0.4933
43644W        W52244  19.207   6.036  11.505  0.2220 -0.0912  0.1989
43645W        W52245  11.338   0.314  27.936  0.2159  0.0085 -0.2329
43646W        W52246  10.259   5.545   4.074  0.1540 -0.2409  0.1107
43647W        W52247   9.755   5.270  32.843  0.0543 -0.1517  0.1065
43648W        W52248  12.718   3.121  12.701 -0.1533 -0.1091  0.1798
43649W        W52249  23.438   0.501   5.859  0.1931 -0.1574 -0.2721
43650W        W52250   1.683   5.254  29.535  0.1151 -0.0056 -0.0732
43651W        W52251  18.039   0.143  33.866  0.2983 -0.3038  0.2919
43652W        W52252   4.655   5.319   0.853  0.3047  0.0699 -0.0507
43653W        W52253  21.460   0.540   3.627  0.1922 -0.2159  0.1190
43654W        W52254  18.896   6.256   4.929  0.2713  0.1559  0.3195
43655W        W52255  13.706   1.570  34.762  0.1338 -0.1723 -0.2731
43656W        W52256   7.433   1.840   5.146  0.0292 -0.0539  0.0566
43657W        W52257  17.904   6.524  29.107 -0.1371 -0.0885  0.2066
43658W        W52258   5.213   5.283  26.206 -0.0250  0.0863 -0.0431
43659W        W52259  18.788   1.292  28.420  0.0595 -0.2413 -0.1594
43660W        W52260   2.878   0.847   5.125  0.0447 -0.0053 -0.1267
43661W        W52261  18.409   5.763  20.324 -0.0479 -0.1226 -0.1044
43662W        W52262   8.177   6.558   1.682 -0.4016 -0.1816  0.2584
43663W        W52263  25.058   4.476  32.272 -0.0967 -0.0941 -0.3291
43664W        W52264   0.871   4.796   3.164 -0.3710  0.1375  0.3128
43665W        W52265   2.912   5.531   0.114  0.1176  0.0302 -0.0713
43666W        W52266   7.141   6.330  10.392  0.0016  0.0611  0.2397
43667W        W52267  18.479   1.945  30.896 -0.0478  0.1884  0.0749
43668W        W52268   9.488   0.679   5.805  0.1402 -0.1713  0.1745
43669W        W52269  14.641   1.407  14.059 -0.0257 -0.1651  0.4038
43670W        W52270  12.425   2.010   5.968 -0.3263 -0.1694 -0.1444
43671W        W52271  15.609   2.053  23.750  0.0278  0.1535 -0.1637
43672W        W52272  10.613   6.217   7.088  0.0517 -0.1570  0.2277
43673W        W52273  16.488   4.059   9.858  0.1589  0.4158  0.0590
43674W        W52274   6.558   5.568  34.828 -0.3200  0.1644  0.0436
43675W        W52275  20.852   0.224  31.889  0.1593  0.0564  0.1299
43676W        W52276  16.825   3.842  30.558  0.0965 -0.2313 -0.0916
43677W        W52277   0.967   4.445  33.863 -0.2123 -0.0790 -0.0402
43678W        W52278  16.729   4.285  11.253 -0.1819 -0.1870 -0.0286
43679W        W52279   5.689   2.052  25.912 -0.0659 -0.0117  0.0961
43680W        W52280   9.812   0.541  33.933  0.1124 -0.0895  0.1801
43681W        W52281  19.228   6.023  24.195  0.1695  0.2157  0.0239
43682W        W52282  11.532   1.570  10.464 -0.1015  0.0248 -0.4619
43683W        W52283  19.271   6.238  21.375 -0.2528 -0.1334 -0.1669
43684W        W52284  13.535   3.102   3.034  0.0359  0.1103  0.0555
43685W        W52285  26.354   2.997   7.545 -0.0513  0.3491 -0.3324
43686W        W52286   5.492   5.438   2.025 -0.0513 -0.0134  0.5849
43687W        W52287  18.799   5.542  22.293  0.0785  0.1598 -0.2499
43688W        W52288  12.267   3.112  29.083  0.1382 -0.0179  0.0442
43689W        W52289  14.399   1.228  10.653  0.0060  0.2144  0.0021
43690W        W52290   8.287   4.638  24.986  0.2849  0.1465 -0.0943
43691W        W52291  10.581   2.696   5.588  0.3565  0.2366  0.1023
43692W        W52292  12.958   4.991   8.136  0.2985  0.0233  0.0249
43693W        W52293   3.819   1.163  32.925 -0.0383 -0.0523  0.1067
43694W        W52294  17.948   5.379   4.893 -0.1814  0.1645 -0.1030
43695W        W52295  22.150   1.778  33.973 -0.4087 -0.1510  0.0966
43696W        W52296   8.291   2.875  34.864  0.0998 -0.1867 -0.2090
43697W        W52297   7.338   2.946  33.849 -0.0198 -0.0268  0.0177
43698W        W52298   2.892   3.318   9.638  0.1040  0.0404 -0.0057
43699W        W52299  20.058   6.222  11.199 -0.0712  0.0707 -0.0187
43700W        W52300  25.534   5.211  12.160  0.1080  0.0768  0.1576
43701W        W52301  24.674   5.764  25.268 -0.4272  0.1922 -0.0228
43702W        W52302  10.230   5.230   5.026 -0.1315  0.0451 -0.1000
43703W        W52303  26.101   0.583  10.688  0.2361 -0.1541 -0.0024
43704W        W52304  16.039   1.415  28.244  0.1358  0.1052  0.2292
43705W        W52305   1.451   6.160  28.517 -0.1420  0.0265 -0.0234
43706W        W52306   4.167   1.707   5.320 -0.1126  0.1018 -0.1758
43707W        W52307  11.009   3.698  13.851  0.1507 -0.0910 -0.2758
43708W        W52308   7.674   0.032   8.331 -0.0136  0.2065  0.0877
43709W        W52309  15.759   2.429  25.770 -0.0965 -0.3511  0.2086
43710W        W52310  17.399   4.333  23.201  0.1088  0.1144 -0.2858
43711W        W52311  19.223   4.769   0.052  0.0605  0.0695 -0.0662
43712W        W52312  22.071   1.763   1.129 -0.0817 -0.0317 -0.0112
43713W        W52313  17.661   6.271  12.412  0.1199 -0.0145  0.0568
43714W        W52314  21.936   4.887  25.675 -0.1668  0.0302  0.0848
43715W        W52315  19.892   3.597   3.418  0.2502  0.1558  0.0535
43716W        W52316   6.103   4.168   3.483 -0.0670 -0.0588 -0.1383
43717W        W52317   3.135   1.515  33.426  0.0938 -0.1929  0.1539
43718W        W52318  15.326   5.260  35.590  0.2401  0.0764 -0.0590
43719W        W52319  18.402   0.330  12.468  0.1316  0.0367  0.2893
43720W        W52320  26.269   6.185  10.866 -0.0288  0.4149 -0.3539
43721W        W52321   3.218   3.847   5.483 -0.1269 -0.1284 -0.0023
43722W        W52322   3.504   1.175  21.162  0.0515 -0.2855 -0.2206
43723W        W52323  25.449   0.616  10.728 -0.0124 -0.3179  0.1236
43724W        W52324  23.013   6.500  33.133 -0.3682 -0.0517 -0.2153
43725W        W52325  23.065   0.952  30.893  0.1786 -0.0554 -0.1622
43726W        W52326  18.540   4.096  28.407  0.1039 -0.2186 -0.0072
43727W        W52327  19.033   2.416  34.620 -0.1149 -0.0083 -0.1358
43728W        W52328  19.265   2.854   8.283  0.0452  0.2165  0.2339
43729W        W52329  22.466   3.964  14.979 -0.1946 -0.0440  0.3788
43730W        W52330   9.745   2.239  32.334  0.3627  0.2407  0.3582
43731W        W52331  20.272   5.452   0.334 -0.0143 -0.0614 -0.4468
43732W        W52332   1.463   5.976  25.965  0.1145 -0.2380  0.0886
43733W        W52333  20.429   5.048  29.009  0.0084  0.0335 -0.1362
43734W        W52334  23.149   5.093   2.120 -0.0746 -0.1521 -0.0269
43735W        W52335   1.115   4.221  31.053  0.2052 -0.1998  0.3033
43736W        W52336  15.982   2.572   6.098 -0.0390 -0.2511 -0.3197
43737W        W52337   3.148   3.551  10.432  0.0475  0.0903  0.0702
43738W        W52338  12.556   3.726  25.005  0.1729  0.2043  0.3169
43739W        W52339   9.740   3.744  24.773 -0.1649  0.0204  0.1005
43740W        W52340  19.293   2.342  33.112  0.0307 -0.2512  0.0675
43741W        W52341  18.294   4.424   1.068  0.2136 -0.2370 -0.1657
43742W        W52342  17.595   6.338  29.550 -0.0789  0.3014 -0.1174
43743W        W52343  18.738   4.914   6.400 -0.3793 -0.0870  0.1579
43744W        W52344  17.509   2.013  34.649  0.1948 -0.1032 -0.0689
43745W        W52345   2.737   2.349   5.223 -0.1886 -0.1430 -0.0370
43746W        W52346  16.495   0.113  21.753  0.0841 -0.0512 -0.0307
43747W        W52347  19.259   4.600   9.979 -0.1554  0.1110  0.1359
43748W        W52348  18.371   3.301  33.050 -0.0704  0.0294 -0.1283
43749W        W52349   7.467   2.164  34.536  0.1336 -0.0382  0.0983
43750W        W52350  14.419   0.022  30.537 -0.5797  0.2068  0.0759
43751W        W52351  17.712   0.380  28.256 -0.0396 -0.1345  0.2006
43752W        W52352  10.878   3.162  27.607 -0.2811 -0.0242 -0.2088
43753W        W52353  25.556   0.516  21.621  0.1130  0.0636  0.1510
43754W        W52354  10.982   4.887  25.115 -0.1450  0.1057  0.2156
43755W        W52355  23.292   4.156  26.125  0.1427 -0.3531 -0.0240
43756W        W52356  20.038   6.279  13.929  0.2103  0.1292  0.1105
43757W        W52357   9.426   0.138  20.715 -0.3079  0.2943  0.1376
43758W        W52358   9.521   5.682  25.562  0.2823 -0.1442 -0.2501
43759W        W52359   2.808   6.087  26.518  0.0419  0.3217 -0.1028
43760W        W52360   3.067   3.755  26.908  0.1425 -0.2315  0.0686
43761W        W52361   4.897   3.722   2.679 -0.0319 -0.1506  0.2744
43762W        W52362   0.939   3.655   7.017  0.4210 -0.2026  0.0781
43763W        W52363   0.747   5.465   8.617  0.2830  0.1766  0.3710
43764W        W52364   1.402   2.382   5.313  0.1439 -0.1657  0.2044
43765W        W52365   1.877   2.332  22.049  0.0351  0.0175 -0.0166
43766W        W52366   5.702   4.456  31.429  0.1150  0.0588  0.0787
43767W        W52367  18.511   4.303   8.716  0.0944 -0.2286  0.0215
43768W        W52368   2.861   2.285  35.797  0.2131 -0.3869  0.1973
43769W        W52369  18.819   0.885   7.193 -0.3468  0.2318 -0.1052
43770W        W52370   2.213   1.985  29.388  0.0586  0.1513  0.3386
43771W        W52371  17.502   5.315  25.248  0.3133 -0.1844 -0.2263
43772W        W52372  10.242   1.437   8.134 -0.1261  0.1473  0.2509
43773W        W52373   7.528   0.486  35.096  0.1401  0.0028 -0.1721
43774W        W52374   7.548   0.343  21.472  0.2476  0.2261  0.1950
43775W        W52375  21.907   3.397   4.525  0.1103  0.1908 -0.1942
43776W        W52376  20.927   2.603  32.871 -0.2466 -0.1279 -0.1166
43777W        W52377  23.637   3.004  22.052 -0.1698  0.0917 -0.0750
43778W        W52378   7.690   4.041  28.262 -0.0189 -0.0817  0.1179
43779W        W52379  18.354   4.128  12.250  0.2642  0.1853 -0.2400
43780W        W52380  13.328   6.362  35.753  0.0375 -0.1039  0.0457
43781W        W52381   3.816   2.760  12.982 -0.0956  0.0139  0.3731
43782W        W52382  20.350   0.902  15.159  0.2168  0.0952 -0.0256
43783W        W52383  15.435   3.166  15.045  0.1937 -0.2290 -0.3234
43784W        W52384  19.719   3.567  13.634 -0.1275  0.2181  0.4306
43785W        W52385  11.682   1.377  31.266 -0.2976  0.0249 -0.0498
43786W        W52386  19.584   6.031  33.343  0.0556  0.2724  0.1060
43787W        W52387  11.068   5.048  14.292  0.4384 -0.1240  0.1912
43788W        W52388  21.712   3.727   1.442  0.1793 -0.0579 -0.1968
43789W        W52389  10.345   2.695  27.154 -0.3387 -0.0200 -0.2626
43790W        W52390  23.807   5.826   0.608  0.0901  0.2401 -0.2264
43791W        W52391   9.810   1.468  35.973  0.0552  0.0232  0.0089
43792W        W52392  17.576   0.251   6.391 -0.0115 -0.0596  0.0982
43793W        W52393  23.857   0.471  22.811 -0.3060  0.3342 -0.4476
43794W        W52394  19.130   6.193  10.634 -0.0867 -0.1238  0.0729
43795W        W52395  13.258   1.894  22.213  0.2791 -0.2157 -0.1763
43796W        W52396  14.582   1.144   6.798  0.1526 -0.2705  0.2131
43797W        W52397  10.552   0.240   9.475 -0.0817 -0.1767 -0.0113
43798W        W52398  13.647   4.148  35.265 -0.1588  0.0243  0.4142
43799W        W52399   8.073   1.863  34.852  0.1053  0.2919  0.0981
43800W        W52400  10.458   1.267  31.222  0.0010  0.2358  0.0931
43801W        W52401  15.776   0.620  36.110 -0.1567  0.0125 -0.1984
43802W        W52402   2.685   0.829  22.124 -0.2474  0.0261  0.0016
43803W        W52403  16.275   5.218  16.141  0.1288  0.3649  0.1646
43804W        W52404   4.589   3.586   5.621  0.1640  0.0921  0.1822
43805W        W52405  15.167   6.346  25.942  0.2006 -0.0212  0.1770
43806W        W52406  12.078   5.147  14.457  0.0012 -0.1594  0.0445
43807W        W52407  16.100   4.755   2.393 -0.2075 -0.1963 -0.4823
43808W        W52408  19.295   5.143  32.245 -0.1036  0.0682  0.1431
43809W        W52409   5.602   3.468  21.395  0.0093  0.0914 -0.3015
43810W        W52410  26.201   3.310  33.421  0.2430 -0.1756 -0.0695
43811W        W52411   3.341   5.504   7.118 -0.0500 -0.2026  0.1820
43812W        W52412   1.351   5.201  34.312 -0.0591 -0.3345 -0.3448
43813W        W52413   0.162   4.341  31.162 -0.0362 -0.1565  0.0489
43814W        W52414  17.578   4.742  10.777 -0.0726  0.0926  0.1061
43815W        W52415  12.426   2.641  10.740  0.0844 -0.0067  0.1206
43816W        W52416  11.363   3.935  29.389 -0.3199  0.1375 -0.1832
43817W        W52417   9.069   1.629  22.896  0.0823  0.0933  0.2514
43818W        W52418  24.426   2.911   6.544  0.0230  0.1794 -0.1558
43819W        W52419  18.642   3.434   7.227  0.1037 -0.2168 -0.1182
43820W        W52420   7.773   2.714  23.817  0.0382  0.2218 -0.1657
43821W        W52421   8.722   2.446  24.920 -0.2618  0.3216  0.1143
43822W        W52422  23.299   1.841   5.948 -0.3106  0.1037 -0.0586
43823W        W52423  26.271   2.718  12.988 -0.2221 -0.0349  0.0543
43824W        W52424   8.070   3.091  23.909 -0.3220 -0.2095 -0.3634
43825W        W52425  12.792   4.524  25.333 -0.1339 -0.1606 -0.1263
43826W        W52426   2.151   5.557   3.316  0.0037  0.0100  0.0307
43827W        W52427   6.844   6.050  21.039 -0.1584  0.1953  0.0249
43828W        W52428  16.614   0.605  27.156  0.2461 -0.1569 -0.2435
43829W        W52429   1.090   1.786  28.489 -0.2057 -0.0090 -0.3448
43830W        W52430  18.787   5.770  24.296 -0.0690  0.1458 -0.5181
43831W        W52431   2.296   5.631  33.525 -0.1664 -0.1286  0.0788
43832W        W52432   2.223   5.952   2.619 -0.1748  0.0056 -0.3453
43833W        W52433   5.702   5.985  26.005 -0.0659  0.1146  0.1684
43834W        W52434  14.811   1.790   2.377  0.0501 -0.0762  0.1433
43835W        W52435   1.278   1.572  11.852  0.2549  0.1623  0.1986
43836W        W52436   8.212   5.815   6.698 -0.1079 -0.1302  0.0094
43837W        W52437  13.912   5.904   7.130  0.3412 -0.1884  0.0728
43838W        W52438  11.479   4.705  33.591  0.2498  0.1199  0.0007
43839W        W52439  23.584   0.075  14.263 -0.2441 -0.0361  0.0933
43840W        W52440  15.962   0.226  10.558 -0.0960 -0.1300  0.1889
43841W        W52441  21.336   3.798   3.578  0.2997  0.0432  0.0603
43842W        W52442  12.842   0.926  21.209  0.2474 -0.0101  0.0275
43843W        W52443  18.482   1.811  27.720 -0.0951 -0.2642 -0.0535
43844W        W52444   5.436   6.289   8.484 -0.0828  0.2554 -0.2991
43845W        W52445   7.419   0.453   9.713 -0.1605  0.0329  0.0251
43846W        W52446  11.409   6.177   0.884 -0.1014  0.0695  0.1704
43847W        W52447   0.471   4.352   2.606  0.2069  0.1700 -0.2120
43848W        W52448   6.700   6.033  10.526  0.3248 -0.0294 -0.0217
43849W        W52449  11.987   2.787  14.285  0.1332 -0.0519 -0.0544
43850W        W52450  21.761   1.804  10.394  0.2368  0.0197  0.1039
43851W        W52451   1.157   4.719  35.614 -0.2061 -0.1049 -0.0262
43852W        W52452   3.797   2.132  34.713  0.1921 -0.2133 -0.0554
43853W        W52453  26.271   6.140   4.851 -0.0585  0.2337  0.0229
43854W        W52454  22.771   2.783  33.724  0.0077  0.3699 -0.1688
43855W        W52455   1.034   5.478  33.354 -0.0584 -0.1800 -0.0339
43856W        W52456   3.249   2.844  23.587 -0.0459  0.0335 -0.0542
43857W        W52457   6.749   1.003   4.053  0.0263 -0.0085  0.1991
43858W        W52458   7.261   0.103  26.127 -0.1001 -0.0373  0.1128
43859W        W52459   6.117   0.373  13.653  0.1276  0.0284 -0.0108
43860W        W52460  25.999   0.419  12.979 -0.0363 -0.0850 -0.1180
43861W        W52461  16.428   3.001  10.510 -0.3726  0.1415  0.2354
43862W        W52462   1.485   1.259  35.698  0.0130  0.0077 -0.0035
43863W        W52463  25.659   1.383  21.748  0.0110  0.1811 -0.2110
43864W        W52464   8.486   2.443  22.572  0.1328 -0.3127  0.0934
43865W        W52465   5.821   2.219   4.436  0.2115 -0.1035 -0.0469
43866W        W52466  14.362   2.314   5.086  0.2053  0.1138  0.2732
43867W        W52467  16.096   4.311  25.139 -0.1008 -0.0539  0.0628
43868W        W52468   6.148   4.283  34.049 -0.0010  0.1445  0.1437
43869W        W52469  11.657   5.525   2.937  0.0644  0.1534 -0.0683
43870W        W52470  18.438   1.093   8.145  0.1946  0.0998  0.0441
43871W        W52471   5.057   2.291   1.244  0.2329 -0.0752 -0.0154
43872W        W52472  14.238   1.996  26.931  0.0398  0.1541  0.0185
43873W        W52473   7.041   2.581   6.178 -0.0555  0.1459  0.1764
43874W        W52474  24.470   6.255   8.821  0.0627  0.0097 -0.1222
43875W        W52475  10.484   2.678  32.829 -0.1466  0.0337 -0.0729
43876W        W52476  24.033   0.638   3.885  0.0193  0.1650  0.1875
43877W        W52477  15.963   1.712  10.143 -0.0740 -0.3057  0.0379
43878W        W52478   4.022   2.556  11.909 -0.0414  0.0521  0.3655
43879W        W52479  18.810   5.963   8.193 -0.0305  0.0297  0.2051
43880W        W52480  22.943   4.755   4.388 -0.2688  0.0084 -0.1299
43881W        W52481   4.469   2.600  10.136 -0.1673  0.0541 -0.2167
43882W        W52482  12.210   5.091   6.023 -0.1647  0.1917  0.0124
43883W        W52483   2.631   6.419  12.016 -0.0954 -0.1789 -0.1585
43884W        W52484  13.671   6.100  29.508 -0.2244 -0.1791 -0.2997
43885W        W52485   8.847   4.930  35.880 -0.0874 -0.0396 -0.2580
43886W        W52486  14.374   1.596  26.064 -0.0842  0.4434  0.1003
43887W        W52487   9.024   1.847   2.254 -0.3437  0.0966  0.0524
43888W        W52488  15.038   0.958   2.381 -0.0246  0.1239  0.3470
43889W        W52489   5.992   3.667   6.565 -0.1793 -0.0223 -0.0253
43890W        W52490  14.394   0.277  35.892 -0.1004 -0.0808 -0.3662
43891W        W52491  18.225   6.314  34.690 -0.2757 -0.1297 -0.0309
43892W        W52492   1.259   5.239  34.794  0.2185 -0.0166 -0.2847
43893W        W52493  18.866   1.049  26.414  0.0372  0.2061  0.0906
43894W        W52494   1.691   3.735  29.967 -0.2031 -0.4159  0.1192
43895W        W52495  12.217   1.585  27.617 -0.1540 -0.3436 -0.1413
43896W        W52496  23.369   1.917   3.379 -0.2291  0.0709  0.4810
43897W        W52497  17.416   1.472  26.624  0.3350  0.1527 -0.0932
43898W        W52498  19.103   4.839  34.358 -0.1523 -0.3008 -0.0896
43899W        W52499   0.053   3.637  12.504 -0.0850  0.0838  0.0264
43900W        W52500  14.136   2.525  33.785 -0.3461 -0.2475 -0.0042
43901W        W52501  15.165   0.721  30.444  0.0566 -0.0006  0.2476
43902W        W52502  12.391   0.954  22.653  0.0003 -0.1019  0.3040
43903W        W52503   8.179   0.238  13.401  0.1064  0.0717  0.0073
43904W        W52504  18.856   2.856  13.590 -0.0701 -0.2885 -0.1293
43905W        W52505   8.764   0.014   5.841  0.1150 -0.1694 -0.0125
43906W        W52506   9.609   0.405   7.273  0.0820 -0.3354 -0.2976
43907W        W52507  15.257   6.102  32.009 -0.1765 -0.2017  0.3594
43908W        W52508   2.030   4.880  31.355 -0.1975 -0.1742 -0.0394
43909W        W52509   0.944   0.715  25.907  0.0161  0.2988  0.0957
43910W        W52510  21.965   6.040  24.104 -0.0474  0.3816 -0.1829
43911W        W52511   4.201   2.113  14.736  0.0927 -0.1353  0.1095
43912W        W52512   0.482   6.356  11.518 -0.1109 -0.0513 -0.3031
43913W        W52513   3.047   4.700   5.131  0.2267  0.0073  0.0661
43914W        W52514  17.446   0.199  13.565  0.0299 -0.1144 -0.0849
43915W        W52515  20.382   3.425   4.163  0.1066  0.1115 -0.0901
43916W        W52516  21.037   5.952  22.907 -0.1559 -0.0152 -0.0958
43917W        W52517  18.441   0.973  11.676  0.0816 -0.1851 -0.1658
43918W        W52518   2.474   3.181   6.243  0.1386  0.0661 -0.1444
43919W        W52519   4.350   4.535  29.952 -0.0206 -0.1349 -0.2019
43920W        W52520  22.704   3.213  24.476 -0.0179  0.0458  0.0008
43921W        W52521  16.248   5.389  23.247  0.1209  0.0572  0.0706
43922W        W52522  19.721   4.566  23.508  0.0118  0.1632 -0.0655
43923W        W52523   0.614   0.887  15.494 -0.3244  0.0193  0.0315
43924W        W52524  14.015   1.020  27.153  0.1021 -0.0907  0.3547
43925W        W52525  14.028   1.177  11.036  0.0186  0.1553  0.0975
43926W        W52526  26.390   5.999  22.246  0.2929  0.2580  0.2219
43927W        W52527  16.024   1.610   4.283 -0.2507  0.1518 -0.0303
43928W        W52528  14.443   2.203  29.434 -0.1405  0.0545 -0.2127
43929W        W52529  13.976   1.502  23.783 -0.1077  0.1571 -0.0038
43930W        W52530  16.973   2.617  13.510  0.2259 -0.0182  0.0485
43931W        W52531  22.430   5.410   6.628 -0.0080  0.3256 -0.0770
43932W        W52532   1.720   2.585   2.697 -0.3437 -0.3414 -0.2338
43933W        W52533   1.483   2.921  34.095  0.1960 -0.2183  0.0789
43934W        W52534  25.186   0.033  14.275  0.1257  0.2185 -0.1940
43935W        W52535  22.285   0.672  13.998  0.1444 -0.0771 -0.0037
43936W        W52536  10.870   2.154  30.921  0.2388  0.0029  0.1231
43937W        W52537   1.052   6.524   4.103  0.0116  0.3440  0.0297
43938W        W52538   3.375   5.093  21.659  0.4141  0.1630 -0.1395
43939W        W52539  23.094   3.411  35.906  0.1249 -0.1394  0.3451
43940W        W52540  23.479   3.053  32.771  0.1798 -0.1646 -0.4090
43941W        W52541  16.755   3.435  10.385  0.4094 -0.2059  0.0062
43942W        W52542  10.733   0.817  31.394  0.3239  0.1941  0.0682
43943W        W52543  25.751   3.663  28.772  0.0129  0.0151  0.1954
43944W        W52544   4.432   4.966   3.762  0.0019 -0.0781 -0.1123
43945W        W52545  15.228   5.775   8.401 -0.0880  0.0573 -0.2753
43946W        W52546   5.916   3.339  28.654  0.2325 -0.0318 -0.1626
43947W        W52547   5.348   0.114  35.244  0.0848 -0.0529  0.1154
43948W        W52548   4.135   0.334  34.413  0.3930  0.0808  0.2524
43949W        W52549  14.234   3.300  13.924 -0.0175 -0.2808  0.2940
43950W        W52550  10.309   3.044  23.321  0.0272 -0.0722  0.0077
43951W        W52551  12.652   6.464   8.451  0.0511  0.1327 -0.1541
43952W        W52552  11.580   5.452   9.347 -0.1394  0.0447  0.0641
43953W        W52553   2.203   1.943  24.349 -0.2161 -0.2429  0.0237
43954W        W52554   8.285   0.976   9.958  0.1255  0.2744  0.0657
43955W        W52555  19.723   1.668  21.852  0.0856 -0.0846 -0.0463
43956W        W52556   4.684   6.052  15.015  0.1344 -0.0021 -0.1096
43957W        W52557  24.190   1.448   3.692 -0.0157  0.0421 -0.0715
43958W        W52558   3.891   3.057  34.999 -0.1121 -0.0076  0.1838
43959W        W52559   3.657   5.101   7.189  0.4252  0.0153 -0.0575
43960W        W52560  12.804   1.520   2.433  0.1085  0.1765 -0.0051
43961W        W52561  12.332   5.083   9.598  0.0407  0.0631  0.2349
43962W        W52562   0.750   6.430  30.777  0.1289 -0.2010 -0.2393
43963W        W52563  20.162   2.606  15.049 -0.0306  0.1550  0.3227
43964W        W52564  17.041   5.308   1.590 -0.1930 -0.2092 -0.1815
43965W        W52565   5.195   6.543  29.565  0.1628 -0.3178 -0.0015
43966W        W52566  22.038   1.903  23.704 -0.1720  0.1275  0.2393
43967W        W52567   9.432   1.762  20.211 -0.0378  0.1141  0.1747
43968W        W52568  11.065   0.590   6.935  0.2368 -0.0878 -0.0036
43969W        W52569   4.036   4.666  29.169  0.0493  0.0521  0.1741
43970W        W52570   8.567   2.150  21.069 -0.3265 -0.0011 -0.1875
43971W        W52571  13.652   0.999   3.903 -0.1369 -0.0937  0.0692
43972W        W52572  20.008   4.772  29.222 -0.2130 -0.3070  0.0057
43973W        W52573   5.695   0.228  28.715  0.1723  0.1414  0.2718
43974W        W52574   1.845   3.843  10.969  0.1362  0.0704 -0.4691
43975W        W52575   4.838   2.178  34.471 -0.0013 -0.0116 -0.1669
43976W        W52576  11.806   4.148  23.410 -0.2081  0.0202 -0.1571
43977W        W52577  21.656   2.711  21.812  0.2388  0.1757  0.1559
43978W        W52578   2.523   5.033  22.910  0.3805  0.0026  0.2763
43979W        W52579  17.117   5.399   1.089  0.0204  0.2008  0.0834
43980W        W52580  11.589   2.016   9.279  0.0900 -0.1044 -0.0223
43981W        W52581  16.661   1.339  14.595  0.0945 -0.2279 -0.1100
43982W        W52582   2.626   1.544   2.097 -0.2142 -0.0847 -0.2368
43983W        W52583  19.797   1.562  11.996  0.2052 -0.2233 -0.0093
43984W        W52584  11.018   3.884   7.240  0.2133 -0.0645  0.0362
43985W        W52585  10.453   6.574  34.023  0.2042  0.1038  0.1073
43986W        W52586  13.482   2.128   9.505 -0.0843 -0.0625 -0.1409
43987W        W52587  15.378   1.371  28.150 -0.0063 -0.1907 -0.1417
43988W        W52588  13.410   0.442  34.953  0.0125  0.2553 -0.3249
43989W        W52589  10.260   6.443   7.365  0.3980  0.1795  0.1147
43990W        W52590   4.566   1.441  15.101 -0.2015  0.3535  0.1946
43991W        W52591  12.995   3.862  15.789 -0.0043 -0.0245 -0.0703
43992W        W52592   7.780   0.953   5.640 -0.0299  0.3639 -0.2262
43993W        W52593   6.339   5.776  12.624 -0.2396  0.1663  0.1747
43994W        W52594  14.993   0.435   0.820 -0.0022 -0.2947  0.0504
43995W        W52595  18.158   4.097  21.134 -0.1140  0.1858 -0.0810
43996W        W52596  14.433   3.168  27.768 -0.0732 -0.0039  0.1112
43997W        W52597   0.065   1.980  14.904  0.0863 -0.1288  0.2192
43998W        W52598   8.752   6.140  21.778 -0.0674  0.3963 -0.0933
43999W        W52599  12.444   1.865  24.947 -0.2643  0.2406 -0.0083
44000W        W52600  18.546   6.206  25.679 -0.2413 -0.0583 -0.0648
44001W        W52601  16.790   1.885  26.257  0.2046  0.2146  0.2277
44002W        W52602  14.765   4.485  31.016  0.0582  0.0986  0.1295
44003W        W52603  10.522   0.372  24.118  0.0633  0.0051 -0.2178
44004W        W52604   3.698   6.089  25.517  0.1891  0.2229 -0.1310
44005W        W52605  22.075   5.857  24.550 -0.0721  0.0587  0.1584
44006W        W52606  12.152   0.140   5.368 -0.1256 -0.2538  0.0016
44007W        W52607  22.618   4.348  10.800 -0.1794  0.1624 -0.4864
44008W        W52608  10.096   5.871   9.261  0.2174  0.0796  0.2487
44009W        W52609  22.362   4.542   9.345  0.1452  0.1791 -0.3085
44010W        W52610  11.802   2.846   7.322 -0.0054 -0.0479 -0.0542
44011W        W52611   1.868   2.756   8.216  0.1801  0.3668  0.3111
44012W        W52612  23.258   2.967   0.010  0.0575 -0.0280  0.2334
44013W        W52613  13.939   0.621  21.623 -0.0491  0.0951  0.1944
44014W        W52614   0.613   0.354   3.232  0.3731 -0.1321  0.1795
44015W        W52615  14.430   1.256   7.279  0.2323  0.2412  0.0620
44016W        W52616  10.278   1.015   4.474 -0.2173 -0.0348 -0.1806
44017W        W52617   7.668   5.512  10.714  0.0418  0.1001  0.0543
44018W        W52618  22.244   4.735  13.881 -0.0277  0.0209  0.1284
44019W        W52619   1.624   6.094  14.826 -0.0033 -0.2748  0.0804
44020W        W52620  16.582   0.901   7.050  0.1191  0.4513  0.1324
44021W        W52621  17.825   5.061  34.303  0.3076  0.3620  0.1731
44022W        W52622   9.269   4.463  32.689  0.0990  0.0425  0.0515
44023W        W52623   8.936   0.142  28.000  0.1662 -0.2749 -0.2716
44024W        W52624   6.690   3.699  10.187 -0.0055 -0.2763 -0.1094
44025W        W52625   7.430   3.045  32.403 -0.0621 -0.1659  0.2666
44026W        W52626  14.693   2.411  11.115 -0.0982  0.1533 -0.3694
44027W        W52627  22.065   2.737  24.984  0.1712 -0.1229  0.0439
44028W        W52628   7.148   1.667  14.573  0.1228  0.1481 -0.2808
44029W        W52629  16.441   2.214  29.344 -0.2837 -0.0004  0.0887
44030W        W52630   9.223   0.927  27.210 -0.2933 -0.2171  0.0365
44031W        W52631   5.747   0.979  32.880  0.1290  0.0347 -0.1819
44032W        W52632   7.056   1.616  20.143 -0.1051  0.0611  0.0299
44033W        W52633   0.721   3.843  24.186 -0.1331  0.2476 -0.2456
44034W        W52634  15.634   1.892   3.443 -0.2144 -0.1480 -0.1038
44035W        W52635  24.243   6.312   6.534 -0.1110 -0.0075 -0.0642
44036W        W52636  23.769   0.711  13.584 -0.0302  0.2289  0.0051
44037W        W52637  14.202   1.252   8.651 -0.0923  0.1983 -0.0529
44038W        W52638  21.151   1.170   1.595  0.0416 -0.2340 -0.1527
44039W        W52639   1.192   2.772   2.673 -0.1631 -0.2515  0.2392
44040W        W52640  24.863   1.664  27.121 -0.0718 -0.2472  0.2177
44041W        W52641  19.078   2.106  35.781 -0.0772  0.0717 -0.1552
44042W        W52642  10.914   6.111   1.864  0.1377 -0.3066 -0.0269
44043W        W52643  22.445   2.410  31.381 -0.2447 -0.1833  0.1238
44044W        W52644   6.481   2.430  28.482  0.0560 -0.2557  0.2380
44045W        W52645   9.527   3.642   5.390  0.2808 -0.0889  0.0987
44046W        W52646   7.873   3.648  29.725 -0.2302 -0.1319  0.0331
44047W        W52647  16.722   2.438   2.363 -0.1033 -0.1433  0.2138
44048W        W52648   9.935   3.898   0.714 -0.1090 -0.0433 -0.2963
44049W        W52649   2.063   1.995  28.002 -0.1067 -0.1802  0.2623
44050W        W52650   0.409   5.404   7.826  0.2610  0.0628  0.1671
44051W        W52651  19.133   6.602  13.234  0.1839  0.0766  0.0638
44052W        W52652  24.320   0.906   4.781  0.2770  0.3455  0.1491
44053W        W52653   9.374   0.818  20.284 -0.1008  0.3904  0.0582
44054W        W52654  21.169   2.285  27.881  0.3846  0.0105 -0.3810
44055W        W52655  17.177   3.046  26.978 -0.0946  0.1602  0.0669
44056W        W52656   0.557   6.373   0.339 -0.0128 -0.0214  0.2872
44057W        W52657   7.092   4.022  25.052 -0.1465  0.0335  0.2536
44058W        W52658   5.742   3.210   7.927 -0.2424  0.3412  0.2897
44059W        W52659  19.370   4.302  32.702 -0.0143 -0.3860 -0.1620
44060W        W52660  24.636   4.964  20.914 -0.0589  0.1768  0.2725
44061W        W52661  23.177   0.466   9.177  0.1161  0.0225 -0.1378
44062W        W52662  14.170   5.203  25.956 -0.2857 -0.1100  0.2173
44063W        W52663  24.902   1.463  29.950  0.2702 -0.1002  0.1414
44064W        W52664  24.335   3.812  31.230 -0.1388 -0.0126  0.1001
44065W        W52665  18.129   6.160  13.365  0.1317 -0.2255  0.0759
44066W        W52666  20.008   3.020  33.929  0.0715 -0.1658 -0.0973
44067W        W52667  21.156   6.200  35.170 -0.0352  0.2107 -0.2951
44068W        W52668  10.300   0.733  33.206  0.1096  0.0068  0.1917
44069W        W52669   6.314   0.834  21.090 -0.2944 -0.2126  0.0119
44070W        W52670  15.468   0.082  13.263 -0.1987  0.0124  0.3133
44071W        W52671  10.302   1.904   7.929  0.1376 -0.0428 -0.2966
44072W        W52672  23.237   0.725  10.054  0.1593 -0.0213 -0.2555
44073W        W52673  21.605   2.752  26.040  0.1498  0.1402 -0.3447
44074W        W52674   4.531   5.841  21.172  0.1879  0.0200  0.3900
44075W        W52675   6.988   3.857  13.947 -0.2092 -0.3769  0.0318
44076W        W52676  16.170   4.167   3.644 -0.1261 -0.1432  0.2213
44077W        W52677   8.584   4.320   1.806  0.1062  0.1732  0.4096
44078W        W52678  20.794   2.311  13.560  0.3761 -0.0517 -0.0096
44079W        W52679  11.583   6.047  15.421  0.1891  0.0711  0.1702
44080W        W52680   4.866   6.578  32.754 -0.0399  0.2391 -0.2496
44081W        W52681   6.746   1.172  35.054  0.2421  0.0416 -0.2360
44082W        W52682  21.010   2.741   4.350  0.3326  0.2413  0.1846
44083W        W52683   2.445   6.122   8.358 -0.1671  0.5326  0.2287
44084W        W52684  10.927   4.020  25.801  0.0801  0.1782 -0.2133
44085W        W52685   2.270   4.309  24.263  0.3148  0.2465 -0.2559
44086W        W52686   8.412   1.838   4.987  0.3016  0.0865 -0.0447
44087W        W52687  18.901   1.487  24.226 -0.0374  0.2221 -0.0160
44088W        W52688   2.446   2.371   8.132 -0.1046 -0.0210 -0.1335
44089W        W52689   4.070   0.419  12.942 -0.1469 -0.0262  0.0300
44090W        W52690   6.086   6.032   0.073  0.0705 -0.0818  0.4261
44091W        W52691   2.774   2.945  27.236  0.0882 -0.0015  0.2329
44092W        W52692   1.422   1.739  15.492  0.1509 -0.1023  0.0554
44093W        W52693   0.106   3.892  23.594  0.0808 -0.0310  0.0286
44094W        W52694  15.513   5.726  14.906  0.2003 -0.2998  0.1558
44095W        W52695  16.698   2.009  24.817  0.1500  0.1848 -0.0425
44096W        W52696  18.913   6.553  24.438  0.1472  0.0353  0.1420
44097W        W52697  24.836   4.655  21.728 -0.0265  0.2398  0.1596
44098W        W52698   3.933   2.943   4.071 -0.0865  0.0487  0.0021
44099W        W52699  20.698   4.635  10.086 -0.1527 -0.4731  0.1338
44100W        W52700  19.120   2.629  22.423  0.0843  0.0941 -0.1756
44101W        W52701  11.291   6.285   1.409 -0.1246 -0.2165  0.0935
44102W        W52702   6.462   3.644  24.423  0.1935 -0.2754 -0.1023
44103W        W52703  18.287   5.821  21.549  0.2955  0.1036  0.0526
44104W        W52704  16.484   3.429  23.280 -0.1110 -0.4414  0.0859
44105W        W52705   5.530   1.346  31.785  0.1088  0.1942  0.2038
44106W        W52706  23.672   4.579   9.873  0.2226  0.1039  0.0817
44107W        W52707  13.588   0.301  24.005  0.2072  0.0453  0.3646
44108W        W52708   7.450   0.685  34.107  0.1861  0.2371 -0.3110
44109W        W52709   3.828   6.236  11.478  0.1066 -0.1251  0.0938
44110W        W52710   5.728   4.006  26.345  0.0178  0.0776  0.1520
44111W        W52711  13.932   5.673  30.413  0.0739 -0.0181  0.1533
44112W        W52712  24.956   6.496   9.757  0.1864  0.0121  0.0871
44113W        W52713   1.857   2.033  33.916 -0.2666 -0.3754  0.4072
44114W        W52714   8.436   3.259  32.524  0.0408 -0.0042 -0.3098
44115W        W52715  15.022   2.378  26.480 -0.0221 -0.1701 -0.0381
44116W        W52716   7.029   4.956   3.797 -0.0878 -0.0868 -0.0006
44117W        W52717  12.286   2.947  32.389  0.2624  0.0301  0.1242
44118W        W52718  23.994   6.336  35.110  0.3172 -0.2117  0.1365
44119W        W52719   3.665   6.094  10.414 -0.0539  0.4608 -0.2474
44120W        W52720  13.784   4.615  14.673  0.2999 -0.3099 -0.0223
44121W        W52721  16.694   5.354  33.822 -0.1556  0.0700 -0.4547
44122W        W52722  15.148   5.430  11.217  0.2235 -0.1404  0.0337
44123W        W52723  12.927   0.402  33.667 -0.0007  0.0954  0.1691
44124W        W52724   2.917   0.011   6.127  0.2887  0.0458  0.0399
44125W        W52725  16.533   3.330  15.017 -0.1868 -0.1104  0.0402
44126W        W52726  10.304   0.286  13.887 -0.1271 -0.1161  0.0510
44127W        W52727   4.834   6.190  34.100  0.0140  0.0180  0.1206
44128W        W52728  25.311   4.698  27.055 -0.0151  0.0815 -0.1915
44129W        W52729  19.281   2.066  11.093 -0.1354  0.0377  0.0286
44130W        W52730  10.794   2.007  28.418  0.0236 -0.0863 -0.0874
44131W        W52731  25.882   1.518   4.438  0.0792 -0.1238  0.1468
44132W        W52732  26.117   4.707   4.933  0.1949  0.2525  0.0680
44133W        W52733  22.972   1.150   1.884 -0.1018  0.0348  0.1090
44134W        W52734   3.627   0.497   7.502  0.0126 -0.0885 -0.0431
44135W        W52735   4.647   4.842  24.034  0.0351 -0.0413  0.1218
44136W        W52736  24.169   5.588  26.172 -0.0835 -0.2245 -0.1103
44137W        W52737   9.260   3.399  26.930 -0.2018  0.0410  0.2177
44138W        W52738   9.535   4.820  10.058 -0.4108  0.0369 -0.0136
44139W        W52739  11.059   5.599   1.955 -0.0846  0.0285  0.1425
44140W        W52740  20.598   3.979  32.363  0.1796 -0.4874  0.2685
44141W        W52741   8.820   6.380  12.284  0.0976 -0.3827  0.0245
44142W        W52742   7.113   1.177  31.974  0.1034  0.2836 -0.2010
44143W        W52743  11.905   0.399  30.704 -0.5395 -0.1596 -0.0739
44144W        W52744  25.645   5.594  26.004  0.1459 -0.2583  0.2515
44145W        W52745  14.143   0.923   5.828 -0.0005 -0.0166 -0.0566
44146W        W52746  17.579   3.770   6.371  0.0211  0.0597  0.0716
44147W        W52747  25.005   5.151  30.703  0.2512 -0.2081  0.1038
44148W        W52748  24.854   1.699   5.467  0.1098 -0.1592 -0.1654
44149W        W52749  11.044   4.846   4.090 -0.0082 -0.0127  0.0600
44150W        W52750  10.872   1.038  11.617  0.0533  0.1224  0.1305
44151W        W52751  19.616   5.022  30.342 -0.0168  0.1051  0.0670
44152W        W52752  15.062   3.761  20.726  0.1977  0.1056  0.1682
44153W        W52753   3.960   3.532  35.118  0.1619 -0.1229  0.5045
44154W        W52754  16.031   5.620  12.385  0.1069  0.0010 -0.3852
44155W        W52755  14.063   4.851  28.888 -0.1130 -0.0427 -0.1784
44156W        W52756  17.973   2.644   5.023  0.2032 -0.1650  0.0171
44157W        W52757   9.049   1.400  20.222  0.1281  0.0793  0.1109
44158W        W52758  24.085   4.977  23.369 -0.0573 -0.1823  0.0380
44159W        W52759  20.694   1.908  10.417  0.1958  0.0301 -0.2239
44160W        W52760  11.506   1.259   6.956  0.1558  0.1358 -0.4642
44161W        W52761   1.158   2.452  33.359 -0.0569  0.0737  0.2847
44162W        W52762   2.316   4.442  28.697 -0.0570 -0.3490  0.0726
44163W        W52763  14.330   5.221  15.336 -0.3462  0.4440 -0.0816
44164W        W52764   4.824   5.612   8.093 -0.2452  0.0140 -0.2934
44165W        W52765  10.100   5.235   1.136  0.0375  0.3653  0.1857
44166W        W52766   0.957   2.922   3.173 -0.0808  0.2477  0.2583
44167W        W52767  17.888   3.848  35.133  0.0027  0.2465 -0.2706
44168W        W52768  23.557   3.255  35.740  0.2698 -0.0702 -0.2648
44169W        W52769  11.748   6.151  30.990 -0.1952  0.1852  0.1365
44170W        W52770   4.819   3.952   8.491  0.1010  0.3808  0.0693
44171W        W52771   0.386   1.789  12.528  0.0309 -0.0404 -0.1180
44172W        W52772   0.320   2.117  30.482  0.0892  0.0058 -0.0333
44173W        W52773  18.330   3.943  32.125 -0.0798  0.1076  0.2076
44174W        W52774  18.191   0.778  32.646  0.1644  0.0829 -0.0343
44175W        W52775  25.568   4.166  12.449 -0.0798 -0.0037  0.0857
44176W        W52776  10.322   3.436  12.124 -0.0991  0.3401 -0.0593
44177W        W52777   4.966   4.269   7.638 -0.0596 -0.2564  0.0654
44178W        W52778   4.117   5.970   0.352 -0.1410  0.0152 -0.2664
44179W        W52779  19.026   1.150   0.176  0.1661  0.0141 -0.1324
44180W        W52780   5.083   3.326  35.417 -0.3408  0.1710 -0.0383
44181W        W52781   1.376   2.860  29.097  0.2124  0.0558  0.2223
44182W        W52782   7.830   5.106  29.609 -0.2096 -0.5793 -0.0834
44183W        W52783  12.862   6.150  32.329  0.2724 -0.1033  0.1847
44184W        W52784  11.026   2.931  12.674 -0.1853  0.1614 -0.2125
44185W        W52785  13.584   6.271  12.336 -0.0629 -0.1381 -0.3030
44186W        W52786  14.916   5.670   2.504  0.0001 -0.1777 -0.0204
44187W        W52787   1.860   3.745   6.177  0.3539 -0.0387 -0.3083
44188W        W52788  24.995   5.353   6.207 -0.0460 -0.3436  0.2528
44189W        W52789  16.065   3.792  35.047 -0.0579  0.0619  0.2039
44190W        W52790  18.863   2.469  36.093 -0.1561 -0.1471 -0.0826
44191W        W52791  14.663   3.132  22.594  0.0610  0.0637 -0.1962
44192W        W52792  20.336   1.160   1.281 -0.0218  0.0584  0.0023
44193W        W52793  16.509   5.704  33.030  0.3612 -0.2466  0.2172
44194W        W52794   9.293   4.853   7.869  0.1532 -0.1658 -0.0827
44195W        W52795  15.756   1.475   6.725 -0.1057  0.4083  0.1685
44196W        W52796   3.530   2.533  27.369 -0.2602 -0.0811  0.0647
44197W        W52797  19.922   5.377   0.648  0.1096  0.2486  0.3342
44198W        W52798  13.246   0.767  26.724 -0.0121 -0.0313 -0.2215
44199W        W52799  15.124   6.560   6.552  0.2559  0.0143 -0.3783
44200W        W52800  22.279   1.381   6.872  0.0996 -0.1130 -0.2190
44201W        W52801  13.121   1.725  26.309  0.3331 -0.0594  0.1049
44202W        W52802  24.145   5.802  32.386 -0.2617  0.0774 -0.0556
44203W        W52803  13.592   5.666   2.257  0.0440  0.1913  0.6306
44204W        W52804   1.500   1.228  32.151  0.0609 -0.4175  0.0898
44205W        W52805  16.339   4.031  14.531 -0.1336  0.2152  0.0235
44206W        W52806  14.550   3.041   9.868  0.0135 -0.0761  0.0525
44207W        W52807  19.546   1.137   0.193 -0.3174  0.2285  0.0223
44208W        W52808  16.109   2.402  14.889 -0.3036 -0.1169 -0.0948
44209W        W52809  22.417   3.106  28.669 -0.2304  0.0133 -0.2297
44210W        W52810  20.721   0.260  12.729 -0.0406  0.3053 -0.2072
44211W        W52811  26.129   6.582  35.877  0.1229 -0.1016  0.1069
44212W        W52812  22.945   3.325   8.391  0.2141  0.0213 -0.3050
44213W        W52813   1.068   0.376   6.453  0.2012 -0.1472 -0.3908
44214W        W52814  13.757   3.360  34.046 -0.1361 -0.0568 -0.1430
44215W        W52815  24.876   0.211  25.717 -0.1803  0.0270  0.1738
44216W        W52816   2.290   4.929   8.981 -0.1275  0.1888  0.0743
44217W        W52817   0.423   4.098  30.788  0.0772  0.0598  0.0636
44218W        W52818  17.245   6.359   6.950 -0.0172 -0.0574  0.4751
44219W        W52819  20.851   3.795  34.400 -0.1675 -0.0735 -0.2564
44220W        W52820  24.943   6.053   8.995  0.1317 -0.1128  0.0736
44221W        W52821  13.077   0.408  15.271  0.1113 -0.0821  0.3095
44222W        W52822  18.267   5.750   3.073  0.1383 -0.0670 -0.1475
44223W        W52823  20.578   2.083  29.852 -0.3573 -0.0557 -0.2785
44224W        W52824  25.944   3.109  10.641 -0.2246  0.2925  0.1512
44225W        W52825  12.344   5.912  25.072 -0.0270 -0.2520  0.3497
44226W        W52826  20.022   2.186  35.542 -0.3475 -0.1500  0.4148
44227W        W52827  17.057   3.963  11.070  0.0644 -0.1140 -0.0845
44228W        W52828   2.939   0.534  12.771  0.0198 -0.0131  0.0564
44229W        W52829  25.224   1.024  24.788 -0.0499 -0.0414 -0.0785
44230W        W52830   1.045   4.001  32.656 -0.1381  0.1334 -0.0834
44231W        W52831   2.386   0.928  21.695 -0.2901 -0.0564 -0.2044
44232W        W52832  25.322   4.975  15.840  0.3818  0.1212  0.2514
44233W        W52833  14.656   2.753  28.028 -0.0155 -0.0546 -0.1971
44234W        W52834  19.596   0.138  27.024  0.2252  0.1250 -0.3976
44235W        W52835   8.076   5.154  15.016 -0.1976 -0.0256  0.0135
44236W        W52836  17.863   0.474  34.288 -0.0572 -0.1056  0.2693
44237W        W52837   6.014   5.869  24.524  0.1229 -0.0872  0.0236
44238W        W52838   9.021   4.716   3.137 -0.0301 -0.2555  0.2231
44239W        W52839   3.330   0.961  24.805  0.0336 -0.2723 -0.2079
44240W        W52840   2.991   6.326  14.871 -0.3272 -0.1303  0.0788
44241W        W52841  16.329   5.780  11.971 -0.2962  0.0870  0.0515
44242W        W52842  23.081   4.001   6.102  0.3763 -0.1107 -0.0646
44243W        W52843  18.005   5.913  11.542 -0.1559  0.0145  0.0938
44244W        W52844  24.707   2.306   2.785 -0.1179 -0.0584 -0.0680
44245W        W52845  14.245   6.287   8.537 -0.1655  0.0598  0.1728
44246W        W52846  13.104   4.475   3.306 -0.1396 -0.1682 -0.3469
44247W        W52847  14.229   2.853  14.742  0.0637  0.1030 -0.0202
44248W        W52848   6.664   5.048  24.632 -0.0773  0.0262 -0.2246
44249W        W52849  18.511   0.454  11.558 -0.2234  0.1509 -0.0391
44250W        W52850   5.855   2.234  28.734  0.1461 -0.0566  0.3363
44251W        W52851   5.858   2.575   9.068  0.0660 -0.0054  0.1581
44252W        W52852  11.813   2.331  24.292 -0.0093 -0.2330  0.0823
44253W        W52853  19.878   5.452  21.637  0.0728  0.0004 -0.0252
44254W        W52854  18.515   5.485  22.825 -0.1204 -0.2431 -0.1550
44255W        W52855  17.395   3.554   5.878  0.0172  0.2057  0.1593
44256W        W52856   1.945   3.692  25.537 -0.0487 -0.0424  0.1204
44257W        W52857  15.797   6.170   5.312  0.3530  0.0375  0.0557
44258W        W52858   5.210   2.243  22.003  0.0745 -0.0828  0.1554
44259W        W52859   9.402   0.408  33.297 -0.0020  0.1781 -0.0220
44260W        W52860  26.298   4.844  29.296 -0.1800  0.1529  0.2259
44261W        W52861   9.932   0.866  30.889  0.2544  0.2457 -0.0328
44262W        W52862   8.001   1.934  11.064 -0.0726 -0.0198  0.0204
44263W        W52863  20.109   6.480   8.065 -0.2404 -0.0859 -0.0173
44264W        W52864  11.395   1.126  21.526  0.0908 -0.0326  0.1357
44265W        W52865  21.579   5.896  10.759  0.4607  0.0702 -0.3901
44266W        W52866  25.444   4.208   7.337  0.0971 -0.0272  0.1835
44267W        W52867  17.859   0.493  24.861  0.0018  0.1707  0.0111
44268W        W52868  18.092   0.250  11.340  0.1818  0.3288  0.0424
44269W        W52869   7.953   1.601  32.086 -0.0488  0.0886  0.1567
44270W        W52870  17.366   6.479   7.940 -0.0163  0.1170  0.2398
44271W        W52871   6.205   0.008  27.264  0.0237  0.0537  0.1074
44272W        W52872   6.131   2.774  13.266 -0.1115 -0.1504  0.1063
44273W        W52873   0.960   5.710  28.017  0.0382 -0.1861 -0.1062
44274W        W52874  16.058   6.174  31.505  0.0709 -0.0155 -0.3639
44275W        W52875  21.470   2.686  23.680 -0.1294  0.1602  0.1115
44276W        W52876   9.486   4.770  31.846  0.1636 -0.0164  0.2724
44277W        W52877  23.957   5.474   1.363  0.0986 -0.2363 -0.1836
44278W        W52878  13.969   6.552  13.360  0.0078  0.4509 -0.0612
44279W        W52879   7.965   2.462  23.080 -0.2114  0.0077  0.1032
44280W        W52880  21.977   0.122  34.847  0.1291  0.0831  0.1126
44281W        W52881   4.189   1.700  34.139 -0.3274 -0.0165  0.2228
44282W        W52882   0.185   4.856  12.051  0.0926  0.1642 -0.0294
44283W        W52883  19.675   1.823  31.329 -0.1887  0.1042  0.0803
44284W        W52884   1.337   1.735  13.621 -0.0980 -0.3061  0.1420
44285W        W52885  10.038   0.052  30.362  0.1349 -0.1085  0.1811
44286W        W52886  24.144   2.127   5.364  0.3336  0.0884  0.1900
44287W        W52887  16.243   1.183  31.669  0.3235 -0.0644  0.0942
44288W        W52888  19.376   2.794   9.243  0.2396  0.0416 -0.0607
44289W        W52889  18.909   5.511   2.474 -0.2547 -0.3890  0.2250
44290W        W52890  25.877   3.317  30.471  0.1728  0.0104 -0.0616
44291W        W52891   9.631   5.264   6.952  0.1197 -0.2296  0.0257
44292W        W52892   8.187   0.977   7.385  0.0372  0.1978 -0.0797
44293W        W52893   0.552   4.927  22.845  0.3467 -0.1253  0.1622
44294W        W52894  13.086   1.569   6.953  0.2128  0.3930  0.0395
44295W        W52895   5.667   1.262  23.204  0.2651  0.3463  0.1723
44296W        W52896  13.502   5.807  25.666  0.2611 -0.2713  0.0648
44297W        W52897  16.876   2.006  15.307  0.2893 -0.1995  0.2241
44298W        W52898  12.425   1.358  14.072 -0.0400  0.0224 -0.1527
44299W        W52899   2.762   4.536  24.103  0.1798  0.0489  0.1273
44300W        W52900  25.947   5.376  14.535  0.3150  0.0619 -0.5296
44301W        W52901   5.167   6.451  27.548  0.2391  0.1435  0.4347
44302W        W52902   0.356   0.892   1.691  0.1158  0.0272 -0.0953
44303W        W52903  11.569   5.477  30.440  0.0539 -0.3733 -0.0583
44304W        W52904   4.636   6.574  15.009  0.0031 -0.2040  0.3972
44305W        W52905   5.078   0.391  31.625 -0.2570 -0.1630  0.1073
44306W        W52906  24.487   3.070  31.629  0.0934 -0.2229 -0.1047
44307W        W52907  22.816   1.660   2.785  0.0773  0.1021  0.0326
44308W        W52908  11.944   1.830  22.552  0.0865 -0.2162  0.1659
44309W        W52909  22.871   0.818  26.559 -0.0754  0.1855 -0.2033
44310W        W52910   1.652   2.502  23.650 -0.0866 -0.0702 -0.2570
44311W        W52911   1.515   5.944  32.382  0.3222  0.0541 -0.0838
44312W        W52912   2.348   1.644  28.760 -0.2470  0.0003 -0.1263
44313W        W52913  15.494   3.447  11.644 -0.2077  0.0182 -0.0488
44314W        W52914  11.453   1.501  14.410  0.2384  0.1538 -0.4109
44315W        W52915  20.014   3.913  10.859 -0.0191  0.0861  0.0359
44316W        W52916  12.358   2.482  15.454 -0.0868 -0.2292 -0.0723
44317W        W52917   0.786   5.484   0.265 -0.0333 -0.3906  0.1857
44318W        W52918  25.811   1.652  28.968 -0.0104  0.0275  0.2882
44319W        W52919   8.278   3.082  13.103 -0.0946  0.4096  0.0637
44320W        W52920  16.249   2.975   3.057 -0.0589 -0.0974 -0.2891
44321W        W52921  10.481   3.384   0.047 -0.0775  0.0849 -0.0717
44322W        W52922  22.393   1.887  15.998 -0.2021  0.3315 -0.0641
44323W        W52923   7.715   5.846  33.529  0.1895  0.3219 -0.1204
44324W        W52924   2.269   2.290   0.660  0.0154  0.3442 -0.1586
44325W        W52925  10.941   4.333   7.420 -0.1593 -0.1292  0.0023
44326W        W52926   5.051   5.436   2.321 -0.1835  0.1766  0.0818
44327W        W52927  24.979   2.012  21.891  0.0419  0.2520 -0.0581
44328W        W52928  12.828   5.207  29.016  0.3653 -0.0857 -0.3077
44329W        W52929   7.951   0.462  26.381  0.1338 -0.0897  0.0900
44330W        W52930  20.613   3.466  25.819  0.3391  0.2890  0.0193
44331W        W52931  15.769   6.348  34.168 -0.1760 -0.0908 -0.2349
44332W        W52932  25.583   3.318  21.240  0.2068 -0.1309 -0.2924
44333W        W52933  20.933   4.504   8.694  0.2459 -0.0039  0.0593
44334W        W52934  16.338   1.335  35.998  0.0377  0.1596  0.0968
44335W        W52935  19.453   6.210  12.496 -0.0582 -0.0398 -0.2790
44336W        W52936  22.656   1.152   1.069  0.1276 -0.1551 -0.2970
44337W        W52937  11.154   6.572   7.819 -0.3339  0.1496  0.0665
44338W        W52938  20.171   3.024  14.225 -0.1521 -0.2083 -0.2481
44339W        W52939   3.274   0.736   0.401  0.0288  0.1115  0.2359
44340W        W52940  23.608   4.065  35.438  0.1032 -0.0116  0.0869
44341W        W52941   8.990   4.237   5.773  0.0041  0.3482 -0.1712
44342W        W52942   6.676   3.963   0.479  0.1424 -0.2379 -0.1259
44343W        W52943  12.351   0.740  13.152  0.0169  0.0957 -0.0829
44344W        W52944  13.564   1.944  26.178 -0.0622  0.0842 -0.1705
44345W        W52945  16.710   1.170   3.369  0.0768 -0.0056  0.3782
44346W        W52946  22.603   2.330  11.854 -0.1058 -0.2740 -0.0047
44347W        W52947   3.642   6.035   3.363  0.3554  0.0794 -0.0565
44348W        W52948  17.387   1.484   0.312  0.1808 -0.1436  0.2284
44349W        W52949  20.351   0.453   2.543 -0.2283  0.1325  0.0261
44350W        W52950  26.188   0.067   3.474  0.2642  0.0409  0.3028
44351W        W52951  14.385   2.504   1.268 -0.0437 -0.3504  0.3045
44352W        W52952  11.534   5.641  34.252  0.1382  0.2362 -0.3506
44353W        W52953   6.220   0.987  34.207 -0.0816 -0.0914  0.0717
44354W        W52954  19.557   4.702  11.695 -0.2315  0.3910  0.0869
44355W        W52955  17.620   3.417  30.526 -0.1035  0.0047  0.3881
44356W        W52956  13.811   3.277   8.108  0.1219 -0.1092  0.1633
44357W        W52957   0.329   1.538  33.115  0.0595 -0.5084  0.3031
44358W        W52958  19.367   0.591   7.728 -0.0876 -0.1029  0.1781
44359W        W52959  16.605   2.023  13.981  0.1514 -0.0686 -0.0815
44360W        W52960   5.140   6.316   6.756 -0.2155 -0.3926  0.2128
44361W        W52961   5.474   4.759  11.908  0.1894  0.0867  0.1563
44362W        W52962   6.948   4.732  32.773 -0.0295 -0.1679  0.2628
44363W        W52963   7.745   5.961  34.096 -0.0956  0.1889 -0.0429
44364W        W52964  17.565   3.061  12.007  0.1675  0.2413  0.1669
44365W        W52965  11.665   6.067  32.986 -0.1523  0.3419 -0.0353
44366W        W52966  19.494   1.909   8.730  0.0213 -0.3347 -0.1260
44367W        W52967   9.622   1.583   5.860  0.2050  0.2906  0.0910
44368W        W52968   0.678   5.240   1.950  0.2046 -0.1271 -0.2275
44369W        W52969  11.225   0.846  35.094 -0.1515  0.1464  0.0971
44370W        W52970  25.057   4.247   8.172 -0.0733 -0.3701 -0.1691
44371W        W52971  12.955   3.319  25.081  0.0562  0.1190  0.0973
44372W        W52972  14.309   1.246  28.788 -0.0044  0.1172 -0.0995
44373W        W52973   5.840   5.436  25.732  0.2116  0.2602 -0.2062
44374W        W52974   3.278   5.301  28.371 -0.0745 -0.1465  0.2009
44375W        W52975   9.118   2.622   1.979  0.1203  0.1196 -0.2447
44376W        W52976  23.209   1.750  30.425 -0.0099 -0.0152 -0.1771
44377W        W52977   6.973   6.458  12.675 -0.1145 -0.0853 -0.2737
44378W        W52978   5.863   2.572  28.236  0.0963 -0.0091  0.3593
44379W        W52979  10.419   4.460  35.443 -0.1001  0.2168 -0.1359
44380W        W52980  20.245   1.227  24.321  0.0581 -0.0536 -0.0124
44381W        W52981  22.743   4.943  14.860  0.0163 -0.2312 -0.2029
44382W        W52982  20.170   4.849  12.440 -0.0527  0.2860 -0.2150
44383W        W52983   4.826   2.907  15.101 -0.1274 -0.3436  0.0050
44384W        W52984  23.386   4.985  30.925  0.3997  0.0901  0.0733
44385W        W52985  15.484   0.340  22.128 -0.6190 -0.0157 -0.1520
44386W        W52986   9.210   5.667  35.982  0.1416  0.1495 -0.2092
44387W        W52987  12.887   3.750   0.978  0.0866  0.1195 -0.0895
44388W        W52988  20.230   5.834  15.278 -0.1988  0.0441 -0.0090
44389W        W52989   9.551   5.809  22.010 -0.1681 -0.0783 -0.1064
44390W        W52990  26.005   2.248  12.885 -0.0659  0.0388 -0.0627
44391W        W52991   4.278   6.012   5.038 -0.0782 -0.0496  0.0887
44392W        W52992  21.274   6.252   6.794  0.2222 -0.1626  0.1556
44393W        W52993  12.667   6.445   2.378 -0.1267  0.3119  0.0835
44394W        W52994  18.000   2.762  35.949  0.0372 -0.0127  0.2435
44395W        W52995   1.149   0.602   2.935  0.0926  0.0705 -0.1665
44396W        W52996   2.367   3.870   3.596 -0.2315  0.0596 -0.1552
44397W        W52997  21.228   0.388  32.252 -0.1014  0.1941  0.1642
44398W        W52998   8.917   2.915   3.598  0.3214 -0.0349  0.0755
44399W        W52999   5.165   0.389  34.674 -0.1417  0.0612 -0.0703
44400W        W53000  11.305   1.906  12.408  0.3114  0.0380 -0.1186
44401W        W53001   1.630   4.964   4.975 -0.1887 -0.0227 -0.0234
44402W        W53002   6.119   0.997  35.738  0.2766 -0.0208 -0.2390
44403W        W53003  15.063   2.195  12.426 -0.2038 -0.0333 -0.2277
44404W        W53004   1.817   5.996   5.891 -0.0351  0.1065  0.0093
44405W        W53005   2.074   5.492  24.547 -0.1154 -0.3272  0.1020
44406W        W53006   9.536   1.244  24.472  0.1627  0.3227 -0.1755
44407W        W53007   8.568   2.887  24.216  0.2019  0.3613  0.1538
44408W        W53008   6.533   1.262  27.765  0.2000 -0.0295 -0.1284
44409W        W53009  24.980   1.711  30.382 -0.1827 -0.1419 -0.4648
44410W        W53010  14.526   2.740   0.044 -0.1851 -0.1131  0.0165
44411W        W53011  25.806   6.165   8.425  0.2543 -0.0756 -0.2216
44412W        W53012  23.129   3.572   3.724 -0.1314 -0.0286  0.0277
44413W        W53013  17.414   0.830   0.764  0.1450  0.0173 -0.0996
44414W        W53014  12.753   5.903  26.538  0.2770  0.0487  0.3364
44415W        W53015  15.544   2.009  27.436  0.2762 -0.1938  0.3336
44416W        W53016  20.985   0.949   1.955 -0.1381 -0.0703 -0.0324
44417W        W53017  16.590   6.224  28.373  0.0408 -0.1007 -0.2914
44418W        W53018  24.120   0.979   9.847 -0.1559  0.0747  0.2767
44419W        W53019   7.243   2.666  27.236  0.1127  0.2164 -0.0647
44420W        W53020  14.029   5.277  26.393 -0.1453 -0.0026 -0.1978
44421W        W53021   0.465   4.572  35.447 -0.0135  0.1059  0.4046
44422W        W53022   9.542   0.188   5.858 -0.0917  0.0299  0.1669
44423W        W53023   2.480   2.440   3.555  0.1575  0.1284  0.0335
44424W        W53024  21.260   2.833  22.851  0.4470 -0.1190 -0.1746
44425W        W53025  10.066   0.715  14.805 -0.0493 -0.4432  0.0026
44426W        W53026   6.353   5.640   0.348 -0.2028 -0.1426 -0.0551
44427W        W53027   3.173   1.591   1.990  0.0996  0.2185 -0.0264
44428W        W53028  24.670   5.106  27.429  0.1792 -0.0807  0.2199
44429W        W53029  19.887   0.128  10.958 -0.1219  0.4209 -0.0322
44430W        W53030  16.727   6.422  10.540 -0.1803  0.1154  0.1281
44431W        W53031  15.932   2.442  23.350  0.0782  0.0440  0.0167
44432W        W53032  12.906   3.106  31.744  0.0800 -0.1637  0.1018
44433W        W53033   9.302   6.520  10.648  0.0390 -0.3326  0.0059
44434W        W53034  25.924   3.273  32.344  0.1301  0.2338 -0.0043
44435W        W53035  12.391   2.380   1.093 -0.1199  0.3107 -0.1424
44436W        W53036   2.900   0.814  24.001  0.0520 -0.0179  0.2004
44437W        W53037   3.942   5.988   6.049  0.0583  0.2814  0.0901
44438W        W53038  20.497   1.557  21.793  0.0252  0.1571 -0.1038
44439W        W53039  16.283   1.857  25.182  0.0329  0.2008 -0.1551
44440W        W53040  24.230   4.167  12.763 -0.0778  0.0366  0.1232
44441W        W53041  24.764   3.671   8.328  0.2043  0.0769  0.1049
44442W        W53042  14.915   4.521   9.581 -0.0053  0.1059  0.1349
44443W        W53043   1.847   6.247   5.113 -0.0782  0.0304  0.0544
44444W        W53044  21.339   0.606  29.631 -0.0977  0.0891 -0.1596
44445W        W53045  19.451   5.961   9.181 -0.3107 -0.0480 -0.1440
44446W        W53046  18.447   2.722   6.054 -0.2485 -0.2840 -0.2188
44447W        W53047  17.127   6.449  24.719  0.0984  0.1980  0.0421
44448W        W53048  18.484   6.520  33.702  0.0826  0.1168  0.1051
44449W        W53049  14.151   4.851  29.477  0.1577  0.0578 -0.2042
44450W        W53050   0.334   2.340  35.227  0.1349 -0.0285  0.4074
44451W        W53051  10.802   4.884  20.289  0.1842  0.2496  0.2055
44452W        W53052  14.135   4.116  10.396  0.3336  0.3646  0.6059
44453W        W53053  16.266   3.854  26.281  0.0681 -0.0228  0.4583
44454W        W53054  19.856   4.856  21.113  0.1536 -0.0388 -0.2954
44455W        W53055  12.489   1.412  28.518  0.2078 -0.0548  0.2046
44456W        W53056  10.747   4.337   6.624 -0.2559  0.0699  0.0495
44457W        W53057   7.247   3.095   8.365  0.1223 -0.1836 -0.0666
44458W        W53058  22.940   6.131  13.326 -0.1820  0.0813 -0.2066
44459W        W53059  17.740   1.125  32.511 -0.1110  0.0460  0.0948
44460W        W53060  10.908   3.412  34.998 -0.2027 -0.0179 -0.1222
44461W        W53061   3.120   3.054  13.365 -0.0780  0.1004 -0.2336
44462W        W53062  12.363   0.087  34.374  0.1717 -0.2284 -0.0489
44463W        W53063   7.785   0.958   7.975  0.1552 -0.0195  0.0922
44464W        W53064  21.232   4.919  26.296  0.2508  0.0083 -0.1778
44465W        W53065  20.583   3.463   0.559  0.1202 -0.1821 -0.3013
44466W        W53066  20.050   4.171   9.692 -0.2166 -0.2125 -0.0576
44467W        W53067   6.488   2.422   1.349 -0.3543 -0.3025  0.2674
44468W        W53068   1.135   5.108  25.621 -0.0631 -0.2061 -0.0897
44469W        W53069  17.986   4.171   6.714  0.1401 -0.1553  0.1409
44470W        W53070  13.996   0.793   7.865  0.2734  0.2040  0.0418
44471W        W53071   6.253   0.104  30.425 -0.3601  0.2242  0.1050
44472W        W53072  22.785   4.799  27.253 -0.0063  0.1100 -0.1752
44473W        W53073  13.387   6.381  11.885 -0.1760  0.4012  0.2921
44474W        W53074  17.854   0.539  27.481  0.0814 -0.0999  0.1037
44475W        W53075   0.649   1.595   0.031 -0.0610 -0.1223  0.1003
44476W        W53076   1.230   4.434   6.934 -0.1790  0.1081 -0.0985
44477W        W53077  10.997   1.143   0.313 -0.1683  0.0593  0.0974
44478W        W53078  21.820   5.873  34.571 -0.1097  0.1107 -0.0658
44479W        W53079  20.467   2.862  16.196  0.1585 -0.1043 -0.0722
44480W        W53080  23.664   1.614  29.312  0.1581 -0.0870 -0.0411
44481W        W53081   2.541   3.061   9.377  0.2534  0.0123  0.3653
44482W        W53082  21.079   3.744  32.295 -0.0153 -0.1025 -0.1732
44483W        W53083   7.851   5.164  32.563  0.1655 -0.0618  0.1320
44484W        W53084  12.654   0.338   9.530 -0.2454 -0.1717 -0.1406
44485W        W53085   7.527   4.353  27.765 -0.1212 -0.0929 -0.4333
44486W        W53086   4.880   4.476  27.047 -0.1691 -0.0254  0.0837
44487W        W53087  11.473   3.133  26.800  0.2419  0.2675  0.5475
44488W        W53088  18.836   0.177  32.428  0.0522  0.1277  0.1238
44489W        W53089  22.383   4.075  15.853 -0.3831  0.2000 -0.0033
44490W        W53090   6.167   2.399   0.419  0.0038 -0.0497 -0.2944
44491W        W53091   0.773   5.484  15.166  0.0526  0.4408 -0.0051
44492W        W53092  26.060   6.456  34.079 -0.0966  0.1183 -0.2207
44493W        W53093  11.572   1.842  32.549 -0.2739  0.1721  0.0645
44494W        W53094   3.166   1.251   3.826  0.1857  0.0647  0.0793
44495W        W53095  18.104   0.709  12.515 -0.0949 -0.0530 -0.0846
44496W        W53096   3.658   1.659  25.113  0.1187  0.1143 -0.1890
44497W        W53097   1.843   4.638  26.918  0.1453 -0.2169  0.2443
44498W        W53098   6.015   1.787  25.522  0.0823  0.1546  0.1436
44499W        W53099  12.407   5.423  30.548  0.2247  0.3060 -0.0273
44500W        W53100  21.210   2.184  33.070 -0.1211 -0.1320  0.1622
44501W        W53101  26.109   5.648   9.177  0.1258 -0.3366  0.1907
44502W        W53102  18.406   0.320  34.325 -0.1097  0.1480  0.0227
44503W        W53103  23.147   6.212  21.876  0.1252 -0.0615 -0.2483
44504W        W53104   3.720   4.762   3.876  0.0894  0.1007 -0.0764
44505W        W53105  10.113   1.932  22.841 -0.2086  0.1012 -0.2892
44506W        W53106  26.431   6.204   7.714  0.1936  0.2186  0.0120
44507W        W53107  22.139   4.961  14.339  0.1804 -0.2706  0.1501
44508W        W53108  16.653   1.550  12.578  0.0227  0.0457  0.1056
44509W        W53109  13.684   4.600   8.726 -0.0775  0.0052  0.0274
44510W        W53110  13.536   3.857  22.273 -0.3174 -0.2121 -0.1517
44511W        W53111  21.740   1.243  11.579  0.1488 -0.4075  0.0754
44512W        W53112  17.433   4.266   3.649  0.1536 -0.3686 -0.0237
44513W        W53113  23.424   1.217  31.827  0.2885  0.2608 -0.0210
44514W        W53114   4.645   1.053   9.268  0.0874 -0.1852 -0.1039
44515W        W53115  13.342   2.362  31.584 -0.3962  0.3254  0.0430
44516W        W53116  12.571   2.999   5.881 -0.1950 -0.0912  0.2236
44517W        W53117  18.829   5.289   4.531 -0.1058 -0.4485 -0.5150
44518W        W53118  24.707   4.428  35.535  0.0680  0.0420 -0.0165
44519W        W53119   7.560   4.890   9.246  0.2252 -0.3383  0.0872
44520W        W53120  19.111   2.915   7.799 -0.3742  0.2127 -0.0304
44521W        W53121   5.858   5.752   7.937  0.2399  0.0006  0.0162
44522W        W53122  19.574   4.186  26.891  0.4139  0.0259  0.0100
44523W        W53123  18.696   3.862  22.373 -0.1306 -0.0564  0.0524
44524W        W53124   9.995   1.239  10.520  0.0954 -0.0743  0.0451
44525W        W53125  16.770   0.007   7.182  0.0039 -0.0888 -0.0701
44526W        W53126  13.194   1.113  21.830 -0.0881  0.0630  0.4641
44527W        W53127  13.171   6.403   9.986  0.0643 -0.1251 -0.1896
44528W        W53128  16.406   0.128   4.243  0.2417 -0.1075  0.1270
44529W        W53129  22.046   5.784  33.700 -0.2503  0.0984  0.0411
44530W        W53130   0.061   5.199  11.050  0.3158  0.0002 -0.0633
44531W        W53131   5.920   5.323  28.868 -0.2594 -0.3414 -0.3409
44532W        W53132  16.872   1.677   1.056  0.3595 -0.0718  0.3773
44533W        W53133   4.952   0.383  33.082  0.0982 -0.1050 -0.2070
44534W        W53134   8.441   4.086   8.146  0.1062  0.1524  0.0605
44535W        W53135   9.501   3.041   7.470 -0.2765  0.2204  0.1069
44536W        W53136  20.647   3.632  23.022  0.3169  0.1721 -0.1270
44537W        W53137  18.725   4.246  29.234 -0.0485 -0.2546 -0.2273
44538W        W53138   7.535   5.516  32.694 -0.0677  0.0299 -0.1630
44539W        W53139  23.090   4.332  13.615  0.2319 -0.3509  0.0585
44540W        W53140  18.510   5.814  31.863  0.0077 -0.0958  0.1614
44541W        W53141   3.755   2.579   5.417  0.0519  0.0920  0.2145
44542W        W53142  24.052   2.847   4.675  0.1619  0.0727 -0.0347
44543W        W53143   9.958   1.517   2.086  0.2973 -0.2663 -0.1195
44544W        W53144  18.362   3.427  25.618  0.0076 -0.0009  0.0758
44545W        W53145  22.661   6.120  29.491 -0.0104 -0.1545  0.0935
44546W        W53146  24.030   2.922  22.587 -0.1041 -0.1800  0.3083
44547W        W53147  16.862   1.226  11.064 -0.0702  0.0675  0.0359
44548W        W53148  22.477   4.262  23.968  0.0524 -0.2179  0.3810
44549W        W53149  11.661   4.090  28.188  0.1489 -0.0177 -0.0031
44550W        W53150   6.002   6.100  35.121  0.0502 -0.2376 -0.1508
44551W        W53151  20.644   3.378  11.894  0.0558 -0.0789  0.0890
44552W        W53152  16.159   2.892   2.571  0.0985 -0.2946  0.1207
44553W        W53153   3.185   1.760  32.108  0.0208  0.3083 -0.1293
44554W        W53154  24.147   4.969  10.146  0.2784  0.1624 -0.0263
44555W        W53155  23.678   1.705  30.441 -0.1551  0.3067  0.0676
44556W        W53156   0.823   3.013  28.321 -0.2941  0.2350  0.0367
44557W        W53157  18.612   2.900  13.052 -0.0768 -0.1227  0.3240
44558W        W53158  26.015   3.906  10.260 -0.0539  0.1484  0.1137
44559W        W53159   2.581   1.035   1.120  0.0911 -0.1230 -0.2223
44560W        W53160   1.904   2.946  20.896 -0.0622  0.2871  0.2079
44561W        W53161  10.035   5.537  21.560 -0.0389  0.1726  0.1235
44562W        W53162   4.903   1.442   7.208  0.0923 -0.2472  0.5049
44563W        W53163  17.981   4.117  24.065 -0.0120  0.1985  0.0550
44564W        W53164   0.719   6.442   9.582  0.1220  0.0164  0.2089
44565W        W53165   2.266   5.943   7.865  0.1193  0.1571 -0.1003
44566W        W53166   4.259   5.113   5.691 -0.3671  0.2476 -0.2940
44567W        W53167  21.740   1.928  13.618  0.2620 -0.1513  0.1924
44568W        W53168  23.633   6.426  14.704  0.2267 -0.0079 -0.0850
44569W        W53169  13.221   0.148   2.756  0.0188  0.0140  0.1744
44570W        W53170   9.985   4.611   9.761  0.0025 -0.2879  0.1195
44571W        W53171  21.907   5.593  35.849 -0.0936 -0.2710  0.1889
44572W        W53172   8.784   1.454  20.633  0.2838 -0.3193  0.1451
44573W        W53173  19.835   3.346   4.409 -0.1077 -0.1465  0.1382
44574W        W53174   7.982   0.814  15.708  0.0256 -0.0478 -0.0499
44575W        W53175   6.993   2.785  30.411  0.4584 -0.2945  0.4423
44576W        W53176   1.689   5.436   5.243 -0.0971  0.0158  0.1624
44577W        W53177  20.199   0.094   0.631 -0.0955 -0.2320  0.3638
44578W        W53178   4.172   1.497  25.748  0.3477 -0.2792 -0.0146
44579W        W53179  21.541   6.028  11.757  0.0609 -0.1798 -0.1464
44580W        W53180  24.286   1.447   2.379 -0.4375  0.2408  0.0750
44581W        W53181  11.909   3.976  21.364 -0.4755 -0.2797 -0.1007
44582W        W53182  19.057   1.724   8.618 -0.0220  0.0220 -0.1358
44583W        W53183   4.889   4.017  34.956  0.3235 -0.0408  0.1841
44584W        W53184   6.480   6.052  20.712  0.3659 -0.1928  0.1097
44585W        W53185   6.526   3.703   8.209  0.1169 -0.0051  0.3320
44586W        W53186  13.883   1.895   9.716  0.2320 -0.0041  0.1948
44587W        W53187  21.566   2.162   4.295 -0.2415 -0.0313  0.0690
44588W        W53188   5.762   0.204   9.713 -0.1046  0.1843  0.0991
44589W        W53189   0.652   5.676  20.708 -0.1935  0.4480  0.2730
44590W        W53190  25.506   4.441  14.122  0.1334 -0.2686 -0.1233
44591W        W53191  10.376   6.566   7.881  0.1101  0.0459  0.0029
44592W        W53192  20.337   5.752   8.633 -0.0639  0.0309  0.0853
44593W        W53193   8.284   3.576   2.600  0.1184  0.1386  0.0025
44594W        W53194   8.636   0.396   5.152  0.1394  0.0314 -0.0575
44595W        W53195  17.153   0.067  26.320 -0.0832 -0.3585 -0.0077
44596W        W53196  21.094   1.596   5.987  0.0084  0.1169 -0.0715
44597W        W53197  17.684   6.565   4.383  0.1040  0.1011  0.0845
44598W        W53198  22.400   0.642  21.959  0.0436  0.2635  0.0318
44599W        W53199   2.704   3.319  29.351 -0.2536  0.2688  0.1250
44600W        W53200   4.582   4.528  21.131 -0.0972  0.0260  0.0031
44601W        W53201   5.081   2.185  24.898  0.1670 -0.0906  0.0933
44602W        W53202  19.860   3.416  32.668  0.0094  0.1822 -0.1093
44603W        W53203  10.989   0.627   1.788 -0.0808 -0.1946 -0.0453
44604W        W53204  15.206   0.141  33.863  0.3490  0.0857 -0.2000
44605W        W53205   6.795   3.863  33.407 -0.0603 -0.1164 -0.2147
44606W        W53206   8.728   5.360   1.866 -0.1420 -0.1376  0.0353
44607W        W53207   1.180   4.975  25.106 -0.1594  0.0367  0.1568
44608W        W53208   4.986   2.430   6.154 -0.1626  0.0702  0.1394
44609W        W53209  21.270   3.478  10.378 -0.1936  0.0951 -0.1013
44610W        W53210   8.417   5.575  24.890 -0.1488  0.3002  0.1562
44611W        W53211   0.717   6.511  21.923 -0.0857  0.1632 -0.0101
44612W        W53212  11.701   3.818  33.858 -0.3819 -0.2302 -0.0286
44613W        W53213  19.826   4.702  15.112 -0.1216 -0.0805 -0.3189
44614W        W53214  10.621   3.468  34.592  0.1019  0.0567 -0.0397
44615W        W53215  26.224   0.764  32.685  0.0865 -0.0129  0.4098
44616W        W53216   3.348   0.495   4.484 -0.0448 -0.0165  0.3683
44617W        W53217   5.684   3.491  35.903  0.2048  0.2629  0.0508
44618W        W53218   4.117   0.245   3.088 -0.0109  0.2793  0.2631
44619W        W53219  24.951   3.671  31.995  0.1045 -0.1142 -0.1979
44620W        W53220  20.818   4.347   2.574  0.0807 -0.0803  0.1197
44621W        W53221  11.555   2.454   2.728 -0.0365  0.1829 -0.2007
44622W        W53222   9.764   5.892  23.557 -0.2443 -0.0996  0.0064
44623W        W53223  19.581   4.448  21.341 -0.0551 -0.0545 -0.0116
44624W        W53224  10.359   6.536  31.871  0.0208  0.0624 -0.0915
44625W        W53225   4.752   5.623  22.887 -0.0460  0.0486  0.0680
44626W        W53226   5.413   5.635  12.640  0.0128  0.2750  0.1008
44627W        W53227   8.899   2.592  29.223  0.1988 -0.0266 -0.0824
44628W        W53228  10.267   0.384   9.883 -0.1699 -0.0390 -0.1692
44629W        W53229   3.656   3.120  24.341 -0.2043 -0.1677  0.3127
44630W        W53230  17.271   0.915  32.977  0.2845  0.2135  0.0323
44631W        W53231  15.721   5.439  11.257  0.0385  0.2934 -0.2967
44632W        W53232   5.222   3.906  34.021 -0.5565 -0.0418  0.0881
44633W        W53233  11.453   0.578  22.661  0.0827  0.1302 -0.0652
44634W        W53234  25.997   5.365   5.331 -0.1451  0.0517  0.1228
44635W        W53235  19.275   3.067  31.942  0.1787  0.0681  0.0906
44636W        W53236  25.121   5.171   0.507  0.0305  0.0729  0.0145
44637W        W53237   3.584   1.010  14.922  0.0525  0.0660 -0.1217
44638W        W53238  15.769   3.884  21.320 -0.0788  0.3516 -0.2454
44639W        W53239   7.011   2.172   8.488 -0.1630 -0.1982 -0.0846
44640W        W53240   1.371   5.352   9.457  0.2535  0.0784 -0.4370
44641W        W53241  23.383   6.298  26.963  0.2558  0.1823  0.0639
44642W        W53242  26.318   2.674  22.247 -0.3124  0.0431 -0.3455
44643W        W53243  11.996   1.681  30.593  0.2296  0.0246  0.0415
44644W        W53244  22.310   4.297  31.996 -0.2292 -0.3135  0.1462
44645W        W53245  20.035   1.425  23.165 -0.0260 -0.4159  0.0805
44646W        W53246  12.546   6.526   5.577 -0.3497 -0.0214 -0.1129
44647W        W53247   7.231   1.210   8.995 -0.0106 -0.2432 -0.1180
44648W        W53248  15.812   0.002  31.757  0.1483 -0.0252  0.3882
44649W        W53249  19.289   2.305   1.708  0.2039  0.0824  0.0906
44650W        W53250  12.359   1.425  14.586  0.2960 -0.4913 -0.1776
44651W        W53251  23.661   3.013   1.527 -0.1018  0.3119 -0.0978
44652W        W53252  17.764   3.902   9.344 -0.2463 -0.1778 -0.0563
44653W        W53253  11.448   6.186  26.112  0.1726  0.0680  0.1085
44654W        W53254  11.695   2.947  25.611  0.1057  0.1243  0.3318
44655W        W53255  21.938   5.546   4.927  0.1414 -0.1906 -0.0266
44656W        W53256   4.574   4.709  25.321 -0.0124 -0.4555 -0.1489
44657W        W53257  11.404   0.328   2.758  0.2172 -0.0633 -0.1881
44658W        W53258  12.973   2.426  24.996  0.0219  0.0133  0.3180
44659W        W53259  17.848   0.559  30.414  0.2588 -0.3092  0.3773
44660W        W53260  19.761   5.386  32.083  0.0347 -0.2980  0.0120
44661W        W53261  12.718   1.388  20.978 -0.2336 -0.3591 -0.0241
44662W        W53262  17.111   1.740  23.838 -0.1726  0.0026  0.0204
44663W        W53263  13.374   2.356  25.324  0.2408  0.0429 -0.0081
44664W        W53264   5.386   3.915  30.595 -0.0582 -0.1402 -0.2272
44665W        W53265  24.523   3.427  14.217 -0.3232 -0.2942  0.0133
44666W        W53266   7.028   5.780  25.240  0.0869 -0.0036  0.1235
44667W        W53267  20.277   0.863  35.233 -0.0831  0.1391 -0.2626
44668W        W53268   9.773   5.479   7.538 -0.2770  0.1202  0.1806
44669W        W53269  17.785   1.367  34.055 -0.0503 -0.0386  0.0603
44670W        W53270   1.129   2.577  34.425  0.2741  0.0401  0.5270
44671W        W53271  20.714   2.333   9.264  0.0392  0.0020  0.0159
44672W        W53272  21.190   4.679  12.294  0.0378  0.1861 -0.1019
44673W        W53273  22.376   5.120  31.522 -0.2576 -0.1356  0.2194
44674W        W53274  25.183   1.997   3.462  0.3466 -0.1663 -0.3416
44675W        W53275  25.831   2.659  32.813  0.0047 -0.0981 -0.2178
44676W        W53276   2.542   4.768   3.623  0.0762  0.0786 -0.0124
44677W        W53277   8.373   3.585  27.908 -0.0046  0.0161  0.0582
44678W        W53278  22.425   5.039  32.991 -0.1202 -0.0495 -0.0605
44679W        W53279  25.177   3.024   5.262 -0.0752  0.0632  0.1773
44680W        W53280   3.561   3.522  27.042  0.1323  0.0677  0.3876
44681W        W53281  25.355   1.742  29.730  0.2385  0.0343 -0.0514
44682W        W53282  20.711   1.815  23.578  0.1704 -0.1293 -0.0335
44683W        W53283  24.730   1.203  31.627  0.2468  0.1117 -0.1446
44684W        W53284  18.871   4.324   8.302  0.1453  0.2452 -0.1846
44685W        W53285  16.725   3.032  25.844  0.2436  0.0019  0.3283
44686W        W53286  21.308   2.802   8.637  0.1087  0.3792 -0.1969
44687W        W53287  14.723   4.700  33.269 -0.1234 -0.0932  0.1680
44688W        W53288  14.273   6.473   9.093  0.1456  0.1167 -0.0445
44689W        W53289   5.681   1.584  32.922  0.2317 -0.1811 -0.0735
44690W        W53290   0.540   1.931  12.054 -0.1042 -0.0530 -0.0535
44691W        W53291  12.209   2.884  33.851 -0.0402  0.4231 -0.0847
44692W        W53292  12.167   3.182   8.051  0.1821  0.0037 -0.0655
44693W        W53293   5.445   5.777   9.435 -0.0768  0.2721 -0.0700
44694W        W53294  17.665   3.996   0.598 -0.0957  0.2928 -0.2097
44695W        W53295  17.433   0.089  32.637 -0.0508 -0.1642 -0.3277
44696W        W53296   2.179   4.723  32.167 -0.2384 -0.0874 -0.1891
44697W        W53297   8.044   2.255  35.344  0.3486  0.1810  0.0958
44698W        W53298   5.555   0.594  34.855  0.0739 -0.0675  0.0967
44699W        W53299  22.384   3.475  35.281  0.0798  0.0120  0.0663
44700W        W53300   9.716   4.638  13.922 -0.0176  0.1481 -0.0296
44701W        W53301   8.475   6.362  12.682 -0.0206  0.0256  0.0700
44702W        W53302  19.127   3.817   3.972  0.1003 -0.1395 -0.3252
44703W        W53303  24.625   5.521  24.425 -0.3076  0.0582 -0.1264
44704W        W53304  14.379   2.330  27.715 -0.3205 -0.1071 -0.1217
44705W        W53305   9.213   3.946  23.627  0.0488 -0.1391  0.2389
44706W        W53306  14.253   5.881  23.848 -0.0334  0.2333  0.0510
44707W        W53307   8.705   1.237  27.290 -0.1400  0.0612 -0.0475
44708W        W53308  23.342   4.704   0.599  0.1256  0.0770  0.1435
44709W        W53309   0.209   6.526  34.829 -0.1813  0.0127 -0.1697
44710W        W53310  16.607   4.505   9.390 -0.3413 -0.4426 -0.0535
44711W        W53311   3.827   6.141  28.006  0.0990  0.1460  0.3113
44712W        W53312  16.559   2.559  25.879  0.3530 -0.3501 -0.3994
44713W        W53313  18.734   4.840  27.222  0.0725 -0.1625  0.1012
44714W        W53314   9.681   4.379  28.624 -0.1021 -0.2260 -0.0847
44715W        W53315  15.388   2.706  30.150 -0.0648  0.2623  0.1312
44716W        W53316  14.205   4.334   7.532  0.1003 -0.0846  0.2231
44717W        W53317  13.171   4.655  30.513  0.1285  0.0922  0.0482
44718W        W53318   1.861   5.721  22.533 -0.0634  0.0007 -0.1052
44719W        W53319   0.497   0.145  13.423  0.0842 -0.0708  0.2643
44720W        W53320  21.188   0.130   2.380  0.3505 -0.0296 -0.0461
44721W        W53321   9.462   6.583  28.064  0.1954  0.2878  0.1716
44722W        W53322   0.609   1.915   1.626 -0.1976  0.0735  0.1257
44723W        W53323   5.366   1.428  29.551 -0.2939 -0.3310  0.1584
44724W        W53324   7.926   3.934  21.841 -0.1937  0.3910  0.0607
44725W        W53325  26.212   2.045   1.766 -0.1019  0.0257  0.2414
44726W        W53326  22.268   1.489  34.358 -0.0172 -0.0372 -0.2403
44727W        W53327  22.456   6.246  27.644  0.0497 -0.1270  0.1487
44728W        W53328  21.612   1.223  26.271  0.1616 -0.0032  0.2341
44729W        W53329  24.836   0.382  28.645  0.0183 -0.2684  0.2097
44730W        W53330  10.173   1.776  10.556  0.2255 -0.1927 -0.2418
44731W        W53331   4.750   0.137  27.547  0.1691 -0.1195  0.0805
44732W        W53332  14.716   2.283   5.450  0.2101  0.0520  0.1416
44733W        W53333  21.590   1.451  21.621  0.3150  0.3554  0.0717
44734W        W53334  20.032   0.735  20.727  0.1024  0.4293  0.0012
44735W        W53335  13.252   6.579  34.853 -0.1977  0.1402  0.2063
44736W        W53336  22.680   5.474  23.762  0.0871  0.2653 -0.1825
44737W        W53337   0.381   5.165  14.104  0.3333 -0.0957  0.1191
44738W        W53338  17.990   0.571   7.541  0.0788  0.2887  0.3099
44739W        W53339  14.919   2.002  29.497 -0.2476 -0.2345  0.0626
44740W        W53340  21.863   0.499   8.775  0.3926 -0.1090  0.2178
44741W        W53341   7.677   0.782  13.076  0.2343  0.2320 -0.2055
44742W        W53342  20.274   1.053  21.800 -0.0452 -0.0785 -0.0337
44743W        W53343   4.862   5.335  15.450  0.1916  0.1346  0.0755
44744W        W53344  15.995   5.520   2.565 -0.0696 -0.4266  0.0864
44745W        W53345  25.170   2.756  30.491 -0.0378  0.0584  0.3063
44746W        W53346   6.928   5.741  29.368  0.0843  0.1381 -0.1134
44747W        W53347  19.005   1.501  27.143 -0.0124 -0.0849  0.0704
44748W        W53348   7.060   3.379   1.254 -0.0462  0.1651 -0.0000
44749W        W53349  15.077   2.939   1.224  0.0908  0.1627 -0.1040
44750W        W53350   1.166   0.868  21.142 -0.3051 -0.2977 -0.0730
44751W        W53351  21.260   4.831  36.005 -0.1251 -0.0831 -0.0350
44752W        W53352  21.769   0.909  24.901  0.1246 -0.2296 -0.1281
44753W        W53353  16.656   5.879  32.418 -0.0170  0.3093  0.1771
44754W        W53354   7.815   0.625   7.540 -0.0624 -0.0235 -0.1322
44755W        W53355  13.121   5.548   0.145  0.2323 -0.2332 -0.1109
44756W        W53356  19.355   2.936  24.775 -0.0376  0.0565 -0.0337
44757W        W53357  18.241   2.502  23.755 -0.1429 -0.0003  0.2472
44758W        W53358  13.565   3.109  21.167  0.3153  0.0673  0.0047
44759W        W53359  17.816   2.851   9.248  0.3207 -0.1139  0.0030
44760W        W53360  21.239   5.243  23.155 -0.1951 -0.3548  0.0947
44761W        W53361  18.083   2.201  11.679 -0.3591  0.0099 -0.1075
44762W        W53362   3.216   6.015   8.955  0.3606  0.2938  0.1051
44763W        W53363  12.543   0.113  24.784 -0.0384 -0.0910 -0.0300
44764W        W53364  25.135   2.713  26.132 -0.2119 -0.0231 -0.2372
44765W        W53365  16.770   3.374   8.748 -0.0645  0.2977 -0.2443
44766W        W53366  25.623   0.161   8.448 -0.1201 -0.1555 -0.0586
44767W        W53367  19.346   1.015   7.220 -0.0269  0.0584  0.0456
44768W        W53368  16.391   2.313   1.366 -0.1405  0.0543 -0.2180
44769W        W53369  19.207   4.198  35.912  0.0471  0.0445  0.1885
44770W        W53370  15.297   3.667  10.866  0.1145 -0.0069 -0.1960
44771W        W53371  18.232   1.436  24.381  0.2089  0.1590  0.1034
44772W        W53372   5.514   4.907  31.512 -0.0537 -0.1353  0.1493
44773W        W53373  20.007   1.679  11.179  0.0554  0.0414 -0.0227
44774W        W53374  10.694   2.565  35.966  0.1253  0.2603 -0.0561
44775W        W53375  22.058   0.379  12.711 -0.1776 -0.0683  0.1196
44776W        W53376  17.108   6.033  12.065  0.1175  0.1263  0.1537
44777W        W53377  16.777   3.858  31.418  0.0253  0.0372  0.2054
44778W        W53378   7.920   5.473  11.149 -0.1255  0.0632 -0.2384
44779W        W53379   1.663   4.345   0.230  0.0681 -0.2845  0.0080
44780W        W53380  17.069   3.383   3.208 -0.0573 -0.1116  0.0267
44781W        W53381   1.769   2.722  26.443 -0.2205 -0.2387 -0.1538
44782W        W53382   2.889   0.821  14.754 -0.2330  0.1767  0.1612
44783W        W53383   3.402   1.822  13.479 -0.2331  0.1220 -0.1769
44784W        W53384  23.839   1.487  14.849  0.1761  0.2297 -0.1327
44785W        W53385   8.675   3.394   2.320  0.2126 -0.2387  0.0049
44786W        W53386   0.716   0.492  14.440  0.1464 -0.0027  0.1209
44787W        W53387  17.245   2.067   1.265 -0.1805 -0.2879  0.0881
44788W        W53388  25.913   4.844  34.737 -0.0434 -0.0634 -0.0004
44789W        W53389  15.312   4.788   4.339  0.2371 -0.0029  0.0611
44790W        W53390   2.767   0.323  30.499  0.3875 -0.0077  0.1593
44791W        W53391  10.544   5.892  26.745  0.1509 -0.0732  0.2865
44792W        W53392   5.691   1.966   8.224 -0.1629  0.3107  0.1709
44793W        W53393   7.528   1.767  14.008  0.2547  0.0146 -0.0456
44794W        W53394  24.017   3.576  26.139 -0.0857  0.1709 -0.0775
44795W        W53395   1.651   0.359   1.302 -0.4309  0.0693 -0.1850
44796W        W53396   3.490   2.407  10.678 -0.2824 -0.0055  0.0841
44797W        W53397   6.563   0.233   4.076 -0.0276  0.1356 -0.0112
44798W        W53398  20.504   4.610  32.870  0.1716 -0.0048  0.3739
44799W        W53399   1.727   0.432  26.305 -0.0290  0.1387  0.0382
44800W        W53400  20.796   6.395   6.103 -0.2091 -0.3665  0.0551
44801W        W53401   1.515   0.829  12.894  0.0892 -0.0469 -0.1056
44802W        W53402   7.181   6.093  14.187 -0.0742  0.1940 -0.0732
44803W        W53403  10.225   3.765  22.034 -0.1210 -0.1189  0.0710
44804W        W53404   1.983   0.181   6.302 -0.0830  0.1931 -0.0400
44805W        W53405   8.601   1.216  10.282 -0.1350 -0.2081  0.0004
44806W        W53406   7.431   4.671  25.429  0.1877  0.1682  0.0019
44807W        W53407  14.957   6.350  12.342  0.0416 -0.1030 -0.1115
44808W        W53408   9.584   4.525   0.917 -0.1252  0.6426 -0.2371
44809W        W53409  14.496   0.004   4.179  0.1626 -0.1365 -0.1073
44810W        W53410   3.345   5.383  32.347 -0.2726  0.0880  0.2602
44811W        W53411   8.578   3.143   2.815 -0.0715 -0.2292  0.1532
44812W        W53412  15.956   5.692   6.592 -0.0721  0.1001 -0.1090
44813W        W53413  16.974   3.429   5.209  0.1054 -0.3265 -0.1628
44814W        W53414  14.612   4.521   1.644 -0.0947 -0.1425  0.0329
44815W        W53415  13.656   2.343  30.480  0.2353  0.0375 -0.1838
44816W        W53416   1.835   4.793  31.795  0.2236  0.1382 -0.0962
44817W        W53417   3.392   2.570   2.082  0.0660 -0.0642  0.0178
44818W        W53418  14.989   3.963  14.696 -0.1174  0.1323  0.1541
44819W        W53419  23.196   4.799   6.725 -0.2076 -0.1797 -0.1364
44820W        W53420   6.099   2.089   3.363 -0.0371  0.0680 -0.4007
44821W        W53421   8.333   0.382  29.760 -0.0645  0.1463  0.1550
44822W        W53422  20.006   2.634  20.995  0.1101  0.0429  0.3223
44823W        W53423   9.967   1.234   5.930  0.0082  0.0596 -0.0268
44824W        W53424  15.922   1.052   0.202  0.2689  0.0898 -0.4013
44825W        W53425   8.997   6.395  12.782  0.1507  0.1505 -0.1846
44826W        W53426  11.200   5.572  14.442  0.0826 -0.4131  0.0504
44827W        W53427  18.803   4.817   1.740  0.1169  0.0199 -0.2562
44828W        W53428  22.233   5.203  32.009  0.2110 -0.1761  0.0119
44829W        W53429   5.690   1.778  19.820 -0.0725  0.0392 -0.0184
44830W        W53430  12.705   5.974  20.834 -0.0333 -0.1405 -0.3621
44831W        W53431   5.691   4.361  34.378  0.2907  0.0484  0.1883
44832W        W53432   0.866   0.777   8.477  0.1828 -0.0008  0.2086
44833W        W53433   2.258   4.650   9.463 -0.2320 -0.0326  0.1973
44834W        W53434  19.164   3.658   0.519 -0.1347  0.0903 -0.0432
44835W        W53435   6.523   3.434  24.872  0.2985 -0.4861 -0.1218
44836W        W53436   8.293   4.995   9.611 -0.0954  0.0068 -0.1562
44837W        W53437   6.160   6.375  23.886 -0.0768 -0.0183  0.3636
44838W        W53438   1.390   3.492   7.131 -0.2064 -0.4172 -0.2473
44839W        W53439  14.041   3.733  35.614 -0.2446  0.0456  0.2214
44840W        W53440   4.182   5.559   0.814 -0.0888 -0.1162 -0.3020
44841W        W53441  21.306   5.503  14.965  0.1623 -0.4780  0.1207
44842W        W53442  19.165   2.810  28.267  0.0854  0.1074  0.0198
44843W        W53443  11.879   5.190  30.709  0.0307 -0.2125  0.2959
44844W        W53444  10.911   6.056   8.400 -0.0087  0.0697 -0.0858
44845W        W53445  16.131   5.959  28.528  0.0199 -0.2438  0.2825
44846W        W53446   4.241   1.770  12.649  0.2166 -0.6393 -0.0607
44847W        W53447  21.957   1.941  25.888 -0.0323 -0.1514  0.0252
44848W        W53448   4.204   3.957  32.196  0.2054  0.0599  0.1311
44849W        W53449   3.404   3.950   7.581 -0.0807  0.0962 -0.0435
44850W        W53450   5.903   3.922  23.792 -0.0314  0.1305 -0.1007
44851W        W53451  19.923   5.795  28.144 -0.0376 -0.2206  0.0972
44852W        W53452  10.037   6.159   4.673 -0.2719 -0.1629 -0.0443
44853W        W53453  24.907   1.323  23.144  0.0707 -0.1635 -0.3669
44854W        W53454  21.532   3.599  28.480 -0.0767  0.0036 -0.3025
44855W        W53455  24.262   2.067  21.504  0.3332 -0.2654 -0.0308
44856W        W53456  15.406   6.149   3.688 -0.0442  0.3070 -0.1277
44857W        W53457  17.564   2.186  11.724 -0.1234  0.2337  0.0899
44858W        W53458   0.443   1.165  34.820 -0.1011  0.0147 -0.0859
44859W        W53459  18.314   4.510  23.591  0.3597  0.1497  0.1118
44860W        W53460  14.002   1.276  10.256  0.0503 -0.1722  0.3194
44861W        W53461  24.563   2.947  27.720  0.2054  0.1537 -0.0804
44862W        W53462  17.471   1.715  25.168 -0.1894 -0.0005 -0.1263
44863W        W53463  13.154   6.448   3.689  0.1528  0.2686  0.0698
44864W        W53464  24.491   0.922   8.983 -0.0913 -0.1125 -0.0732
44865W        W53465   7.925   6.371   3.851 -0.0660  0.2226  0.0946
44866W        W53466  11.884   3.927  35.304 -0.2554  0.0001  0.2421
44867W        W53467   3.597   5.548  21.432  0.4978 -0.0546  0.0792
44868W        W53468  13.256   3.585  23.251 -0.1748 -0.1404 -0.0763
44869W        W53469  22.528   2.242  34.080 -0.3253 -0.1647  0.1608
44870W        W53470   8.676   3.309   3.264 -0.2157  0.1785 -0.0789
44871W        W53471   0.311   0.918  23.636  0.2187 -0.0904 -0.0374
44872W        W53472  20.328   0.105  29.629  0.2718 -0.1374 -0.0780
44873W        W53473   1.882   2.864   7.252  0.1632 -0.3778 -0.0529
44874W        W53474  19.706   1.125   2.357  0.1606  0.1113 -0.0224
44875W        W53475  17.034   5.903  10.864  0.0836  0.2438 -0.0001
44876W        W53476  16.462   5.321  32.246 -0.0078 -0.0051 -0.1368
44877W        W53477   6.862   0.146   1.164  0.0170 -0.2881  0.2073
44878W        W53478  11.258   5.231  30.141 -0.0051  0.1393  0.2068
44879W        W53479  23.966   6.113   1.588 -0.0113  0.0484 -0.0736
44880W        W53480  19.305   4.637  34.783 -0.0886  0.0179 -0.2603
44881W        W53481  22.187   6.247  33.682  0.1896 -0.0091 -0.1145
44882W        W53482   3.401   6.439  32.786 -0.0179 -0.1078 -0.0211
44883W        W53483  21.995   6.369  23.211 -0.3467  0.3016  0.1042
44884W        W53484   8.327   3.427  32.071  0.1069  0.0612 -0.0507
44885W        W53485  20.540   1.354   7.296  0.3509  0.3979 -0.1121
44886W        W53486  22.692   0.811  35.450 -0.2794  0.0869 -0.2401
44887W        W53487  15.143   4.442  15.899  0.0262 -0.0031  0.1245
44888W        W53488  11.836   1.552   5.561 -0.0438  0.1577 -0.2765
44889W        W53489  24.310   3.701  29.158 -0.0731  0.1044 -0.0571
44890W        W53490  12.257   2.849  13.261  0.1649  0.1609 -0.1095
44891W        W53491   7.141   4.349   0.247 -0.1053  0.0437  0.2655
44892W        W53492  11.164   5.378   5.608  0.2389  0.0416 -0.0564
44893W        W53493   9.917   3.443   9.683 -0.3370 -0.0393 -0.1715
44894W        W53494  16.093   0.868  21.149 -0.1149 -0.1210 -0.1967
44895W        W53495  14.107   1.658  35.132 -0.2453 -0.1344 -0.2237
44896W        W53496  21.640   6.155  23.759 -0.2838 -0.0382  0.1546
44897W        W53497  23.551   0.687   1.380  0.3229  0.0386 -0.0057
44898W        W53498  16.031   1.972  33.551 -0.1321 -0.3316 -0.0603
44899W        W53499  15.174   2.759  14.884 -0.0953 -0.1082 -0.1520
44900W        W53500  11.105   0.631  22.259 -0.1610 -0.0822  0.2522
44901W        W53501  11.681   5.761  29.509  0.0385  0.0571 -0.0464
44902W        W53502   2.803   4.365   6.141 -0.2819 -0.0649  0.0220
44903W        W53503   6.675   4.311  27.197 -0.3837 -0.2399  0.0474
44904W        W53504   0.415   6.490  21.068 -0.3351  0.3116  0.1270
44905W        W53505   3.259   2.415   2.963 -0.0144  0.2506 -0.0706
44906W        W53506  24.481   5.521  14.033 -0.2340  0.1460 -0.0768
44907W        W53507   9.005   4.534  32.205 -0.1707  0.0887 -0.0953
44908W        W53508  24.007   1.376  12.781 -0.1008  0.2563 -0.1132
44909W        W53509   8.121   5.811  14.377  0.1375  0.0902  0.0789
44910W        W53510   2.555   4.575  10.613 -0.2543  0.4566 -0.1005
44911W        W53511  21.043   1.356  24.796  0.2135 -0.1233 -0.0162
44912W        W53512  19.366   3.764   8.468 -0.1833 -0.1573  0.0815
44913W        W53513   0.894   4.045   2.856 -0.3088  0.1572  0.0155
44914W        W53514  17.451   1.889  30.348  0.0571 -0.0588 -0.2388
44915W        W53515  10.158   4.635   6.788  0.0872 -0.4157  0.2248
44916W        W53516   0.464   0.684  32.144  0.0182  0.1029  0.0472
44917W        W53517   4.697   3.486  27.316  0.1308 -0.1869 -0.3356
44918W        W53518   7.304   2.668  25.561 -0.0845  0.1131  0.0428
44919W        W53519   1.493   2.520   0.298  0.0174  0.1605  0.0996
44920W        W53520  12.128   1.921   1.156  0.2070 -0.2188 -0.0122
44921W        W53521  25.207   2.018  25.383  0.2429 -0.0177 -0.0066
44922W        W53522   3.230   5.243  27.084 -0.0389 -0.3289  0.3590
44923W        W53523  19.829   5.759  12.314 -0.0575  0.0395 -0.1895
44924W        W53524   7.119   5.000  28.906  0.2876  0.1225 -0.0620
44925W        W53525  19.119   5.591   9.190 -0.1125 -0.2524  0.1767
44926W        W53526  24.391   6.190  13.180 -0.1160 -0.2449  0.1262
44927W        W53527   4.971   2.474  11.555 -0.1336  0.0721  0.3657
44928W        W53528  13.303   5.634  22.970  0.0223  0.0686 -0.0958
44929W        W53529   9.797   2.159   8.662  0.2493 -0.1207 -0.1855
44930W        W53530  26.425   0.317  34.959  0.2230 -0.2166 -0.2454
44931W        W53531   4.479   6.554  10.836 -0.0870 -0.0540 -0.0368
44932W        W53532  11.808   1.695   5.093  0.2636  0.0715 -0.1550
44933W        W53533  10.367   2.973  15.294 -0.1145  0.0737 -0.0219
44934W        W53534  10.901   0.856  23.223  0.2739  0.2801  0.0263
44935W        W53535   7.971   3.520   6.492  0.2780 -0.0362 -0.1199
44936W        W53536   0.733   5.027   8.410 -0.1085 -0.0178 -0.0435
44937W        W53537  18.220   1.451  24.906 -0.1332 -0.0394  0.1581
44938W        W53538  12.289   3.391  25.243  0.0345  0.0712  0.3670
44939W        W53539   8.108   2.835   8.605 -0.0329  0.2205 -0.2584
44940W        W53540   2.279   5.034  31.769  0.0373  0.0477 -0.6206
44941W        W53541  20.224   0.645   1.240 -0.1940  0.0626  0.1140
44942W        W53542  16.103   0.140  27.224  0.2734 -0.0515 -0.4659
44943W        W53543   3.605   1.505  32.034 -0.0147  0.1539 -0.2057
44944W        W53544  13.548   1.289  21.540 -0.1084 -0.1278  0.0072
44945W        W53545   7.032   2.886   1.517 -0.1710  0.1632 -0.0339
44946W        W53546  21.109   6.177  14.369  0.2520  0.2296 -0.1401
44947W        W53547   9.246   5.940   0.219 -0.0564  0.0270 -0.0844
44948W        W53548  15.404   4.202  27.378  0.2841  0.2294 -0.1180
44949W        W53549  15.872   5.569  15.839  0.1672 -0.0249 -0.1408
44950W        W53550  12.850   0.829   5.895  0.3313  0.0908 -0.0417
44951W        W53551  13.024   2.690   3.649 -0.3009  0.1670  0.2381
44952W        W53552   6.724   5.724  22.237 -0.0060 -0.0013  0.0151
44953W        W53553   9.378   6.020   5.859 -0.0648  0.0175 -0.1263
44954W        W53554  21.944   0.643   2.753 -0.0582  0.2928  0.0745
44955W        W53555  17.736   3.490   7.700  0.1465 -0.0150 -0.1819
44956W        W53556  19.906   5.037   8.033  0.2378 -0.0165 -0.0916
44957W        W53557  24.979   2.946   7.839  0.1434  0.0274 -0.2743
44958W        W53558  19.085   0.851  26.906 -0.3309  0.0571  0.3276
44959W        W53559  10.091   1.889  26.741 -0.0169  0.0084  0.0994
44960W        W53560  12.446   6.391  23.911  0.0560  0.0825 -0.1845
44961W        W53561  10.854   0.135   2.046  0.2395  0.4020  0.3212
44962W        W53562   4.364   3.836  36.146  0.0968  0.0173  0.0205
44963W        W53563  13.324   6.283  21.453  0.1871  0.0312  0.0159
44964W        W53564  11.895   2.221  15.398  0.0491 -0.1957  0.2224
44965W        W53565  12.075   4.488  22.859 -0.0985 -0.5110  0.1704
44966W        W53566   6.099   2.927  30.306  0.2167 -0.2499 -0.2221
44967W        W53567  10.846   5.779   6.863 -0.2765 -0.0284 -0.1860
44968W        W53568  20.132   0.862  11.065  0.1181  0.4312  0.0268
44969W        W53569  13.802   0.005  24.963 -0.0667 -0.0523 -0.0946
44970W        W53570  19.908   4.902  26.501  0.0763  0.0216 -0.1841
44971W        W53571  20.541   2.813  29.407 -0.0060  0.1361  0.1219
44972W        W53572  11.482   3.499  30.531 -0.1156  0.0353 -0.1492
44973W        W53573   2.387   1.488  30.382  0.1059 -0.0379  0.0379
44974W        W53574  10.574   2.776  35.474  0.2466  0.1992  0.1808
44975W        W53575   7.594   0.534  27.539  0.1047 -0.0468  0.0269
44976W        W53576   2.972   1.835  25.162  0.3747 -0.0726  0.0725
44977W        W53577  26.202   0.196   6.131 -0.1683 -0.0453  0.2168
44978W        W53578  21.046   4.706   4.750  0.1203 -0.1077 -0.0641
44979W        W53579  19.820   1.541  28.182 -0.0828  0.3633 -0.0807
44980W        W53580  11.305   3.241   6.696  0.0300  0.1393  0.0391
44981W        W53581  16.151   3.981  10.732 -0.2061  0.1154  0.2736
44982W        W53582   3.346   4.271   6.562  0.1937  0.2247 -0.1063
44983W        W53583   4.322   5.855  31.150  0.5188 -0.0453 -0.1210
44984W        W53584  10.166   5.391  20.450  0.1970  0.0276 -0.0948
44985W        W53585  15.085   1.828  13.740 -0.0151 -0.0135 -0.1097
44986W        W53586   3.243   5.219   0.123 -0.1164  0.2916 -0.0322
44987W        W53587   9.099   6.204  30.921 -0.2008 -0.0361  0.0320
44988W        W53588   6.686   0.899   3.436 -0.2797  0.1283  0.0238
44989W        W53589  11.480   4.983  21.219 -0.1479 -0.0857 -0.1129
44990W        W53590   6.681   4.056  27.839 -0.0086  0.0686  0.1689
44991W        W53591   7.924   2.733  20.705  0.1454 -0.1191 -0.0667
44992W        W53592   3.456   5.900  30.721  0.1458 -0.2643  0.2535
44993W        W53593   7.590   6.341  23.120 -0.1298 -0.0821  0.1824
44994W        W53594  25.911   1.945  28.076 -0.2311  0.0476 -0.2085
44995W        W53595  11.142   3.021   5.546  0.1185  0.2418  0.0308
44996W        W53596  14.862   5.226  23.413  0.1168  0.0187 -0.0950
44997W        W53597  23.900   1.868  35.413  0.1113 -0.2146  0.0136
44998W        W53598   5.127   5.055  30.288  0.2398 -0.1454 -0.0117
44999W        W53599  17.041   4.076  29.686  0.0343  0.0879  0.0631
45000W        W53600  26.155   1.751   8.813 -0.2139  0.1634 -0.0587
45001W        W53601  13.290   1.080  15.271  0.0110  0.0143  0.2612
45002W        W53602  13.241   6.539   7.197 -0.0641 -0.1008  0.0611
45003W        W53603  20.606   3.536   9.716 -0.1000  0.0893  0.1314
45004W        W53604  23.480   2.096  30.635  0.3407 -0.1702  0.1430
45005W        W53605  23.235   3.377   9.827  0.0356  0.1371  0.3057
45006W        W53606  17.273   2.804  14.360 -0.2212 -0.1736 -0.3830
45007W        W53607  24.768   3.599  12.295 -0.0235 -0.0266 -0.0074
45008W        W53608   2.445   6.081  36.121 -0.0144  0.2060  0.1225
45009W        W53609  24.509   3.354   0.926 -0.1716 -0.2662 -0.0577
45010W        W53610  18.782   4.801   3.307  0.1749 -0.1794 -0.0749
45011W        W53611  16.611   3.516  12.314  0.0615 -0.0572  0.2109
45012W        W53612   2.474   2.505   6.805  0.3179  0.1356 -0.2087
45013W        W53613  21.410   1.030   5.067 -0.0101 -0.0763 -0.0113
45014W        W53614   8.966   5.193  21.921 -0.1484  0.0568 -0.2912
45015W        W53615  25.159   0.932   3.032  0.1876  0.2782  0.0939
45016W        W53616   6.807   5.902  32.144 -0.1984  0.1019 -0.1264
45017W        W53617  19.952   5.058  14.629  0.1219 -0.3893 -0.0311
45018W        W53618  20.265   0.854  22.369  0.0586  0.2952  0.0328
45019W        W53619  15.625   4.604  28.564  0.0754 -0.0829 -0.2094
45020W        W53620  18.525   4.997  23.831 -0.0791 -0.2762  0.1498
45021W        W53621  22.548   2.494  23.989  0.1040 -0.2449 -0.2182
45022W        W53622  17.704   4.566  12.949 -0.2256 -0.0743 -0.1216
45023W        W53623  11.574   4.679   9.821 -0.0907  0.0002  0.2845
45024W        W53624  10.117   2.909   6.834 -0.0134  0.3340  0.0008
45025W        W53625  20.929   5.621  23.367 -0.1708 -0.1239  0.1153
45026W        W53626   1.490   1.504  28.227  0.0436  0.0098  0.1109
45027W        W53627   6.810   2.764  28.320  0.1338 -0.1178 -0.2577
45028W        W53628  10.476   0.946  22.969 -0.0164  0.1574 -0.0863
45029W        W53629  11.333   1.860   8.894  0.0603  0.2903  0.1066
45030W        W53630  24.765   2.323   4.184 -0.1420  0.0576  0.1639
45031W        W53631  24.008   1.185  26.077  0.0262 -0.0269  0.2069
45032W        W53632  24.497   5.113  29.388 -0.2091  0.0259  0.0739
45033W        W53633  23.997   2.310  24.044  0.0642  0.0141 -0.0672
45034W        W53634  21.006   5.337  12.826  0.0223  0.1701  0.1555
45035W        W53635  11.462   2.527  25.988  0.0824 -0.1517  0.0902
45036W        W53636  14.138   3.696  15.288  0.1894 -0.2612 -0.0644
45037W        W53637  18.264   2.653   4.646  0.3020 -0.0020  0.1453
45038W        W53638  17.263   4.432  11.113  0.0031 -0.0361  0.1224
45039W        W53639   9.943   1.376   1.090  0.1983  0.2805  0.3224
45040W        W53640  14.952   1.129   6.311 -0.2069  0.3948 -0.0466
45041W        W53641   4.761   1.649  13.192  0.2826 -0.0880 -0.1349
45042W        W53642  10.772   2.536  31.292  0.1997  0.1736 -0.1066
45043W        W53643   1.109   4.407   9.287 -0.2248 -0.2042 -0.1871
45044W        W53644   5.989   3.635  33.752  0.1558 -0.3869 -0.1800
45045W        W53645   4.578   2.316   4.434 -0.0416 -0.3207  0.0475
45046W        W53646   2.108   1.990  31.219  0.2460  0.2296 -0.1263
45047W        W53647  12.487   0.138  26.836 -0.0276 -0.1548 -0.0294
45048W        W53648   2.831   4.321   4.878  0.0736 -0.5021 -0.1225
45049W        W53649  17.912   0.414   6.719  0.2143  0.1737 -0.2258
45050W        W53650   5.596   5.258  21.411  0.3920  0.1006  0.0646
45051W        W53651  21.355   3.497  31.665  0.2328  0.3580 -0.0311
45052W        W53652   5.817   3.836  34.552 -0.0785  0.2062  0.0994
45053W        W53653  18.875   3.238  20.660  0.1147  0.4055  0.1691
45054W        W53654  14.550   2.012  14.770 -0.1262 -0.0277  0.2776
45055W        W53655  18.711   0.538  26.965 -0.1493 -0.0918 -0.1302
45056W        W53656  13.564   5.919   1.330  0.0105  0.0518 -0.0929
45057W        W53657   4.686   5.513  14.978  0.1968  0.3320  0.1009
45058W        W53658  19.179   2.597  29.805 -0.3036 -0.2550 -0.1456
45059W        W53659  15.578   0.191  23.657  0.0671  0.1539 -0.1351
45060W        W53660   8.832   1.303  36.023  0.0197  0.0429  0.2413
45061W        W53661  14.537   5.205  33.229 -0.0382  0.0625 -0.2942
45062W        W53662  20.031   3.718  25.124 -0.0808 -0.4484  0.0078
45063W        W53663   9.298   6.011   9.144  0.0422 -0.1527  0.0246
45064W        W53664  23.330   2.800  15.258  0.0290  0.2545 -0.0373
45065W        W53665   9.944   5.914   4.243 -0.5162  0.0132 -0.4186
45066W        W53666  20.700   4.396   7.678  0.0411  0.1825 -0.2642
45067W        W53667   7.562   1.854   0.802  0.0459  0.0402 -0.3005
45068W        W53668  23.582   6.322  12.604  0.0476 -0.0398  0.1112
45069W        W53669  10.026   3.229  22.171  0.2061  0.2087  0.1308
45070W        W53670  15.307   4.383  35.059  0.1632 -0.1876  0.2225
45071W        W53671   4.274   3.797  30.225 -0.0549 -0.1462  0.1860
45072W        W53672  16.025   1.286  27.608  0.0745 -0.1315 -0.1978
45073W        W53673   2.384   0.578   0.357  0.2481 -0.2863 -0.0972
45074W        W53674   8.114   1.483   6.291 -0.0702  0.1313  0.1987
45075W        W53675  10.171   4.178  21.760 -0.1510  0.0232 -0.1245
45076W        W53676  15.773   5.384  32.640 -0.1236 -0.1031  0.2722
45077W        W53677  14.784   1.037  27.425  0.1511  0.1768  0.0602
45078W        W53678   7.094   6.595  13.436 -0.1949  0.1094 -0.0794
45079W        W53679  20.364   0.958  26.266 -0.1715  0.0643  0.0744
45080W        W53680  11.388   4.340   2.439 -0.1558 -0.1902 -0.0375
45081W        W53681  23.274   2.023   9.469  0.0066 -0.1731 -0.1078
45082W        W53682   7.814   1.120   6.128 -0.0473 -0.0053  0.0525
45083W        W53683  18.944   0.190  33.272  0.0561  0.2800 -0.2914
45084W        W53684  20.963   0.832   9.952  0.1294 -0.0724  0.1053
45085W        W53685   1.019   2.082   4.555  0.1907  0.1013  0.1316
45086W        W53686  25.942   3.391   9.413 -0.0346  0.1130 -0.2903
45087W        W53687  23.022   1.773  34.915  0.0040 -0.3511  0.0124
45088W        W53688   9.777   4.580  11.862  0.1414 -0.1865  0.0424
45089W        W53689   9.170   3.029  12.515  0.0359  0.1076 -0.1032
45090W        W53690   5.301   4.697  31.085 -0.0469  0.0329  0.2126
45091W        W53691  23.242   1.903  23.801  0.2885  0.1983 -0.0256
45092W        W53692  12.974   2.662  28.493 -0.2451 -0.1801  0.1564
45093W        W53693   1.791   6.211   4.584  0.1977  0.1833  0.0474
45094W        W53694  11.834   3.722  14.732  0.0244 -0.1689 -0.1645
45095W        W53695  22.987   4.410  11.134 -0.1201  0.0740 -0.1012
45096W        W53696   7.844   5.871  23.176  0.2364  0.2597  0.1397
45097W        W53697   3.549   3.161  30.113  0.0072  0.0066 -0.0263
45098W        W53698   0.969   0.194   4.612  0.0916 -0.0416  0.2876
45099W        W53699  13.706   5.700   6.735 -0.1419 -0.0345 -0.0387
45100W        W53700  10.230   3.854  30.190  0.0601 -0.0665 -0.1648
45101W        W53701   7.690   1.473  12.385  0.1237  0.1672  0.1998
45102W        W53702   5.376   2.138   9.846 -0.1699 -0.0509  0.1208
45103W        W53703   1.044   1.187   3.089 -0.1442  0.1154 -0.0018
45104W        W53704  14.305   1.783  22.423  0.2294 -0.1606  0.3017
45105W        W53705   4.751   1.632  12.616  0.2288  0.4802 -0.1830
45106W        W53706   4.744   6.332  35.653  0.0337 -0.1772 -0.0873
45107W        W53707   9.909   3.009   3.500 -0.0059  0.1021  0.1208
45108W        W53708   1.344   2.047   6.146 -0.0113  0.0225  0.1541
45109W        W53709   6.239   3.008  13.743  0.2059 -0.0495  0.3342
45110W        W53710  11.397   0.191  34.481  0.0530 -0.4283  0.0411
45111W        W53711  24.301   1.657   7.734 -0.0300 -0.0087 -0.1051
45112W        W53712  23.824   1.956  25.212  0.3683  0.1300 -0.1613
45113W        W53713  17.986   0.143   2.310 -0.0641 -0.0449  0.0705
45114W        W53714  25.838   0.407   7.491  0.2104 -0.1653  0.1806
45115W        W53715   0.954   0.173   9.056  0.4249  0.1372 -0.0183
45116W        W53716  15.807   3.871  30.819  0.3262  0.1312  0.0681
45117W        W53717  24.452   3.605  24.567  0.1976 -0.0818  0.0203
45118W        W53718  22.234   5.132  12.738 -0.2757  0.0692  0.0240
45119W        W53719  20.584   1.009  11.009  0.0290  0.0808 -0.2752
45120W        W53720   6.421   2.317  26.681  0.1631  0.2680  0.2628
45121W        W53721  21.547   5.637  21.368 -0.0892  0.0311  0.1687
45122W        W53722  11.502   1.663   1.603  0.2877  0.0202  0.0686
45123W        W53723  16.108   3.510  36.067 -0.0611  0.0188 -0.1745
45124W        W53724  22.100   0.849  33.776  0.2616 -0.0061  0.3740
45125W        W53725  13.862   1.481   0.148 -0.0477  0.1893  0.2572
45126W        W53726  20.181   1.845   3.960  0.1672 -0.4377  0.1263
45127W        W53727  18.790   5.838  29.730 -0.1890  0.2490 -0.2650
45128W        W53728  17.102   2.680   0.199  0.0494  0.0266  0.0747
45129W        W53729   4.266   4.080  13.399  0.0157 -0.0337 -0.0263
45130W        W53730   8.244   6.478  11.473  0.2405 -0.1470 -0.0759
45131W        W53731   1.978   4.499  27.374  0.1619  0.0304  0.0195
45132W        W53732  10.412   4.887  24.925 -0.0425 -0.2264  0.0770
45133W        W53733   2.233   2.772   1.370  0.1656  0.0299  0.3294
45134W        W53734  17.027   3.117  32.928 -0.0486  0.3471 -0.2670
45135W        W53735  11.211   5.271  21.511 -0.0840 -0.2175 -0.0657
45136W        W53736   4.526   3.897   6.370  0.1304 -0.2780  0.2865
45137W        W53737  22.198   5.789   1.240  0.1497 -0.3218  0.0289
45138W        W53738  17.043   4.188   4.000 -0.3043  0.1976  0.0633
45139W        W53739   2.588   4.843  22.082 -0.2302  0.1736  0.1270
45140W        W53740   5.364   3.727  10.565 -0.2117  0.0858  0.3527
45141W        W53741  19.881   5.040  13.671  0.2326 -0.2263 -0.0875
45142W        W53742  23.612   6.115  13.348 -0.0612  0.1786  0.0590
45143W        W53743   3.863   6.536  34.258  0.3010  0.0540 -0.0504
45144W        W53744   6.165   4.283  21.478  0.2081  0.0277  0.0793
45145W        W53745  25.468   2.851  33.415 -0.0138  0.0024 -0.1011
45146W        W53746  17.913   6.514  35.916  0.0970  0.1138 -0.2688
45147W        W53747  24.262   3.257  22.858 -0.1387  0.0717  0.3377
45148W        W53748   9.614   0.990  14.798  0.0291  0.1487  0.0945
45149W        W53749   0.578   4.502  24.717  0.1416  0.3614  0.2237
45150W        W53750  13.908   4.228   0.824 -0.0850  0.2438  0.2010
45151W        W53751  24.361   0.458   5.912  0.0934 -0.0504  0.0238
45152W        W53752  15.097   1.666  27.137 -0.3494  0.1480 -0.1249
45153W        W53753   4.976   4.833  20.992 -0.0872  0.2424 -0.0193
45154W        W53754  10.836   6.168  25.220  0.2978  0.0640  0.0507
45155W        W53755   5.551   6.440   4.089  0.0031  0.1064 -0.1512
45156W        W53756  10.871   5.540   1.008 -0.1081  0.1049  0.1795
45157W        W53757  12.400   6.433   9.286 -0.1183 -0.2340 -0.1293
45158W        W53758  22.810   3.206  35.477  0.1697  0.0040  0.0146
45159W        W53759  23.239   6.117  26.301 -0.2542  0.0607 -0.0380
45160W        W53760  19.304   1.880   5.089  0.0323  0.2124 -0.2103
45161W        W53761   9.137   0.572  24.437  0.1035 -0.0448 -0.1078
45162W        W53762   4.364   5.655  27.407  0.0749 -0.0813  0.2029
45163W        W53763  22.401   6.566  12.862  0.2308 -0.0470  0.2287
45164W        W53764   8.422   5.106  33.401 -0.2231  0.2700  0.0495
45165W        W53765   7.277   3.578  26.071 -0.1060  0.1105 -0.0851
45166W        W53766  11.405   1.101  20.407  0.2102  0.0848  0.1061
45167W        W53767  25.546   1.661  32.730 -0.0402  0.1823  0.0291
45168W        W53768   0.425   0.753  21.709  0.0067  0.0621 -0.2813
45169W        W53769  21.628   6.140  34.992  0.0945  0.1526 -0.1618
45170W        W53770  26.127   0.380  34.246 -0.0510 -0.0189 -0.0316
45171W        W53771  15.888   4.669  13.871 -0.0080 -0.0238 -0.2826
45172W        W53772  14.610   4.132   9.067 -0.0164 -0.0826  0.1925
45173W        W53773   0.124   5.197  25.909 -0.0370 -0.0061  0.1426
45174W        W53774   3.663   1.024   8.510 -0.0684 -0.1002  0.0368
45175W        W53775  21.405   3.180  33.230  0.2247 -0.4224  0.1978
45176W        W53776  12.693   6.294  33.768 -0.3238  0.1853 -0.3702
45177W        W53777  12.534   0.009  31.427  0.0412 -0.0490  0.1252
45178W        W53778   4.788   4.218  13.180 -0.0946 -0.2400 -0.1918
45179W        W53779  11.187   5.310   0.227 -0.1105 -0.1810 -0.1304
45180W        W53780  20.078   0.258  28.598  0.0836 -0.2119 -0.3534
45181W        W53781   3.536   4.856  31.404 -0.2483  0.1954 -0.1095
45182W        W53782   4.176   1.528  33.684 -0.0399  0.2040  0.1609
45183W        W53783   9.439   6.316   3.372 -0.0912 -0.2033  0.2071
45184W        W53784  15.687   2.885   1.742 -0.2068 -0.0766  0.1509
45185W        W53785  18.272   1.763  28.178  0.1341 -0.4433 -0.2175
45186W        W53786   8.732   1.776  33.707 -0.0425 -0.1438  0.1110
45187W        W53787  13.514   2.471  14.773  0.2199  0.0458 -0.0808
45188W        W53788  21.445   3.432   6.914  0.2303 -0.0752  0.2249
45189W        W53789  19.581   4.494   3.062  0.0046 -0.1848  0.2112
45190W        W53790  16.402   3.325  23.793  0.1047 -0.4045 -0.0513
45191W        W53791  25.184   5.128  26.737 -0.0185 -0.2314 -0.0110
45192W        W53792  10.223   1.418   7.143  0.0311  0.2119 -0.1813
45193W        W53793   9.793   0.523  20.790 -0.3403  0.4734  0.2164
45194W        W53794  24.334   3.758  21.292  0.2837  0.1456  0.0111
45195W        W53795  11.654   2.049  23.860 -0.0709 -0.1893  0.0976
45196W        W53796   2.674   3.636   1.380 -0.2881 -0.4226  0.1771
45197W        W53797  10.891   0.154  10.474 -0.0007 -0.0986  0.1336
45198W        W53798   1.582   3.107  13.429  0.0815  0.2198  0.0537
45199W        W53799   0.208   1.916   2.029  0.2021  0.0037 -0.0369
45200W        W53800   0.981   4.925  30.847 -0.0370  0.3657  0.1404
45201W        W53801  12.515   0.743  35.958  0.3525 -0.0734 -0.0403
45202W        W53802  12.202   1.536   4.245 -0.1732  0.4096 -0.0036
45203W        W53803  17.956   0.581  20.625 -0.0210 -0.0422  0.1518
45204W        W53804  18.155   1.361   0.657 -0.0759  0.0853  0.1885
45205W        W53805  26.317   5.070   8.999 -0.2586 -0.3645 -0.0837
45206W        W53806   3.439   1.213  23.398 -0.0036 -0.0928 -0.0941
45207W        W53807  10.395   4.171  10.112  0.1024 -0.1974 -0.0202
45208W        W53808  10.536   6.313  30.409  0.1848  0.1870 -0.2058
45209W        W53809  17.575   1.466  34.756 -0.1975 -0.0982 -0.1104
45210W        W53810  13.212   5.978   9.052 -0.1512 -0.0259 -0.0117
45211W        W53811  11.014   5.365  27.141  0.4051  0.1640 -0.0259
45212W        W53812   6.068   3.707   1.294 -0.1896 -0.0976  0.1899
45213W        W53813   9.766   4.593   5.654  0.0274  0.0476 -0.2651
45214W        W53814   5.362   6.412  28.681  0.0744  0.0883 -0.0142
45215W        W53815  12.442   2.519  29.009 -0.1651 -0.2770  0.3327
45216W        W53816  15.263   0.536  16.325 -0.0682 -0.1295  0.1219
45217W        W53817   1.130   1.668  23.619  0.0719 -0.0775 -0.0277
45218W        W53818  24.131   0.044  32.268  0.4282  0.0964  0.1374
45219W        W53819  25.513   1.774   7.114 -0.1372 -0.1988  0.0273
45220W        W53820  17.429   1.974  15.322 -0.2138  0.0664  0.0361
45221W        W53821  10.464   2.371  20.668  0.1963  0.1914  0.0004
45222W        W53822  20.605   1.029   7.831 -0.1497  0.2093 -0.2819
45223W        W53823   0.524   3.516  28.098 -0.1501 -0.2598 -0.1022
45224W        W53824  11.609   3.044   9.376  0.1340  0.1187  0.1023
45225W        W53825   6.336   0.911  30.879  0.1723  0.4065  0.4814
45226W        W53826  25.875   2.520  22.125 -0.1885 -0.1495  0.1204
45227W        W53827  12.316   1.074  26.617 -0.1601  0.0726 -0.0092
45228W        W53828  24.819   1.512   0.560 -0.3235 -0.1258 -0.1132
45229W        W53829  13.169   3.975  27.779 -0.0999 -0.1846 -0.0095
45230W        W53830   4.364   6.095   0.826  0.1440  0.0661 -0.3457
45231W        W53831   5.172   1.838  12.994  0.2127  0.2304 -0.2540
45232W        W53832  14.286   2.865  30.080  0.1861  0.0398  0.1553
45233W        W53833   0.527   6.029   2.390  0.3030  0.2531 -0.2152
45234W        W53834   4.135   3.730   2.375  0.2124 -0.0649  0.1288
45235W        W53835  18.906   1.141  27.964  0.0331  0.0354  0.2446
45236W        W53836  16.593   1.742   4.897  0.2185 -0.2150 -0.0768
45237W        W53837  17.928   3.221  14.225 -0.0117  0.1493  0.3079
45238W        W53838   1.061   3.326  10.880  0.0911 -0.1604 -0.2199
45239W        W53839   6.953   2.163   7.978 -0.1269 -0.0418  0.0420
45240W        W53840  16.678   0.043  25.068  0.0116  0.1724 -0.1645
45241W        W53841   3.797   4.197  30.771 -0.1487 -0.1473 -0.0981
45242W        W53842  20.360   2.587   2.870  0.1620 -0.2040 -0.2517
45243W        W53843  20.438   1.356  35.299 -0.2963 -0.0715  0.1843
45244W        W53844  12.934   4.625  32.589 -0.0182 -0.0901  0.1669
45245W        W53845   8.444   5.599  11.264 -0.1960 -0.1080  0.0720
45246W        W53846  10.927   2.485  13.636 -0.2080  0.1656  0.0803
45247W        W53847   8.059   3.927  25.102 -0.2829 -0.0382  0.0968
45248W        W53848  15.642   3.170  29.405  0.2262 -0.1960 -0.1240
45249W        W53849   4.038   6.277  13.256 -0.0932 -0.1103  0.1030
45250W        W53850  20.491   0.509   0.823  0.1111 -0.1336 -0.1462
45251W        W53851  12.328   0.281   9.890  0.0373  0.1937  0.1560
45252W        W53852   2.352   5.969   1.226 -0.1943 -0.0111 -0.0249
45253W        W53853  19.933   0.880  34.618  0.1951 -0.1434  0.0079
45254W        W53854   5.815   1.747   4.256  0.2112  0.0344 -0.1303
45255W        W53855   5.948   2.884   9.550 -0.2184  0.0505 -0.0375
45256W        W53856  18.165   4.852   9.958  0.2555  0.0028 -0.0920
45257W        W53857  11.418   2.633  12.381  0.0271 -0.4464 -0.0827
45258W        W53858  12.860   6.602   6.827  0.0225 -0.0944  0.0969
45259W        W53859   5.864   5.263  23.597  0.0636 -0.1244  0.3145
45260W        W53860  18.535   3.589   0.799  0.1300 -0.0598 -0.2452
45261W        W53861   5.650   2.488  27.068  0.0124  0.1175 -0.1826
45262W        W53862   0.604   1.782   3.554  0.0524 -0.0136 -0.1656
45263W        W53863  23.494   3.646   5.960 -0.2838  0.0433  0.3095
45264W        W53864  20.172   3.882  20.958  0.0771 -0.2157 -0.1210
45265W        W53865  15.503   4.856   5.885 -0.0885 -0.2357  0.2933
45266W        W53866   8.472   6.540  22.258 -0.1605 -0.1240  0.1001
45267W        W53867  17.922   6.023  27.497  0.2651  0.2031  0.0145
45268W        W53868  10.350   0.925  29.888  0.0149 -0.0407 -0.1155
45269W        W53869  22.948   0.733  28.626  0.3014 -0.1612 -0.2484
45270W        W53870  12.804   3.101  29.935 -0.2989 -0.0148  0.1219
45271W        W53871  19.662   2.079  28.720  0.0475  0.1377  0.1540
45272W        W53872  17.088   5.283   3.912 -0.2499  0.0026 -0.1063
45273W        W53873   5.604   1.005   2.422 -0.2433  0.3461  0.3578
45274W        W53874   8.335   2.488   4.005 -0.0246 -0.0469  0.1323
45275W        W53875  19.501   6.458  26.094 -0.1730  0.2467 -0.2448
45276W        W53876   7.186   4.709   3.390  0.1768  0.0221  0.0829
45277W        W53877   6.334   4.763   0.902 -0.0231  0.2615 -0.0808
45278W        W53878  21.241   0.199   4.768 -0.4699  0.0074  0.0940
45279W        W53879  20.783   1.966  34.473 -0.1356  0.1275  0.0854
45280W        W53880  10.820   5.265  28.623 -0.1910 -0.0462  0.7043
45281W        W53881   3.794   1.431  11.326 -0.0406 -0.2290  0.1921
45282W        W53882  24.000   0.190   3.635  0.2879 -0.0781  0.2329
45283W        W53883   0.541   4.096  14.166  0.0435 -0.1794 -0.1864
45284W        W53884   5.579   2.267  24.077 -0.1543  0.2898  0.1748
45285W        W53885  10.280   2.939  35.882  0.1053  0.1223  0.0188
45286W        W53886  26.179   5.614  33.050  0.1363 -0.2112  0.0592
45287W        W53887  25.964   3.832   8.276  0.0304  0.0071 -0.0138
45288W        W53888  15.102   6.422   3.909  0.0543 -0.2055 -0.2681
45289W        W53889  25.703   0.808  23.894  0.0170 -0.1340 -0.1016
45290W        W53890  21.999   3.559   3.162 -0.1220 -0.3183  0.0487
45291W        W53891  12.567   1.724  15.507  0.1837  0.3311  0.2572
45292W        W53892   7.969   6.515  22.302 -0.0163 -0.2210  0.1097
45293W        W53893  22.165   3.067  32.927  0.2104  0.0173 -0.2285
45294W        W53894   9.191   4.146   8.740 -0.0642  0.0259 -0.1703
45295W        W53895   2.656   3.932  22.098  0.0795  0.0205 -0.0297
45296W        W53896  14.341   5.800  27.298  0.2056 -0.1881 -0.0126
45297W        W53897  22.401   5.567   4.131  0.0095  0.1476 -0.1068
45298W        W53898   8.304   4.831  26.338 -0.0784  0.3781  0.2026
45299W        W53899  24.522   4.080   5.132 -0.0296 -0.2477  0.2101
45300W        W53900  25.822   3.828   7.331  0.1863  0.1868  0.2615
45301W        W53901  13.747   6.061   8.237 -0.0409 -0.0231  0.1059
45302W        W53902  16.305   2.141  26.958 -0.0755 -0.0502 -0.1238
45303W        W53903  21.764   0.084   3.568 -0.0550  0.0692 -0.0059
45304W        W53904  15.783   2.089  33.047 -0.2240  0.3377  0.0289
45305W        W53905   5.942   0.762  26.739  0.0581 -0.2068  0.1809
45306W        W53906   3.690   4.897  32.299  0.1302  0.1118 -0.1737
45307W        W53907  13.362   2.029  10.487 -0.2990 -0.0068 -0.1493
45308W        W53908  13.432   2.411  15.303  0.1084  0.1397 -0.0495
45309W        W53909   7.473   3.101  11.269 -0.0879  0.1063  0.0229
45310W        W53910   8.756   2.144  21.655 -0.0365 -0.0331 -0.0782
45311W        W53911   1.892   1.023  10.448 -0.0183  0.2330  0.3881
45312W        W53912  12.376   3.755  23.272  0.2986  0.1125  0.2803
45313W        W53913  17.790   5.385  12.025 -0.0073  0.2057 -0.0459
45314W        W53914   0.989   1.365   9.172 -0.0501 -0.2024  0.0977
45315W        W53915   3.200   2.319  27.630 -0.1643  0.1914  0.0040
45316W        W53916  24.386   3.669  23.128 -0.2168 -0.1769  0.1576
45317W        W53917  18.543   1.819  24.715  0.0821 -0.0445  0.1393
45318W        W53918   5.962   4.304  33.573  0.2320  0.0564 -0.0028
45319W        W53919   1.584   3.805   0.047  0.1923 -0.1219 -0.1900
45320W        W53920  24.532   1.369  24.093 -0.2603 -0.0160  0.0186
45321W        W53921  14.127   3.322  21.302 -0.0476  0.5891  0.0818
45322W        W53922  24.289   5.785  29.797  0.4036 -0.1909 -0.1093
45323W        W53923  19.826   2.088  14.953 -0.1219  0.1821 -0.1788
45324W        W53924  25.678   2.070   0.500  0.1887  0.0838 -0.0047
45325W        W53925  23.251   4.904   1.645 -0.1007  0.0668 -0.0273
45326W        W53926  12.587   3.894   8.352  0.3092  0.1128 -0.2279
45327W        W53927  10.663   5.073  15.133 -0.0864 -0.0958  0.0538
45328W        W53928  19.522   0.393  21.442  0.2370  0.0610  0.1424
45329W        W53929   2.866   2.161  25.555 -0.1487  0.1522  0.1150
45330W        W53930  20.015   2.558   4.723 -0.0426  0.1342  0.1494
45331W        W53931   3.321   6.166  31.219  0.2636  0.1022  0.0244
45332W        W53932   3.448   6.242   8.536  0.1146  0.1461  0.0011
45333W        W53933   8.701   6.478   0.251 -0.0119  0.1748 -0.0148
45334W        W53934  10.609   6.527  20.942  0.1027 -0.0668 -0.0076
45335W        W53935   9.385   0.244  14.260  0.1650 -0.3105  0.0611
45336W        W53936   5.602   3.206  32.399 -0.2361 -0.1132 -0.0595
45337W        W53937   9.044   0.405   6.084  0.0149 -0.3611  0.1557
45338W        W53938  22.242   6.104   7.940  0.2211  0.3570 -0.2117
45339W        W53939   7.324   2.731  10.514  0.2776  0.1390 -0.3592
45340W        W53940   6.749   5.798  30.675 -0.1693 -0.0534 -0.2683
45341W        W53941  17.972   0.244   0.649 -0.0005  0.0581 -0.4383
45342W        W53942   6.139   1.262  21.460  0.1732 -0.3027 -0.0526
45343W        W53943  23.413   0.153  13.737  0.1624  0.1078 -0.3518
45344W        W53944  15.696   3.540   7.997 -0.0314  0.3088  0.2444
45345W        W53945   5.165   3.439  24.223 -0.2304 -0.2852 -0.1987
45346W        W53946   7.505   1.477   3.627 -0.0250  0.1767  0.0464
45347W        W53947   4.600   2.988   3.402 -0.3838  0.0972  0.0247
45348W        W53948  10.926   4.218   9.993 -0.1496 -0.2072  0.0965
45349W        W53949  22.623   5.130  25.285 -0.0818 -0.2352  0.1391
45350W        W53950  16.160   5.180  13.595 -0.1866 -0.0826  0.1177
45351W        W53951  12.781   4.065  22.559  0.3687  0.0853 -0.1491
45352W        W53952   5.775   1.624   9.743 -0.1039  0.2912 -0.0022
45353W        W53953   6.703   4.930  10.049 -0.1305 -0.2851  0.1396
45354W        W53954  11.001   4.692  28.576  0.0201  0.1188 -0.0755
45355W        W53955  18.008   4.399   3.732 -0.3663  0.1735  0.1380
45356W        W53956   5.857   4.652  31.860  0.1512 -0.0238 -0.0103
45357W        W53957  14.969   3.784   9.322  0.4083 -0.3481 -0.0012
45358W        W53958  20.254   1.133  13.518 -0.0919 -0.0071 -0.0917
45359W        W53959  20.903   2.345  10.611  0.1036 -0.0830  0.0501
45360W        W53960  24.837   3.291  12.759  0.1611  0.1152  0.0945
45361W        W53961  18.099   1.053  30.521 -0.0211 -0.0559  0.0581
45362W        W53962  14.869   1.581  25.968 -0.1026  0.3197 -0.1207
45363W        W53963  13.916   3.819   9.992  0.3151  0.0842  0.1667
45364W        W53964  15.491   0.238  15.925 -0.1954 -0.1470  0.2789
45365W        W53965   2.294   1.536  35.100  0.0087 -0.0157  0.1048
45366W        W53966  15.620   3.741   0.207  0.0821 -0.1814  0.1078
45367W        W53967   1.465   0.338  30.330  0.0784  0.2100 -0.0662
45368W        W53968  22.664   5.972  25.196 -0.1486 -0.2139  0.0044
45369W        W53969   5.398   1.454  29.031  0.3281  0.1364 -0.3720
45370W        W53970   3.960   4.893  14.543 -0.1693  0.1368 -0.1525
45371W        W53971  11.262   4.634   8.954 -0.2529  0.0002 -0.0838
45372W        W53972   6.982   5.371  12.505 -0.0548  0.0253  0.0894
45373W        W53973  12.348   2.163  33.649 -0.0365 -0.1493 -0.0155
45374W        W53974  24.811   2.042  14.054  0.1499  0.2771 -0.0771
45375W        W53975  13.102   1.034   3.784  0.1130 -0.0507 -0.1616
45376W        W53976  22.354   4.720   6.629  0.0511 -0.4012  0.1096
45377W        W53977   7.798   2.757   1.042 -0.0246 -0.2665 -0.2440
45378W        W53978   5.998   3.365  32.601  0.0890 -0.0112 -0.1834
45379W        W53979  18.546   0.760  35.532  0.0054  0.0537 -0.0453
45380W        W53980  17.647   1.745  25.627  0.3348 -0.3016 -0.0920
45381W        W53981  15.993   5.130  21.376  0.0151 -0.0516 -0.1898
45382W        W53982  17.736   1.304   3.314  0.0072 -0.0276 -0.1251
45383W        W53983  24.433   2.445   8.934  0.0996 -0.3449  0.0460
45384W        W53984   2.298   3.987   7.452 -0.4552 -0.0930 -0.1320
45385W        W53985  17.503   0.518   2.167  0.0078  0.1898  0.2804
45386W        W53986   0.924   4.788  30.194 -0.0450 -0.1674 -0.0183
45387W        W53987  10.411   2.001   6.781  0.0201  0.3442 -0.0619
45388W        W53988  23.882   1.945  15.107 -0.1728  0.2319  0.0387
45389W        W53989   5.821   1.560  27.172 -0.3012 -0.0763 -0.0196
45390W        W53990   3.353   2.210   3.894  0.2581 -0.0782  0.1486
45391W        W53991   2.531   1.943   8.303  0.2027  0.0894 -0.1864
45392W        W53992  19.409   0.255  15.100  0.0926 -0.3802 -0.1711
45393W        W53993   0.648   1.568  12.986 -0.0928  0.0821  0.1609
45394W        W53994   4.505   1.718  33.407  0.3215 -0.1874  0.0053
45395W        W53995  12.934   2.644  14.601  0.2206 -0.0239 -0.0879
45396W        W53996   0.613   2.380  22.029 -0.0257 -0.3141  0.0661
45397W        W53997  15.951   1.542   3.240  0.1013 -0.1419 -0.2121
45398W        W53998  18.406   5.028  29.982  0.0338 -0.1028 -0.1367
45399W        W53999  17.565   2.635  31.650 -0.2613 -0.0619 -0.1178
45400W        W54000  26.085   2.616   9.681  0.1948  0.0710 -0.0577
45401W        W54001  14.247   0.353  14.037  0.3005 -0.1038  0.2209
45402W        W54002  12.605   5.848   8.394 -0.1998  0.0818  0.1873
45403W        W54003  20.886   0.347  23.173 -0.0358 -0.0127 -0.1576
45404W        W54004   1.117   2.590   6.928  0.0851 -0.3053  0.1005
45405W        W54005   7.625   1.832  14.470  0.0796  0.2105  0.0298
45406W        W54006   9.617   3.704  33.707  0.0926 -0.1650  0.1729
45407W        W54007   8.929   1.331   0.391 -0.0406  0.1515  0.0300
45408W        W54008   8.002   0.949  28.276 -0.1215  0.0864 -0.2191
45409W        W54009  25.519   0.199  27.293  0.2338 -0.1982 -0.0382
45410W        W54010   9.649   5.458  31.108  0.1693 -0.1305 -0.1513
45411W        W54011  16.403   2.403   1.873  0.3460  0.2805 -0.1554
45412W        W54012  20.559   3.028   4.447  0.2813 -0.1262 -0.0053
45413W        W54013  22.503   2.687   5.167  0.2695  0.1339 -0.1032
45414W        W54014  19.007   1.848   1.662  0.1075 -0.0948 -0.1493
45415W        W54015  14.779   2.055   6.399 -0.1512 -0.2417  0.3390
45416W        W54016  13.227   2.501  29.486  0.1075 -0.1185  0.1483
45417W        W54017   5.212   3.133   4.377  0.0744 -0.0276 -0.2195
45418W        W54018  16.974   2.158  32.979 -0.1149  0.0569 -0.0199
45419W        W54019  22.711   0.411  31.506  0.0147  0.1697 -0.2739
45420W        W54020   3.217   4.721   3.709 -0.0536 -0.1495 -0.2962
45421W        W54021  13.078   4.010  21.498  0.4554 -0.3182 -0.0882
45422W        W54022   7.088   0.004  11.968  0.0516 -0.0323  0.1901
45423W        W54023  14.737   1.395  20.666 -0.3459  0.2086 -0.0468
45424W        W54024   4.638   2.649  20.988 -0.0030 -0.1145  0.1405
45425W        W54025  10.754   4.596   1.999  0.1475  0.0540 -0.3670
45426W        W54026   9.734   0.078  13.848 -0.0698  0.0583  0.1750
45427W        W54027   8.767   2.283  13.032 -0.0587  0.0657  0.0372
45428W        W54028  10.532   4.417  23.574 -0.0154 -0.3113 -0.2169
45429W        W54029   8.200   1.073  25.212 -0.2274  0.2851  0.1566
45430W        W54030  20.156   4.135  34.965  0.0391  0.0644 -0.0823
45431W        W54031  10.773   1.684   6.680 -0.0380 -0.2507 -0.0778
45432W        W54032  18.470   6.030   8.856 -0.0720  0.1134 -0.2693
45433W        W54033  21.455   5.598   4.107  0.0224  0.0441  0.2192
45434W        W54034   4.296   2.136  10.930  0.1350 -0.1442 -0.3092
45435W        W54035   6.480   4.498  24.416  0.0507  0.2331 -0.1974
45436W        W54036  24.540   0.064  26.143  0.0345 -0.0672  0.1328
45437W        W54037   0.304   5.332  34.179  0.2068  0.3501 -0.2867
45438W        W54038  11.407   6.318   5.304 -0.0693  0.2610  0.1744
45439W        W54039  25.701   6.582  22.713 -0.0313  0.1200 -0.0520
45440W        W54040   6.319   6.366  28.186 -0.1052  0.4866  0.0648
45441W        W54041   4.795   4.539  32.067  0.0142 -0.0069  0.2495
45442W        W54042  21.498   5.362   7.547  0.1898  0.1596  0.2866
45443W        W54043  11.597   0.215  15.141 -0.0505  0.2803  0.2115
45444W        W54044  13.175   4.281   1.347 -0.1119 -0.4967 -0.1423
45445W        W54045   5.143   1.142  21.828  0.3181  0.1624 -0.2028
45446W        W54046  23.465   1.359  30.141 -0.0903 -0.3737  0.1523
45447W        W54047  13.328   4.849  29.062  0.2607  0.0575 -0.2426
45448W        W54048   3.396   0.978   4.255  0.0249  0.1959  0.0210
45449W        W54049  11.346   4.509  10.212 -0.1825 -0.1140  0.0001
45450W        W54050   2.529   3.810  30.850 -0.2048 -0.1162 -0.0938
45451W        W54051  17.197   2.543  27.061  0.0013 -0.0572  0.3844
45452W        W54052  13.719   5.930  24.175  0.1225  0.1328  0.3238
45453W        W54053   6.063   6.011  26.428 -0.0798  0.1660 -0.2004
45454W        W54054  15.037   0.835   1.891 -0.0513 -0.1818  0.1882
45455W        W54055   4.058   3.007  31.220 -0.1608 -0.0955  0.1472
45456W        W54056   7.898   3.654  12.764 -0.0623 -0.2628  0.1417
45457W        W54057   9.050   5.430  32.295  0.0691 -0.1152  0.2154
45458W        W54058  20.294   4.559   5.183 -0.0088 -0.0447 -0.1805
45459W        W54059  22.656   6.108   2.833  0.0678 -0.3121  0.0582
45460W        W54060  25.566   1.697  25.989 -0.2225  0.2863  0.1248
45461W        W54061  17.503   0.920  25.729  0.3399  0.0455 -0.0163
45462W        W54062   6.033   4.278  12.478  0.2492  0.2037 -0.0505
45463W        W54063   5.708   4.349   5.609  0.0164 -0.0573 -0.1468
45464W        W54064   4.403   5.231   6.630  0.0083 -0.1050  0.4766
45465W        W54065   2.486   2.709  32.248  0.1622  0.1708  0.4082
45466W        W54066   2.825   5.331  12.157 -0.0132 -0.1361 -0.1141
45467W        W54067  10.856   1.021  25.112 -0.1316 -0.2384 -0.2256
45468W        W54068  18.586   2.767  23.458 -0.3178 -0.0436  0.1552
45469W        W54069  11.631   3.182  30.912  0.3674  0.1270  0.3933
45470W        W54070  22.970   2.023  35.843 -0.5130 -0.0413  0.0660
45471W        W54071  15.204   0.403  29.302  0.1476 -0.2066  0.1599
45472W        W54072   0.251   1.701  10.583  0.1107  0.1219  0.0199
45473W        W54073   0.060   0.023  11.135 -0.1902  0.1066 -0.0273
45474W        W54074  12.378   3.019   2.397  0.0737  0.1149 -0.0217
45475W        W54075   4.656   4.303  27.508 -0.0007 -0.0342  0.3355
45476W        W54076  11.429   0.023  28.460  0.1925  0.2021 -0.0968
45477W        W54077  13.753   6.149  28.062 -0.0181 -0.2691  0.0134
45478W        W54078   6.076   4.181  32.031 -0.3799  0.0479  0.1498
45479W        W54079   7.791   2.352  25.639  0.0246  0.1061  0.2488
45480W        W54080   1.523   1.366   3.983  0.2323  0.1238 -0.0114
45481W        W54081  24.785   0.520   4.600 -0.1606  0.2271  0.2411
45482W        W54082  23.594   5.292  35.106  0.1741  0.2974 -0.2688
45483W        W54083   1.118   4.502   0.831 -0.0432 -0.1468 -0.2517
45484W        W54084  20.638   2.875   3.121 -0.0061 -0.1357  0.0006
45485W        W54085   7.014   4.159  29.459  0.3546  0.1766  0.1725
45486W        W54086  15.682   0.527  25.944 -0.1387  0.0217 -0.3403
45487W        W54087  10.723   3.650  35.892 -0.0841  0.0522  0.0305
45488W        W54088  19.370   5.599  35.021  0.0873 -0.0979 -0.0485
45489W        W54089  14.393   5.157   8.299 -0.0471 -0.0149  0.3597
45490W        W54090   0.346   5.997  21.272  0.0933 -0.4401 -0.1656
45491W        W54091   0.887   6.369  29.984  0.0314 -0.2770  0.0193
45492W        W54092  14.995   3.775   2.033 -0.1512 -0.1697 -0.2741
45493W        W54093   6.819   2.583  28.791 -0.0543 -0.1478 -0.1529
45494W        W54094   1.080   2.943  34.925  0.1817 -0.1494  0.0115
45495W        W54095  14.412   5.942   2.036  0.1348  0.1174  0.0999
45496W        W54096  23.090   0.422  15.426  0.0798 -0.1354 -0.0567
45497W        W54097  23.933   6.068  13.792 -0.1244  0.1209  0.0428
45498W        W54098   8.223   3.430   7.215  0.0397  0.2607 -0.2170
45499W        W54099  20.661   1.309  13.143 -0.0700  0.3190 -0.0890
45500W        W54100  15.185   4.553   2.616  0.0065 -0.0720  0.0299
45501W        W54101  24.728   2.602   6.831 -0.1892  0.1227  0.0440
45502W        W54102   0.184   0.599  28.186  0.3422  0.0327  0.3864
45503W        W54103   5.417   3.166  31.842 -0.3402 -0.0393 -0.0665
45504W        W54104  15.668   0.057  11.303 -0.0695 -0.2340 -0.0049
45505W        W54105   7.069   6.246  30.450 -0.3035 -0.0340  0.0225
45506W        W54106  18.838   3.327  11.338  0.1716 -0.0079  0.0856
45507W        W54107  12.451   1.909  27.974  0.0074  0.1874  0.0904
45508W        W54108  24.399   1.179  22.100  0.1683 -0.1976 -0.3744
45509W        W54109  20.429   6.245  34.606 -0.4542 -0.0396  0.1482
45510W        W54110   1.594   1.459   4.869 -0.2460 -0.0600 -0.0742
45511W        W54111  24.990   4.916  20.453 -0.3236  0.1276  0.0517
45512W        W54112  16.672   5.285  13.488 -0.2322 -0.0029  0.1485
45513W        W54113   7.887   2.728  10.511 -0.0426  0.1023 -0.1023
45514W        W54114  12.210   1.441   9.121  0.0129 -0.2252 -0.0782
45515W        W54115   7.654   3.759   7.758  0.1351  0.2283  0.3575
45516W        W54116  20.249   2.095  22.580 -0.5525 -0.0505  0.1009
45517W        W54117  21.457   5.640  25.180  0.1537 -0.0878 -0.2723
45518W        W54118  12.721   5.224   0.169  0.0621 -0.2719 -0.1838
45519W        W54119   6.771   3.627   0.772  0.1711  0.0885  0.2146
45520W        W54120   0.589   6.392   5.658 -0.1306 -0.0971  0.1332
45521W        W54121   0.761   3.795  20.881 -0.1024 -0.0803  0.0030
45522W        W54122  16.704   1.732  30.647  0.4259 -0.2063  0.2379
45523W        W54123  17.243   4.834  22.995 -0.2571  0.2704 -0.0065
45524W        W54124   4.089   2.188  27.939 -0.0626 -0.1401 -0.2636
45525W        W54125  12.031   0.282   6.328 -0.1346  0.0923  0.0854
45526W        W54126   5.043   6.516   3.224 -0.0376 -0.0633  0.0776
45527W        W54127  16.609   3.292  33.519  0.2730 -0.0175 -0.1147
45528W        W54128   4.556   3.449   8.048  0.2314 -0.0613 -0.0802
45529W        W54129  21.517   4.467   6.696  0.1228  0.0325  0.1455
45530W        W54130  21.523   4.227  13.245 -0.0123 -0.3071 -0.1752
45531W        W54131  22.431   6.042  32.718 -0.2011 -0.0880 -0.0313
45532W        W54132   2.348   2.767  26.375 -0.1422  0.0902  0.0061
45533W        W54133   3.631   3.706  36.098  0.1437 -0.0148  0.0829
45534W        W54134  19.574   6.036  27.109  0.0208  0.0804 -0.1746
45535W        W54135   0.571   0.599  27.817 -0.0205  0.1219  0.0985
45536W        W54136   7.755   6.409  26.917  0.3080  0.0973 -0.0002
45537W        W54137  14.762   3.279   8.896 -0.0630  0.1543  0.0228
45538W        W54138  24.440   5.833  14.528 -0.0169 -0.1880  0.1783
45539W        W54139   2.538   2.107  31.641 -0.1050  0.1105  0.2271
45540W        W54140  10.402   5.795   7.111  0.1460 -0.0580  0.2655
45541W        W54141   7.160   2.176  11.368  0.4175  0.2159 -0.1353
45542W        W54142  12.018   6.434  25.174 -0.0749 -0.1220  0.1182
45543W        W54143  23.463   3.543  14.115  0.1308  0.4117  0.2425
45544W        W54144   1.721   4.406   4.166 -0.0142 -0.1036 -0.0478
45545W        W54145   5.509   4.884  25.364  0.1892  0.2540  0.1084
45546W        W54146  18.180   6.152  31.617  0.3132 -0.0365 -0.0326
45547W        W54147   3.602   6.126  10.996 -0.1704 -0.1025 -0.0780
45548W        W54148   0.860   3.789  35.027 -0.1287  0.2434  0.0693
45549W        W54149  15.605   4.815  21.410  0.2715  0.2149 -0.0972
45550W        W54150   0.077   3.360  35.987  0.1226 -0.1246 -0.1017
45551W        W54151   3.653   4.186   0.253 -0.0989 -0.0707 -0.1336
45552W        W54152  14.052   1.411  14.299 -0.1733  0.3107  0.1012
45553W        W54153   7.516   4.981  36.142 -0.0388  0.2052  0.3368
45554W        W54154   1.021   3.523   9.490  0.1452 -0.0549  0.2849
45555W        W54155  17.928   2.298  34.548  0.3172 -0.1930 -0.0102
45556W        W54156   0.838   1.679  33.112  0.1459  0.1156 -0.2311
45557W        W54157   7.487   4.445  33.671 -0.2653 -0.1879  0.1862
45558W        W54158  22.468   2.501  30.808 -0.1798  0.0801 -0.0364
45559W        W54159  20.428   3.293  30.388  0.0532  0.0127  0.1573
45560W        W54160   7.368   0.134  12.390 -0.0882 -0.0559  0.1575
45561W        W54161  23.411   6.573  31.462  0.0313 -0.5814 -0.0856
45562W        W54162   1.509   2.021  22.286 -0.0736  0.5491 -0.1819
45563W        W54163   9.064   3.312  26.460  0.0720  0.2689 -0.2639
45564W        W54164   9.258   0.952  34.542 -0.1242  0.1077 -0.3070
45565W        W54165  12.512   6.521  11.025  0.0510 -0.1412 -0.1306
45566W        W54166   4.371   4.518   1.839 -0.0081 -0.0067 -0.2110
45567W        W54167   4.338   3.130   0.733  0.0313 -0.2501  0.3389
45568W        W54168  14.375   1.220   4.482 -0.0259 -0.3869 -0.2856
45569W        W54169   3.686   0.017  10.654  0.0329  0.4578  0.0584
45570W        W54170  12.020   2.322  14.464 -0.0628  0.0077  0.0725
45571W        W54171  13.825   6.132  35.804  0.0480  0.4371 -0.0298
45572W        W54172   2.249   0.060  33.356 -0.2227  0.1621 -0.0471
45573W        W54173   4.347   0.793  12.138  0.0905 -0.2789  0.0542
45574W        W54174   8.379   3.546  14.082 -0.0097 -0.3641  0.2711
45575W        W54175  23.165   0.083  22.912 -0.1794 -0.0852 -0.4989
45576W        W54176  20.029   4.681  32.161 -0.0879  0.2034  0.2529
45577W        W54177  12.975   3.673   2.556 -0.1660 -0.2325 -0.0484
45578W        W54178   9.919   6.320   7.759 -0.0156 -0.1676 -0.2556
45579W        W54179   2.084   5.548  23.098  0.1534 -0.0694  0.2043
45580W        W54180   7.738   3.135  14.432  0.0235 -0.2771  0.1536
45581W        W54181  13.283   5.852  26.567 -0.0066 -0.1276 -0.1251
45582W        W54182  24.711   1.489   2.674 -0.0846 -0.0680  0.0119
45583W        W54183  18.595   3.117  26.940 -0.4915  0.0437  0.1286
45584W        W54184   2.579   5.651   2.446  0.5280 -0.2033  0.1247
45585W        W54185  16.992   4.783  23.539  0.1603 -0.1964  0.2192
45586W        W54186  25.075   2.182  32.687 -0.1772  0.0228 -0.0454
45587W        W54187  18.706   0.393  31.966  0.2201  0.2506  0.1128
45588W        W54188  18.082   0.415   3.235  0.1946 -0.0868 -0.1391
45589W        W54189  15.668   2.287   2.624 -0.0209 -0.0366  0.3156
45590W        W54190   0.228   5.573  11.352 -0.1254  0.2570  0.0747
45591W        W54191  22.407   6.307  27.149 -0.2638 -0.1782  0.0859
45592W        W54192  14.551   1.532  12.133 -0.1207 -0.0427 -0.0333
45593W        W54193   0.487   4.877  31.780  0.0071 -0.1706 -0.0353
45594W        W54194   4.823   3.987   3.419  0.0428  0.3258 -0.2096
45595W        W54195  14.731   2.669   9.556  0.2632 -0.0207  0.0196
45596W        W54196  22.596   4.051   8.833  0.1330 -0.3026 -0.1418
45597W        W54197  26.204   4.867  27.293  0.4416  0.0323 -0.0581
45598W        W54198  18.873   2.290  22.838 -0.2509  0.0750  0.0776
45599W        W54199   0.573   1.472  35.638  0.2002 -0.0506 -0.2828
45600W        W54200   7.747   4.442  28.830  0.3485  0.0656 -0.2309
45601W        W54201  17.692   4.482   5.169  0.4099 -0.1782 -0.2878
45602W        W54202   4.093   1.527  21.232  0.1024 -0.1946  0.1096
45603W        W54203  12.677   5.115   6.064 -0.1834 -0.3600  0.1960
45604W        W54204  17.033   3.539   6.455  0.1511 -0.0368 -0.0327
45605W        W54205   4.712   2.892  23.930  0.1490  0.1455  0.0023
45606W        W54206  17.302   4.866   2.096  0.3833 -0.0327 -0.1165
45607W        W54207  12.094   4.997   4.048 -0.0066  0.2028 -0.2099
45608W        W54208  10.934   3.525  24.694  0.0501 -0.1119  0.0907
45609W        W54209  11.316   0.719  27.562  0.2181  0.2498  0.2089
45610W        W54210   8.770   1.193   3.498  0.2637 -0.4138 -0.0386
45611W        W54211  16.502   5.382   1.667 -0.3844 -0.1789 -0.1553
45612W        W54212  22.115   5.269  34.970  0.3398 -0.0808  0.0520
45613W        W54213   7.107   2.402   4.598  0.2835 -0.3196  0.0328
45614W        W54214  19.194   5.006  23.221  0.1311 -0.1718 -0.0266
45615W        W54215  18.971   2.287   7.804  0.3908 -0.1011 -0.2030
45616W        W54216  21.227   3.801  28.858  0.2506 -0.2796  0.3546
45617W        W54217   6.570   6.187  27.277 -0.2298  0.2270 -0.0950
45618W        W54218  21.637   0.566  12.848  0.4010  0.1054  0.2108
45619W        W54219  19.248   0.333  23.383  0.0143 -0.0902 -0.3767
45620W        W54220  19.869   4.635   0.500 -0.1494 -0.0801  0.3944
45621W        W54221   8.750   1.058  28.142  0.1746 -0.3834 -0.0548
45622W        W54222  10.133   6.328  34.897  0.1147 -0.1450 -0.2808
45623W        W54223   6.850   2.676   2.914 -0.0417 -0.0042 -0.0436
45624W        W54224   3.587   6.268   5.831 -0.2206  0.1153 -0.1718
45625W        W54225   0.706   0.309   3.871  0.0108 -0.0100  0.2382
45626W        W54226  17.899   4.428  14.844  0.1400 -0.2179  0.1845
45627W        W54227   5.406   5.182   1.543  0.1162  0.0615 -0.0157
45628W        W54228  22.031   4.474  14.237  0.0818  0.2904  0.4237
45629W        W54229   7.240   0.162  34.219 -0.3179 -0.3185  0.1414
45630W        W54230   4.901   5.942   9.099  0.2901  0.2283  0.1908
45631W        W54231  16.798   4.476  13.788  0.0850 -0.0383 -0.0601
45632W        W54232   2.579   6.295   5.909 -0.2489  0.1249  0.1513
45633W        W54233  16.196   3.321  33.820 -0.1062 -0.4303  0.3018
45634W        W54234  22.591   5.926   6.487 -0.1233 -0.2698 -0.0494
45635W        W54235  15.447   4.441  34.033 -0.0775  0.2408 -0.0689
45636W        W54236  16.985   6.357   8.589  0.0490 -0.0759 -0.1255
45637W        W54237  16.853   5.222   2.028 -0.0473  0.2627  0.2940
45638W        W54238  25.524   4.638  12.234  0.1363  0.4685 -0.0979
45639W        W54239  19.896   0.604  12.232  0.4801 -0.1971 -0.0398
45640W        W54240  21.851   5.678  35.024  0.3266 -0.0122 -0.0414
45641W        W54241  24.109   4.948  31.868  0.1384 -0.2318 -0.1108
45642W        W54242  18.175   1.867  32.486 -0.1430 -0.1760  0.1434
45643W        W54243   7.774   5.024  22.357  0.3024  0.0926 -0.0476
45644W        W54244  14.679   4.001  31.161  0.3798  0.0850 -0.0110
45645W        W54245   4.893   6.279  10.742  0.0885 -0.0486 -0.1071
45646W        W54246   8.979   0.956  29.554  0.1693 -0.3285  0.2271
45647W        W54247  14.783   1.457  22.295 -0.1270  0.2666 -0.1481
45648W        W54248   9.330   1.048  12.455 -0.3025 -0.0550  0.0116
45649W        W54249   0.087   1.592  25.646  0.2319  0.0042 -0.1281
45650W        W54250   9.659   4.797  35.297 -0.1295  0.1066  0.1254
45651W        W54251   9.337   0.168  24.757  0.1441 -0.4138  0.0412
45652W        W54252  25.406   0.186   2.087 -0.1899  0.0885 -0.3655
45653W        W54253  13.294   1.780  33.594  0.1155 -0.1497 -0.1441
45654W        W54254  17.879   4.111  31.094 -0.2081 -0.1948 -0.3370
45655W        W54255  16.014   6.416  24.537 -0.0567 -0.0936  0.1252
45656W        W54256  17.906   4.599  28.108  0.0056 -0.1053 -0.2062
45657W        W54257  13.141   4.032  25.134 -0.1563  0.1394  0.0245
45658W        W54258   0.869   5.670   2.172 -0.0764 -0.0451 -0.0423
45659W        W54259   2.212   2.212  27.059  0.1531  0.0756 -0.0716
45660W        W54260  23.324   0.709  12.062 -0.0494 -0.0519 -0.1042
45661W        W54261   6.686   5.292  35.802 -0.1985  0.0849 -0.1072
45662W        W54262  14.392   0.020  14.835  0.0491 -0.1249  0.1202
45663W        W54263  21.476   2.126  12.804  0.1373 -0.2190 -0.0401
45664W        W54264  23.463   0.408  33.601 -0.2989 -0.0494 -0.1839
45665W        W54265   8.856   4.976  30.642 -0.0800 -0.2740 -0.0969
45666W        W54266   6.256   3.894  30.968 -0.0400 -0.0461 -0.1195
45667W        W54267  12.268   0.720  10.138  0.0220 -0.0998 -0.1386
45668W        W54268   9.276   5.059  25.725  0.1411 -0.1452 -0.2873
45669W        W54269  25.964   0.817  13.572  0.1214 -0.1082  0.1194
45670W        W54270  18.111   4.408   5.886  0.1125  0.0039  0.3408
45671W        W54271  16.131   4.316  22.524 -0.0828 -0.1024  0.1335
45672W        W54272  11.717   0.108  11.514  0.2726  0.2460 -0.2916
45673W        W54273  20.231   0.348  23.199 -0.2152 -0.1632  0.4878
45674W        W54274  10.581   6.397   9.281 -0.0064 -0.0947 -0.2178
45675W        W54275  16.985   5.885  35.995  0.2202  0.0713 -0.0713
45676W        W54276   0.048   0.788  24.759 -0.0161 -0.0440  0.0173
45677W        W54277  12.081   4.876  29.099 -0.1543  0.0917 -0.1556
45678W        W54278   3.746   6.215  24.992  0.1990  0.1495  0.1967
45679W        W54279   6.961   4.862  22.468  0.0332  0.1076  0.0865
45680W        W54280   7.919   0.300   1.202 -0.0654  0.1574 -0.2203
45681W        W54281  14.885   5.089   6.328  0.1353  0.2196  0.0955
45682W        W54282  26.261   1.793  12.510  0.0798 -0.1090  0.3656
45683W        W54283  25.224   1.749  34.564  0.2878 -0.2332  0.0776
45684W        W54284   9.223   1.513  24.908 -0.0981 -0.2012 -0.0935
45685W        W54285  12.072   0.474   8.765 -0.1327  0.0908  0.0214
45686W        W54286  21.011   1.531  12.961 -0.1727 -0.3551  0.1896
45687W        W54287   1.007   2.209  34.030 -0.1571 -0.0994  0.1777
45688W        W54288  17.492   3.009  10.619 -0.0851  0.1005 -0.0513
45689W        W54289   0.814   6.589  15.121  0.0368 -0.2565  0.0518
45690W        W54290  25.233   0.305   9.830 -0.0590  0.1692 -0.1228
45691W        W54291  19.539   4.313  15.013 -0.1173  0.1481 -0.0300
45692W        W54292   7.159   2.401  10.852  0.0411 -0.0332  0.2321
45693W        W54293  15.600   3.570  12.799 -0.1263  0.1300 -0.0374
45694W        W54294   7.933   0.685  32.403 -0.0225 -0.0120  0.3505
45695W        W54295   0.538   0.544  12.827 -0.1805 -0.2823  0.2001
45696W        W54296   9.637   5.801  13.076 -0.0199 -0.4321  0.0185
45697W        W54297  13.686   0.558   2.535  0.1322 -0.0976  0.1503
45698W        W54298  23.242   2.756   0.823  0.3119  0.1232  0.0562
45699W        W54299   1.916   3.579   8.483 -0.1404 -0.4769 -0.4561
45700W        W54300  22.680   1.845  11.980 -0.1403  0.1800  0.2110
45701W        W54301   4.736   5.519   7.063  0.1937 -0.3154 -0.2731
45702W        W54302   9.193   2.179   1.114 -0.2132  0.1716  0.0150
45703W        W54303   5.778   1.513  31.314  0.1813 -0.0382  0.0328
45704W        W54304  10.257   0.046   2.213 -0.1341  0.2233 -0.5640
45705W        W54305  26.365   2.172  34.214  0.2394 -0.3358  0.0615
45706W        W54306  22.098   6.262  10.814  0.2532 -0.2585  0.2550
45707W        W54307  15.002   3.006   0.275 -0.0544  0.2692  0.0900
45708W        W54308  26.039   6.514   8.067  0.1396 -0.0195  0.1723
45709W        W54309  18.870   3.303  22.433 -0.0433 -0.1186 -0.1585
45710W        W54310  19.230   3.010  27.223 -0.1865  0.1878  0.1039
45711W        W54311   1.761   4.033  27.384  0.0833 -0.0130  0.4404
45712W        W54312   5.496   4.364  20.934  0.2437 -0.2413  0.0510
45713W        W54313  12.175   6.150   6.828  0.1761 -0.1091 -0.0816
45714W        W54314  23.323   5.237  13.526 -0.1546 -0.2607  0.1951
45715W        W54315  10.137   4.059   3.373 -0.1417 -0.0402  0.2757
45716W        W54316   3.494   0.260   8.063  0.1943  0.1274 -0.3419
45717W        W54317  25.786   3.116  28.663  0.2712  0.3759 -0.2049
45718W        W54318   1.626   1.934  30.064  0.0376 -0.0474  0.1486
45719W        W54319  14.282   1.773  29.664 -0.1249  0.0174 -0.0089
45720W        W54320  13.643   3.258  12.402 -0.1407 -0.0277  0.1648
45721W        W54321  14.028   3.868   0.463 -0.0970  0.1278  0.0555
45722W        W54322  21.306   1.161  20.937 -0.0196 -0.2151 -0.3014
45723W        W54323   7.861   2.251  28.686 -0.0817 -0.0467  0.3341
45724W        W54324  21.714   0.224  32.913 -0.0928  0.0921 -0.1003
45725W        W54325  10.507   6.500   6.060 -0.1430 -0.3165 -0.0581
45726W        W54326   1.632   0.231   0.783 -0.1001  0.0752  0.0575
45727W        W54327  15.223   3.358   9.337 -0.2925 -0.0123 -0.0545
45728W        W54328  23.965   2.866  27.802  0.3364  0.2137 -0.2053
45729W        W54329  11.067   6.233  32.193  0.0704 -0.0055  0.2278
45730W        W54330  26.191   6.284   6.160  0.1997  0.0491  0.0286
45731W        W54331  11.480   4.264  21.474 -0.1701 -0.3570 -0.1066
45732W        W54332   1.566   5.589  28.772 -0.0061 -0.2069 -0.0247
45733W        W54333   2.461   1.765  19.907  0.0812  0.3712  0.0099
45734W        W54334   6.068   2.520  24.922 -0.1221  0.1023 -0.1924
45735W        W54335   6.048   5.245  33.997  0.0880 -0.1194 -0.0046
45736W        W54336   2.268   3.909  28.827  0.0085  0.0547 -0.2444
45737W        W54337  12.673   0.613   1.640 -0.0774 -0.0914 -0.3046
45738W        W54338   7.076   2.061  20.599  0.0614  0.1761 -0.2341
45739W        W54339  16.446   3.358   7.150  0.0883  0.0638  0.0052
45740W        W54340   7.604   2.765  10.042 -0.0732  0.0603  0.1273
45741W        W54341   1.943   2.755  28.468 -0.1283  0.0242 -0.0720
45742W        W54342  24.206   2.322  23.584  0.2301  0.1326  0.1827
45743W        W54343  16.099   3.745  14.877  0.0017 -0.0715 -0.3849
45744W        W54344  24.373   2.289  14.277 -0.0234  0.1717  0.1091
45745W        W54345  16.397   1.197  21.495 -0.1514  0.3230  0.1724
45746W        W54346   7.328   0.679  22.960  0.1491 -0.1803  0.1471
45747W        W54347   1.044   2.210  25.079  0.1597  0.1825 -0.1128
45748W        W54348   6.818   0.294  26.307  0.2888  0.0991  0.1278
45749W        W54349  20.679   1.292  32.827  0.1498  0.1193  0.2512
45750W        W54350   3.518   1.389   1.669 -0.2254 -0.1732 -0.0398
45751W        W54351   9.718   0.054  11.476 -0.1679  0.0252 -0.2122
45752W        W54352   4.637   1.203   0.033 -0.0160  0.0327  0.1839
45753W        W54353  11.309   3.772  27.383 -0.1509 -0.1836  0.1441
45754W        W54354  11.543   1.254  33.736  0.2243 -0.2053 -0.2378
45755W        W54355  13.438   4.100  31.624 -0.0556  0.0437  0.1333
45756W        W54356  19.870   3.116   0.886 -0.0409 -0.1136 -0.0183
45757W        W54357  12.935   1.969  12.412 -0.0084  0.0483 -0.0465
45758W        W54358  17.603   6.155  14.147 -0.0010 -0.0993 -0.3482
45759W        W54359  19.249   5.732  28.840 -0.3575  0.1447 -0.0841
45760W        W54360   2.257   2.340   5.410 -0.0814 -0.2968 -0.1164
45761W        W54361  17.752   0.691  15.332  0.0128 -0.1331 -0.0744
45762W        W54362  18.542   2.491  13.349  0.0756  0.0129  0.1182
45763W        W54363  25.602   3.715   1.609  0.3435 -0.1421  0.3190
45764W        W54364   0.288   6.550  26.186 -0.0051  0.1086 -0.1954
45765W        W54365   5.867   6.522   8.804  0.3037  0.1026  0.1327
45766W        W54366  14.190   0.799  13.784  0.1063  0.1633 -0.0874
45767W        W54367   1.685   6.133  11.032 -0.0009 -0.0137  0.3349
45768W        W54368   1.373   2.036  11.642 -0.1248 -0.2577 -0.0234
45769W        W54369  25.361   1.401  10.624  0.0358 -0.2006  0.1923
45770W        W54370   1.352   2.979  33.197  0.2994 -0.0221 -0.0612
45771W        W54371  23.794   5.157  29.164  0.0297 -0.0355  0.0869
45772W        W54372  22.800   3.876  25.391  0.0158  0.0473  0.0070
45773W        W54373   4.106   6.003  32.362  0.1970  0.0336  0.0019
45774W        W54374   8.698   2.448  32.609  0.2849  0.0060 -0.1024
45775W        W54375  24.887   0.389  22.747 -0.1081  0.1700  0.0487
45776W        W54376   7.529   1.938   1.331  0.2762 -0.1063  0.0479
45777W        W54377  10.436   3.134   3.580  0.0878 -0.1368 -0.1320
45778W        W54378  16.864   5.239  31.889  0.1741 -0.0548 -0.1038
45779W        W54379  10.126   2.135  24.604 -0.2899 -0.0781 -0.0408
45780W        W54380   2.615   4.124  32.561  0.1024 -0.0558  0.0403
45781W        W54381  17.901   2.252   8.379  0.0468 -0.2088  0.3076
45782W        W54382  18.521   1.536  22.857 -0.0403 -0.0853  0.0125
45783W        W54383   7.173   4.836  30.695  0.3307 -0.3955  0.0674
45784W        W54384  11.809   5.022   9.531  0.2048  0.0356 -0.0273
45785W        W54385   6.069   4.144  24.960  0.0998 -0.1028  0.3673
45786W        W54386  23.727   5.182  33.194 -0.0589 -0.0770  0.1595
45787W        W54387  13.014   2.328  34.874 -0.0390 -0.2037  0.1317
45788W        W54388  26.110   2.563   8.461  0.1294  0.0448 -0.1251
45789W        W54389  21.896   0.532  10.022  0.2116 -0.0330  0.0626
45790W        W54390   3.959   1.505  24.709  0.2137 -0.1652 -0.1309
45791W        W54391  15.014   5.046  23.900 -0.0021 -0.1446  0.0728
45792W        W54392  21.362   3.371  31.174  0.0898 -0.2119  0.1827
45793W        W54393   0.610   4.604  11.359  0.3136  0.0335 -0.1027
45794W        W54394  22.430   6.108  13.299  0.1309 -0.0901 -0.1158
45795W        W54395   0.231   4.097   4.271  0.1589  0.3170 -0.0944
45796W        W54396  10.113   4.218  27.836  0.0418 -0.0024  0.0438
45797W        W54397  17.635   5.932   5.183  0.1594  0.2128 -0.0704
45798W        W54398   3.247   3.161  27.388 -0.0086  0.4188  0.0676
45799W        W54399  25.230   5.473   0.875 -0.1097  0.1112 -0.2327
45800W        W54400  10.005   3.812  25.630  0.0774 -0.0892  0.3168
45801W        W54401  17.946   6.549  31.912  0.1059  0.1326 -0.0504
45802W        W54402   2.240   3.233  35.975  0.0433  0.0209  0.1923
45803W        W54403  13.055   2.802   6.417  0.0221 -0.0668 -0.2104
45804W        W54404  10.569   5.022  34.774 -0.0563  0.2296 -0.1013
45805W        W54405  15.318   6.598  31.738  0.1229 -0.2481  0.3968
45806W        W54406  20.258   3.633   6.105 -0.0890 -0.0462 -0.1282
45807W        W54407   7.415   1.272  12.704 -0.1233  0.0790 -0.0092
45808W        W54408  10.947   4.063  27.568  0.1250  0.0231 -0.0947
45809W        W54409  13.124   2.369   2.334  0.1666 -0.1217 -0.1493
45810W        W54410  16.194   4.265  26.815  0.0949  0.0103  0.0866
45811W        W54411   8.333   4.826  25.439  0.1228  0.1181  0.1728
45812W        W54412  17.358   5.520  10.872  0.0454 -0.4524 -0.2393
45813W        W54413  11.800   2.463   9.306 -0.0792  0.0838 -0.3684
45814W        W54414   8.638   4.711  33.068  0.3252 -0.1812  0.1283
45815W        W54415  19.194   3.676  22.240 -0.5392  0.0852  0.0348
45816W        W54416  20.028   2.062   4.615  0.1562 -0.0562 -0.5726
45817W        W54417   4.115   5.448   2.327  0.0716 -0.2063 -0.0631
45818W        W54418  10.636   2.880  29.619 -0.1912 -0.0730 -0.1863
45819W        W54419   0.075   5.583   2.646 -0.0747 -0.0289 -0.0225
45820W        W54420  19.095   4.588   2.936 -0.2235 -0.1967  0.0319
45821W        W54421  18.672   6.210   6.898 -0.1865  0.2671  0.0646
45822W        W54422  21.619   1.168  29.141 -0.1196 -0.0533 -0.1028
45823W        W54423  10.815   2.604  34.452  0.0269  0.2079 -0.1633
45824W        W54424   3.147   1.109  29.607 -0.2271  0.2927 -0.2145
45825W        W54425  18.334   3.894   1.676  0.0890 -0.2290  0.3548
45826W        W54426   0.056   1.813   7.230  0.2732  0.4497 -0.0693
45827W        W54427  10.637   1.121   7.452  0.0905 -0.3127  0.0613
45828W        W54428  11.446   1.378   3.477 -0.0293 -0.0840 -0.0594
45829W        W54429  22.863   0.884   4.634  0.2145 -0.1932  0.0799
45830W        W54430  15.189   2.477  13.184  0.0345 -0.1589 -0.0018
45831W        W54431  23.495   0.166  12.880 -0.1023 -0.0865  0.1871
45832W        W54432   0.042   6.223  14.760  0.0721 -0.1861  0.1365
45833W        W54433  13.288   6.350   8.227 -0.0497  0.3515  0.0955
45834W        W54434  21.105   5.178  34.379  0.0720 -0.1011 -0.0055
45835W        W54435  18.144   2.288  35.457 -0.0950 -0.1298  0.0481
45836W        W54436  18.529   3.416   3.348  0.0603  0.2021  0.1203
45837W        W54437  13.336   6.395  28.312  0.2381 -0.0548  0.0205
45838W        W54438  26.189   4.717   0.361  0.0499 -0.0449  0.1379
45839W        W54439  11.096   3.987  33.093  0.0713 -0.1154 -0.0812
45840W        W54440   7.400   3.814   0.102 -0.2347 -0.1056 -0.0215
45841W        W54441  19.521   2.794  30.208  0.0006  0.2567  0.2620
45842W        W54442   7.925   3.548  34.040  0.0902 -0.0169  0.0141
45843W        W54443   3.869   5.053  15.362 -0.0373  0.0422 -0.0735
45844W        W54444   9.418   3.666   1.017  0.2430 -0.0296 -0.5013
45845W        W54445   4.308   1.541  22.898 -0.0521  0.0406 -0.2763
45846W        W54446  21.519   5.675   3.308 -0.0846 -0.2257 -0.2212
45847W        W54447  17.348   0.597  31.385  0.1185 -0.1483  0.0352
45848W        W54448   9.163   1.728  26.240  0.1655  0.3086  0.1986
45849W        W54449  19.820   4.034   3.164 -0.1211  0.0770  0.0620
45850W        W54450  24.898   5.321  22.371  0.1905 -0.0325 -0.0236
45851W        W54451  26.237   4.379   7.450  0.3512  0.0617 -0.0587
45852W        W54452  22.056   1.400  21.553 -0.1074  0.3294  0.5314
45853W        W54453  21.893   1.658  21.189 -0.1781  0.0152  0.3548
45854W        W54454  13.655   0.696   9.226  0.1567  0.1564  0.1169
45855W        W54455  18.333   4.796   3.476 -0.0360  0.1512  0.0254
45856W        W54456  24.479   5.795  21.312  0.0677 -0.2093  0.1024
45857W        W54457   9.740   5.591  13.902  0.0336 -0.0148  0.4434
45858W        W54458  15.033   5.092  29.139 -0.0033 -0.0471 -0.2342
45859W        W54459  18.003   5.477  35.810 -0.0281  0.2026 -0.0113
45860W        W54460  15.685   1.622  27.828  0.0667  0.5630 -0.3510
45861W        W54461  21.211   0.528   7.391  0.0472 -0.1044 -0.0407
45862W        W54462  21.800   2.197  13.226  0.1167 -0.2550  0.0620
45863W        W54463  17.033   1.802  14.225 -0.0285  0.0079 -0.1900
45864W        W54464  24.289   1.492   8.261  0.0591  0.2297  0.0080
45865W        W54465  18.406   6.446  12.877 -0.1573 -0.0681 -0.1154
45866W        W54466   4.337   2.834   8.931  0.1517  0.1377 -0.1617
45867W        W54467   1.945   0.281  30.920 -0.0895 -0.0144 -0.2187
45868W        W54468  11.163   2.786   6.674  0.0988 -0.2172 -0.1877
45869W        W54469  25.735   0.563  30.963  0.3047  0.0085  0.1054
45870W        W54470  11.886   1.027  10.871  0.0736 -0.1382  0.0795
45871W        W54471  10.045   6.502  24.203  0.3453 -0.0951 -0.2500
45872W        W54472   7.072   5.164   7.811 -0.0097  0.2460 -0.2384
45873W        W54473   9.210   1.040   2.628 -0.0063  0.0292  0.0570
45874W        W54474  21.969   0.134  13.823 -0.1592 -0.0937 -0.1090
45875W        W54475  12.661   0.062  33.413  0.1728  0.0417 -0.2046
45876W        W54476   8.525   3.394  33.034 -0.0553 -0.1023 -0.0074
45877W        W54477  25.519   4.145  30.749  0.0292  0.1596  0.0322
45878W        W54478   2.720   4.242  14.387 -0.4117  0.0386 -0.1956
45879W        W54479  21.654   0.560  26.408 -0.0807  0.0417 -0.0431
45880W        W54480  13.279   0.236   1.077  0.1242  0.2508  0.0291
45881W        W54481  20.657   5.135  13.680 -0.1951 -0.0703 -0.0426
45882W        W54482  11.636   2.585  25.085  0.1820 -0.1657  0.0759
45883W        W54483  13.138   1.881  14.302 -0.0466 -0.0398  0.2508
45884W        W54484  19.721   2.039  33.931  0.4021  0.0680  0.0613
45885W        W54485  16.296   0.937  27.445  0.1460 -0.1260  0.1856
45886W        W54486   3.212   2.309  32.298 -0.2391  0.1982 -0.2732
45887W        W54487   5.255   5.939  22.938 -0.6340  0.0984  0.2015
45888W        W54488  22.603   5.864   0.538 -0.2524 -0.1740  0.2241
45889W        W54489  23.487   2.633  29.134  0.1861 -0.2341 -0.0916
45890W        W54490  22.179   1.168   9.922 -0.2148 -0.2051 -0.0441
45891W        W54491  15.787   5.714   4.920 -0.0083 -0.1068 -0.3428
45892W        W54492  22.351   3.617  26.313 -0.1374 -0.0316  0.0155
45893W        W54493   1.517   4.776  12.011 -0.3083 -0.0289 -0.1292
45894W        W54494  18.876   6.556  31.981 -0.2585 -0.1381 -0.0408
45895W        W54495  19.684   3.842  35.800  0.4063  0.0209 -0.1598
45896W        W54496  10.686   2.918  32.420 -0.1696 -0.2252 -0.2115
45897W        W54497  10.001   4.044  28.321 -0.3160  0.1073 -0.2176
45898W        W54498  17.004   3.338  23.142  0.3949  0.3231  0.0163
45899W        W54499   3.710   5.274   5.559 -0.0611  0.0380 -0.0447
45900W        W54500   4.404   0.798  34.406 -0.2500 -0.0576  0.0136
45901W        W54501  22.792   1.570  33.280 -0.0231 -0.2120  0.1748
45902W        W54502   5.272   2.215   8.923  0.1392 -0.1651 -0.1456
45903W        W54503  18.304   0.190  29.266  0.0414 -0.1918 -0.1055
45904W        W54504  19.329   3.532  35.792  0.1208 -0.0262 -0.1526
45905W        W54505  21.581   4.779  31.030  0.1489 -0.0188 -0.0017
45906W        W54506  19.514   6.090  32.414 -0.1508  0.3661 -0.0158
45907W        W54507  21.193   2.234  14.610  0.0594 -0.0611 -0.0313
45908W        W54508   3.891   5.644  32.847 -0.1966  0.1375 -0.2336
45909W        W54509   3.050   0.617  27.938  0.1457 -0.1177 -0.1102
45910W        W54510   1.130   1.217  31.711  0.2257 -0.2787  0.1971
45911W        W54511  25.456   6.319  24.024 -0.4303 -0.0138  0.0164
45912W        W54512   2.328   3.508  21.910 -0.1797  0.2099 -0.0580
45913W        W54513   9.792   1.738  12.856  0.3275  0.0518 -0.1190
45914W        W54514   2.473   6.543   1.951  0.0471  0.1904  0.2124
45915W        W54515   3.346   0.688   9.719 -0.2305 -0.1717  0.2452
45916W        W54516  16.546   3.684   0.203 -0.0844 -0.0927 -0.1265
45917W        W54517  23.007   5.676   1.491  0.0136 -0.0443 -0.0877
45918W        W54518   5.439   1.066   4.888  0.0365  0.0686 -0.2729
45919W        W54519   0.081   3.573   6.624  0.0276 -0.1093  0.0501
45920W        W54520  26.188   1.363   9.483  0.2618 -0.2002 -0.4271
45921W        W54521   4.687   3.214  29.258 -0.1703  0.0537  0.2447
45922W        W54522  18.905   6.437   2.981 -0.0545 -0.1978  0.1005
45923W        W54523   9.357   2.816  15.114  0.0902  0.3351 -0.0046
45924W        W54524  21.319   3.974  23.346  0.2818  0.0048  0.0410
45925W        W54525  11.515   4.165  32.454  0.1620  0.0011 -0.1374
45926W        W54526   8.346   3.889  32.667  0.2537  0.1277  0.2097
45927W        W54527  14.989   3.056  27.213 -0.1864 -0.3958  0.2951
45928W        W54528  24.217   3.724  32.600 -0.1902  0.2253  0.0614
45929W        W54529   8.814   2.070  22.779  0.1565  0.2593 -0.0546
45930W        W54530   1.446   3.644  10.708 -0.0249 -0.2402 -0.1542
45931W        W54531  14.796   3.769   7.846 -0.0597 -0.1019  0.0694
45932W        W54532  14.880   4.482   5.509  0.1441 -0.1136 -0.1216
45933W        W54533  14.056   2.403  23.264  0.0121 -0.3620 -0.2750
45934W        W54534  23.957   0.656   5.107  0.1665  0.0085  0.0345
45935W        W54535   0.385   1.085  13.704 -0.1319 -0.2270  0.2071
45936W        W54536  12.008   0.925  34.416 -0.1839 -0.2585 -0.4751
45937W        W54537   5.638   3.081   6.102 -0.1024 -0.4737 -0.0735
45938W        W54538  13.300   3.472  28.325  0.0217  0.0616 -0.2315
45939W        W54539  13.899   3.700   0.895  0.3082 -0.0426 -0.2613
45940W        W54540   1.149   5.511  24.651  0.1708 -0.2402  0.0089
45941W        W54541  19.639   4.343  10.108 -0.2188  0.1327  0.0726
45942W        W54542  25.996   1.058  22.014 -0.0595 -0.0057 -0.0149
45943W        W54543  26.263   4.350  14.841 -0.0414  0.0927 -0.0866
45944W        W54544   4.677   2.067   9.468 -0.0707 -0.4064 -0.1820
45945W        W54545  22.212   0.490   4.864 -0.0009 -0.0147 -0.0303
45946W        W54546   7.045   1.123  24.773  0.2143 -0.2695  0.0766
45947W        W54547   0.841   1.655   1.031  0.1840 -0.1785  0.0573
45948W        W54548  25.297   6.080   7.629 -0.1639 -0.0969  0.1154
45949W        W54549   3.988   4.280   5.757  0.1875  0.1956 -0.0353
45950W        W54550  18.067   0.240  34.730  0.0808  0.0209  0.1301
45951W        W54551   0.222   4.579  11.647 -0.3432 -0.0007  0.0278
45952W        W54552  13.580   2.883  26.745 -0.3441  0.0010  0.3438
45953W        W54553  20.454   6.199  14.255 -0.0020  0.0093 -0.4858
45954W        W54554  14.602   4.037  35.341 -0.0660  0.0396 -0.2146
45955W        W54555   7.579   1.897  24.973 -0.0387  0.1926 -0.0616
45956W        W54556  15.566   4.397  30.125 -0.1788  0.0883  0.0274
45957W        W54557   3.296   0.519   6.079 -0.1037  0.1158  0.1553
45958W        W54558   5.847   4.499  25.233  0.1532 -0.1342  0.1082
45959W        W54559   9.052   6.591   9.839  0.0793  0.1808 -0.0057
45960W        W54560   9.410   4.603  24.763 -0.0109  0.0457 -0.2065
45961W        W54561  11.993   0.134  22.234 -0.4139 -0.0891 -0.0073
45962W        W54562   4.957   4.325   8.142  0.0519  0.2649 -0.1158
45963W        W54563  15.949   5.234   4.836  0.0084  0.2555  0.0254
45964W        W54564   3.052   4.408  28.657 -0.2660  0.1962 -0.0578
45965W        W54565  17.027   3.840   8.372 -0.0303  0.2566  0.2759
45966W        W54566   7.311   3.483  30.714 -0.1850  0.1225 -0.2307
45967W        W54567   6.537   2.160   3.140 -0.2739  0.1868  0.0360
45968W        W54568  25.591   3.059  32.940  0.2472 -0.1424 -0.1192
45969W        W54569  18.556   2.985   2.859 -0.1323 -0.0006 -0.1268
45970W        W54570   0.938   1.982  20.477 -0.1195 -0.1819 -0.0901
45971W        W54571  20.212   0.614  29.927  0.1960 -0.2314 -0.1285
45972W        W54572   2.834   5.783  10.313 -0.0656  0.2645 -0.1035
45973W        W54573  25.326   6.373  31.153 -0.3000  0.2609  0.0402
45974W        W54574   5.953   0.486  21.014  0.2324  0.3094  0.0261
45975W        W54575   2.709   3.266  31.661 -0.0812  0.3438 -0.4663
45976W        W54576  15.959   4.680  14.425  0.2408  0.1940  0.1185
45977W        W54577   9.271   1.660  21.406  0.1903  0.1920 -0.2015
45978W        W54578   2.327   3.068  31.899  0.1127 -0.0732 -0.0100
45979W        W54579  25.726   1.212  29.256 -0.0103 -0.3212  0.0650
45980W        W54580  14.129   0.476  35.457  0.1564 -0.1432  0.0016
45981W        W54581   4.450   3.513  21.873 -0.1124  0.1818  0.0220
45982W        W54582  23.429   1.583  14.461 -0.3224 -0.1020  0.1548
45983W        W54583  12.070   4.145  14.399  0.0583 -0.1149 -0.1144
45984W        W54584  12.469   1.001   0.526 -0.0638  0.0105  0.0945
45985W        W54585   2.355   6.532  31.318 -0.0027 -0.1617  0.0733
45986W        W54586  10.426   4.735  15.359 -0.2754  0.1230  0.0569
45987W        W54587  13.815   1.772   5.386 -0.0532  0.0816  0.3572
45988W        W54588  12.547   0.647  28.727 -0.0905 -0.0533  0.0755
45989W        W54589  22.241   4.468  11.068 -0.0957 -0.0958  0.0169
45990W        W54590  11.533   3.198  33.167 -0.1380 -0.0406 -0.3286
45991W        W54591  13.040   5.136  15.618 -0.2869  0.4551  0.0092
45992W        W54592  20.331   6.026  35.784 -0.2028  0.0434  0.0175
45993W        W54593  15.473   2.440   2.014 -0.0623 -0.0501 -0.1734
45994W        W54594  20.992   5.676  24.313 -0.3650 -0.2823 -0.2499
45995W        W54595  17.870   0.845  12.911 -0.0354 -0.1356 -0.2293
45996W        W54596  15.186   6.370  36.058  0.2822 -0.0674  0.0306
45997W        W54597   8.494   5.513   4.804 -0.0438 -0.1130  0.1812
45998W        W54598  11.637   5.129  25.064 -0.0581  0.1488  0.0023
45999W        W54599   7.535   5.849  35.790 -0.0007  0.1824 -0.4326
46000W        W54600  17.333   3.222   0.558 -0.1532  0.1890 -0.2154
46001W        W54601  19.970   4.118  23.428  0.0369  0.0304 -0.0450
46002W        W54602   8.375   4.460   7.409  0.1235  0.1213  0.0162
46003W        W54603  12.159   4.915   3.305 -0.0467 -0.3313 -0.1023
46004W        W54604  17.214   3.620  30.287 -0.0125 -0.0341 -0.3648
46005W        W54605   8.938   2.982  35.493  0.3186  0.3900 -0.0287
46006W        W54606   9.857   2.851   6.397 -0.3747 -0.3311 -0.1010
46007W        W54607  21.608   2.445  12.295  0.1319  0.0175 -0.1882
46008W        W54608  14.213   2.058   0.192 -0.0232 -0.1235 -0.2025
46009W        W54609   7.331   1.759  20.992 -0.1584  0.2574  0.2207
46010W        W54610   8.174   6.207  27.812  0.1891 -0.3361 -0.1882
46011W        W54611  21.002   3.324  14.208  0.3272 -0.4306  0.1395
46012W        W54612   6.780   2.864  24.784  0.1620 -0.0705  0.0792
46013W        W54613  24.144   2.378  34.130 -0.0215 -0.1153 -0.0380
46014W        W54614  18.035   1.702   1.570 -0.1818  0.5136  0.0517
46015W        W54615   8.319   4.158  15.086  0.2517 -0.2608 -0.0079
46016W        W54616   3.557   1.971  22.327  0.2040  0.0678 -0.0315
46017W        W54617   1.409   0.310   6.046  0.1580  0.0226 -0.0519
46018W        W54618  17.837   5.670  11.127 -0.2523  0.0337 -0.0801
46019W        W54619  16.841   4.282  27.908 -0.0521 -0.0293  0.0114
46020W        W54620  12.051   4.062  20.812 -0.1923  0.2045  0.0521
46021W        W54621  23.479   5.304   7.101 -0.1574 -0.2296  0.1008
46022W        W54622   0.876   6.417  21.300  0.0934  0.2956  0.2265
46023W        W54623  23.792   3.041  28.864 -0.1363 -0.0306 -0.1210
46024W        W54624  19.878   0.213   4.227 -0.2511  0.1404  0.1314
46025W        W54625  17.855   1.575   6.371  0.0502  0.0814  0.3557
46026W        W54626   4.077   1.382   7.652  0.1454  0.0232 -0.1608
46027W        W54627   0.393   0.515  31.129  0.1243 -0.2015  0.1707
46028W        W54628   9.730   3.515  26.967  0.2836 -0.2881  0.0877
46029W        W54629  12.752   1.896  21.644  0.2840 -0.1593  0.0500
46030W        W54630   8.302   2.228   6.563  0.1931 -0.2748 -0.2381
46031W        W54631   0.711   2.377   0.167 -0.1616  0.0032 -0.0230
46032W        W54632  19.820   0.116  12.089 -0.0335 -0.0283 -0.1984
46033W        W54633  22.023   5.012  11.555  0.1693 -0.0717  0.0217
46034W        W54634  17.728   4.582   9.843  0.2229  0.2381 -0.1121
46035W        W54635   2.828   4.974  23.379 -0.0474 -0.0792  0.0105
46036W        W54636  25.979   3.532   6.400  0.2158  0.0499 -0.2073
46037W        W54637  18.007   4.511  15.706 -0.1178 -0.0664 -0.1592
46038W        W54638  25.543   3.560  22.553  0.1014 -0.3023  0.0748
46039W        W54639   0.151   0.774  25.245  0.0350  0.0947  0.0358
46040W        W54640  24.588   4.759  32.068  0.0143 -0.2868  0.0719
46041W        W54641   8.825   2.883  27.117  0.2351  0.3638 -0.1897
46042W        W54642   6.257   5.229  10.206 -0.3422  0.2183 -0.0408
46043W        W54643   3.253   3.578  11.404 -0.2666  0.1797 -0.0534
46044W        W54644  14.366   2.367   9.566 -0.3406  0.2917  0.0749
46045W        W54645  21.841   4.581   7.546  0.0168 -0.1636 -0.0733
46046W        W54646  17.906   2.956  12.357 -0.0850 -0.0801  0.0217
46047W        W54647   2.035   0.360   2.741  0.3800  0.0523  0.1000
46048W        W54648   5.699   3.939  30.121 -0.2136  0.1427  0.0142
46049W        W54649  14.749   1.784  22.802 -0.1093  0.0714 -0.0009
46050W        W54650   5.294   2.729  29.083  0.0062 -0.3713  0.2267
46051W        W54651  14.342   3.795  29.788 -0.2753 -0.1248  0.4115
46052W        W54652   4.158   6.078  28.798  0.1875  0.1202  0.3246
46053W        W54653   3.148   2.235  21.554 -0.0020 -0.0348  0.1563
46054W        W54654  23.186   1.238   9.794  0.1182 -0.1199 -0.0527
46055W        W54655  14.565   5.809  22.655 -0.0190 -0.1877 -0.4062
46056W        W54656  19.555   5.300  22.976 -0.0493  0.0794  0.1340
46057W        W54657  14.696   3.472  24.011 -0.3287 -0.1121  0.2463
46058W        W54658   7.140   4.371   6.078  0.1571 -0.3978 -0.0721
46059W        W54659   3.558   1.487  35.621 -0.0862 -0.3194 -0.2310
46060W        W54660   7.484   2.501  29.474  0.0610  0.1901 -0.1419
46061W        W54661  16.819   5.684  31.505  0.3745  0.0378  0.2793
46062W        W54662  15.301   1.368  28.781  0.0366  0.1933 -0.4261
46063W        W54663  11.753   5.977   6.594  0.2318 -0.1941  0.2091
46064W        W54664   0.043   3.119   8.566  0.0763 -0.1138  0.3113
46065W        W54665  24.640   3.691  11.592 -0.1827  0.3304  0.0541
46066W        W54666  23.526   5.826   1.370 -0.3402  0.1604 -0.1515
46067W        W54667  12.579   2.954  28.731 -0.1445  0.3456  0.3320
46068W        W54668   1.869   5.035  10.215  0.0040  0.1317 -0.0380
46069W        W54669  17.615   4.409   5.671 -0.1630  0.1891 -0.2540
46070W        W54670  22.870   6.376  12.924  0.1257 -0.1899 -0.0067
46071W        W54671   0.494   1.928  32.796 -0.1969  0.0626 -0.0247
46072W        W54672   5.606   1.910  13.820  0.1461  0.0873 -0.0767
46073W        W54673   4.039   3.908  14.762  0.1270 -0.0297  0.0871
46074W        W54674  19.743   1.850  29.753  0.0934 -0.1578  0.0267
46075W        W54675  26.410   1.554  15.075  0.0981  0.0488  0.2145
46076W        W54676   0.156   5.355   5.403  0.4337  0.4168  0.1796
46077W        W54677   5.852   4.733  10.783  0.1978 -0.0275  0.1117
46078W        W54678   1.846   5.750  31.622  0.0991  0.1969  0.0974
46079W        W54679  10.900   3.879  23.523 -0.4465 -0.0351  0.0046
46080W        W54680   6.958   1.635  22.637  0.0900  0.1851 -0.0487
46081W        W54681  14.489   5.091  22.613  0.0607  0.2564 -0.2630
46082W        W54682  12.699   4.554  10.476 -0.3250  0.1210 -0.2041
46083W        W54683  12.580   5.867  14.079  0.0558 -0.0692  0.1245
46084W        W54684  24.435   3.897  35.602 -0.2522 -0.0321 -0.1498
46085W        W54685  23.530   2.813  34.333 -0.0206  0.0545 -0.0292
46086W        W54686   8.427   2.415   6.073  0.2226 -0.0519  0.1630
46087W        W54687   5.199   6.484  34.790  0.1743 -0.0832  0.1095
46088W        W54688  17.411   5.807  30.501  0.1897  0.0584 -0.1982
46089W        W54689  19.930   1.202   8.383  0.1403 -0.0244  0.0004
46090W        W54690  13.023   2.521   9.293  0.2903 -0.0226 -0.0017
46091W        W54691   1.685   0.462  33.708  0.1660  0.0705  0.1083
46092W        W54692  22.194   1.803  22.446 -0.0097  0.0049 -0.0644
46093W        W54693  16.664   6.161  25.337  0.4002 -0.1021  0.1685
46094W        W54694  25.416   3.464  28.468  0.3260  0.4233 -0.1945
46095W        W54695   8.112   5.790  21.933  0.0511 -0.1650  0.0504
46096W        W54696   8.628   1.104  35.045 -0.4792  0.2389  0.0824
46097W        W54697   1.752   2.393   7.544  0.0280  0.0186 -0.0919
46098W        W54698  11.879   2.090   6.846 -0.1002 -0.2444  0.0273
46099W        W54699  11.018   0.081  11.041  0.1870  0.0638 -0.2217
46100W        W54700  26.417   0.089  14.692  0.2372  0.0248 -0.0445
46101W        W54701   3.815   5.708  30.224  0.0402  0.5714 -0.1402
46102W        W54702   2.283   6.262   0.732  0.0806 -0.0000  0.1948
46103W        W54703  15.498   5.274  24.152  0.1725 -0.2137 -0.3743
46104W        W54704   7.708   0.803  30.894  0.1902 -0.0449 -0.0622
46105W        W54705   8.610   3.478  26.313 -0.2101  0.4019 -0.3716
46106W        W54706   9.964   3.266   4.697  0.0870 -0.0503  0.0157
46107W        W54707  22.881   4.260  31.195  0.1694 -0.2091 -0.0901
46108W        W54708   6.463   6.453   0.367  0.1404 -0.6258  0.1095
46109W        W54709  11.124   3.363  27.138  0.0231 -0.0015  0.2941
46110W        W54710  22.300   1.968  29.554  0.1286  0.0846  0.0897
46111W        W54711  10.871   0.483   0.301 -0.0475 -0.5444 -0.1282
46112W        W54712  19.161   5.947  35.686  0.2624  0.1358 -0.2225
46113W        W54713  20.570   4.745  33.367  0.0718 -0.0894  0.1705
46114W        W54714   2.077   1.360  23.202 -0.1324 -0.0326 -0.0974
46115W        W54715  19.668   1.573  34.635  0.0522 -0.2130  0.0019
46116W        W54716  21.141   3.411  12.128  0.1199 -0.0864  0.3392
46117W        W54717  13.883   2.134  24.608  0.1126 -0.1869  0.0101
46118W        W54718   0.219   6.423   6.478 -0.1288  0.1307  0.0209
46119W        W54719   4.837   0.171  28.375 -0.0187  0.0243 -0.0594
46120W        W54720  13.675   5.049  21.763 -0.1621 -0.1119 -0.0301
46121W        W54721  14.460   1.816  32.973  0.1619 -0.3034 -0.1663
46122W        W54722  26.353   5.344  23.284  0.2286  0.1206  0.1410
46123W        W54723  22.866   2.520  31.142  0.3514  0.4141  0.1374
46124W        W54724  16.091   0.768  10.382  0.0703 -0.0827 -0.0162
46125W        W54725   1.038   6.484  13.366 -0.1762 -0.1972 -0.2261
46126W        W54726   5.718   4.907   1.824  0.1533  0.0057 -0.2069
46127W        W54727  25.855   4.494  24.020  0.5167 -0.1352 -0.1082
46128W        W54728  22.510   4.451   2.902 -0.1268  0.2550  0.2116
46129W        W54729  21.017   2.587  13.980  0.0945 -0.1083  0.1234
46130W        W54730  18.614   4.759  31.473 -0.4698 -0.3310  0.2952
46131W        W54731  23.019   3.383   3.028 -0.2341 -0.1992 -0.0690
46132W        W54732  15.969   0.965  28.512 -0.1482  0.0330 -0.0806
46133W        W54733   7.981   0.080  14.512 -0.0505 -0.1003  0.2658
46134W        W54734  21.353   1.250   4.470 -0.2306  0.0475 -0.1208
46135W        W54735  17.701   2.568  27.221  0.1071  0.1290  0.1247
46136W        W54736   6.048   0.505  10.776  0.0117  0.0382  0.3334
46137W        W54737  21.213   1.053  26.874 -0.0686  0.0435 -0.1116
46138W        W54738   4.268   1.434  13.503  0.0461 -0.1058 -0.1620
46139W        W54739  24.382   3.697   3.526 -0.0872  0.1611 -0.0522
46140W        W54740  15.491   2.574  33.770  0.1661 -0.1351  0.4716
46141W        W54741   1.146   2.900   1.072 -0.2871  0.0668 -0.4427
46142W        W54742  16.771   6.433  31.885  0.0244  0.1411  0.0738
46143W        W54743   0.557   2.754   6.881 -0.1015  0.0481  0.4022
46144W        W54744   1.076   2.699   0.167  0.0562  0.3822  0.0596
46145W        W54745   0.281   2.987  26.729 -0.0363  0.0202  0.0204
46146W        W54746  14.379   0.259  21.304 -0.2658  0.0540  0.4755
46147W        W54747  16.238   1.756  25.836 -0.0789  0.1372 -0.1505
46148W        W54748   1.992   0.643  12.574  0.1089 -0.4958 -0.2930
46149W        W54749  16.675   6.572   9.646 -0.0346 -0.2131 -0.4675
46150W        W54750  18.361   0.935  34.866  0.0608  0.0352 -0.0140
46151W        W54751  22.696   1.921  33.656 -0.0630 -0.1151  0.1894
46152W        W54752   4.173   3.835  31.681  0.0173  0.0822 -0.0137
46153W        W54753  17.295   5.013  11.122 -0.0447  0.0204  0.0343
46154W        W54754  21.358   3.548  34.475 -0.1854  0.1203 -0.2276
46155W        W54755  20.651   6.368   2.329  0.2010  0.1989 -0.0128
46156W        W54756  20.582   2.222   7.609  0.1721 -0.1392  0.0423
46157W        W54757   4.812   1.974   0.435  0.3523 -0.0039 -0.3263
46158W        W54758  18.031   5.771   7.534 -0.2643 -0.2953 -0.0864
46159W        W54759   2.868   3.115   7.040 -0.1207 -0.0037 -0.1609
46160W        W54760   4.221   4.957  33.216  0.1238 -0.0472  0.0924
46161W        W54761  15.783   6.077  23.824  0.2862 -0.1727 -0.0518
46162W        W54762   2.275   6.528   4.051 -0.1534 -0.2730  0.3561
46163W        W54763  14.942   2.907   5.228  0.1248  0.0511  0.0385
46164W        W54764  16.003   5.624  30.950  0.2679  0.1132 -0.2874
46165W        W54765   0.169   0.844  22.172  0.1391  0.2073 -0.1062
46166W        W54766  19.357   3.429  22.680 -0.0847  0.1122  0.0729
46167W        W54767   0.166   5.320  27.014  0.1155 -0.1043 -0.1351
46168W        W54768  18.272   2.858   7.550  0.2631 -0.0336 -0.0823
46169W        W54769  10.989   5.007  28.207 -0.2699  0.1117  0.1434
46170W        W54770  23.413   2.640   0.378 -0.0019  0.2122  0.1484
46171W        W54771   1.169   0.485   0.678  0.0598 -0.2458  0.4011
46172W        W54772   9.624   1.450  33.075 -0.0515 -0.0591  0.1457
46173W        W54773  14.566   2.575  35.235 -0.0757 -0.3151  0.0558
46174W        W54774  15.038   2.279  31.664 -0.3202  0.2256  0.1787
46175W        W54775  14.029   5.680   5.731 -0.1398  0.1871 -0.0669
46176W        W54776   2.659   3.957  24.498  0.1954 -0.4158 -0.0644
46177W        W54777   5.938   0.060  20.791 -0.1654  0.0872 -0.0786
46178W        W54778  18.073   5.064  25.275 -0.1690 -0.0909 -0.2074
46179W        W54779  19.590   6.333   7.194  0.0898 -0.1680 -0.2445
46180W        W54780   5.114   3.461  23.725 -0.3961 -0.0827  0.3209
46181W        W54781   6.176   0.112  25.478 -0.0490 -0.1921 -0.0865
46182W        W54782  24.423   5.173   0.355 -0.1457 -0.0657  0.2788
46183W        W54783   3.478   2.053  29.505 -0.2688 -0.3248 -0.3630
46184W        W54784   1.553   3.624  23.382 -0.2873 -0.1632 -0.0262
46185W        W54785   5.132   1.864  22.326 -0.0240 -0.0611  0.0412
46186W        W54786  26.035   4.247  11.110 -0.2278  0.1054  0.1665
46187W        W54787  21.957   5.632  29.016  0.2371 -0.5075 -0.2780
46188W        W54788   8.747   6.032   0.887 -0.0816 -0.0854  0.0975
46189W        W54789   1.140   6.374   1.772  0.0233 -0.1529 -0.2847
46190W        W54790  17.472   5.701   4.711  0.1174 -0.1964  0.0630
46191W        W54791   6.795   5.939   3.291  0.0807  0.4420  0.1464
46192W        W54792  11.275   6.141   0.392 -0.0723 -0.3000  0.0940
46193W        W54793   1.755   6.528  28.975  0.0763  0.2176 -0.2855
46194W        W54794  14.093   2.262  10.018  0.0848 -0.2708  0.2083
46195W        W54795  20.300   3.632  22.689  0.0939 -0.0759 -0.0335
46196W        W54796   8.698   5.395  34.733  0.1936 -0.4251  0.2601
46197W        W54797  14.237   0.287  34.678  0.2289 -0.2740  0.2500
46198W        W54798   4.972   3.298  10.504  0.0484 -0.1471  0.2754
46199W        W54799  22.810   6.261  34.479  0.0070  0.0740  0.0608
46200W        W54800  19.521   6.285  10.247  0.0620 -0.2278 -0.2285
46201W        W54801   6.518   3.538  25.955  0.6014 -0.1591 -0.1425
46202W        W54802  17.460   2.755   4.872  0.2371 -0.0170  0.0943
46203W        W54803   9.953   2.366  21.683  0.0074  0.0472  0.5704
46204W        W54804  23.191   1.783  14.855  0.1745 -0.0526 -0.1423
46205W        W54805   6.793   2.677  12.617 -0.0242  0.1123  0.0605
46206W        W54806  20.181   2.349   9.998 -0.0428 -0.1370 -0.0934
46207W        W54807   2.056   4.877   5.156 -0.0924  0.1658 -0.3771
46208W        W54808  14.123   1.105  25.378  0.0775  0.1469  0.0622
46209W        W54809  20.946   2.299   5.087  0.0421  0.1238  0.0464
46210W        W54810  22.514   0.663  21.045 -0.2885  0.1390  0.1250
46211W        W54811  11.805   6.134  10.019  0.5335 -0.0015 -0.1818
46212W        W54812  25.816   4.167  25.494 -0.4830  0.1568  0.1435
46213W        W54813   5.762   5.495  22.149  0.3269  0.2438  0.1622
46214W        W54814  25.597   2.655  22.542 -0.1093 -0.0677  0.1110
46215W        W54815  13.948   1.513   1.022  0.0938  0.1146 -0.0107
46216W        W54816   3.568   6.588  34.688 -0.0251  0.0385 -0.1752
46217W        W54817  25.222   2.560   4.981  0.2259  0.1085  0.1034
46218W        W54818   1.715   2.221  32.114  0.2580  0.0093  0.1968
46219W        W54819   4.255   4.887  23.208  0.0732  0.1376  0.1705
46220W        W54820   0.445   6.240   8.286  0.0357 -0.0905 -0.3995
46221W        W54821  14.098   3.494  23.202  0.1293  0.1049  0.1278
46222W        W54822  22.840   4.100   7.502 -0.3454  0.0837 -0.0856
46223W        W54823   6.626   1.815  33.417  0.2088  0.0118  0.4143
46224W        W54824  18.631   5.552  21.207 -0.2502  0.0301 -0.0187
46225W        W54825   6.854   3.762  32.508  0.3465 -0.0169 -0.1117
46226W        W54826  19.952   5.579   6.599  0.2383 -0.1055  0.1299
46227W        W54827  25.568   2.945  32.402 -0.4048  0.0383 -0.1416
46228W        W54828  21.678   3.267  26.131 -0.0654  0.0400 -0.2789
46229W        W54829  10.742   2.461   5.058 -0.0629 -0.2517 -0.2680
46230W        W54830   6.965   2.329   1.274  0.1530 -0.0207 -0.5002
46231W        W54831  19.697   6.360   1.854  0.2114  0.0699  0.1430
46232W        W54832  10.688   4.796   6.818 -0.0047 -0.0566  0.1560
46233W        W54833  12.959   4.125  25.606 -0.2226 -0.0849  0.1010
46234W        W54834   5.851   0.292  22.150  0.1954 -0.0730  0.2276
46235W        W54835  25.379   2.905  31.650  0.0343  0.1271 -0.3479
46236W        W54836   4.253   5.137  23.665 -0.1550 -0.2917 -0.0597
46237W        W54837   2.166   1.683   2.689  0.0182 -0.1657 -0.0817
46238W        W54838   5.953   5.802  23.654 -0.0727 -0.4155  0.1277
46239W        W54839  12.817   1.795   7.831 -0.1384  0.1453 -0.1783
46240W        W54840   7.039   0.560  10.957 -0.1415  0.0452  0.2459
46241W        W54841  14.091   1.489   9.138 -0.0586  0.1682 -0.0528
46242W        W54842  23.091   0.727  31.370  0.3010  0.0477  0.2635
46243W        W54843  26.018   3.363  25.770 -0.1032  0.0178 -0.1172
46244W        W54844  22.674   4.736  24.874 -0.3115  0.0914 -0.0321
46245W        W54845   4.942   3.235  28.269  0.0849 -0.1592 -0.2885
46246W        W54846   1.034   3.123  30.028  0.2593 -0.0058 -0.0773
46247W        W54847  25.679   5.186  13.466  0.0291 -0.1098  0.0499
46248W        W54848   1.738   1.462   7.868  0.1408  0.0797  0.0395
46249W        W54849   4.063   1.755   6.858  0.2415  0.0006 -0.3909
46250W        W54850  17.605   4.493   8.730  0.1093 -0.0629  0.2057
46251W        W54851  15.632   1.222  34.272  0.1576  0.2002 -0.0093
46252W        W54852  20.920   0.191  20.648  0.0890  0.0618  0.0626
46253W        W54853  23.968   2.675   1.364  0.2256 -0.0036  0.0779
46254W        W54854   9.368   5.896  20.907  0.0759  0.0289 -0.1547
46255W        W54855  16.892   5.479  35.187 -0.3308 -0.0443  0.2076
46256W        W54856  20.642   4.527   5.575  0.1638  0.0921  0.0301
46257W        W54857  12.364   6.496  31.873 -0.0449  0.0507  0.1116
46258W        W54858  10.248   5.571   7.628  0.0593  0.0307  0.0053
46259W        W54859   6.245   3.438  10.981  0.0978 -0.0334 -0.3038
46260W        W54860  17.720   1.863  32.153  0.3843 -0.3778  0.1602
46261W        W54861  25.128   3.205  26.431 -0.0301  0.0095 -0.2329
46262W        W54862   4.791   3.985  24.777  0.3163  0.2230 -0.1022
46263W        W54863  10.357   3.054   2.665  0.0828  0.1378  0.0718
46264W        W54864  19.124   4.817  31.515  0.2227 -0.2452  0.0482
46265W        W54865  15.715   2.896  26.084  0.3245  0.2686 -0.0468
46266W        W54866   1.651   3.278  26.869  0.0927  0.1350 -0.2622
46267W        W54867   4.793   1.120  34.332 -0.1579 -0.0987  0.0353
46268W        W54868  22.506   3.956  28.058 -0.2031 -0.1082 -0.0996
46269W        W54869  10.929   1.531  24.282 -0.0598 -0.0916  0.0309
46270W        W54870  17.026   5.863   8.913  0.0141 -0.0970  0.1970
46271W        W54871  12.304   4.240  30.472  0.1379 -0.0591  0.0376
46272W        W54872   1.359   2.956  11.192  0.2391  0.2243  0.2811
46273W        W54873   5.865   2.892  32.776  0.1033 -0.1482  0.0259
46274W        W54874  12.523   1.141   6.145 -0.0139 -0.1252 -0.1508
46275W        W54875  23.074   0.224   6.070 -0.0671 -0.1197 -0.0180
46276W        W54876   5.471   1.514   5.596  0.4479 -0.3504 -0.0367
46277W        W54877   0.807   6.030  13.542 -0.1632  0.0054  0.0646
46278W        W54878  26.184   0.055   4.745 -0.0663 -0.1596  0.1444
46279W        W54879  21.590   6.414  12.483 -0.1052  0.0513 -0.3684
46280W        W54880  12.578   0.988   8.362  0.1098  0.2471  0.2312
46281W        W54881  23.504   4.882  11.811 -0.0844  0.0635  0.2143
46282W        W54882  24.396   0.449  29.246  0.0630 -0.1191 -0.1956
46283W        W54883   8.450   2.301   7.285  0.1187 -0.1847  0.1989
46284W        W54884   3.420   2.676  13.353  0.3022 -0.1007 -0.0375
46285W        W54885  15.284   4.350  13.294 -0.2572 -0.0783 -0.1400
46286W        W54886   8.801   4.784   6.630 -0.0063 -0.1470 -0.1677
46287W        W54887   4.908   0.546  34.212 -0.1069 -0.1031 -0.3379
46288W        W54888  12.579   5.784   5.180  0.1409  0.2839  0.1503
46289W        W54889   8.668   0.066   6.347  0.1464 -0.1861  0.0490
46290W        W54890   6.942   0.154  11.543 -0.0626  0.3989 -0.0184
46291W        W54891   6.165   5.965  35.611  0.0592  0.0927 -0.1178
46292W        W54892  25.351   6.175   7.089 -0.2145 -0.0608 -0.0225
46293W        W54893  16.787   5.948   9.803 -0.3100  0.1102 -0.0948
46294W        W54894   3.295   2.668   4.735  0.1554 -0.4090  0.2670
46295W        W54895   1.899   6.211  31.470 -0.0641  0.1874  0.0700
46296W        W54896  13.736   2.054  27.119  0.1160  0.3673  0.0060
46297W        W54897   6.521   6.302   1.082  0.1657  0.4776 -0.0654
46298W        W54898  13.499   2.972   6.611 -0.0154  0.2430 -0.0742
46299W        W54899   6.688   3.946  34.947  0.0758  0.1561  0.2049
46300W        W54900   6.908   6.434   4.094 -0.0469  0.0230 -0.1553
46301W        W54901  20.649   4.209  27.796  0.1443 -0.0452 -0.1570
46302W        W54902   0.465   3.400  22.818 -0.1121  0.1070  0.0108
46303W        W54903  26.123   2.186   2.240  0.1227  0.1194 -0.0576
46304W        W54904  18.316   4.259   6.323  0.1697  0.2485  0.3052
46305W        W54905  25.630   3.001  11.570 -0.0129 -0.1019  0.1376
46306W        W54906  21.703   2.125   0.467 -0.1442 -0.0513  0.0688
46307W        W54907  10.322   1.409  14.455 -0.2706 -0.1380 -0.2817
46308W        W54908   1.156   4.954   1.777  0.0954  0.1611 -0.2148
46309W        W54909  15.501   4.034   4.177  0.0394 -0.2186  0.0932
46310W        W54910   4.103   5.447  33.302  0.0066 -0.2193  0.0925
46311W        W54911   8.680   5.006  10.610  0.1484  0.0284 -0.0957
46312W        W54912   6.187   1.593  13.099 -0.0892 -0.2726 -0.1313
46313W        W54913  25.738   0.386   6.038 -0.0289 -0.3431  0.2221
46314W        W54914  12.757   5.715   8.897 -0.3806 -0.0258  0.2355
46315W        W54915  18.006   1.585   7.601  0.1867 -0.1815 -0.0039
46316W        W54916   2.299   1.487  29.657 -0.0864  0.0272 -0.0489
46317W        W54917   6.495   1.948  22.562 -0.1828 -0.2704  0.0472
46318W        W54918  20.979   2.034   2.287 -0.1276 -0.0702  0.1468
46319W        W54919  16.772   4.377  22.791 -0.4031 -0.2531 -0.2337
46320W        W54920  15.300   5.027  33.826 -0.1503 -0.0151  0.0624
46321W        W54921  17.587   5.215  28.482 -0.0524  0.0365 -0.0657
46322W        W54922   6.172   4.678   9.721  0.0153  0.1134 -0.0294
46323W        W54923   2.876   3.123   0.172  0.0141  0.2022 -0.3041
46324W        W54924  17.490   4.840  23.542 -0.0395  0.1435  0.2114
46325W        W54925  25.894   3.432  28.281  0.3475  0.1252 -0.1106
46326W        W54926  13.407   5.176  22.669 -0.0101 -0.3003 -0.0790
46327W        W54927   5.753   1.757  23.785 -0.0983 -0.2525 -0.1482
46328W        W54928  23.585   0.021   7.824  0.0777  0.1465  0.3195
46329W        W54929  16.387   0.944  10.807 -0.2836  0.0057 -0.0108
46330W        W54930   1.898   6.482   2.919 -0.0997 -0.1288 -0.1755
46331W        W54931  14.026   0.763  28.715 -0.0962  0.1929  0.1504
46332W        W54932   3.182   2.135  31.761 -0.1702  0.3619 -0.3456
46333W        W54933   1.997   2.445  13.262 -0.2291 -0.0068 -0.0884
46334W        W54934  14.665   4.689  21.724  0.3150 -0.1508  0.3817
46335W        W54935   0.697   2.523   2.843  0.1326 -0.0254  0.0080
46336W        W54936  18.556   1.968  11.691 -0.1946  0.1043 -0.0523
46337W        W54937  23.834   1.837  32.204  0.0657 -0.2972  0.2678
46338W        W54938  13.327   2.361  32.412  0.1629 -0.1249 -0.0814
46339W        W54939  19.124   4.257  26.452 -0.2016  0.1377 -0.0460
46340W        W54940  20.732   4.957  28.004  0.0141 -0.0852 -0.0930
46341W        W54941   3.855   5.311   9.414 -0.0726  0.1478  0.3201
46342W        W54942  20.577   5.122  12.727  0.2494  0.2361  0.3140
46343W        W54943  21.917   2.153   6.986  0.1584 -0.3879 -0.0304
46344W        W54944  10.891   3.007  30.214 -0.2471  0.3520  0.1167
46345W        W54945   4.561   2.151  10.447 -0.4226 -0.0421  0.0346
46346W        W54946  16.424   1.613  21.790  0.1430  0.1515 -0.1408
46347W        W54947   3.017   1.374  24.820  0.0492  0.2329 -0.0950
46348W        W54948   9.585   4.938  23.260  0.1378 -0.0285 -0.0879
46349W        W54949   3.646   5.425  26.760  0.3352 -0.1778 -0.0468
46350W        W54950   4.884   0.424  33.735 -0.4743 -0.1199  0.2038
46351W        W54951   3.733   1.441  12.707 -0.3155 -0.3070  0.2748
46352W        W54952  18.702   4.635   2.550  0.1053 -0.2904  0.0404
46353W        W54953  17.163   4.274   8.892  0.1041  0.0779 -0.0213
46354W        W54954  23.080   4.911  10.025 -0.2734 -0.1010 -0.0954
46355W        W54955  21.385   5.559  11.555  0.0432 -0.2333  0.0102
46356W        W54956  20.520   6.525  21.045  0.1616 -0.4725  0.0683
46357W        W54957  15.605   6.043  10.179 -0.0386  0.2619 -0.2222
46358W        W54958  22.892   5.131  10.702  0.2042 -0.0954  0.1389
46359W        W54959  19.902   6.016  30.692 -0.1169 -0.0670  0.1106
46360W        W54960   7.856   3.492  28.042  0.1407  0.3493  0.1662
46361W        W54961   0.549   0.683  26.352 -0.0068 -0.1140 -0.0257
46362W        W54962   8.769   3.483  35.490 -0.0640  0.1799  0.1838
46363W        W54963   6.372   6.382   8.359 -0.1127  0.0955 -0.2398
46364W        W54964   9.555   1.182   6.193  0.3057  0.2095 -0.0119
46365W        W54965   4.845   0.671   3.943  0.2424 -0.1220 -0.2415
46366W        W54966   0.576   5.826   7.168  0.0688  0.0599 -0.1079
46367W        W54967  20.799   5.455  34.678  0.1010 -0.2003 -0.4207
46368W        W54968   8.051   5.654   0.257  0.1889  0.2039 -0.1996
46369W        W54969  19.879   3.327  27.322  0.0403 -0.1329 -0.3047
46370W        W54970   2.267   4.032  25.368  0.0674  0.0771  0.0673
46371W        W54971  11.942   6.203   0.877  0.0090 -0.0327  0.0565
46372W        W54972  20.812   5.228  14.945  0.0425 -0.0948  0.1706
46373W        W54973   2.217   3.531   2.004 -0.1059  0.0188 -0.3309
46374W        W54974   3.185   5.554   8.852  0.1021  0.1668 -0.1049
46375W        W54975   9.031   5.904  22.183 -0.1015  0.1913 -0.1902
46376W        W54976  20.005   5.141  23.382 -0.0480  0.2495 -0.0045
46377W        W54977   4.072   3.962   1.246  0.3223 -0.1344 -0.1195
46378W        W54978  14.959   1.506  14.880 -0.2627 -0.0252  0.2239
46379W        W54979  25.732   4.216  29.766  0.1121 -0.0470  0.1584
46380W        W54980   6.279   3.988  12.148 -0.2642 -0.1405 -0.1615
46381W        W54981   0.180   4.637  20.559  0.1502  0.1523 -0.3480
46382W        W54982  18.238   3.509  24.745 -0.0992  0.1236 -0.1294
46383W        W54983   7.023   4.364  30.408 -0.0052  0.0709  0.1075
46384W        W54984  16.221   0.377   2.473 -0.1213 -0.2121  0.2158
46385W        W54985   6.700   0.511  27.263  0.0341  0.0244 -0.4251
46386W        W54986  19.288   2.321  25.497 -0.1438  0.1150  0.1080
46387W        W54987  11.064   5.811  10.716 -0.0024  0.2229 -0.1940
46388W        W54988  19.630   3.809  14.951  0.4057  0.0395 -0.1311
46389W        W54989  13.389   3.442  11.672 -0.1531  0.0066 -0.0859
46390W        W54990  16.964   6.031   2.470  0.2928 -0.2843  0.3260
46391W        W54991  11.123   6.060   7.750 -0.1110  0.0804  0.2229
46392W        W54992   3.063   2.816   3.275 -0.1033 -0.2632 -0.2410
46393W        W54993  17.796   4.020   2.290 -0.1574  0.0246 -0.0188
46394W        W54994   7.463   6.050   1.070 -0.1585  0.2174 -0.1455
46395W        W54995   4.195   5.466   3.940  0.1243 -0.0624 -0.1479
46396W        W54996  25.013   0.092  11.279 -0.0601 -0.0039  0.2796
46397W        W54997   2.045   3.955   4.962  0.1600 -0.1004  0.1814
46398W        W54998   2.886   2.483   1.989  0.2322  0.0778 -0.0073
46399W        W54999  21.808   0.539  21.138  0.1280  0.0113 -0.0175
46400W        W55000  23.775   1.617   7.553 -0.2166 -0.3881  0.0379
46401W        W55001   9.225   6.259  21.804  0.2454  0.1720  0.0756
46402W        W55002   3.872   0.144  22.744  0.1248  0.2084 -0.1131
46403W        W55003  15.726   6.268   1.945 -0.1370 -0.1622 -0.1609
46404W        W55004   5.275   1.003   3.818  0.0484  0.2211 -0.2245
46405W        W55005  22.638   2.230  13.151 -0.0499  0.3086 -0.0146
46406W        W55006  22.369   1.355  30.592  0.0669  0.2633 -0.3961
46407W        W55007  23.990   4.074  34.290 -0.0973  0.0703 -0.0820
46408W        W55008   4.634   1.134  35.717  0.1550  0.0233  0.0642
46409W        W55009   2.813   0.364   1.924  0.2742 -0.0493  0.0400
46410W        W55010  10.221   6.409  21.860  0.0280 -0.0248  0.1436
46411W        W55011  18.192   0.699   4.571 -0.1060 -0.0959  0.1091
46412W        W55012  13.821   1.208  28.546  0.2789  0.0258  0.1763
46413W        W55013  18.859   4.509  14.928  0.0381  0.2712  0.2409
46414W        W55014  13.200   6.249  27.232 -0.1077 -0.1201  0.1543
46415W        W55015   3.125   1.759  33.884 -0.2031  0.3974 -0.3262
46416W        W55016   2.717   2.324  32.526 -0.1908  0.0679 -0.0563
46417W        W55017   1.411   2.578   0.848 -0.1635  0.0972 -0.1880
46418W        W55018   0.787   5.456   4.766 -0.0019  0.0178 -0.0957
46419W        W55019  13.090   2.753   5.875  0.2723 -0.3089  0.2265
46420W        W55020   6.029   3.096   2.459 -0.4618 -0.1671  0.3073
46421W        W55021  22.143   3.401  27.324  0.0296 -0.0655  0.2348
46422W        W55022  16.069   3.365   6.382  0.1021  0.0257  0.1887
46423W        W55023   0.259   6.338  21.899 -0.0056 -0.4426 -0.0497
46424W        W55024  18.852   5.817  25.833  0.2127 -0.0647  0.0708
46425W        W55025   7.232   5.991  14.697  0.1875  0.2295 -0.2189
46426W        W55026  15.136   3.842   6.405  0.0350  0.3281 -0.1131
46427W        W55027  20.636   2.260  30.771  0.1868  0.3137  0.1204
46428W        W55028  19.924   6.383  12.442  0.0002 -0.2580 -0.1163
46429W        W55029  17.365   5.336  27.285 -0.0639 -0.5434  0.1105
46430W        W55030  12.747   4.173   1.164 -0.1698  0.3393 -0.1195
46431W        W55031   1.011   1.131  35.432 -0.2533 -0.0759  0.1433
46432W        W55032   7.525   4.185  25.398 -0.2952 -0.1785  0.0019
46433W        W55033   3.926   3.994  35.825  0.0128  0.1002  0.0516
46434W        W55034  23.737   0.667  11.369 -0.0262 -0.2563 -0.1657
46435W        W55035  10.299   6.569  33.543  0.0791  0.0853 -0.0427
46436W        W55036   2.811   1.267   8.486 -0.0046 -0.2244  0.0917
46437W        W55037  14.193   3.273   8.974  0.1399  0.2745 -0.3108
46438W        W55038  25.838   1.974  31.542 -0.4107  0.3151  0.2598
46439W        W55039  23.284   1.670  27.080 -0.1571  0.2094 -0.1479
46440W        W55040  11.595   2.541  31.632 -0.2553 -0.2113 -0.2057
46441W        W55041  15.511   5.189  27.662 -0.3558 -0.1187 -0.2027
46442W        W55042   8.125   4.178   1.935  0.0781 -0.0441  0.1135
46443W        W55043  21.008   5.065   3.978 -0.1076 -0.0793  0.3269
46444W        W55044  21.219   0.153  22.752 -0.2519 -0.0100 -0.2744
46445W        W55045   0.540   4.170  20.035 -0.0251 -0.1150 -0.0282
46446W        W55046   5.753   4.013  12.186 -0.1499  0.2627 -0.1717
46447W        W55047  14.621   4.318  24.242 -0.0732  0.0720  0.2082
46448W        W55048   6.146   1.675  10.136  0.0078  0.0646 -0.1853
46449W        W55049  13.696   2.637   0.349 -0.0680 -0.0534 -0.1341
46450W        W55050   1.782   3.551  35.462 -0.0186 -0.0649  0.0766
46451W        W55051  25.273   4.664   4.383  0.1125 -0.3129 -0.1742
46452W        W55052   8.791   5.527  28.394 -0.0444  0.1461 -0.3217
46453W        W55053  10.820   3.015   2.351 -0.0499  0.0929  0.2427
46454W        W55054  19.561   3.994  25.147 -0.1191  0.0189 -0.1027
46455W        W55055  17.558   5.742  11.747  0.1422 -0.0697 -0.1808
46456W        W55056   7.173   2.724  13.010  0.1057  0.0097  0.3014
46457W        W55057  10.234   0.016  11.529 -0.2990  0.3723  0.1197
46458W        W55058  12.269   4.836  12.621 -0.0925  0.0215  0.0897
46459W        W55059   7.180   5.369  21.515  0.0620 -0.0497  0.0762
46460W        W55060  10.262   5.878  34.892 -0.1368  0.0514 -0.2888
46461W        W55061  15.944   4.091   1.754  0.1763  0.1824 -0.1668
46462W        W55062  12.269   2.679  22.559  0.1518 -0.1281  0.0974
46463W        W55063  24.722   3.135  33.622  0.0108 -0.0583 -0.3668
46464W        W55064  17.755   6.004  35.856  0.2609  0.1238  0.1882
46465W        W55065   2.603   4.903   8.524 -0.2482 -0.2614  0.2038
46466W        W55066  13.342   1.959  21.660 -0.0839  0.0579 -0.0867
46467W        W55067  25.188   4.374  13.722 -0.1391 -0.0393  0.0533
46468W        W55068  11.043   4.356  31.314 -0.1565 -0.1776 -0.0686
46469W        W55069   1.252   3.933   8.817  0.0014  0.1508 -0.0141
46470W        W55070   3.493   2.777  28.849 -0.0702 -0.0032 -0.1391
46471W        W55071   3.577   2.989   1.418 -0.1669  0.2260 -0.2479
46472W        W55072  12.068   2.559  25.490  0.0227  0.2083 -0.2908
46473W        W55073  23.521   1.818  21.108  0.0301 -0.1141 -0.1149
46474W        W55074   0.506   3.877   2.376 -0.2903  0.1246  0.1192
46475W        W55075  19.912   5.362  30.150 -0.2827  0.0052 -0.1259
46476W        W55076  23.919   0.826  27.200  0.1102  0.0564 -0.2621
46477W        W55077   9.680   0.219  21.156 -0.1819  0.0885 -0.2283
46478W        W55078  18.637   6.592   7.293  0.1443  0.1819  0.0889
46479W        W55079   6.746   3.713   4.142 -0.0154  0.0289 -0.0173
46480W        W55080   6.814   3.900   4.612  0.1585 -0.2869  0.0860
46481W        W55081   4.309   5.906  34.508  0.0392  0.1199  0.1000
46482W        W55082  23.847   0.631   1.748 -0.0879  0.1560  0.0130
46483W        W55083   3.791   4.755  34.123 -0.2347 -0.0605  0.1843
46484W        W55084  22.391   5.667   2.906 -0.0584  0.2254  0.0767
46485W        W55085  24.290   6.204  28.606  0.1728 -0.0371  0.0223
46486W        W55086  15.371   2.597   7.885  0.0376 -0.1502 -0.2095
46487W        W55087  12.284   5.527   1.113 -0.0677  0.0279  0.0312
46488W        W55088  12.398   4.310  12.556  0.2330  0.0827  0.0826
46489W        W55089   6.572   5.644  25.439 -0.0132 -0.0184 -0.1535
46490W        W55090  25.809   2.661   5.312 -0.0342  0.1234  0.1186
46491W        W55091  17.902   1.752  30.151 -0.1330  0.0500  0.0732
46492W        W55092  20.448   3.993  24.289  0.3871  0.3377  0.0088
46493W        W55093  16.856   4.778  27.740  0.0513 -0.1069  0.2860
46494W        W55094   6.017   4.330   0.198  0.1646  0.1249 -0.1787
46495W        W55095   7.315   3.025  23.610  0.1868  0.0614  0.2290
46496W        W55096  21.642   3.101  10.716  0.2071  0.2443 -0.1396
46497W        W55097   7.356   0.150   7.109 -0.2903  0.0529 -0.2551
46498W        W55098  11.992   0.945  11.774  0.1196  0.2671 -0.2322
46499W        W55099  13.588   1.492   4.719  0.0302 -0.0538 -0.1899
46500W        W55100  11.745   3.559  11.295  0.0432  0.0297 -0.0792
46501W        W55101   9.487   0.799  14.353 -0.1204 -0.0536 -0.1322
46502W        W55102  19.259   2.839  31.138 -0.1176  0.0759  0.1854
46503W        W55103  17.245   3.656  28.773  0.0478  0.0727  0.1914
46504W        W55104  19.004   3.666   3.513  0.2023 -0.0175 -0.0990
46505W        W55105  26.068   4.924  26.599  0.1385 -0.0470 -0.1394
46506W        W55106   4.226   1.271   5.560  0.0847 -0.0315 -0.0878
46507W        W55107  19.559   5.566  14.513 -0.3025 -0.0701  0.2489
46508W        W55108   0.731   3.239   1.211 -0.0096 -0.1132  0.1437
46509W        W55109   2.356   3.012  21.704  0.3863  0.0264  0.3373
46510W        W55110  20.471   0.107  22.816  0.0233 -0.2761  0.1291
46511W        W55111  17.168   1.661   1.681  0.1011  0.1709 -0.0262
46512W        W55112   1.234   4.067   5.301  0.2999  0.0411 -0.0700
46513W        W55113   5.811   3.081  29.684 -0.3019  0.4687 -0.1608
46514W        W55114   4.770   5.106   5.622 -0.2365 -0.2307 -0.0468
46515W        W55115  15.976   1.914  28.407 -0.1320 -0.0116  0.0423
46516W        W55116  10.270   6.229  10.889  0.0632 -0.1438 -0.2714
46517W        W55117   1.730   6.390  15.290  0.0964 -0.0215  0.0865
46518W        W55118  20.614   4.579  35.653 -0.1991 -0.1048 -0.1898
46519W        W55119  17.187   5.365  21.889 -0.0318  0.1743  0.3260
46520W        W55120  25.405   1.455  10.107 -0.2551 -0.0268 -0.0186
46521W        W55121   3.292   3.310  21.170  0.1711  0.1572  0.2066
46522W        W55122  13.883   0.811  12.045 -0.2456 -0.0916 -0.1202
46523W        W55123  18.717   0.764  28.302  0.0422 -0.0490 -0.3882
46524W        W55124  23.931   1.658  28.906  0.0759  0.0102 -0.0010
46525W        W55125  25.096   4.325  22.374  0.1203  0.0441  0.0778
46526W        W55126  22.460   0.008  25.612 -0.0416 -0.1102 -0.2782
46527W        W55127  13.741   5.059  29.322  0.2827 -0.0045  0.4328
46528W        W55128  12.415   2.567  30.467 -0.1180 -0.2067 -0.1567
46529W        W55129  11.844   4.052  12.880  0.1823  0.3363  0.0152
46530W        W55130   6.252   5.085   5.151  0.0591 -0.0129  0.0324
46531W        W55131  22.295   5.225   1.997  0.2186  0.1066 -0.0445
46532W        W55132  21.665   5.872  20.107  0.0486 -0.1102  0.2963
46533W        W55133  26.327   0.304   0.224  0.2372  0.3622  0.0460
46534W        W55134   3.105   1.761  27.805  0.1633  0.3603 -0.0548
46535W        W55135   5.398   3.100  10.785 -0.0056  0.1096 -0.1367
46536W        W55136   8.611   2.734   7.976 -0.1225  0.0292  0.1551
46537W        W55137  14.407   0.081  25.060  0.0389  0.0055 -0.0791
46538W        W55138  22.785   3.052  24.042  0.2044  0.1052  0.3614
46539W        W55139  20.590   5.107   4.619  0.0781  0.0862 -0.2807
46540W        W55140  19.692   2.398  13.101 -0.0446 -0.1688 -0.1535
46541W        W55141  11.842   0.283   7.354  0.2209  0.1137  0.1111
46542W        W55142  24.049   0.067  23.246 -0.2062  0.0245 -0.0324
46543W        W55143   1.285   2.861   4.594  0.3157 -0.1331 -0.1266
46544W        W55144   5.266   2.099  34.073  0.0339  0.0864 -0.0594
46545W        W55145  20.939   6.032  30.722  0.2704  0.0449  0.0880
46546W        W55146  10.395   3.725  14.824  0.0495 -0.1487  0.0355
46547W        W55147   9.730   3.685  23.698 -0.2161  0.0885  0.2731
46548W        W55148  25.460   3.044  13.307 -0.2802  0.0867  0.2755
46549W        W55149   9.229   2.074  35.078  0.3269 -0.1769 -0.1211
46550W        W55150  15.351   2.245  33.387 -0.1223 -0.0016  0.1246
46551W        W55151  22.130   6.110  20.900  0.0087  0.1298 -0.0286
46552W        W55152  19.644   0.167  23.876  0.2451 -0.2306  0.2727
46553W        W55153   1.191   0.484   3.782  0.1288  0.1059 -0.0473
46554W        W55154   6.758   1.024  30.291 -0.1611 -0.5773 -0.0971
46555W        W55155  10.732   0.272  11.413 -0.1860  0.0629 -0.1082
46556W        W55156  16.495   2.075  21.956 -0.1421 -0.1215  0.0964
46557W        W55157  15.051   1.772  29.974  0.2176 -0.0480 -0.1122
46558W        W55158   5.926   5.479  12.636 -0.1064 -0.1664 -0.0275
46559W        W55159   2.962   2.687  32.846 -0.1081 -0.1402  0.1495
46560W        W55160  24.196   3.314  31.106 -0.0505 -0.0757  0.1848
46561W        W55161  22.059   3.855   7.001 -0.3045 -0.0935 -0.1410
46562W        W55162  10.985   2.994  35.302 -0.1160 -0.2500 -0.2061
46563W        W55163   1.983   2.089  20.719 -0.3655 -0.0128  0.2036
46564W        W55164  13.319   0.035  15.965 -0.2723  0.0741  0.1719
46565W        W55165  23.504   1.353   1.254  0.0549  0.0296  0.1019
46566W        W55166   4.030   6.393   4.702  0.2416 -0.1884  0.0432
46567W        W55167   6.847   2.909  25.558 -0.1776  0.0027 -0.0614
46568W        W55168  23.766   1.502  28.410  0.0691  0.0237 -0.0069
46569W        W55169  26.147   4.739  20.734 -0.4094 -0.2076  0.1008
46570W        W55170  13.517   1.249  12.090  0.1039 -0.3554 -0.0427
46571W        W55171  17.179   2.060   9.507  0.0381  0.2629  0.0544
46572W        W55172   5.369   3.074  13.591 -0.1213 -0.2467 -0.2396
46573W        W55173   6.184   2.839   6.106  0.1647 -0.1788 -0.0461
46574W        W55174   3.306   5.128   9.438 -0.1962 -0.3098 -0.0507
46575W        W55175   6.394   6.239   7.420 -0.0853 -0.0722 -0.1115
46576W        W55176   2.050   5.092  34.243  0.4174  0.1192  0.1635
46577W        W55177  19.776   5.802  27.566 -0.1372  0.2138 -0.0289
46578W        W55178  24.873   1.954  20.613  0.3229  0.2746  0.0712
46579W        W55179   6.396   5.183  31.392  0.0768 -0.3134 -0.2326
46580W        W55180  17.190   2.279  31.731 -0.1272 -0.0752  0.0182
46581W        W55181   2.237   5.919  34.786  0.0718 -0.1500  0.1786
46582W        W55182  25.892   0.970  22.879 -0.1338  0.0083  0.0843
46583W        W55183  25.546   6.051  23.227  0.4203 -0.2541 -0.2254
46584W        W55184   3.290   1.538  14.119 -0.0893  0.0537 -0.0226
46585W        W55185   2.237   5.636   1.979 -0.0305  0.1057  0.1039
46586W        W55186   3.079   4.680   4.462 -0.1000  0.2965 -0.0753
46587W        W55187   6.724   1.977   2.241  0.2566  0.1445  0.1823
46588W        W55188   8.352   6.510   7.834  0.0161 -0.0413  0.0587
46589W        W55189   0.195   4.672   4.951  0.0052  0.1077 -0.2622
46590W        W55190   0.571   1.658  33.702  0.1863  0.1087 -0.1319
46591W        W55191  11.704   3.909   2.399 -0.1622 -0.1030 -0.0279
46592W        W55192  24.158   0.902  34.675  0.2870  0.0986  0.0924
46593W        W55193  11.044   6.052  27.819  0.1099 -0.3373 -0.0242
46594W        W55194  22.532   0.625   7.056 -0.3238 -0.1364  0.0392
46595W        W55195  10.987   2.955  32.873 -0.1860  0.0022  0.1336
46596W        W55196  17.102   5.102  28.567 -0.1100  0.1340  0.0649
46597W        W55197  18.812   6.454  13.974  0.0064 -0.0875  0.0678
46598W        W55198   1.351   2.222  30.383 -0.0633 -0.0806  0.2428
46599W        W55199  21.171   1.505   9.179 -0.1260 -0.0663  0.0169
46600W        W55200  21.688   5.768   7.299  0.0337  0.2490  0.2137
46601W        W55201  23.134   4.387  27.126  0.1874 -0.1677  0.0430
46602W        W55202   9.998   5.616  22.659 -0.0012  0.2109 -0.0804
46603W        W55203  14.669   0.233   6.501 -0.3915 -0.2522  0.0354
46604W        W55204  15.035   5.627   4.927 -0.0436  0.0399  0.0050
46605W        W55205  16.711   3.703   9.554  0.2001 -0.0231  0.0594
46606W        W55206  15.942   0.118   4.538 -0.0500  0.0988 -0.0242
46607W        W55207   8.722   5.609   2.772  0.0725 -0.3732  0.0794
46608W        W55208  20.698   1.391   8.921  0.1684  0.0279 -0.2929
46609W        W55209   9.908   1.687   0.633  0.2631 -0.1975  0.2233
46610W        W55210   9.388   6.053  32.906  0.0150  0.3134 -0.1280
46611W        W55211  23.351   1.721  10.203 -0.1312 -0.1270 -0.1979
46612W        W55212  12.198   3.527  10.285 -0.0910  0.4188  0.1749
46613W        W55213   2.077   0.651  14.699 -0.3385 -0.3694 -0.1901
46614W        W55214  15.741   4.519  24.775  0.0352 -0.1645  0.1257
46615W        W55215   5.324   5.287   9.444  0.0540 -0.2406  0.0691
46616W        W55216  24.233   5.427  32.746  0.0506 -0.1549  0.1648
46617W        W55217  13.121   2.333   3.212 -0.1558 -0.0405 -0.2372
46618W        W55218   0.344   5.025  35.690 -0.3047  0.1821  0.3131
46619W        W55219   0.645   4.259   0.066  0.0079 -0.0924  0.1140
46620W        W55220  17.296   5.483  14.523  0.1423  0.1553 -0.0391
46621W        W55221   1.994   2.032  24.810  0.1839  0.2789  0.0618
46622W        W55222   9.473   0.561  22.232  0.0877  0.2833  0.6775
46623W        W55223   5.898   2.680  33.656  0.0192 -0.0678  0.0414
46624W        W55224  11.622   5.601   3.936 -0.0332 -0.0441 -0.1455
46625W        W55225   8.202   6.544  20.860 -0.1263 -0.1829 -0.4462
46626W        W55226  25.853   5.735  23.059  0.1633  0.1415  0.1647
46627W        W55227   6.024   3.704  12.490  0.1358 -0.1172  0.0943
46628W        W55228   6.130   0.143  29.961  0.1005  0.1916  0.1983
46629W        W55229   2.345   1.889   7.190  0.2068 -0.3691 -0.1331
46630W        W55230  21.456   2.920  29.478  0.0243  0.1490 -0.3531
46631W        W55231   5.263   0.900  27.692 -0.0424 -0.1780 -0.1478
46632W        W55232   3.371   4.606  27.793 -0.0326  0.1192 -0.0768
46633W        W55233  25.762   2.052   1.494  0.1530  0.0145  0.0970
46634W        W55234   0.324   0.684  33.517  0.0526  0.1739 -0.0663
46635W        W55235   6.608   0.350  10.906  0.0935 -0.0218 -0.0120
46636W        W55236  21.647   3.278  12.070  0.0009 -0.2861  0.0343
46637W        W55237  21.100   5.786   5.522  0.0824 -0.0501  0.1137
46638W        W55238   8.845   5.111  15.459 -0.1941  0.4313  0.2579
46639W        W55239  11.960   3.295   8.588 -0.1078 -0.1614  0.0220
46640W        W55240   8.537   1.522  12.106 -0.2197 -0.1488 -0.1161
46641W        W55241  23.332   0.879   2.478 -0.3225  0.2318 -0.3132
46642W        W55242   8.491   4.469  23.100 -0.1796 -0.1884  0.2577
46643W        W55243  22.366   4.915   5.365  0.3949  0.1014  0.0769
46644W        W55244  17.110   3.869  13.316 -0.4390  0.2510  0.1062
46645W        W55245  14.450   2.895  21.337 -0.1967 -0.2018  0.1175
46646W        W55246  25.947   1.767  14.952  0.0290 -0.0753 -0.1431
46647W        W55247  19.988   5.103  22.117  0.1522  0.1515  0.2426
46648W        W55248   1.276   3.901   6.645 -0.1278  0.1933  0.0222
46649W        W55249   4.890   2.541  15.597  0.1628  0.1880  0.1294
46650W        W55250   1.209   2.829  32.729  0.0260 -0.0718  0.3054
46651W        W55251  14.277   3.842   6.566  0.2393  0.3791 -0.1173
46652W        W55252   3.602   5.422  33.277  0.0665 -0.0167 -0.2653
46653W        W55253  10.990   0.242  21.439  0.0162  0.1883  0.2033
46654W        W55254  25.256   4.061  36.057  0.2340  0.2601  0.1287
46655W        W55255  14.483   0.364  15.199  0.0687 -0.0627  0.2496
46656W        W55256  10.586   3.294  22.836 -0.0259  0.3277  0.1458
46657W        W55257  18.138   0.476   8.866  0.1298 -0.2315  0.2257
46658W        W55258  20.339   0.395  35.249 -0.0930  0.1237  0.1419
46659W        W55259  10.894   4.906   9.238  0.1757  0.1218 -0.0179
46660W        W55260   6.668   0.254  35.410  0.1381  0.2074  0.1941
46661W        W55261  17.722   1.921  12.620 -0.0788 -0.3840  0.4604
46662W        W55262  17.974   1.877  21.858 -0.0669 -0.1318 -0.1107
46663W        W55263   9.633   0.432  14.687  0.0379 -0.0103  0.3064
46664W        W55264   4.246   1.150  34.047 -0.0562  0.1195  0.2044
46665W        W55265  18.721   3.172  34.426  0.1018 -0.2505 -0.2018
46666W        W55266   5.669   1.918  32.499 -0.3072 -0.1362  0.3184
46667W        W55267  20.445   4.225  21.186  0.2563  0.1619 -0.0424
46668W        W55268  12.384   2.898  28.237 -0.0143 -0.0694 -0.0347
46669W        W55269  12.119   4.139  29.989  0.2278 -0.0129 -0.0583
46670W        W55270  21.078   1.919  12.546 -0.0667 -0.0526 -0.0622
46671W        W55271  22.002   4.675  20.894  0.0422  0.1002  0.3737
46672W        W55272   2.948   4.377  33.750 -0.1675 -0.0239 -0.0678
46673W        W55273  12.291   3.675  30.254  0.0889  0.1117  0.0961
46674W        W55274   4.627   5.208  25.171  0.2180 -0.3830 -0.1228
46675W        W55275   0.282   3.008  24.666  0.2333 -0.1456  0.0570
46676W        W55276  24.387   0.104  32.677  0.0365  0.0896 -0.3999
46677W        W55277   2.860   2.671  25.383  0.0971 -0.2682 -0.2512
46678W        W55278  10.847   4.567   8.701 -0.1601 -0.0984  0.2324
46679W        W55279  23.754   3.840  24.164 -0.0123 -0.1991 -0.0941
46680W        W55280  10.739   4.726  34.066 -0.0849 -0.0386  0.1005
46681W        W55281  22.603   1.238   4.260 -0.0892  0.4402  0.2002
46682W        W55282  18.493   1.295  27.617 -0.3355  0.1998 -0.3933
46683W        W55283  26.037   2.361   0.322 -0.0097 -0.0849  0.2371
46684W        W55284   8.357   5.967  25.173  0.0000 -0.0283  0.0354
46685W        W55285   9.026   6.108  33.355  0.0023  0.0568  0.1718
46686W        W55286  16.193   0.650   4.335 -0.0051 -0.1648  0.0273
46687W        W55287   6.181   0.778  13.913 -0.2505 -0.0930  0.1026
46688W        W55288   2.944   1.380  23.932  0.1580 -0.1004  0.1418
46689W        W55289  13.694   1.871  30.717  0.0294 -0.0412 -0.3071
46690W        W55290  10.334   2.841  29.242  0.1045 -0.2635 -0.1002
46691W        W55291  16.503   0.363   1.756 -0.0498  0.1210  0.0089
46692W        W55292   1.547   2.107  36.109  0.1360  0.0289 -0.4833
46693W        W55293  12.873   2.000  24.123  0.2922  0.0001  0.0695
46694W        W55294  25.944   5.721   5.051 -0.0366 -0.3914 -0.0431
46695W        W55295  17.569   6.244  20.980 -0.3513  0.3971 -0.2608
46696W        W55296  16.735   3.511  35.920  0.2093  0.2060 -0.0529
46697W        W55297   8.331   5.318  27.680  0.2917 -0.0352 -0.0139
46698W        W55298  26.174   2.924  28.917 -0.0057  0.1036  0.0101
46699W        W55299  20.891   5.978  31.244  0.0565  0.0290  0.0698
46700W        W55300  12.224   3.868  34.132 -0.1652 -0.3060  0.1035
46701W        W55301   2.599   1.727  23.771 -0.1101  0.2264 -0.2179
46702W        W55302   6.816   3.477  34.839 -0.2785  0.0847 -0.1218
46703W        W55303   9.280   1.278  33.814  0.1954  0.3307 -0.1184
46704W        W55304  22.395   4.405  33.354 -0.1667  0.1187  0.1351
46705W        W55305  11.282   3.996  22.305 -0.0913 -0.1206  0.1006
46706W        W55306  12.801   2.846  25.098 -0.1613 -0.0162 -0.0766
46707W        W55307   0.339   3.559  21.835 -0.0850 -0.2710 -0.0402
46708W        W55308  11.964   2.269  35.530  0.5601  0.1803  0.0673
46709W        W55309  17.698   1.667  26.129 -0.0792  0.0205 -0.0643
46710W        W55310   1.892   4.874   0.740  0.1537  0.1172 -0.2126
46711W        W55311  18.608   4.481   2.077  0.2234  0.0981 -0.0943
46712W        W55312  14.604   2.030  14.099 -0.2242  0.1141 -0.0671
46713W        W55313   8.088   4.003   2.397 -0.2354 -0.0786  0.0499
46714W        W55314  19.845   0.437  34.348 -0.0506  0.2961  0.3733
46715W        W55315   8.445   0.811  29.552  0.1049  0.1091  0.0637
46716W        W55316  24.768   4.011  10.677 -0.1678  0.2524  0.1995
46717W        W55317  24.062   5.219   4.001  0.0456  0.0742  0.4901
46718W        W55318  20.054   0.733   5.775  0.1782  0.1385  0.0685
46719W        W55319  11.482   0.489  35.957  0.2150 -0.1490  0.2838
46720W        W55320   3.923   3.461  30.259  0.0314  0.0726  0.3078
46721W        W55321  19.677   1.845  29.224 -0.0808  0.0121  0.0120
46722W        W55322   1.800   3.008  11.408  0.0535  0.1475  0.0772
46723W        W55323  21.848   0.934   5.313 -0.0998  0.4791  0.0298
46724W        W55324  16.369   6.361  11.883  0.1816  0.5914  0.0044
46725W        W55325  25.449   0.679  26.075 -0.2504  0.2486 -0.0202
46726W        W55326  19.922   3.551  26.274  0.2109  0.0283 -0.0268
46727W        W55327  11.951   0.868   0.623 -0.1802  0.2534 -0.0296
46728W        W55328  13.574   5.822  21.190 -0.1601  0.0898 -0.0960
46729W        W55329  10.183   1.688   5.851  0.2638  0.0963  0.2643
46730W        W55330  24.989   4.922  33.409 -0.1277  0.2583  0.0493
46731W        W55331  18.971   2.041   9.021  0.0159 -0.1354 -0.2500
46732W        W55332  21.515   2.299  22.075 -0.2303  0.1670 -0.3872
46733W        W55333  25.420   5.129  32.816 -0.1014 -0.2316 -0.0213
46734W        W55334  17.247   5.350   2.354  0.2454  0.2458  0.0285
46735W        W55335  13.448   2.961  30.390 -0.0070  0.1984  0.3479
46736W        W55336  14.208   6.156  11.918  0.0465  0.0946  0.1564
46737W        W55337   9.540   4.792  32.887  0.2467  0.0663 -0.1163
46738W        W55338  14.183   0.807  22.018  0.2138  0.2188  0.3778
46739W        W55339   6.602   1.437   6.150 -0.3544 -0.1202  0.0770
46740W        W55340  25.370   5.873  33.922  0.0149 -0.3411 -0.0993
46741W        W55341   1.909   0.920   1.182 -0.1321 -0.2019 -0.4809
46742W        W55342  12.795   5.669  32.929 -0.0616 -0.0755 -0.1853
46743W        W55343  26.325   2.334   6.107 -0.1512  0.0892  0.4241
46744W        W55344   6.553   3.104  12.587 -0.0688 -0.0495  0.4175
46745W        W55345  15.104   3.141  23.955 -0.0209  0.1256  0.0009
46746W        W55346  22.709   6.432   9.024 -0.0687 -0.4220 -0.0693
46747W        W55347  19.404   2.064  23.070  0.2318  0.0386 -0.0442
46748W        W55348  22.418   4.425  20.211  0.1548  0.1311 -0.0995
46749W        W55349   1.824   3.074  24.605  0.2369 -0.0447  0.0543
46750W        W55350  11.858   4.510  29.748 -0.0684 -0.1747 -0.2685
46751W        W55351   2.137   1.181  20.612  0.0434 -0.0004  0.0803
46752W        W55352  19.002   2.648  25.217  0.1908  0.3764  0.1313
46753W        W55353  22.846   5.094   5.263  0.1190  0.2054  0.2101
46754W        W55354   2.628   4.801  21.223 -0.3578  0.0097 -0.0076
46755W        W55355  11.334   5.209  30.820 -0.3110 -0.1091  0.0411
46756W        W55356  19.185   3.375  32.497  0.0002 -0.1595  0.1629
46757W        W55357  15.809   1.696   9.410 -0.2441  0.2125 -0.3785
46758W        W55358  24.122   3.426  10.114  0.2228 -0.1183 -0.1235
46759W        W55359   3.260   4.902  32.049 -0.3577  0.0367 -0.1290
46760W        W55360  12.025   4.733  35.003 -0.1162 -0.0531 -0.1906
46761W        W55361  19.056   3.360  33.730 -0.1192 -0.1724 -0.0883
46762W        W55362   2.930   1.157  24.372 -0.0079  0.0829  0.1286
46763W        W55363  15.910   0.330  35.293 -0.0214  0.0641  0.1100
46764W        W55364  16.229   4.987  34.543 -0.2184  0.3900  0.1288
46765W        W55365   1.081   5.786  21.794  0.1484 -0.0558  0.0461
46766W        W55366   9.750   2.473  33.217  0.0811  0.0784 -0.0289
46767W        W55367   3.967   5.958   7.836  0.2545  0.0142 -0.1155
46768W        W55368   8.731   1.121   2.557 -0.2267 -0.0312  0.0325
46769W        W55369  22.550   4.098  29.698  0.1175 -0.3767 -0.0421
46770W        W55370  21.107   0.860  31.584  0.0722  0.3340  0.2503
46771W        W55371  25.612   5.600   4.584  0.0230  0.0623 -0.2170
46772W        W55372   3.681   6.330  12.361 -0.1285 -0.4393  0.2376
46773W        W55373  12.732   1.033  22.160 -0.5202 -0.0229 -0.0090
46774W        W55374  11.979   2.634  11.480 -0.0958  0.1235 -0.1333
46775W        W55375  19.845   2.383  13.575  0.0283 -0.0753 -0.3175
46776W        W55376  24.350   4.701  21.717  0.0585  0.0945 -0.0068
46777W        W55377  17.045   1.625  24.877 -0.2554  0.0837 -0.1469
46778W        W55378  12.546   1.683  35.972 -0.0392  0.1043  0.0209
46779W        W55379  16.570   3.167  32.610  0.0680  0.1227 -0.0786
46780W        W55380   1.972   5.446  27.981  0.0753 -0.0387  0.0489
46781W        W55381  24.717   1.440   7.961 -0.0535 -0.0278  0.0957
46782W        W55382   9.957   4.735  27.651  0.1091  0.0494 -0.1729
46783W        W55383   8.794   4.004  25.173 -0.0081  0.3056  0.3308
46784W        W55384   3.756   4.744  23.339 -0.1887  0.2016  0.1038
46785W        W55385   1.638   3.153   0.874  0.0968  0.2003  0.0937
46786W        W55386   5.935   0.264  29.173 -0.1773  0.1131 -0.0024
46787W        W55387  11.420   1.479  28.948 -0.1142 -0.1090 -0.0182
46788W        W55388   0.714   2.054  13.007  0.2177 -0.1717 -0.1243
46789W        W55389   2.974   6.054  21.404 -0.4206  0.1146  0.0011
46790W        W55390   4.057   2.986   5.505  0.3489 -0.1469  0.0979
46791W        W55391  20.292   2.992  33.490  0.0631 -0.0825 -0.2984
46792W        W55392   4.319   4.264  28.473 -0.0756 -0.2209 -0.0923
46793W        W55393  20.525   6.383   1.321  0.3716  0.2430  0.0760
46794W        W55394  10.854   5.245   7.622  0.2551 -0.1116 -0.2192
46795W        W55395  19.907   5.509   8.856 -0.0086 -0.1526 -0.3153
46796W        W55396   1.488   3.427   3.726 -0.3126 -0.0627  0.0826
46797W        W55397  21.390   0.470   2.663  0.0547  0.0472 -0.1652
46798W        W55398  21.235   2.575  11.977 -0.0281 -0.1170  0.2956
46799W        W55399   8.867   2.705  22.443  0.1847 -0.0462 -0.0681
46800W        W55400  13.270   2.444  22.346 -0.0478 -0.0189 -0.1077
46801W        W55401  10.573   0.646  24.582 -0.1509 -0.0577 -0.0904
46802W        W55402  15.959   5.058   8.415  0.1600 -0.1394  0.2658
46803W        W55403  10.499   4.212  33.989 -0.0741 -0.3658  0.2737
46804W        W55404  15.854   1.734   1.364 -0.0309 -0.0213  0.1208
46805W        W55405   2.740   1.989   4.454 -0.2243 -0.0748 -0.0756
46806W        W55406   0.447   3.479  31.421 -0.2070 -0.1636 -0.0327
46807W        W55407   9.818   4.527  34.869 -0.0298 -0.0621  0.0229
46808W        W55408  24.504   3.853   4.684  0.2920  0.0210 -0.0414
46809W        W55409  23.255   6.181   2.224  0.2495  0.3306  0.1136
46810W        W55410   7.350   0.396  13.245 -0.1610  0.1164 -0.2768
46811W        W55411  21.700   0.494  25.615 -0.0696 -0.2918  0.0235
46812W        W55412   7.002   0.466  35.132  0.2158  0.1456  0.0732
46813W        W55413  23.570   4.397  25.791  0.2536 -0.2158 -0.0674
46814W        W55414   9.984   4.309  25.782 -0.3568 -0.1344  0.3440
46815W        W55415   8.146   0.020   6.433  0.2977  0.0021  0.0576
46816W        W55416  26.022   1.235   8.983  0.2339 -0.0139 -0.1904
46817W        W55417  22.040   2.571  32.683 -0.5162 -0.2895 -0.2831
46818W        W55418  10.739   4.200  11.767  0.1514  0.1193  0.0292
46819W        W55419  17.474   2.055  33.010  0.2025 -0.0620 -0.0949
46820W        W55420  13.275   2.989   8.573 -0.0481  0.0351  0.0497
46821W        W55421  25.980   1.312  13.732  0.3550  0.1607 -0.3579
46822W        W55422  13.572   2.939  11.549  0.0590  0.0819 -0.0229
46823W        W55423   9.874   3.436  11.935  0.1405  0.1108 -0.0009
46824W        W55424  23.763   4.187   2.782 -0.0042 -0.2128  0.1251
46825W        W55425  12.504   1.402   0.202 -0.1597  0.1078  0.1305
46826W        W55426  11.732   3.773   0.165 -0.0735  0.6891  0.0329
46827W        W55427   0.499   0.121  35.194 -0.0717  0.1380 -0.1562
46828W        W55428   4.010   0.432  22.307  0.0739  0.0805  0.1142
46829W        W55429   3.760   1.158  25.029  0.3519 -0.1046  0.2207
46830W        W55430  22.759   1.206   6.726 -0.0169 -0.1730 -0.1074
46831W        W55431  13.150   5.259  31.512  0.2781  0.1118  0.1519
46832W        W55432  20.035   1.654  14.194  0.0598 -0.0502  0.1326
46833W        W55433  10.990   6.136  11.828 -0.0289  0.0635  0.0863
46834W        W55434   9.114   4.619  15.382  0.0411  0.0141 -0.2732
46835W        W55435  16.619   1.784  34.479 -0.0166 -0.1147  0.0782
46836W        W55436   3.333   1.393  22.002  0.0759  0.2170  0.0293
46837W        W55437  18.051   6.149   5.387  0.1560 -0.2581 -0.2885
46838W        W55438  10.030   4.787   4.537  0.0978  0.0268  0.2716
46839W        W55439  22.131   5.677  25.038  0.0371 -0.2968  0.0011
46840W        W55440   9.894   1.612   9.352  0.0531  0.2117  0.0526
46841W        W55441   2.419   3.244   4.228 -0.0276  0.1992 -0.2451
46842W        W55442  22.030   1.398  26.005  0.2300 -0.1016  0.1819
46843W        W55443  15.184   5.245  26.931 -0.2838  0.2613  0.1199
46844W        W55444  24.887   5.298  25.542 -0.0751 -0.1737 -0.0383
46845W        W55445   2.025   2.478  24.303 -0.1534  0.0257 -0.1985
46846W        W55446   9.549   3.755   9.513 -0.1000 -0.1178  0.4095
46847W        W55447  14.396   1.409  22.827 -0.1175  0.3376  0.0460
46848W        W55448  10.752   2.542  28.400 -0.0003  0.1275  0.4208
46849W        W55449   6.159   5.813  25.819  0.0591  0.0427 -0.0841
46850W        W55450  16.380   1.401   4.567 -0.2268  0.0324  0.0432
46851W        W55451  16.882   1.728   3.491 -0.0292  0.1294 -0.0704
46852W        W55452  18.487   4.936  15.569  0.0745  0.1000  0.0051
46853W        W55453   8.296   1.203  11.264  0.0746  0.0116 -0.1289
46854W        W55454  16.711   2.868   3.984  0.1323 -0.1080 -0.1364
46855W        W55455   9.016   5.138   6.135  0.1712  0.5055 -0.1649
46856W        W55456   6.075   0.972   2.088  0.1719  0.2769  0.2031
46857W        W55457  13.204   5.654  24.323 -0.1289  0.0727  0.1486
46858W        W55458  24.420   1.861  24.161  0.0089 -0.0206 -0.0809
46859W        W55459  15.036   2.085  27.488 -0.0016  0.1106 -0.0887
46860W        W55460   6.487   4.875  25.985 -0.0221  0.2643 -0.0093
46861W        W55461  15.224   0.242  24.539  0.3466  0.2805 -0.1532
46862W        W55462  18.562   6.128   1.838  0.1211 -0.0676  0.2791
46863W        W55463  22.066   2.390  23.895 -0.3656  0.0565  0.0903
46864W        W55464  18.510   1.757   4.527  0.2257  0.0425  0.1051
46865W        W55465  18.581   5.906   9.365  0.1162 -0.1665 -0.0080
46866W        W55466  19.563   6.396  30.522 -0.1575  0.0870 -0.0575
46867W        W55467   3.871   6.196   0.705 -0.2030 -0.0996  0.3235
46868W        W55468  20.983   1.314  35.657 -0.1998 -0.1032 -0.1922
46869W        W55469  25.324   2.026   6.569  0.0270  0.1304 -0.2688
46870W        W55470  20.783   0.333  13.250 -0.1958  0.2708  0.3963
46871W        W55471  22.233   5.069   9.507 -0.3127 -0.3051 -0.3029
46872W        W55472  19.397   1.087  15.491  0.1412  0.3022 -0.1765
46873W        W55473  22.617   5.438  33.343 -0.1737  0.1711  0.3663
46874W        W55474  18.296   3.045  11.293 -0.1700 -0.2630 -0.0859
46875W        W55475   2.054   4.826  22.423 -0.1860 -0.0761  0.1126
46876W        W55476  25.347   5.845  22.373 -0.0308 -0.0529 -0.1997
46877W        W55477   0.542   3.063  32.143 -0.3946  0.0375  0.0067
46878W        W55478  20.158   5.354  12.612  0.1123 -0.0092 -0.0841
46879W        W55479  12.587   1.430   8.186 -0.0141 -0.0408 -0.1993
46880W        W55480   4.497   6.116  29.191  0.1212  0.1626  0.1175
46881W        W55481  24.762   3.322   7.044 -0.1018 -0.0669 -0.0136
46882W        W55482   3.129   2.524  12.404 -0.2401  0.1026 -0.0295
46883W        W55483  21.498   3.312   1.913  0.0347  0.2584 -0.1749
46884W        W55484  15.424   5.178  32.891  0.0452 -0.0715 -0.1587
46885W        W55485  13.344   2.618   4.040 -0.0094 -0.1927  0.2697
46886W        W55486  14.875   4.236  29.274 -0.0041  0.0361  0.0280
46887W        W55487  12.475   5.132  14.796  0.0599  0.0521 -0.1450
46888W        W55488  13.011   0.978   1.697  0.0311 -0.1560  0.0997
46889W        W55489   2.525   1.647   9.323  0.0132  0.1243  0.1435
46890W        W55490  18.106   5.848  32.177  0.1511 -0.1885  0.0989
46891W        W55491  19.144   4.496  29.434 -0.3288  0.1937 -0.0141
46892W        W55492  13.912   0.659  23.867  0.0474 -0.2737 -0.1388
46893W        W55493   6.299   6.102  14.367  0.1579 -0.1504 -0.0429
46894W        W55494  19.287   1.873  23.591 -0.0070  0.0372 -0.3791
46895W        W55495   5.044   6.429  30.686 -0.0259 -0.0533  0.0047
46896W        W55496   6.196   1.566  22.457 -0.2942  0.3289  0.1643
46897W        W55497   2.708   6.156  25.439  0.0439 -0.1395 -0.0420
46898W        W55498   9.211   2.868  13.737 -0.0417  0.5366 -0.0886
46899W        W55499  26.293   2.864  23.368  0.1296 -0.1610 -0.1939
46900W        W55500   3.984   6.029  33.355 -0.2356 -0.1720 -0.1443
46901W        W55501   6.770   4.688   6.119  0.0108  0.0842  0.1935
46902W        W55502   6.087   4.875  13.431 -0.2494 -0.1617 -0.0714
46903W        W55503   6.295   2.018  28.862  0.0227  0.2460 -0.2460
46904W        W55504   0.745   5.456  16.068  0.0606  0.1085  0.1631
46905W        W55505  18.367   3.536  11.059  0.2231  0.2394  0.0928
46906W        W55506  21.486   5.290  13.938 -0.0328  0.2230 -0.0522
46907W        W55507   7.689   3.024  34.732  0.3522  0.1948 -0.0609
46908W        W55508   7.581   5.430   9.635  0.2689  0.0248 -0.2398
46909W        W55509  19.013   5.045  23.676  0.1109  0.1194 -0.0129
46910W        W55510   8.355   4.949  12.586  0.1230  0.5108  0.2546
46911W        W55511  23.176   6.048  23.378 -0.1915 -0.1024 -0.3990
46912W        W55512  23.208   5.825   0.512 -0.0698 -0.0782  0.0300
46913W        W55513  20.720   4.574   9.107  0.2659  0.3877 -0.3529
46914W        W55514  12.720   5.035  33.477 -0.1135 -0.2872 -0.2062
46915W        W55515  21.599   0.337  11.020  0.1107  0.0703  0.0711
46916W        W55516  18.676   4.587  10.207 -0.1356 -0.1753 -0.2013
46917W        W55517  23.183   2.190   7.380  0.0362  0.0182 -0.0884
46918W        W55518  10.608   2.804  26.279 -0.1049 -0.0989  0.0648
46919W        W55519  24.865   2.664  31.832  0.1880  0.0148  0.2323
46920W        W55520  24.888   5.435  12.816 -0.1692  0.1909  0.0702
46921W        W55521  25.102   5.832   5.260  0.1259  0.1173 -0.3141
46922W        W55522  13.163   6.158  24.422 -0.1713  0.2005  0.1187
46923W        W55523  21.695   2.733   1.604  0.2206 -0.1831 -0.0505
46924W        W55524   6.732   2.375  21.602  0.0736  0.0132  0.2927
46925W        W55525   1.572   3.687  15.431  0.0195 -0.0753  0.0607
46926W        W55526  23.597   5.130  25.203 -0.0942 -0.0889  0.0085
46927W        W55527   8.544   5.280  14.367 -0.2699 -0.3531  0.4568
46928W        W55528   4.359   4.389  27.987 -0.1028  0.2868  0.2375
46929W        W55529  14.124   4.024   9.143  0.1245  0.2115 -0.0421
46930W        W55530  15.290   5.595  33.808  0.0298 -0.1950  0.0664
46931W        W55531  18.109   0.190  15.907 -0.3551  0.0571 -0.1539
46932W        W55532  13.978   3.200   0.608  0.0804 -0.0927 -0.1899
46933W        W55533   4.295   0.791  30.148  0.0277  0.1715 -0.0052
46934W        W55534  25.091   1.851  30.893  0.0173  0.5680 -0.1159
46935W        W55535  23.368   1.938  27.511 -0.0544  0.2510  0.0506
46936W        W55536  15.353   1.482  24.891  0.1480  0.2568  0.2813
46937W        W55537   7.656   2.211   2.370 -0.2450  0.0842  0.0682
46938W        W55538  19.397   6.197  31.962  0.0285  0.1173  0.1337
46939W        W55539  25.037   6.598   7.816  0.0204  0.1639  0.1633
46940W        W55540   2.921   0.491   2.531 -0.1342  0.1431  0.1756
46941W        W55541  26.100   2.358   4.907 -0.0960 -0.0159  0.0192
46942W        W55542  19.197   1.273  21.018  0.1341 -0.1138  0.1949
46943W        W55543  23.741   3.542   9.002 -0.0993 -0.4048  0.2401
46944W        W55544   9.107   5.360  33.856 -0.0561 -0.0876 -0.0557
46945W        W55545  25.782   5.477  20.603 -0.0966  0.0346  0.2300
46946W        W55546   4.301   2.651   1.038 -0.3250 -0.1705 -0.0869
46947W        W55547   0.172   3.471  10.459  0.3316  0.0433  0.3726
46948W        W55548  23.390   0.785  32.302 -0.1815  0.0849  0.1932
46949W        W55549   8.038   4.007  27.180 -0.2554 -0.2669  0.0811
46950W        W55550   2.499   3.942  14.788 -0.1891 -0.0320 -0.0663
46951W        W55551  21.661   0.770   8.323 -0.2508 -0.2739  0.1188
46952W        W55552   5.702   2.470   1.358  0.1376 -0.1318  0.0571
46953W        W55553   0.533   0.925  33.044  0.0963  0.3196  0.5013
46954W        W55554  22.759   2.844  28.387  0.1381  0.0073  0.1737
46955W        W55555   5.946   3.681  24.221 -0.0661  0.2673  0.0428
46956W        W55556   3.914   4.686  11.066 -0.2214 -0.0411  0.1055
46957W        W55557  20.054   0.866  23.279 -0.0929 -0.1591 -0.1640
46958W        W55558  14.464   5.583  31.922  0.3116  0.1791 -0.1032
46959W        W55559  22.763   4.591  36.006 -0.1152 -0.0714 -0.0261
46960W        W55560  20.765   6.222  35.550 -0.1070 -0.0190  0.0306
46961W        W55561  25.208   5.473  34.771  0.0319  0.0640 -0.3410
46962W        W55562  20.899   5.674   8.516 -0.1397  0.0938 -0.1522
46963W        W55563  10.376   3.893  12.996  0.2672  0.0901  0.2607
46964W        W55564   7.286   3.545   9.897 -0.0623  0.0969 -0.0199
46965W        W55565   2.127   3.366   8.070 -0.3496 -0.1820  0.2159
46966W        W55566  26.057   2.983  35.331 -0.2956  0.2030  0.0902
46967W        W55567  24.174   5.069   1.331 -0.3226 -0.0175  0.1897
46968W        W55568  23.731   2.065   1.925 -0.1127 -0.0150  0.1623
46969W        W55569  21.584   4.549   9.002 -0.1700 -0.1690  0.1958
46970W        W55570   5.285   1.450  22.959  0.0752  0.1341  0.1964
46971W        W55571   3.914   1.933   2.573  0.0498  0.0257 -0.1907
46972W        W55572  20.150   2.806  23.357  0.3459  0.0398  0.2274
46973W        W55573  10.227   3.961   7.899  0.2066 -0.4061 -0.0559
46974W        W55574  12.980   5.473   8.323  0.1859  0.0355  0.2492
46975W        W55575  20.784   0.079  24.987  0.1310 -0.1898 -0.3434
46976W        W55576   2.113   1.370  21.513 -0.1901 -0.2020 -0.4006
46977W        W55577   5.333   3.091  24.633  0.2481 -0.1092 -0.1741
46978W        W55578  24.850   6.213   1.434 -0.1665 -0.0463  0.5236
46979W        W55579  16.827   3.690  30.037  0.4198  0.5643  0.3490
46980W        W55580  13.979   6.505  26.996 -0.4091  0.2016 -0.4457
46981W        W55581   7.592   3.910  28.760  0.2132 -0.4397 -0.0589
46982W        W55582  10.099   1.267  32.223  0.3183  0.3025 -0.0716
46983W        W55583  20.466   3.281  36.141  0.3053 -0.0267 -0.1384
46984W        W55584  14.434   4.197  15.413  0.1664 -0.2200  0.0722
46985W        W55585   8.473   4.712  28.309 -0.1154 -0.4283  0.0134
46986W        W55586  26.345   1.798  31.674 -0.2410 -0.0890 -0.0752
46987W        W55587  20.057   2.988  11.144 -0.1708  0.0018  0.1342
46988W        W55588   7.788   4.661   2.687 -0.0212 -0.0437  0.0026
46989W        W55589   5.291   2.917  25.444 -0.1304  0.1532  0.1096
46990W        W55590  18.104   2.805  13.893  0.0737 -0.0559 -0.2161
46991W        W55591   8.430   2.560   8.892 -0.2972 -0.1416  0.1193
46992W        W55592   1.370   1.930   4.029 -0.1547 -0.1003  0.0206
46993W        W55593  17.986   2.192   3.866  0.0155 -0.1053  0.1609
46994W        W55594   8.797   5.765   0.397 -0.0749  0.1804  0.1099
46995W        W55595   9.081   6.450  26.709  0.3455  0.0258 -0.1351
46996W        W55596   2.301   3.980   2.245  0.0397  0.1449 -0.0905
46997W        W55597  18.425   0.066   0.807  0.0548 -0.0974  0.1321
46998W        W55598   4.631   5.075   8.798 -0.0528 -0.0155 -0.2856
46999W        W55599  13.079   4.986  25.379  0.1966 -0.1677 -0.1606
47000W        W55600  17.380   4.948  21.694 -0.1340 -0.1397  0.0112
47001W        W55601  14.122   3.662  31.171 -0.0965 -0.1195 -0.2596
47002W        W55602  15.085   1.432  11.454 -0.0558 -0.0760  0.1016
47003W        W55603  24.887   5.282   8.021  0.0473 -0.0979 -0.0994
47004W        W55604  24.956   2.659  34.183  0.0114 -0.1424  0.1410
47005W        W55605  17.926   3.261  21.565  0.0450 -0.1931 -0.0272
47006W        W55606  11.390   6.306  26.923  0.0364 -0.0592  0.1614
47007W        W55607  11.067   4.330  26.203 -0.3197  0.1096 -0.0820
47008W        W55608  10.646   4.913  35.264  0.2582 -0.2357  0.1315
47009W        W55609   2.539   1.431   5.834  0.0848 -0.2544  0.2207
47010W        W55610   7.527   0.230  29.318  0.0560  0.1722  0.0730
47011W        W55611  20.607   0.791   2.195  0.1410  0.0506  0.0250
47012W        W55612  10.328   0.459  33.814 -0.0514  0.3013 -0.1589
47013W        W55613   5.398   6.121   8.021 -0.1128 -0.0258  0.0624
47014W        W55614  18.804   0.941   6.669 -0.0422  0.1300  0.1778
47015W        W55615  20.070   3.284   9.693 -0.0648  0.1219 -0.1675
47016W        W55616  15.796   2.210  14.586 -0.2324 -0.3048 -0.0778
47017W        W55617   1.480   3.317   6.000 -0.0946 -0.3286  0.1194
47018W        W55618  13.654   3.363  26.587 -0.3409  0.0188  0.1281
47019W        W55619  23.908   3.003  29.711  0.2800  0.2131  0.1486
47020W        W55620   8.770   3.694  35.951  0.1166 -0.1739 -0.2593
47021W        W55621   1.568   0.653   0.087 -0.1909  0.0889 -0.2284
47022W        W55622  21.411   3.180  14.480 -0.1670 -0.1497 -0.1661
47023W        W55623  25.346   1.935  31.544  0.2033 -0.0118  0.1802
47024W        W55624   4.527   2.978  14.167  0.1594  0.1635  0.3372
47025W        W55625   2.072   0.767   0.008  0.0400 -0.0128 -0.0649
47026W        W55626  19.748   1.223   4.591 -0.2739  0.1958  0.0155
47027W        W55627   3.995   1.528   1.571  0.1148  0.0382  0.2799
47028W        W55628  25.886   4.264  30.207 -0.0214  0.0300 -0.1967
47029W        W55629   5.782   6.363  24.601 -0.0740  0.0925 -0.1548
47030W        W55630  15.458   4.562  14.298  0.2292 -0.0755  0.1039
47031W        W55631   5.515   2.672  26.631 -0.1909  0.2372  0.0389
47032W        W55632   1.674   1.953   7.782  0.0156 -0.3255 -0.3011
47033W        W55633   3.978   0.119  27.173  0.2202 -0.1551  0.2314
47034W        W55634  16.344   6.328   7.124 -0.0387  0.2913  0.2392
47035W        W55635  17.142   5.193   3.335 -0.0437  0.1146 -0.0442
47036W        W55636   2.075   6.053   3.126 -0.0618 -0.0821  0.0838
47037W        W55637   7.906   2.757   5.157  0.1377  0.2360 -0.1517
47038W        W55638  24.025   6.008  10.069 -0.0393 -0.0702 -0.2915
47039W        W55639  16.659   0.711  11.754  0.4176 -0.1929 -0.4202
47040W        W55640   7.556   3.287  33.449  0.1240  0.0863 -0.1364
47041W        W55641  11.846   6.376  14.735 -0.1078 -0.2715  0.0996
47042W        W55642   3.799   2.941  11.216 -0.0644  0.1526  0.0463
47043W        W55643  10.516   6.245  28.466 -0.0429 -0.2653  0.2131
47044W        W55644   7.916   0.958  12.669 -0.0237 -0.0935 -0.1801
47045W        W55645  12.294   3.303  21.087  0.0795  0.2053  0.2142
47046W        W55646  20.009   5.151   1.687 -0.0682 -0.0722 -0.0144
47047W        W55647   9.704   0.753  12.179  0.4986  0.3113  0.2810
47048W        W55648   1.932   5.631  26.348  0.0366 -0.1156 -0.2331
47049W        W55649  20.435   3.213  31.783 -0.1839  0.0111 -0.0122
47050W        W55650  25.593   1.791  31.118 -0.1849 -0.1852  0.1203
47051W        W55651   9.103   3.867   9.799 -0.0961 -0.0760 -0.3179
47052W        W55652  24.612   5.619  32.487 -0.0809  0.1994  0.1620
47053W        W55653  25.049   0.127  27.050  0.1927  0.0721  0.2511
47054W        W55654  19.930   5.352  33.742  0.2504  0.0084  0.1585
47055W        W55655  22.242   3.525  10.169 -0.3047  0.1003 -0.0835
47056W        W55656   6.225   5.315   6.541  0.1740 -0.3794 -0.0726
47057W        W55657   1.757   5.714   2.961 -0.3514 -0.0684 -0.0507
47058W        W55658   8.438   0.500  23.787  0.2445  0.2854  0.0127
47059W        W55659  10.035   5.988  27.017 -0.3614  0.2464  0.0546
47060W        W55660  10.080   2.783  12.028  0.2405 -0.1001  0.2419
47061W        W55661   6.623   3.830  28.788  0.3074  0.0398 -0.2722
47062W        W55662  14.017   6.593  32.434  0.1156 -0.1197  0.0358
47063W        W55663  15.756   0.658  30.545 -0.0425 -0.1749  0.3961
47064W        W55664   6.458   0.856  28.759  0.1121 -0.0772  0.0435
47065W        W55665   4.987   5.965  27.937 -0.0631  0.0993  0.0720
47066W        W55666  25.447   3.083  30.768  0.0930 -0.0928  0.0308
47067W        W55667   0.512   1.880  20.959  0.1251 -0.1206  0.3582
47068W        W55668  11.218   1.241   6.138 -0.0425 -0.0559 -0.3909
47069W        W55669  13.189   3.527   3.635  0.2546 -0.1135  0.4148
47070W        W55670   9.929   3.683  14.065 -0.2404 -0.0028  0.1179
47071W        W55671  25.365   0.934  14.243 -0.0730  0.0577 -0.0435
47072W        W55672  20.528   2.695  35.261  0.3490  0.0889  0.0217
47073W        W55673  24.535   1.280  29.630 -0.0394  0.1142  0.0995
47074W        W55674  22.562   0.347  32.457 -0.2458 -0.1789 -0.2407
47075W        W55675   3.362   4.210  10.723 -0.3839  0.1699  0.3596
47076W        W55676  17.338   1.474  10.897 -0.1103 -0.0511  0.1760
47077W        W55677   8.224   5.454   5.907 -0.0068  0.1008 -0.0336
47078W        W55678  11.340   6.432  28.895  0.2062 -0.0355  0.1474
47079W        W55679   8.727   4.193  14.710 -0.2344 -0.0726  0.0492
47080W        W55680  18.931   0.484  24.321  0.0094 -0.3190 -0.0299
47081W        W55681   4.309   5.435  30.077  0.0251  0.0675 -0.0095
47082W        W55682  11.778   3.897  32.050  0.1683  0.0660 -0.1634
47083W        W55683  21.516   0.729  22.122  0.2884 -0.0720  0.0102
47084W        W55684  12.113   1.372   4.806  0.0714  0.4319 -0.0679
47085W        W55685  19.294   2.113  13.149  0.1298  0.0452 -0.0619
47086W        W55686  17.687   2.641  11.753  0.3951 -0.0052 -0.1895
47087W        W55687   3.051   1.044  27.639  0.1164  0.0395  0.0766
47088W        W55688   6.145   5.366  20.775 -0.0412 -0.0268  0.2033
47089W        W55689  24.935   4.012  35.662 -0.3854 -0.0061 -0.4900
47090W        W55690  18.715   1.144  34.413  0.1999  0.0922 -0.3747
47091W        W55691  13.838   2.499  22.404 -0.0375  0.1619 -0.2914
47092W        W55692   4.605   2.640  34.360  0.3088  0.1645  0.0309
47093W        W55693  15.150   1.283   3.809  0.2391  0.3564  0.2722
47094W        W55694   0.986   0.518  28.841  0.0271  0.2614  0.0161
47095W        W55695  15.989   2.257  25.276  0.0408  0.0205  0.2415
47096W        W55696   0.183   0.006   0.505 -0.0521  0.1284 -0.1578
47097W        W55697  17.489   0.516  10.751  0.2753 -0.0750  0.3593
47098W        W55698  25.419   2.228  22.793  0.1218  0.0239 -0.4018
47099W        W55699  13.977   3.933   2.790 -0.0673 -0.3153 -0.1409
47100W        W55700  17.160   0.546  26.024 -0.2432  0.0046 -0.0643
47101W        W55701  20.586   4.913   0.409  0.3493 -0.2187 -0.3079
47102W        W55702  10.502   2.596  23.415  0.1885 -0.1565  0.1561
47103W        W55703   7.173   2.160  27.092  0.0098 -0.3213  0.0210
47104W        W55704  15.166   2.674   0.795  0.0357  0.3776  0.1172
47105W        W55705  18.503   2.093  29.924  0.0305  0.0354  0.1045
47106W        W55706  19.690   2.726  28.951  0.1088 -0.0508  0.1390
47107W        W55707   2.295   2.084  22.128  0.3532  0.2368 -0.1083
47108W        W55708   8.859   0.186  14.140  0.0176 -0.1803  0.0106
47109W        W55709  25.955   4.872  11.992  0.0232 -0.3702 -0.0320
47110W        W55710  12.819   0.980  26.596  0.0630  0.0527  0.1090
47111W        W55711  17.932   6.160  10.638 -0.1586 -0.0293 -0.0923
47112W        W55712   8.599   3.301  23.210  0.2692 -0.2737  0.0830
47113W        W55713  19.159   0.497   7.264 -0.0858 -0.0449  0.1803
47114W        W55714  25.963   5.218   2.870 -0.0019 -0.2418  0.1276
47115W        W55715  24.886   3.606  20.554  0.0806  0.0324 -0.1350
47116W        W55716   9.096   4.249  21.363  0.2643 -0.0861 -0.0593
47117W        W55717  17.286   0.282  33.514 -0.1721 -0.1589  0.0085
47118W        W55718   8.193   1.688   9.685 -0.0489 -0.2341 -0.1029
47119W        W55719  12.683   4.712  32.120  0.0329 -0.3276 -0.2014
47120W        W55720  17.328   0.229  27.517  0.0171 -0.1300  0.3459
47121W        W55721  12.643   1.023  29.763 -0.0920 -0.0750 -0.2095
47122W        W55722  17.975   1.348   9.340  0.1009  0.4859  0.4269
47123W        W55723   5.477   4.656   2.821  0.0303 -0.2565  0.0211
47124W        W55724  16.739   5.866   8.456 -0.2068 -0.2661 -0.0463
47125W        W55725  25.361   1.260  20.430  0.0649 -0.0271 -0.1065
47126W        W55726   2.731   4.591  32.633 -0.1089 -0.0106 -0.0025
47127W        W55727  11.999   2.896  30.674  0.2002  0.3385 -0.0919
47128W        W55728   6.043   3.822  11.230  0.2312 -0.4898  0.2638
47129W        W55729   4.831   3.477  12.841  0.1854  0.1415  0.0663
47130W        W55730  10.502   4.798   4.205  0.1848  0.1391 -0.2135
47131W        W55731  19.345   1.387   4.900  0.0452  0.0924  0.0746
47132W        W55732  19.769   5.042  26.980 -0.0422  0.1637 -0.0731
47133W        W55733  20.167   1.499  12.385 -0.0770  0.0368  0.2731
47134W        W55734   4.225   0.620  24.074  0.0298  0.0660 -0.2452
47135W        W55735  13.050   3.313  32.180  0.1101 -0.0047  0.3234
47136W        W55736  13.633   2.649   5.584 -0.3055 -0.2694 -0.0843
47137W        W55737  10.377   2.041  35.314 -0.0133 -0.1724  0.0466
47138W        W55738  13.751   4.022  31.957  0.0579  0.1551 -0.2956
47139W        W55739   1.048   1.924   2.325  0.2628  0.1165 -0.0981
47140W        W55740   1.032   0.701   4.736  0.3679 -0.1670  0.1261
47141W        W55741  19.728   1.370  27.250 -0.3185 -0.1422  0.0508
47142W        W55742  13.717   4.610  32.011  0.0892 -0.1195  0.1851
47143W        W55743   0.802   5.667   0.746 -0.0742 -0.2188  0.0822
47144W        W55744  16.822   1.188  21.274 -0.1472  0.1187  0.2121
47145W        W55745  19.437   4.433   2.077 -0.0609  0.0955 -0.0267
47146W        W55746  11.084   2.117   3.815 -0.1680  0.3569  0.1478
47147W        W55747  18.390   4.281  21.548 -0.3224 -0.1641 -0.0917
47148W        W55748  24.796   2.563   9.337  0.0055 -0.0756 -0.1657
47149W        W55749   4.249   3.258  20.855 -0.0667  0.2584  0.1656
47150W        W55750  11.110   0.869   9.941  0.0660  0.0856 -0.0830
47151W        W55751  20.407   3.315   1.871  0.0900  0.2233  0.0781
47152W        W55752   0.672   4.609  14.917  0.0940 -0.1712 -0.0004
47153W        W55753   5.611   4.922   2.394  0.0428  0.2351  0.0429
47154W        W55754   3.737   0.966  25.788 -0.1549  0.1052 -0.0020
47155W        W55755  16.305   5.316   9.238  0.2020  0.2912 -0.0326
47156W        W55756   0.237   3.379  15.428  0.0815  0.1048 -0.3134
47157W        W55757  20.940   2.263  26.856  0.2157 -0.0868  0.1188
47158W        W55758   0.142   5.866  21.707 -0.2277 -0.0361 -0.0223
47159W        W55759  18.201   5.072   8.535  0.0186  0.0669  0.3258
47160W        W55760  20.805   2.283  35.333  0.3244  0.1023  0.1472
47161W        W55761  22.865   5.341  32.939 -0.1170 -0.1731  0.0370
47162W        W55762  21.250   0.827  33.299 -0.0873  0.1783  0.1456
47163W        W55763  10.591   4.201   3.573 -0.2082  0.1315 -0.0089
47164W        W55764   3.149   1.706   9.546  0.1633 -0.0868 -0.2969
47165W        W55765   8.901   4.630  34.501  0.1541  0.2859  0.2180
47166W        W55766   0.969   3.992   1.869 -0.1103 -0.2772 -0.2488
47167W        W55767  12.669   3.797  11.145 -0.1703  0.1715 -0.1755
47168W        W55768  12.518   4.731   6.896 -0.1030 -0.1030  0.0941
47169W        W55769  19.854   5.384  34.228 -0.2287  0.0723 -0.0467
47170W        W55770   3.114   3.969  13.646  0.0982  0.1276  0.2765
47171W        W55771   3.727   3.152  20.770 -0.0123  0.1752 -0.1378
47172W        W55772  17.167   4.265  26.715 -0.1213 -0.2017 -0.1959
47173W        W55773  20.254   3.566  12.276 -0.1042  0.0698 -0.0708
47174W        W55774   4.072   5.291  10.585 -0.2755 -0.2317 -0.3267
47175W        W55775  19.302   5.134  11.723  0.2026 -0.1659 -0.1021
47176W        W55776   6.247   2.854  14.610 -0.0712 -0.0228 -0.2098
47177W        W55777  21.892   3.660  25.161 -0.2845 -0.0916 -0.2516
47178W        W55778  17.465   2.925  30.471  0.1749 -0.2086 -0.0847
47179W        W55779  19.765   2.589  14.759 -0.0769  0.3142  0.1012
47180W        W55780   9.713   3.610  29.274 -0.0112  0.0027  0.3448
47181W        W55781   2.258   0.204  10.307  0.1573  0.2776  0.0751
47182W        W55782  24.295   1.534   3.049  0.0374 -0.0363 -0.0535
47183W        W55783  22.728   6.160  32.301 -0.0545 -0.0412  0.1411
47184W        W55784  18.156   1.878  34.812  0.2064  0.0138  0.2163
47185W        W55785  25.900   0.121  11.317  0.0801  0.0362  0.1543
47186W        W55786  25.424   4.423  21.069 -0.2407 -0.1079 -0.1400
47187W        W55787  16.758   4.075  24.778  0.1588  0.0903 -0.0409
47188W        W55788  11.089   5.329  27.900 -0.1472 -0.1122  0.0080
47189W        W55789   0.547   6.402  35.966  0.0920 -0.1637  0.0860
47190W        W55790   2.497   2.709   0.711  0.3706  0.0168  0.0714
47191W        W55791   2.072   1.489   9.240  0.3155 -0.0779  0.0398
47192W        W55792  20.030   3.910  31.027  0.1256  0.1118 -0.1686
47193W        W55793  12.002   2.113  24.739 -0.0394  0.0456  0.0222
47194W        W55794   8.183   2.424  10.871  0.1602  0.0273  0.0932
47195W        W55795  13.665   3.158  24.587  0.0452 -0.1048 -0.1914
47196W        W55796  17.701   3.696  23.928  0.1494 -0.0115  0.0224
47197W        W55797  19.081   2.520  27.266  0.0914  0.2365 -0.1945
47198W        W55798  16.557   1.661  27.033  0.0267  0.2436 -0.1712
47199W        W55799  25.486   3.000  23.937  0.1033  0.2486 -0.0217
47200W        W55800   2.473   3.628  20.805 -0.1018 -0.2997 -0.0466
47201W        W55801  16.122   1.772  32.694  0.0576  0.0713  0.0987
47202W        W55802  25.871   1.116   5.546  0.0625 -0.0695  0.0236
47203W        W55803   1.522   6.349  33.972  0.0477 -0.1535  0.0212
47204W        W55804  20.491   3.270   9.350 -0.0846 -0.2082 -0.1219
47205W        W55805  21.669   0.588  34.657  0.0490 -0.0568  0.1251
47206W        W55806   6.163   3.423   0.000 -0.1336  0.1075 -0.0065
47207W        W55807  14.406   4.807  13.257  0.1063 -0.3729 -0.1461
47208W        W55808   1.495   3.562  13.469 -0.2010 -0.2183  0.2538
47209W        W55809  13.010   2.273  23.112  0.0351 -0.1719 -0.2215
47210W        W55810   7.273   3.284  21.872  0.0210 -0.1578 -0.1793
47211W        W55811  22.003   3.029   9.970  0.0485  0.2513 -0.2220
47212W        W55812   4.595   1.107  29.306 -0.1957  0.1661 -0.0497
47213W        W55813   5.282   1.745  28.166 -0.0801 -0.4186  0.1834
47214W        W55814  14.477   6.161  14.607  0.0635 -0.1667 -0.4018
47215W        W55815  25.655   2.894  14.355  0.2549 -0.1226 -0.0899
47216W        W55816  24.914   4.487  13.272 -0.1626  0.3490  0.0380
47217W        W55817  13.861   3.775  30.388  0.2152  0.0472  0.2837
47218W        W55818  20.830   6.509  21.481 -0.1156  0.1349 -0.1225
47219W        W55819  15.403   4.249  28.827 -0.1632  0.1607  0.0731
47220W        W55820  12.195   0.395  26.039 -0.0032 -0.2824 -0.0254
47221W        W55821  20.147   5.959   3.005 -0.2217  0.0480  0.2055
47222W        W55822   4.405   0.296  24.674  0.0732 -0.0127  0.2505
47223W        W55823  16.657   5.071  15.852 -0.0005 -0.0383  0.3735
47224W        W55824  22.871   4.189  14.681 -0.1985 -0.1729  0.0496
47225W        W55825  20.213   3.066  30.837 -0.2633  0.0697 -0.4985
47226W        W55826   0.197   2.312  20.886 -0.0993  0.1990  0.0965
47227W        W55827  11.018   4.979  26.746  0.0091 -0.0253 -0.2858
47228W        W55828  18.980   1.551  32.877 -0.2532 -0.0089  0.5375
47229W        W55829   4.541   0.099   3.953 -0.0163  0.0243  0.1700
47230W        W55830  25.459   2.498  14.117  0.0385 -0.0513 -0.0199
47231W        W55831   3.670   4.299  34.708  0.0209  0.1818  0.1561
47232W        W55832  19.408   3.727  14.449  0.1549 -0.2011 -0.0031
47233W        W55833   2.082   1.818  32.506 -0.0574  0.1775 -0.0678
47234W        W55834   5.826   1.571  25.931  0.2530 -0.0100 -0.0089
47235W        W55835   4.098   2.853   3.646 -0.0092  0.0532 -0.0279
47236W        W55836  22.056   2.606   3.233  0.3564  0.3991 -0.0846
47237W        W55837  19.429   4.352  12.652  0.0752  0.1632 -0.0110
47238W        W55838   8.708   1.594  29.732 -0.0778 -0.0698 -0.1754
47239W        W55839  10.996   1.266  23.526 -0.3504  0.1977  0.1357
47240W        W55840  23.508   2.777   6.480 -0.1784 -0.1127 -0.1813
47241W        W55841  21.901   4.881   9.222 -0.1325 -0.1210  0.1651
47242W        W55842  14.146   1.672   7.462  0.0384 -0.0299  0.1858
47243W        W55843  13.387   1.254   9.424 -0.1927 -0.1997  0.3286
47244W        W55844   8.886   6.434   2.008 -0.1735  0.2557 -0.0520
47245W        W55845   0.063   6.079  25.766  0.1798 -0.1143 -0.2244
47246W        W55846  19.779   2.027  34.458  0.1440  0.2436  0.0888
47247W        W55847   7.531   6.287  10.050 -0.1194 -0.1080  0.0919
47248W        W55848  24.828   3.031   4.354  0.0175  0.1788  0.1817
47249W        W55849   5.377   1.118  12.605  0.0435 -0.2787  0.1544
47250W        W55850  13.628   2.877  35.294  0.2203 -0.1484  0.0791
47251W        W55851  12.443   4.358  32.456 -0.0102 -0.2086  0.2459
47252W        W55852  17.432   0.044   3.893  0.2282  0.1112  0.0749
47253W        W55853  20.738   5.527  21.102 -0.2127  0.1699  0.0229
47254W        W55854  23.362   2.753  35.340 -0.0677  0.0577 -0.1877
47255W        W55855   7.031   1.684  12.781  0.0725  0.2574  0.1734
47256W        W55856   1.816   0.853  32.192  0.1078 -0.1125 -0.0922
47257W        W55857  20.810   4.748  28.488  0.1490  0.2432  0.4672
47258W        W55858  18.232   0.617   8.042  0.0606  0.0682 -0.2773
47259W        W55859  16.525   6.364  12.382  0.1503 -0.1175  0.1543
47260W        W55860   3.285   5.574   2.706  0.3258  0.0200  0.0249
47261W        W55861  20.686   5.419  21.617 -0.2714  0.1723  0.0471
47262W        W55862   7.980   0.047  29.556 -0.0626  0.0046  0.2497
47263W        W55863  10.788   3.334   0.446  0.2945 -0.1272 -0.0719
47264W        W55864   7.871   1.408  36.104  0.1867  0.3109  0.0793
47265W        W55865  10.240   4.823  31.747 -0.1053  0.0375  0.0359
47266W        W55866  10.026   5.914  24.801 -0.0777 -0.0666 -0.0415
47267W        W55867   8.963   1.259   5.047  0.0014  0.1699  0.0050
47268W        W55868   9.464   2.976  15.623  0.3962 -0.0699  0.0195
47269W        W55869  23.270   6.077  34.231 -0.0724 -0.0658  0.1507
47270W        W55870   0.843   4.900  27.056 -0.1515 -0.0838  0.1767
47271W        W55871   0.796   3.112  24.914  0.1156 -0.3641 -0.1819
47272W        W55872   9.572   0.821  25.293 -0.2455  0.0677 -0.0385
47273W        W55873  13.390   2.306  23.740  0.0391 -0.1096 -0.1000
47274W        W55874  12.509   1.052  34.177  0.1667  0.0384 -0.3242
47275W        W55875  21.925   0.101  28.092 -0.1289 -0.0041  0.2605
47276W        W55876   0.022   4.950   4.598  0.4302  0.3509  0.0951
47277W        W55877  10.121   5.715   2.310  0.1038  0.1010 -0.1131
47278W        W55878  12.028   0.361  23.776 -0.2329 -0.1636 -0.2201
47279W        W55879  12.061   6.118  15.163  0.0524  0.2678 -0.1195
47280W        W55880   1.945   1.301  33.228  0.0160 -0.0383  0.1035
47281W        W55881  10.913   0.484  30.611 -0.0166  0.0626 -0.0325
47282W        W55882  17.876   2.979   5.926 -0.2202  0.0565  0.0641
47283W        W55883  19.124   2.533  14.890  0.1165 -0.4184  0.1491
47284W        W55884  11.403   0.561  30.786 -0.0212  0.1190 -0.2774
47285W        W55885  22.639   1.907  13.543  0.1846 -0.1099 -0.3870
47286W        W55886   9.176   6.132  24.010  0.0413  0.2891 -0.1743
47287W        W55887  15.634   1.818   2.946  0.3498  0.1041 -0.2798
47288W        W55888  13.825   3.385  11.445  0.3458 -0.0598  0.0954
47289W        W55889  12.044   2.094  31.804  0.2579  0.2415 -0.0769
47290W        W55890  21.422   2.590  31.817  0.1473 -0.2699 -0.0038
47291W        W55891  17.954   2.874   2.312 -0.1861  0.0490 -0.2343
47292W        W55892  25.331   2.633  32.760  0.3721  0.0008  0.0229
47293W        W55893   1.997   0.036  22.759  0.0083  0.1994 -0.2931
47294W        W55894  16.226   5.840   8.516 -0.3739 -0.1653  0.1603
47295W        W55895   1.854   0.664  35.366 -0.3047 -0.0199  0.0193
47296W        W55896   4.104   6.523  33.316  0.1223 -0.2633  0.3012
47297W        W55897   6.602   2.764  22.496  0.1054  0.2192 -0.1269
47298W        W55898   2.960   2.720  27.660 -0.0593 -0.2508 -0.0643
47299W        W55899  13.450   2.448  10.758  0.0207  0.3341 -0.0811
47300W        W55900   9.413   4.819  31.296  0.4434 -0.0675 -0.1955
47301W        W55901  17.343   2.357  32.229  0.0332  0.3136 -0.1075
47302W        W55902  25.137   5.277  26.007  0.2213  0.3839  0.1266
47303W        W55903  21.754   2.992  20.835 -0.2721 -0.1497 -0.1070
47304W        W55904  21.116   1.399  15.176  0.0748  0.5515  0.2058
47305W        W55905  15.544   5.615  12.265  0.0005 -0.0248 -0.0647
47306W        W55906  16.694   3.287  29.334 -0.1774 -0.2029 -0.0012
47307W        W55907   7.263   4.840   8.769 -0.1963 -0.5051  0.1637
47308W        W55908  20.401   1.082   5.538  0.2411 -0.0702 -0.2950
47309W        W55909  11.864   4.228   8.725  0.2314 -0.2340 -0.1430
47310W        W55910  16.743   5.843  12.341  0.1830 -0.1493  0.3137
47311W        W55911  23.210   4.465   0.103 -0.1052  0.3217  0.0927
47312W        W55912  23.993   1.847   4.563  0.1684 -0.1765 -0.1109
47313W        W55913  11.021   2.220  15.931 -0.2327 -0.1036  0.2430
47314W        W55914   5.335   4.132  27.149  0.0168  0.0197 -0.0274
47315W        W55915   7.357   2.782   4.984 -0.1069 -0.2177  0.2131
47316W        W55916  24.944   0.480  32.231  0.1647 -0.0037 -0.1582
47317W        W55917   9.313   4.901  33.579 -0.0911  0.1857 -0.0913
47318W        W55918   8.999   1.549  32.019  0.2848 -0.1032  0.2177
47319W        W55919  17.873   4.590   2.240  0.0377  0.0691  0.1736
47320W        W55920  15.107   1.840  33.409  0.1855 -0.0190 -0.2289
47321W        W55921   6.590   5.622   9.937 -0.0255 -0.2086  0.0194
47322W        W55922  11.101   5.818  26.956 -0.0302  0.1674 -0.4949
47323W        W55923   6.905   4.463  35.837 -0.0757  0.3473  0.1460
47324W        W55924   0.976   6.334  28.790  0.1266 -0.0388  0.0056
47325W        W55925   2.124   6.067  22.255 -0.0097 -0.1798 -0.3518
47326W        W55926  23.006   3.050   6.518 -0.1760  0.1234  0.3813
47327W        W55927   4.376   4.738   8.273 -0.1135  0.2500 -0.0642
47328W        W55928  10.990   3.444  33.002  0.1392  0.1402 -0.0148
47329W        W55929  10.131   6.153  22.794  0.1847 -0.2165  0.1392
47330W        W55930  15.710   5.007  15.165 -0.0227  0.0106 -0.2231
47331W        W55931   4.066   4.347  29.536  0.1344  0.1156 -0.0182
47332W        W55932  18.778   2.990   7.432  0.2578  0.3023 -0.0365
47333W        W55933  25.511   5.068   0.162  0.0778 -0.2134 -0.0423
47334W        W55934  12.949   1.850   5.003 -0.3904  0.1213  0.1322
47335W        W55935  14.331   4.397   0.582  0.2663  0.0339 -0.1688
47336W        W55936   9.444   1.226  11.547 -0.0515 -0.6249 -0.0210
47337W        W55937  16.365   2.128  10.232  0.1120  0.0448 -0.2148
47338W        W55938   9.712   2.894  35.858 -0.1909 -0.2761 -0.0666
47339W        W55939   8.235   3.033   1.161 -0.0690  0.0063 -0.1528
47340W        W55940  17.067   4.909  25.131 -0.0601  0.1239  0.1032
47341W        W55941  18.686   4.456  28.745  0.3995  0.2171 -0.0934
47342W        W55942  15.806   2.165  31.341 -0.0569 -0.2711  0.4168
47343W        W55943   9.156   2.880   5.885 -0.0720 -0.2160 -0.0728
47344W        W55944  17.292   0.940   2.399 -0.2046  0.0517 -0.2561
47345W        W55945  20.675   5.169  29.968  0.0808  0.2184  0.2734
47346W        W55946  25.132   5.823  23.717  0.0494 -0.0219  0.0221
47347W        W55947  25.760   5.853  24.960  0.0548  0.1247  0.1422
47348W        W55948  24.519   0.387  35.847  0.3864 -0.0997  0.1453
47349W        W55949  14.729   6.376   2.903 -0.1323 -0.3371  0.0281
47350W        W55950  18.232   5.266  13.865 -0.0766 -0.1519 -0.1149
47351W        W55951   8.868   2.728  10.445 -0.0034 -0.3051  0.0053
47352W        W55952   0.321   5.873   6.398  0.2886 -0.3543  0.2102
47353W        W55953  15.906   5.010  35.976 -0.1116  0.0686  0.1195
47354W        W55954  20.897   1.567   1.957 -0.1403  0.1966 -0.0251
47355W        W55955  26.179   1.917  29.678 -0.5448 -0.0830 -0.0960
47356W        W55956   5.053   2.252  10.565 -0.1397  0.1679 -0.1634
47357W        W55957  17.104   1.147  14.814  0.1265  0.0352 -0.0259
47358W        W55958   5.102   1.532  27.222  0.0478  0.1662 -0.1402
47359W        W55959  14.143   5.154  26.889  0.4231 -0.1882  0.0898
47360W        W55960  11.852   4.544   2.621 -0.3054  0.1435  0.2748
47361W        W55961  14.932   1.593  32.943  0.2310 -0.1676 -0.0776
47362W        W55962  25.160   5.427  21.542  0.2135  0.0104 -0.0044
47363W        W55963   1.509   3.554  28.239  0.0846  0.3009 -0.2978
47364W        W55964  19.065   6.389   8.092 -0.1626 -0.3771  0.3141
47365W        W55965  19.539   1.714  11.569 -0.0068  0.1073 -0.3864
47366W        W55966  12.972   1.062  33.935 -0.0222  0.1305 -0.1335
47367W        W55967  11.621   4.606  11.212  0.1132  0.0472  0.1758
47368W        W55968  25.515   2.015  27.355  0.1880  0.0904  0.0212
47369W        W55969  22.134   5.802   9.261 -0.2325 -0.0641 -0.0261
47370W        W55970  10.932   3.321   1.413 -0.1542 -0.3189  0.0258
47371W        W55971   1.471   0.969   0.429  0.0010  0.2246 -0.0103
47372W        W55972  20.749   0.252   2.279  0.1616  0.1295 -0.1100
47373W        W55973  24.823   2.829   3.475 -0.0763  0.2604  0.0119
47374W        W55974   1.522   3.332   3.220 -0.4532  0.2728  0.0777
47375W        W55975   3.107   1.961  22.185  0.0709 -0.1321  0.0328
47376W        W55976  18.816   1.557   0.286 -0.1682  0.1984 -0.3287
47377W        W55977  11.670   0.992  35.271  0.1496  0.0526  0.1494
47378W        W55978  19.453   1.917  25.767 -0.3324 -0.1055  0.1494
47379W        W55979   6.991   0.012  22.426  0.0042 -0.0341 -0.1251
47380W        W55980  24.512   5.719  20.743  0.1044  0.0813 -0.1882
47381W        W55981  14.882   2.418  30.158  0.2384  0.1729 -0.2178
47382W        W55982   3.987   1.493   2.232  0.2928  0.1956  0.2106
47383W        W55983   6.091   2.369  25.388  0.3286  0.2452  0.2221
47384W        W55984  24.588   5.568  23.081  0.0816  0.0048 -0.4055
47385W        W55985   4.654   0.082  22.874  0.0786  0.1493 -0.3308
47386W        W55986  14.347   6.340  28.308  0.1850 -0.0181  0.0792
47387W        W55987  11.664   6.463  30.614  0.0096  0.0172 -0.2397
47388W        W55988  15.635   4.187   6.680 -0.1684  0.0298  0.1274
47389W        W55989  17.456   6.201   2.510 -0.1438 -0.1166 -0.0890
47390W        W55990   4.316   0.929  27.922 -0.0739  0.1230 -0.0916
47391W        W55991  24.108   4.737  23.860 -0.0461 -0.1134  0.1983
47392W        W55992  20.829   0.748  28.998  0.0783  0.1171  0.1484
47393W        W55993  21.411   3.502  13.006 -0.0795 -0.0300  0.3845
47394W        W55994  13.309   6.289  15.620 -0.0692  0.0924 -0.0468
47395W        W55995  11.267   3.235  13.021  0.0001  0.0218  0.1842
47396W        W55996  19.373   5.344   4.551 -0.0777  0.1913 -0.0382
47397W        W55997   1.578   6.030  21.646  0.2541  0.1349  0.2082
47398W        W55998   8.927   5.148  33.451  0.1195 -0.2502  0.3209
47399W        W55999  14.950   5.774  11.549  0.1454  0.0761  0.1765
47400W        W56000   9.895   4.215   6.000 -0.2292  0.1888 -0.0897
47401W        W56001  11.743   0.949   4.463  0.1723  0.2325  0.0276
47402W        W56002   4.796   6.216  29.670  0.0501 -0.0055  0.0347
47403W        W56003  12.015   2.134  25.795 -0.2505  0.2124  0.4003
47404W        W56004  13.524   1.049   2.472 -0.0691 -0.0527  0.0644
47405W        W56005  19.431   6.186  20.761 -0.1192 -0.0885 -0.0791
47406W        W56006  11.492   5.357   7.768 -0.0863  0.1989 -0.1668
47407W        W56007   9.407   5.601  12.664  0.0883 -0.0919 -0.0119
47408W        W56008  13.610   5.597   5.371  0.2575 -0.1810 -0.0837
47409W        W56009  15.233   3.603  13.149 -0.1400  0.2259  0.0836
47410W        W56010  22.563   1.629  26.619  0.1619 -0.0566  0.1796
47411W        W56011  17.071   4.719  11.519  0.0186 -0.1050 -0.0522
47412W        W56012  17.215   0.422  12.876  0.2415 -0.1098 -0.0866
47413W        W56013   1.449   3.634  34.805  0.1561 -0.1280 -0.0793
47414W        W56014  21.679   2.725  32.336 -0.1258 -0.1332 -0.0826
47415W        W56015   2.150   1.495  27.729 -0.3929  0.1263  0.0487
47416W        W56016  17.637   1.290  25.421 -0.1733  0.0349 -0.0068
47417W        W56017   0.412   2.158  26.733  0.0448 -0.1241 -0.2521
47418W        W56018  12.844   0.297   4.730 -0.2512 -0.1280 -0.0224
47419W        W56019   0.031   3.000  10.751 -0.1346 -0.0903 -0.0224
47420W        W56020  10.666   3.292   3.127 -0.0151 -0.1740 -0.2742
47421W        W56021  13.137   1.965   2.844  0.1011  0.0842 -0.2222
47422W        W56022  10.826   1.333  34.852 -0.0678 -0.0418  0.0435
47423W        W56023   2.740   1.395  29.971  0.1429  0.0378  0.0034
47424W        W56024  19.131   3.403  21.808  0.0290  0.2358 -0.2128
47425W        W56025  14.651   3.091   8.448 -0.2961  0.1928  0.2969
47426W        W56026   1.935   4.756  21.305 -0.0512  0.1540  0.0024
47427W        W56027   3.735   4.041  35.090  0.2780 -0.2678 -0.3066
47428W        W56028  23.533   3.664  26.169  0.4533  0.1931  0.0880
47429W        W56029  17.763   4.796  28.853  0.0760  0.0254  0.2433
47430W        W56030   8.097   1.936   7.177 -0.1923  0.1353 -0.1521
47431W        W56031  21.243   1.616   2.613 -0.2722  0.0111  0.0883
47432W        W56032  15.897   2.149  34.947 -0.0776  0.0775  0.4108
47433W        W56033   1.379   0.223   7.581  0.0246 -0.1325  0.2840
47434W        W56034  26.354   4.399  24.573 -0.0507  0.2269  0.3249
47435W        W56035  10.498   3.466  22.322  0.3743  0.0321 -0.0601
47436W        W56036   2.848   1.972  24.667  0.2224  0.0548  0.0051
47437W        W56037  22.679   3.517   3.976 -0.1054  0.1361  0.2874
47438W        W56038  17.088   2.379  33.993 -0.0779  0.0829  0.1824
47439W        W56039  10.630   2.122  10.488 -0.2651 -0.3487  0.1893
47440W        W56040  10.497   0.046  35.090  0.1160  0.0374  0.0247
47441W        W56041  12.840   2.685  27.904  0.0925 -0.1273  0.2423
47442W        W56042  13.555   0.070  30.715  0.1073  0.2677 -0.2824
47443W        W56043  12.149   0.536  21.737 -0.1549  0.3528  0.2449
47444W        W56044  26.140   3.141   6.750  0.0357  0.0485 -0.4262
47445W        W56045   1.569   1.497  25.827 -0.1467 -0.1554 -0.0494
47446W        W56046   5.957   5.295   7.708 -0.0610 -0.1366  0.0531
47447W        W56047   3.619   3.727   0.496 -0.2400  0.1213  0.1718
47448W        W56048  20.668   5.950  32.398  0.0732 -0.2411  0.1275
47449W        W56049  19.357   3.913   7.107  0.1820  0.0598 -0.2716
47450W        W56050  23.953   5.954   7.551 -0.2504  0.1711 -0.0192
47451W        W56051  19.257   4.665   0.544 -0.1290  0.0420 -0.5531
47452W        W56052   8.208   1.167  14.462 -0.0336 -0.1626  0.2352
47453W        W56053  19.709   5.747   3.138  0.0142 -0.0365  0.0919
47454W        W56054  23.662   5.888  23.392  0.2131 -0.0496 -0.2989
47455W        W56055   0.851   0.862   9.875 -0.0392 -0.3797 -0.2893
47456W        W56056   0.422   2.169   2.432  0.1796 -0.0664  0.1584
47457W        W56057  26.188   6.550   8.528  0.1712 -0.3473  0.0163
47458W        W56058   1.446   2.729  35.396 -0.0916 -0.2572 -0.0962
47459W        W56059  16.636   5.310  29.585 -0.0800 -0.1830 -0.5338
47460W        W56060   0.587   3.677  30.427  0.0420  0.3288 -0.0990
47461W        W56061   8.749   0.851  30.995  0.0050 -0.1131  0.0119
47462W        W56062   6.309   0.503  33.491 -0.0518 -0.0796 -0.3193
47463W        W56063  16.828   5.034  24.709 -0.0083 -0.0515  0.0570
47464W        W56064   2.923   5.064  30.108 -0.1322  0.1365  0.1688
47465W        W56065   8.708   6.331  10.815 -0.2871  0.0023  0.0327
47466W        W56066   5.688   1.181  26.852  0.0971 -0.0689 -0.2202
47467W        W56067  15.686   3.553  28.279  0.1415 -0.0129 -0.0072
47468W        W56068   0.061   4.675  30.725 -0.2945 -0.0605 -0.2734
47469W        W56069   3.541   2.870  21.197 -0.1848 -0.1511 -0.0410
47470W        W56070  12.935   5.364  14.616  0.1327  0.0498  0.0669
47471W        W56071  22.740   4.262  23.035  0.0335 -0.4199 -0.0278
47472W        W56072   0.723   4.886  14.398 -0.0850 -0.4237 -0.2195
47473W        W56073   5.474   1.461   4.606  0.2463 -0.3899 -0.0070
47474W        W56074  23.287   4.686  13.118  0.2141 -0.0604  0.0601
47475W        W56075  23.671   5.068  12.638 -0.3652  0.1914  0.1461
47476W        W56076  10.758   2.084   9.445 -0.0023 -0.0925  0.0464
47477W        W56077  14.324   1.500  36.127  0.3297  0.0441 -0.3320
47478W        W56078   1.139   6.585   0.748 -0.2347  0.0786 -0.0332
47479W        W56079  23.722   1.975  26.347  0.0960 -0.1513 -0.0372
47480W        W56080  14.169   6.456  10.490 -0.0765 -0.0608  0.0005
47481W        W56081  19.549   2.361  30.513  0.0804 -0.0706  0.1162
47482W        W56082  15.191   3.933  23.580 -0.1248 -0.1592 -0.0233
47483W        W56083   3.681   1.581  33.395  0.1308  0.0324  0.2676
47484W        W56084   4.164   4.369  33.941  0.0931 -0.0860  0.1880
47485W        W56085   9.607   4.600  33.908  0.0843  0.0355  0.1827
47486W        W56086  24.352   0.762  30.936  0.1801  0.1454  0.2200
47487W        W56087   1.528   6.295   2.132 -0.0734 -0.0017  0.0246
47488W        W56088  16.178   4.799   4.877 -0.0068  0.0627  0.1183
47489W        W56089   5.808   4.542  24.754  0.0933  0.0158 -0.1277
47490W        W56090   9.229   6.105  34.280 -0.0092 -0.1158 -0.0884
47491W        W56091  15.629   3.261  22.962  0.0071  0.1141  0.2640
47492W        W56092  24.260   2.670  10.973 -0.3037 -0.0484 -0.0068
47493W        W56093   0.310   1.947   4.776  0.1568  0.2257  0.1106
47494W        W56094  11.855   6.031  28.101 -0.1113  0.4097  0.0034
47495W        W56095   2.653   2.205   5.758  0.2143  0.1031 -0.1303
47496W        W56096  12.860   5.734  10.409  0.2129  0.4088  0.1806
47497W        W56097  17.865   1.249  28.233  0.2534  0.0350  0.0486
47498W        W56098  11.951   2.964  11.904  0.0441 -0.0284  0.2376
47499W        W56099   1.388   0.829  21.635 -0.0967  0.0602  0.0211
47500W        W56100  21.486   3.281   9.296 -0.2122 -0.3402  0.1893
47501W        W56101   2.270   2.196  21.171  0.2417 -0.2002 -0.4336
47502W        W56102  22.958   3.059  22.387 -0.2541  0.1238  0.2953
47503W        W56103  12.008   0.590  36.005 -0.2110 -0.0002  0.0513
47504W        W56104   8.146   6.409  29.173  0.0619 -0.0782  0.1318
47505W        W56105  10.727   5.370  33.903  0.0730  0.0312 -0.1183
47506W        W56106  20.298   2.386   3.879 -0.0185  0.1435 -0.0864
47507W        W56107  21.136   5.330  15.354  0.0656  0.0398 -0.1568
47508W        W56108  13.167   2.058  11.937 -0.2647  0.3382 -0.0170
47509W        W56109   9.631   0.636  26.221  0.0235 -0.1252 -0.0103
47510W        W56110  19.056   5.230   8.855 -0.0007  0.0741 -0.0743
47511W        W56111  21.529   6.298  26.537  0.1345  0.0863  0.1540
47512W        W56112   3.928   5.178   6.518 -0.0930 -0.0612  0.2855
47513W        W56113   1.798   0.841  20.551  0.1514  0.2017  0.1790
47514W        W56114  24.790   5.005  12.635  0.0390  0.0159 -0.0641
47515W        W56115   6.974   3.351  12.383 -0.0836  0.1293 -0.1590
47516W        W56116  26.383   3.958   9.014 -0.0121 -0.2514 -0.3469
47517W        W56117  18.475   5.075   4.868  0.2202 -0.0000 -0.0907
47518W        W56118   1.404   2.440  25.329 -0.1660 -0.3372  0.3087
47519W        W56119   1.739   0.671  10.746 -0.2176  0.0396 -0.0603
47520W        W56120  23.776   0.939  22.677 -0.1694 -0.1110 -0.1242
47521W        W56121  21.675   5.808  14.747 -0.0969 -0.0500  0.3374
47522W        W56122   7.648   6.247  27.728 -0.0640  0.1100  0.0935
47523W        W56123   7.106   2.614  10.066  0.2263  0.0083  0.1450
47524W        W56124  12.224   1.850  34.435 -0.0792 -0.0246 -0.3921
47525W        W56125   4.048   6.408  26.785  0.1498 -0.0633  0.0685
47526W        W56126  17.082   0.707  21.319  0.1407 -0.1680  0.2161
47527W        W56127   4.060   3.714  11.089  0.0277  0.0346  0.3623
47528W        W56128  10.339   2.485   4.741 -0.0211  0.1406 -0.2840
47529W        W56129   4.542   5.351  33.124  0.2282 -0.0342 -0.1116
47530W        W56130  12.212   5.586  21.484  0.0474 -0.0030 -0.2298
47531W        W56131  17.846   0.070   8.532  0.1998  0.0321  0.0421
47532W        W56132  11.684   6.572  12.387 -0.1642  0.0914 -0.3800
47533W        W56133   8.941   0.763  26.508  0.1776  0.1929  0.0356
47534W        W56134  13.604   3.268  23.541 -0.2826 -0.6356 -0.0349
47535W        W56135   1.446   5.455  31.451  0.0884  0.0070 -0.2127
47536W        W56136   6.680   1.663   7.387 -0.2325  0.2926 -0.0482
47537W        W56137  16.498   5.716  35.748 -0.0597 -0.0292 -0.0072
47538W        W56138   0.593   3.777  10.245  0.2859  0.0561 -0.1892
47539W        W56139  24.162   2.886  24.103 -0.0741 -0.0470  0.1115
47540W        W56140  17.472   5.023   7.982  0.2319  0.2083 -0.0229
47541W        W56141  11.855   5.791  24.205 -0.1102 -0.1654  0.4810
47542W        W56142  23.493   2.278  24.035  0.1244  0.0657  0.4196
47543W        W56143  24.739   1.682  14.836 -0.0602  0.2199  0.0012
47544W        W56144   0.027   2.720  35.551  0.5110  0.1138  0.0753
47545W        W56145  17.947   6.567  20.901 -0.2592 -0.2926 -0.2848
47546W        W56146   0.413   3.922   8.701 -0.3424 -0.2426  0.1536
47547W        W56147   8.982   1.068   3.060 -0.0830  0.0426  0.0263
47548W        W56148  10.376   2.823  28.628  0.1647  0.1275  0.0837
47549W        W56149  10.516   4.885   6.369  0.2591  0.1972 -0.2052
47550W        W56150   1.797   1.494   9.723  0.1926 -0.2850  0.0879
47551W        W56151  10.844   4.364  36.153  0.0383 -0.0319  0.0029
47552W        W56152  16.297   3.480  20.287  0.0380 -0.0767  0.2495
47553W        W56153  24.059   1.036  28.194  0.1771  0.0946 -0.0174
47554W        W56154  24.617   0.926  14.246 -0.1761  0.3785 -0.2194
47555W        W56155   0.553   4.386  25.221 -0.0682 -0.0104  0.0248
47556W        W56156  10.433   5.925  31.741 -0.4938 -0.3760  0.1033
47557W        W56157  21.194   3.952  27.915  0.0845  0.1790  0.0682
47558W        W56158  18.830   1.250  31.962 -0.0090  0.0644 -0.1505
47559W        W56159   3.587   6.524  20.660 -0.3309 -0.1645  0.1640
47560W        W56160  25.603   1.496  27.129  0.1220  0.3867  0.0339
47561W        W56161   5.048   3.195   1.352 -0.1766 -0.0797  0.1945
47562W        W56162   7.970   6.206  33.694 -0.2620  0.1046  0.0060
47563W        W56163  25.635   0.253  23.972 -0.2548 -0.0320  0.5669
47564W        W56164  22.865   1.008  29.063  0.0381  0.0118 -0.0439
47565W        W56165  23.090   4.899   6.183  0.2551  0.1227  0.2206
47566W        W56166   4.234   4.659   4.524 -0.0172  0.2288 -0.5797
47567W        W56167  25.652   6.260   1.470 -0.0395  0.0547 -0.2812
47568W        W56168   2.437   3.495   7.430 -0.1570 -0.0155  0.1383
47569W        W56169  17.258   5.723  23.187  0.1216  0.2947 -0.1506
47570W        W56170  21.161   0.057  27.387 -0.0810  0.0558  0.1086
47571W        W56171   2.931   4.689  14.515 -0.2861 -0.1644  0.2156
47572W        W56172   0.595   2.415   4.722 -0.0727 -0.0177 -0.2513
47573W        W56173  13.357   4.021   9.890 -0.0317  0.2862  0.0077
47574W        W56174  22.719   0.110   4.907  0.0720 -0.0828  0.0861
47575W        W56175   8.736   6.604  13.193  0.0729 -0.1297 -0.0922
47576W        W56176   5.619   1.155  35.878  0.2122 -0.3485 -0.1456
47577W        W56177   2.367   5.163   2.217 -0.0689  0.0065  0.1340
47578W        W56178   0.080   2.423   2.097 -0.0427  0.1036  0.0089
47579W        W56179  15.301   5.998  33.050  0.2374  0.1492 -0.3312
47580W        W56180   6.000   1.662  30.879 -0.0861 -0.1573 -0.2885
47581W        W56181  12.217   5.000  22.122 -0.0497 -0.1499  0.2126
47582W        W56182   2.182   6.561   1.534  0.0449 -0.0876 -0.0660
47583W        W56183  15.050   0.576   9.612  0.0220  0.2989  0.2154
47584W        W56184   1.381   2.466   4.008 -0.0254  0.1659 -0.0687
47585W        W56185  15.068   1.167   9.538 -0.0594  0.1161  0.0327
47586W        W56186  25.147   6.116   6.653 -0.0726  0.4572 -0.0921
47587W        W56187  15.195   5.022  33.340 -0.0445 -0.1839  0.0037
47588W        W56188  21.619   4.664  32.386  0.2237 -0.2061  0.1847
47589W        W56189  24.512   1.054  21.598 -0.1174  0.1760  0.3364
47590W        W56190   0.690   2.356  31.034 -0.1403 -0.3439  0.1055
47591W        W56191  17.228   1.023   5.791 -0.0512 -0.1994 -0.0076
47592W        W56192  21.109   2.976  27.346  0.1670  0.0218  0.0673
47593W        W56193  15.917   5.364  35.512  0.0369  0.0328 -0.2896
47594W        W56194  19.220   3.257  25.697 -0.1183 -0.0925  0.1200
47595W        W56195  20.790   5.689   9.108  0.0114 -0.0251  0.2713
47596W        W56196   4.202   3.366  14.059  0.2733  0.1340 -0.1086
47597W        W56197  26.120   4.941   6.479 -0.0355 -0.1180 -0.1022
47598W        W56198   5.390   0.045   3.600  0.0968  0.1734  0.1374
47599W        W56199   0.337   2.837   5.165 -0.0863  0.1783  0.0535
47600W        W56200  10.184   5.191   5.956 -0.0546  0.1654  0.0553
47601W        W56201  19.281   2.280  20.757  0.0488  0.1222 -0.0807
47602W        W56202  21.313   2.525  26.632  0.0255 -0.2167 -0.0398
47603W        W56203  15.898   3.272   7.389 -0.0181 -0.1063  0.0674
47604W        W56204   3.359   1.127  23.989 -0.0770 -0.2343 -0.1475
47605W        W56205  18.304   4.083   2.159  0.3727 -0.3039  0.0491
47606W        W56206   5.514   5.924  29.578  0.1944  0.0356  0.1180
47607W        W56207  24.711   4.195   8.551 -0.1553 -0.0112  0.3301
47608W        W56208  20.745   1.066  29.376  0.1004 -0.4701 -0.3895
47609W        W56209  12.873   5.592   6.911 -0.1464 -0.0051  0.2368
47610W        W56210   6.353   0.814  22.914  0.1243  0.1939  0.1300
47611W        W56211  15.076   3.145  35.927  0.2445 -0.0537  0.2695
47612W        W56212  13.152   3.184  29.647  0.0251  0.3058 -0.1420
47613W        W56213  19.486   1.788   6.097 -0.1138  0.2319 -0.2531
47614W        W56214  14.259   3.718  14.191  0.0065 -0.2429 -0.0161
47615W        W56215  22.970   5.853   8.390 -0.0776  0.0580  0.1833
47616W        W56216  17.385   4.803   3.880 -0.1383  0.0241  0.0682
47617W        W56217   7.130   6.192  13.177 -0.1236 -0.0589 -0.1004
47618W        W56218   2.975   5.926   2.875  0.1473  0.3136 -0.0521
47619W        W56219  22.428   0.699  22.532 -0.2771 -0.3165 -0.0415
47620W        W56220   6.268   3.355  30.865 -0.4698  0.0285  0.2148
47621W        W56221  25.012   1.767  27.936 -0.1022  0.1291 -0.0933
47622W        W56222   3.374   0.287   5.403 -0.0856  0.1508 -0.0510
47623W        W56223  13.012   3.298  13.440 -0.1286  0.0123  0.0401
47624W        W56224  17.297   3.935   0.196 -0.1517 -0.1769 -0.1735
47625W        W56225   9.521   3.992   7.370  0.0925  0.1175 -0.0208
47626W        W56226   7.071   5.362  11.854 -0.0147  0.0595 -0.0507
47627W        W56227  15.275   2.550   3.408  0.3621 -0.1827  0.0604
47628W        W56228  21.517   6.461  28.768 -0.1208 -0.0879  0.2046
47629W        W56229  11.039   6.508   0.682 -0.1438 -0.0784  0.0022
47630W        W56230   7.104   6.574  33.723  0.0269  0.4011 -0.3442
47631W        W56231  25.758   3.521  35.021 -0.2430 -0.0233  0.2793
47632W        W56232   8.619   0.885   4.960 -0.1010  0.0442 -0.1849
47633W        W56233   7.644   1.885   7.946 -0.0891 -0.0426 -0.3421
47634W        W56234  11.658   4.337  23.891 -0.4194 -0.2439  0.0410
47635W        W56235  12.562   3.607  26.298  0.1552  0.0130 -0.0376
47636W        W56236  12.247   4.297   9.170 -0.0255  0.1931 -0.0419
47637W        W56237  13.793   1.893   2.325 -0.1347  0.1615  0.1292
47638W        W56238  19.914   1.367   2.800  0.0160  0.0939 -0.2288
47639W        W56239  16.287   3.602  35.509  0.1324 -0.0253  0.3065
47640W        W56240  19.494   5.135   7.195  0.0521  0.0600  0.0417
47641W        W56241  22.602   5.257  35.253  0.0001 -0.2908 -0.1308
47642W        W56242  24.046   1.468  24.326 -0.0890  0.2590 -0.1703
47643W        W56243  12.687   2.011  22.140 -0.2839 -0.1315 -0.0539
47644W        W56244  14.555   2.078  21.462  0.1009  0.2169 -0.1698
47645W        W56245   5.425   3.067   5.656  0.0170  0.3115  0.1250
47646W        W56246  18.878   3.320   2.582 -0.0613  0.1184 -0.1460
47647W        W56247   5.242   5.500  28.024 -0.1000  0.3108  0.1010
47648W        W56248  23.951   5.296  21.902  0.0174  0.1312 -0.0468
47649W        W56249  18.346   6.588  28.800  0.0942 -0.2036  0.0380
47650W        W56250   8.252   4.069  29.730 -0.1577 -0.4218 -0.0374
47651W        W56251  11.072   1.993   5.512 -0.3205 -0.3046 -0.0253
47652W        W56252  13.824   1.252   0.600 -0.4745 -0.1545 -0.0209
47653W        W56253   5.310   0.864  10.241  0.3199 -0.3393 -0.2611
47654W        W56254  14.105   0.566   4.023  0.2331  0.5452 -0.2988
47655W        W56255   4.032   2.387   3.320 -0.2331  0.1898 -0.0168
47656W        W56256  18.697   2.387  23.886 -0.1121 -0.1676 -0.0507
47657W        W56257  11.708   2.865   3.854 -0.2407  0.0913 -0.1076
47658W        W56258  18.173   1.838   8.450 -0.0382 -0.2537  0.0429
47659W        W56259  14.774   3.282  13.175 -0.2405 -0.0032  0.0687
47660W        W56260   0.002   2.210  31.374  0.0954 -0.2961 -0.0727
47661W        W56261  11.662   5.333   4.482  0.1448 -0.0679  0.0691
47662W        W56262   0.798   5.641  25.520  0.0706 -0.1876 -0.1811
47663W        W56263  18.741   4.181  27.642  0.1529 -0.0362 -0.4207
47664W        W56264  16.942   5.026   9.521  0.4353  0.1416  0.1165
47665W        W56265   1.906   3.682  29.043  0.2031 -0.1145 -0.1985
47666W        W56266   9.950   0.177  22.073 -0.2249  0.0633  0.0718
47667W        W56267  17.975   0.777   1.988  0.0744  0.0397 -0.1726
47668W        W56268   5.311   3.031  32.762 -0.0452 -0.0625 -0.0266
47669W        W56269   2.112   4.129  26.870  0.1294  0.0002 -0.1990
47670W        W56270  15.455   0.814  12.681  0.0506 -0.3330 -0.1890
47671W        W56271   7.470   6.574  13.005  0.3079  0.2794 -0.2126
47672W        W56272   4.859   1.170  22.258  0.2264  0.0079 -0.0075
47673W        W56273   9.683   4.142   3.232 -0.0392 -0.3339  0.4878
47674W        W56274  11.389   2.860  20.664 -0.1174 -0.0486 -0.0324
47675W        W56275  15.882   3.859  23.876 -0.4056  0.1115 -0.1638
47676W        W56276   9.944   0.730   6.045 -0.0777  0.1124 -0.1113
47677W        W56277   6.749   6.108  28.302 -0.1057 -0.1348 -0.1623
47678W        W56278   3.580   3.851  22.437 -0.0877 -0.3607  0.0634
47679W        W56279  11.529   0.452   4.436 -0.2388 -0.0389 -0.1100
47680W        W56280  16.225   1.402  31.056  0.1811  0.1887  0.2121
47681W        W56281  12.918   3.975   3.438 -0.3481 -0.2088 -0.5360
47682W        W56282  14.740   0.192  13.952  0.1888  0.0579 -0.0635
47683W        W56283  23.294   1.803   2.494  0.0578 -0.0557 -0.0408
47684W        W56284  19.015   2.182  27.725  0.1462  0.2156 -0.0342
47685W        W56285  11.326   0.897  11.713 -0.1141  0.0976 -0.1159
47686W        W56286  23.057   2.173   4.550  0.1847  0.0670 -0.2179
47687W        W56287  22.250   1.905  14.879  0.0412 -0.3283  0.3194
47688W        W56288  24.747   2.804  11.179  0.0434  0.0012 -0.0923
47689W        W56289  12.697   5.683  11.909  0.1434  0.1595  0.1029
47690W        W56290   4.130   4.559   3.531 -0.0021  0.0937 -0.0105
47691W        W56291   1.265   5.071  33.275  0.0107  0.0985 -0.0430
47692W        W56292  18.929   4.213  30.702 -0.2993  0.1138 -0.2836
47693W        W56293   9.731   3.874  35.516 -0.1413  0.1156  0.3016
47694W        W56294  20.591   0.292  28.657 -0.0332 -0.2258 -0.2583
47695W        W56295  25.162   4.813  27.554 -0.0720  0.0223  0.0501
47696W        W56296  16.359   4.677  13.677 -0.0868  0.0897 -0.0411
47697W        W56297  20.055   1.959   8.723 -0.1759 -0.3925 -0.1123
47698W        W56298   6.392   1.389   1.355  0.1059 -0.0721  0.0127
47699W        W56299   2.124   3.151   7.609 -0.2665  0.0750 -0.0303
47700W        W56300  10.684   6.537  22.731 -0.0423  0.1510  0.1254
47701W        W56301  22.966   1.912  15.384  0.2257 -0.0504  0.0640
47702W        W56302  24.565   2.319  11.294 -0.1802  0.1178  0.0632
47703W        W56303  22.146   6.354   9.849 -0.1312 -0.2603  0.1618
47704W        W56304  14.754   1.723   0.460  0.0257 -0.0346  0.0838
47705W        W56305  21.487   2.933  35.189  0.0795 -0.0955 -0.0293
47706W        W56306  23.413   1.732   0.602  0.1887 -0.0554  0.0872
47707W        W56307  16.534   0.705  21.513  0.2970  0.1321  0.1755
47708W        W56308  25.773   1.465  33.132  0.1882  0.0559 -0.0074
47709W        W56309  22.237   5.854  23.705  0.3409 -0.0148 -0.2670
47710W        W56310  10.961   4.207   9.078 -0.1775 -0.1764 -0.1549
47711W        W56311  11.173   2.417  10.172  0.0764 -0.0042  0.0037
47712W        W56312  14.644   4.609  14.596  0.1826  0.3388 -0.3451
47713W        W56313   4.082   5.732  35.293 -0.0406  0.1100 -0.2993
47714W        W56314  19.978   4.747   2.041  0.1673 -0.2652  0.1393
47715W        W56315   0.426   4.688   6.122 -0.0873  0.1937 -0.0371
47716W        W56316  23.095   2.387  21.651  0.2068  0.0163  0.1681
47717W        W56317   2.409   0.971  11.552  0.0697  0.3055  0.4395
47718W        W56318  15.604   4.763   7.367  0.3381 -0.2054  0.1699
47719W        W56319   4.857   2.498  31.428 -0.3298  0.1229  0.3889
47720W        W56320   1.021   3.773  22.473  0.0193  0.0888 -0.0571
47721W        W56321  16.283   5.812  11.423 -0.2107 -0.0881  0.1548
47722W        W56322  19.837   4.857   9.912 -0.2200 -0.0525  0.0500
47723W        W56323   7.935   1.782  21.431 -0.2231  0.0418  0.2439
47724W        W56324  23.686   4.339  24.156  0.1589  0.0542  0.1327
47725W        W56325  20.208   1.349   7.944  0.2682 -0.1276  0.1340
47726W        W56326  17.302   0.107  35.055 -0.2143  0.0054 -0.4286
47727W        W56327  20.386   4.324  13.564 -0.1092  0.1944 -0.0654
47728W        W56328  11.608   5.906  27.634 -0.0695  0.0737  0.0158
47729W        W56329   2.572   6.315   8.875  0.1883 -0.3042  0.2089
47730W        W56330  10.616   1.254  32.685  0.3299 -0.0521  0.1842
47731W        W56331  15.628   0.660   1.966  0.0450  0.3083 -0.1763
47732W        W56332  12.618   0.428  15.489  0.0988  0.2391  0.1954
47733W        W56333  18.811   5.465  30.211  0.1304  0.0979  0.1137
47734W        W56334  14.928   4.151  34.528 -0.0270  0.1025 -0.0992
47735W        W56335  15.975   2.333   5.624  0.0316 -0.0969 -0.3189
47736W        W56336   8.051   2.941  24.365  0.0548  0.1725 -0.2844
47737W        W56337  11.820   5.278  24.103 -0.1851  0.0760  0.0985
47738W        W56338   7.931   4.642  35.846  0.1198 -0.0268 -0.0835
47739W        W56339  25.055   4.131  23.744  0.0728  0.1410  0.0829
47740W        W56340  24.804   2.743  13.672  0.0810  0.1436 -0.1871
47741W        W56341  18.278   0.727  26.146 -0.0040 -0.0862  0.3410
47742W        W56342   1.855   5.031   1.282 -0.0163 -0.0936 -0.1973
47743W        W56343  22.893   3.355  31.254 -0.0716 -0.0642  0.1491
47744W        W56344  24.783   5.054   9.153 -0.4236  0.0802  0.0803
47745W        W56345  23.589   1.593  11.528  0.2158 -0.0896  0.1786
47746W        W56346   4.925   0.877  10.535  0.0199  0.0361  0.0874
47747W        W56347  15.369   2.476  14.511  0.0087 -0.0208 -0.0704
47748W        W56348   0.534   1.188  14.681  0.0491  0.1884  0.0396
47749W        W56349  11.428   5.322  29.298  0.1242  0.0524 -0.1018
47750W        W56350   9.857   5.767  33.787 -0.1808 -0.0213  0.1549
47751W        W56351  13.636   5.212   3.348  0.3087 -0.3111  0.2145
47752W        W56352   7.060   0.675  10.384 -0.0771 -0.3311 -0.1645
47753W        W56353  23.123   5.136  11.648 -0.0288 -0.0493 -0.2575
47754W        W56354   9.343   4.194  31.877 -0.0703  0.0270  0.0335
47755W        W56355  11.466   5.626  13.478 -0.1412 -0.0903  0.1029
47756W        W56356  14.532   2.779   4.951  0.3545 -0.0497 -0.1931
47757W        W56357  13.948   5.180  36.108  0.0554  0.3164 -0.0930
47758W        W56358   1.456   4.822  11.018 -0.1147 -0.0389  0.3127
47759W        W56359  13.288   1.534  10.730  0.0493  0.1450  0.2186
47760W        W56360  24.785   1.642  31.895  0.0032 -0.1328 -0.2542
47761W        W56361   4.017   5.289  27.716  0.1782  0.0006 -0.1326
47762W        W56362  20.700   0.768   6.815  0.0747 -0.1716  0.1489
47763W        W56363  20.583   4.383  35.049 -0.3154 -0.0834  0.3596
47764W        W56364   2.144   1.360   0.996 -0.1723 -0.3636 -0.2307
47765W        W56365  12.209   4.942  34.162 -0.3411 -0.0448  0.0211
47766W        W56366  14.149   1.869  30.549 -0.2692 -0.0705 -0.0169
47767W        W56367  10.071   0.503  13.124 -0.0253 -0.0084  0.0775
47768W        W56368  24.416   6.079  15.047  0.0655  0.1871 -0.1507
47769W        W56369   9.531   4.337   1.659 -0.0271 -0.1001  0.1915
47770W        W56370  10.655   1.980   3.151  0.1046 -0.4200 -0.1101
47771W        W56371  10.455   3.025  12.887  0.3726 -0.1086  0.0518
47772W        W56372  11.714   1.840  25.513  0.2604  0.1730 -0.2433
47773W        W56373  15.828   2.844   3.329 -0.1774 -0.1461  0.1006
47774W        W56374  13.406   1.719  12.286 -0.2514 -0.1840 -0.2860
47775W        W56375  10.241   2.374  29.680 -0.1864  0.1301 -0.0227
47776W        W56376  22.056   1.891  30.011 -0.2623 -0.1487  0.3251
47777W        W56377  19.070   3.464  12.721 -0.0948  0.2010 -0.0505
47778W        W56378  19.635   5.176   8.619 -0.0346  0.1030  0.0028
47779W        W56379  10.780   6.193   3.109 -0.1426 -0.1249  0.5610
47780W        W56380   6.534   3.200   5.999 -0.2931  0.1851  0.0028
47781W        W56381  14.485   5.525   6.396  0.2920 -0.1579 -0.0813
47782W        W56382  10.460   0.726   1.133 -0.3955  0.1654  0.0186
47783W        W56383  14.191   3.123   4.813 -0.2690 -0.0873 -0.0711
47784W        W56384  12.426   4.824  10.856 -0.1155 -0.1074 -0.1424
47785W        W56385   3.131   1.807  26.894  0.0031  0.1293 -0.0438
47786W        W56386  11.868   0.796  29.130 -0.0790 -0.0438 -0.0846
47787W        W56387  21.538   1.803  24.418  0.2368  0.0869  0.3624
47788W        W56388  24.559   4.432  25.682 -0.1962  0.1962 -0.2394
47789W        W56389   5.161   2.671  27.148  0.0277  0.0563  0.0193
47790W        W56390  17.501   2.770  23.739 -0.1451  0.0991  0.0651
47791W        W56391   5.927   2.361  14.655 -0.1300 -0.0039  0.1326
47792W        W56392  13.288   2.709  29.945  0.0789 -0.1234 -0.0340
47793W        W56393  19.291   3.031  14.668  0.0074 -0.0461  0.1931
47794W        W56394   6.381   0.253  20.955  0.1000  0.1365  0.0154
47795W        W56395  23.761   0.427  13.960  0.3544  0.1631  0.1575
47796W        W56396  12.385   3.728   2.255 -0.1274  0.2770  0.0322
47797W        W56397  13.973   4.725   5.309  0.2920 -0.1840 -0.2928
47798W        W56398  12.338   4.258  23.316 -0.2121  0.0408  0.2400
47799W        W56399  10.487   1.263  10.601  0.1022 -0.1223 -0.1619
47800W        W56400  15.376   4.292  22.043  0.0614  0.0114  0.1492
47801W        W56401   9.814   1.130  35.003 -0.2106  0.0839  0.0117
47802W        W56402   2.445   6.569   9.314  0.1380  0.1406 -0.2509
47803W        W56403  20.795   1.593   2.495  0.2802 -0.0670  0.3597
47804W        W56404  25.108   3.710  12.737  0.1167  0.1254 -0.1810
47805W        W56405  24.425   1.697  19.925  0.1104 -0.1238  0.1510
47806W        W56406  18.706   0.024   1.846  0.1511 -0.0160 -0.0445
47807W        W56407   7.652   0.085  24.298  0.1854 -0.0236  0.3549
47808W        W56408   8.064   6.408  25.696  0.1273 -0.2113  0.2333
47809W        W56409   0.348   3.557   1.401 -0.1830 -0.0848  0.1364
47810W        W56410   4.326   5.451  34.148  0.2257  0.5597  0.1614
47811W        W56411   0.944   5.300   3.533 -0.1870 -0.1953  0.0050
47812W        W56412   3.761   3.653  26.522 -0.1091  0.2895 -0.2636
47813W        W56413   8.767   1.665   0.686  0.1502  0.4516  0.0677
47814W        W56414  22.421   5.279  20.588  0.1426  0.2051 -0.0229
47815W        W56415  20.497   2.034  32.175  0.1074 -0.1645 -0.0959
47816W        W56416   1.846   0.408   1.746 -0.0978  0.2301 -0.3128
47817W        W56417   9.369   4.669  28.268  0.1314  0.1312  0.2272
47818W        W56418   8.827   6.023  36.100  0.0486  0.1180 -0.0122
47819W        W56419  11.489   4.128   4.011  0.1735  0.1320  0.1833
47820W        W56420  15.457   5.458  25.033 -0.0907 -0.1983  0.0283
47821W        W56421  16.927   5.937  34.958 -0.0258  0.3443 -0.3664
47822W        W56422  15.091   3.456  14.491 -0.0908 -0.1414  0.1250
47823W        W56423  24.977   2.888   1.732 -0.1257 -0.1467  0.2422
47824W        W56424   6.503   6.506  11.335 -0.2708 -0.0111  0.1386
47825W        W56425   5.427   4.123  32.159  0.0332 -0.0500  0.1613
47826W        W56426  11.106   5.971  32.836  0.0909  0.3698  0.0356
47827W        W56427  19.143   4.303  11.796  0.1761  0.0095  0.2706
47828W        W56428  14.815   3.529  12.223 -0.1904 -0.1464 -0.3704
47829W        W56429   7.056   4.562   4.122  0.2181 -0.0139 -0.1968
47830W        W56430  26.283   3.835  33.156 -0.0023 -0.0353  0.2901
47831W        W56431  13.629   2.499  12.488  0.1775  0.1562  0.0381
47832W        W56432   1.301   1.217  27.156  0.0594  0.1859  0.2947
47833W        W56433  22.169   3.717   4.220  0.0340  0.0780 -0.0809
47834W        W56434  22.283   1.575  33.353 -0.2217 -0.0524  0.2121
47835W        W56435  18.487   2.291   5.741  0.0033  0.2113 -0.0790
47836W        W56436  17.125   3.584  34.789  0.2251 -0.0019  0.0121
47837W        W56437  11.448   0.172  24.371  0.1683  0.0179  0.2085
47838W        W56438  23.255   5.168   0.799  0.0286 -0.0431  0.1771
47839W        W56439  24.311   3.200  33.961  0.2345  0.0557  0.0504
47840W        W56440  13.089   5.850   9.683 -0.3020  0.1154 -0.1513
47841W        W56441  11.778   2.703  31.163 -0.3185 -0.2095 -0.0656
47842W        W56442   0.372   2.679   2.449 -0.0634 -0.0265  0.0373
47843W        W56443   9.637   5.610  33.181  0.0855  0.0940 -0.0038
47844W        W56444  18.873   5.643  32.175 -0.0944  0.0485 -0.0261
47845W        W56445  25.833   1.821  24.028  0.0576  0.0493  0.1877
47846W        W56446  23.349   0.358  32.614  0.0559 -0.0429  0.0874
47847W        W56447   6.792   6.591  29.641  0.2462  0.0794 -0.1306
47848W        W56448  25.471   3.996   9.029 -0.0524  0.1159  0.1630
47849W        W56449   9.573   2.041   5.891  0.1664 -0.1974  0.1726
47850W        W56450   6.650   6.439   7.821  0.2973 -0.2634 -0.0464
47851W        W56451   7.129   4.223  12.011  0.0772  0.1379  0.1787
47852W        W56452  12.918   5.889   4.454  0.0486 -0.1103 -0.0838
47853W        W56453   1.519   5.409   7.883  0.0242 -0.0266  0.2992
47854W        W56454   0.880   4.769   6.315 -0.0724  0.0737 -0.1690
47855W        W56455  20.146   5.744  11.487 -0.0750  0.0082  0.1362
47856W        W56456   9.763   1.830  27.137  0.1209  0.1626  0.2391
47857W        W56457  21.250   0.452  34.340 -0.2255  0.1693  0.0537
47858W        W56458   1.924   1.492   2.305 -0.0696  0.1387  0.0416
47859W        W56459   9.512   3.374  20.955  0.1159 -0.0191 -0.2829
47860W        W56460  11.830   2.861  32.000 -0.2643 -0.1012  0.0310
47861W        W56461  18.970   4.518  22.291  0.1518  0.2332  0.2727
47862W        W56462  15.294   4.226  13.882  0.1743  0.1135  0.1479
47863W        W56463  24.587   2.080  32.816  0.0467 -0.3136 -0.0488
47864W        W56464   4.680   3.489   3.570 -0.0417 -0.1498 -0.1898
47865W        W56465  11.305   5.332  11.377 -0.2596  0.0605  0.1888
47866W        W56466  13.413   1.616   0.569 -0.0505 -0.0242  0.1994
47867W        W56467  25.494   5.154   9.741  0.0856  0.2042 -0.1711
47868W        W56468  24.964   1.611   7.428  0.1026 -0.2349  0.1578
47869W        W56469   1.629   3.185  23.051  0.3455  0.0560 -0.0915
47870W        W56470   8.415   0.326  11.624  0.0310  0.0497 -0.2095
47871W        W56471   7.286   1.704  35.592 -0.2123  0.0895 -0.0039
47872W        W56472  19.322   3.713   7.921  0.1448 -0.2288 -0.2503
47873W        W56473   4.545   3.261  13.678 -0.0214  0.1716 -0.0053
47874W        W56474  24.834   4.662   3.612 -0.2885  0.1894  0.2208
47875W        W56475   2.911   4.735  28.275  0.1919 -0.0057 -0.0647
47876W        W56476  17.366   4.228  33.735 -0.1694  0.1735  0.1065
47877W        W56477  14.587   5.051  35.515  0.0318 -0.2172  0.2037
47878W        W56478  15.342   6.465   1.592  0.0602 -0.3242 -0.0185
47879W        W56479  11.323   6.466   6.780 -0.2046  0.0187  0.0156
47880W        W56480   8.813   0.740   0.144  0.2608 -0.2490 -0.0146
47881W        W56481   9.184   2.035   4.480 -0.0804  0.1594 -0.0462
47882W        W56482  21.696   6.492   5.974  0.3356 -0.1658 -0.1031
47883W        W56483  21.256   1.633  21.271  0.0825 -0.2363 -0.4109
47884W        W56484  25.337   4.655  21.504  0.2578  0.3602 -0.2775
47885W        W56485   6.583   3.441  34.336  0.1444  0.0554  0.3127
47886W        W56486   8.936   1.123   4.537 -0.0805  0.1263 -0.0175
47887W        W56487   2.027   5.319   3.708 -0.0725 -0.1091 -0.0512
47888W        W56488  16.998   5.269  11.443 -0.1130 -0.3042  0.1596
47889W        W56489  18.649   4.789   6.893  0.1011  0.0398 -0.1287
47890W        W56490  16.380   3.713  24.046  0.1554 -0.1603  0.2928
47891W        W56491   8.284   2.557  23.870  0.0481 -0.1037 -0.0753
47892W        W56492  20.022   2.848   9.958 -0.3517  0.1280 -0.0818
47893W        W56493  19.728   1.001  10.497  0.2850 -0.0098 -0.2032
47894W        W56494   1.697   3.583  31.234  0.1494 -0.1329 -0.0608
47895W        W56495   5.445   2.407   8.439  0.2370  0.2772 -0.1751
47896W        W56496  11.022   5.028  12.023  0.0118  0.0697 -0.0022
47897W        W56497   1.544   0.880  23.746 -0.0565 -0.0325  0.0740
47898W        W56498   3.303   0.858   8.825  0.3399  0.3146  0.0324
47899W        W56499  17.869   5.660   0.078  0.1214  0.1156 -0.1718
47900W        W56500   1.391   3.147  26.405  0.1857  0.1129 -0.0913
47901W        W56501  24.743   2.872  25.783 -0.0455  0.1631 -0.0695
47902W        W56502  16.185   4.580  32.484 -0.3208  0.1023 -0.0478
47903W        W56503   1.188   2.431  20.543  0.2014 -0.0467 -0.1340
47904W        W56504  10.695   3.307  20.313 -0.0002  0.1819  0.0418
47905W        W56505   4.458   4.614  24.411  0.1809  0.2067 -0.0725
47906W        W56506  16.951   2.276  16.172  0.0418 -0.0170  0.0181
47907W        W56507   4.877   5.723  33.495  0.0919 -0.0735 -0.0495
47908W        W56508  14.325   3.816  25.634 -0.0192  0.4377  0.0447
47909W        W56509   4.898   2.274   9.990  0.1132  0.2797  0.0838
47910W        W56510  16.536   0.230  33.594  0.1034  0.0592  0.0806
47911W        W56511  24.496   4.029  34.500  0.0837  0.2285 -0.1012
47912W        W56512  12.876   0.738  11.176  0.2086  0.0990  0.1148
47913W        W56513  10.132   1.271  14.874  0.2563 -0.0008 -0.3766
47914W        W56514   3.634   5.337   8.953 -0.0541 -0.1730  0.0040
47915W        W56515  12.752   1.255  11.338  0.3235  0.1912 -0.3620
47916W        W56516   9.932   0.782   3.975 -0.0297  0.1327  0.0294
47917W        W56517  24.607   2.074   1.850 -0.2006 -0.2478 -0.0192
47918W        W56518  22.528   1.995  35.159 -0.1675 -0.1203  0.0236
47919W        W56519   3.365   4.134   3.380 -0.0040  0.0498  0.1532
47920W        W56520  10.431   6.254  27.952  0.1059  0.1795 -0.6585
47921W        W56521   7.392   1.357  27.216  0.4374 -0.1265  0.0309
47922W        W56522   9.202   2.857  11.369  0.3080  0.0332 -0.3217
47923W        W56523  25.321   0.991  30.112 -0.0662  0.0403  0.0486
47924W        W56524  18.043   3.522  27.783  0.1771 -0.0775 -0.0923
47925W        W56525   8.432   6.326  10.424  0.0678  0.2748 -0.1208
47926W        W56526   8.251   4.363  13.340  0.0030 -0.2727 -0.0942
47927W        W56527  10.359   3.172  31.220 -0.0109  0.1328 -0.2607
47928W        W56528  26.152   6.373   8.994 -0.1333  0.0694  0.0657
47929W        W56529  17.544   4.201  31.451  0.3085  0.0168  0.3791
47930W        W56530   3.556   1.036   0.046  0.0563  0.3168 -0.1059
47931W        W56531  11.902   2.656  12.924  0.1490 -0.0735  0.3084
47932W        W56532  21.958   2.743  31.400  0.0537  0.2352 -0.1963
47933W        W56533   5.969   5.510   1.138  0.1086 -0.1865 -0.0545
47934W        W56534   1.426   1.680   7.360  0.0876 -0.1320 -0.2756
47935W        W56535  20.644   1.059  22.526 -0.1778  0.0394  0.2290
47936W        W56536   6.338   1.869  11.089  0.0148 -0.2952  0.2636
47937W        W56537   5.943   2.620  23.531 -0.1137 -0.1023  0.2985
47938W        W56538  25.599   2.569  30.786 -0.2519 -0.0824  0.0321
47939W        W56539  23.287   0.711  21.424 -0.2270 -0.1149 -0.3760
47940W        W56540  25.947   3.501   5.017  0.1804  0.2033 -0.1089
47941W        W56541   0.812   0.309  30.837  0.1265  0.1042 -0.0413
47942W        W56542   7.103   0.836  35.863  0.0350  0.2235  0.2632
47943W        W56543  19.417   2.954   0.876  0.1523  0.0970  0.2091
47944W        W56544   9.492   4.389  26.064  0.1472 -0.1526  0.1593
47945W        W56545  13.533   0.599  25.933  0.1117 -0.0524  0.1452
47946W        W56546  15.022   5.262  10.791 -0.0035  0.3846 -0.2190
47947W        W56547   9.575   4.456   8.630  0.1562  0.0488  0.1162
47948W        W56548  10.560   6.558   0.608 -0.1979  0.1349  0.1074
47949W        W56549  24.981   1.340   9.862  0.1015 -0.5296  0.1802
47950W        W56550  15.314   3.308   8.842  0.0035  0.1972  0.1813
47951W        W56551   5.807   6.029  23.194 -0.1299  0.2249  0.1803
47952W        W56552  19.862   1.354  11.505  0.1929  0.2003 -0.0174
47953W        W56553   4.161   3.791   0.448  0.2450  0.1547  0.0129
47954W        W56554  13.421   4.705  22.602  0.1166 -0.0241  0.0285
47955W        W56555  21.601   4.678  29.991  0.0453  0.1697 -0.1140
47956W        W56556  25.226   5.728  25.274 -0.1357 -0.3180  0.2496
47957W        W56557  19.280   5.100  26.391 -0.0976  0.1961 -0.1268
47958W        W56558  15.879   4.425  22.003  0.0442 -0.2317  0.3961
47959W        W56559  15.216   4.437  21.514  0.0593  0.0514 -0.0022
47960W        W56560  14.447   6.408  31.540  0.1109 -0.0053  0.0134
47961W        W56561  13.935   0.029  21.397 -0.1539  0.0239 -0.3080
47962W        W56562  25.319   1.930  13.974  0.0019 -0.0801  0.1693
47963W        W56563   2.835   5.697   3.419 -0.3554  0.1826 -0.0887
47964W        W56564  17.125   2.472   1.018 -0.1277 -0.0120  0.1153
47965W        W56565  14.393   3.458   0.826 -0.0383 -0.0646  0.0643
47966W        W56566   8.803   3.813  10.838 -0.0317 -0.3529  0.1042
47967W        W56567   6.879   6.252  21.993 -0.0811  0.2071 -0.0611
47968W        W56568   8.182   0.745  24.801 -0.0874  0.2846 -0.0653
47969W        W56569   2.264   2.797   4.509  0.2485 -0.0633 -0.1810
47970W        W56570  16.700   5.719  23.103  0.1816  0.0676 -0.2733
47971W        W56571   7.882   6.288  23.626 -0.0065 -0.2287  0.0379
47972W        W56572  23.737   4.444  32.772  0.1355  0.1202 -0.0965
47973W        W56573   2.001   4.751  25.983  0.0975  0.1068  0.0761
47974W        W56574  26.133   1.426  29.538  0.2433 -0.2086  0.1172
47975W        W56575  21.819   4.085  21.918 -0.0706 -0.0114 -0.1494
47976W        W56576   2.843   1.346  22.972 -0.1027  0.0487 -0.0304
47977W        W56577  25.891   2.822  13.938 -0.4059  0.0715  0.0854
47978W        W56578  12.401   3.338  27.851  0.0560 -0.0839  0.5527
47979W        W56579   6.262   1.570  12.106 -0.0497  0.0784 -0.3423
47980W        W56580  24.754   0.401  27.277 -0.0975 -0.3279 -0.0183
47981W        W56581  20.633   5.452  32.608  0.1119  0.2040 -0.0311
47982W        W56582   6.788   5.960  28.787  0.0244  0.0622  0.1482
47983W        W56583  16.402   0.140   5.988 -0.0983  0.1027  0.1348
47984W        W56584  26.196   2.320   1.305  0.1253 -0.0654  0.1864
47985W        W56585  19.455   5.282  15.004 -0.1897  0.0846  0.0752
47986W        W56586   5.849   0.890  10.342 -0.2317  0.2684  0.3880
47987W        W56587  20.373   0.502  25.983 -0.0824  0.5904 -0.1461
47988W        W56588   9.549   4.365  15.524  0.0319 -0.2805  0.0846
47989W        W56589  19.384   1.750  27.335  0.0161 -0.0278  0.2490
47990W        W56590  21.786   6.012  12.701  0.1211  0.0727  0.0918
47991W        W56591  18.367   3.807  33.209 -0.1699  0.1105  0.2500
47992W        W56592   2.578   0.799  35.975 -0.0062  0.3732 -0.0651
47993ION     NA56593   8.853   1.371  33.580  0.4796 -0.2353 -0.0353
47994ION     NA56594  23.756   4.969   5.577 -0.3030 -0.0046  0.2214
47995ION     NA56595   9.494   3.767  22.939 -0.2519  0.1600 -0.1196
47996ION     NA56596  15.779   3.572  27.821 -0.0932  0.4285 -0.0379
47997ION     NA56597   9.615   4.710  21.781  0.4614  0.5433  0.1388
47998ION     NA56598   6.968   0.711  25.369 -0.3880  0.5590  0.1452
47999ION     NA56599  17.939   2.704   0.746  0.2847 -0.3856 -0.1120
48000ION     NA56600  19.690   5.528   9.903 -0.1059 -0.1122  0.0543
48001ION     NA56601  17.347   2.026   4.204 -0.1830  0.4707  0.0239
48002ION     NA56602  17.047   1.518  11.286 -0.1311  0.3992 -0.5712
48003ION     NA56603   5.453   6.296  33.086 -0.2145 -0.2673 -0.1803
48004ION     NA56604  22.144   4.085  14.289  0.1802 -0.1464 -0.3879
48005ION     NA56605  26.098   2.978  33.617  0.2582  0.7031  0.4537
48006ION     NA56606  12.249   4.785  21.127 -0.2227  0.3446 -0.0368
48007ION     NA56607  15.468   2.742  23.518 -0.1168  0.1476 -0.1472
48008ION     NA56608  13.346   5.900   4.542  0.0353 -0.0011 -0.0639
48009ION     NA56609   8.540   0.137  33.430  0.0619 -0.3567 -0.7848
48010ION     NA56610  22.809   1.802  31.688  0.1427  0.4362  0.4009
48011ION     NA56611   9.136   3.114  11.722 -0.4099  0.0592 -0.1886
48012ION     NA56612  11.538   3.032   9.799  0.2350  0.5215 -0.0362
48013ION     NA56613  22.140   2.789  10.333 -0.3225 -0.0515  0.1947
48014ION     NA56614   3.122   5.106  11.771  0.2527 -0.2166  0.3288
48015ION     NA56615   8.973   5.874   3.006 -0.0423 -0.1691  0.0077
48016ION     NA56616   2.599   2.427  30.853  0.1417 -0.2148 -0.5912
48017ION     NA56617  14.996   3.737  34.724  0.1113  0.3862  0.1225
48018ION     NA56618  21.751   2.232  25.470  0.2067  0.2748 -0.2040
48019ION     NA56619   6.048   1.346   3.484 -0.2782  0.5236  0.1656
48020ION     NA56620  19.740   5.695   5.711 -0.4525  0.2314  0.0296
48021ION     NA56621   5.494   1.791   2.394 -0.1538 -0.3963 -0.2084
48022ION     NA56622  11.760   0.061   2.610  0.2011  0.2289  0.0052
48023ION     NA56623  17.218   5.882  25.855 -0.1379  0.1689 -0.0562
48024ION     NA56624  18.965   3.377  36.032  0.1496  0.4377 -0.1247
48025ION     NA56625   5.853   2.501  21.631  0.1733  0.1351  0.4229
48026ION     NA56626  11.971   5.009  32.502 -0.0112  0.3628  0.4828
48027ION     NA56627  16.287   4.851  23.924 -0.1181 -0.1422  0.6641
48028ION     NA56628   9.941   5.456   7.958 -0.0215 -0.4687 -0.0802
48029ION     NA56629   5.798   1.113  15.461  0.2837  0.1199  0.2917
48030ION     NA56630  23.911   4.307  10.572  0.4258 -0.2155  0.0567
48031ION     NA56631  15.716   3.045  15.351  0.3971  0.2109 -0.7209
48032ION     NA56632   8.896   0.316  34.113 -0.0635 -0.2045  0.3322
48033ION     NA56633  17.322   6.049   8.620  0.5098  0.1194  0.3264
48034ION     NA56634  10.306   3.509   3.480  0.0860 -0.1538 -0.2880
48035ION     NA56635  23.430   2.105  32.857  0.3558 -0.1393 -0.5400
48036ION     NA56636   6.669   5.337  20.213 -0.5667 -0.3109 -0.0998
48037ION     NA56637  19.250   3.967  20.505 -0.0349  0.2379  0.1514
48038ION     NA56638   6.669   3.400   7.169  0.2685  0.3842  0.0358
48039ION     NA56639  11.408   5.572  12.156 -0.1114  0.3075 -0.1741
48040ION     NA56640  20.705   1.150  14.413 -0.2092 -0.1327  0.2320
48041ION     NA56641  16.227   4.862  26.152 -0.1311  0.1790  0.0475
48042ION     NA56642   4.585   4.497   6.215 -0.6088 -0.1874 -0.0116
48043ION     NA56643  15.370   5.319   0.457 -0.0285  0.0377  0.0649
48044ION     NA56644   3.494   1.729  11.347  0.0955 -0.3194 -0.4343
48045ION     NA56645  20.405   4.055  26.907 -0.0612  0.1108  0.5346
48046ION     NA56646  19.785   2.272   8.740 -0.1215 -0.4149 -0.1801
48047ION     NA56647   6.558   2.959  13.492  0.4870 -0.2759  0.2968
48048ION     NA56648  15.889   4.593  32.822  0.0863 -0.0026  0.0093
48049ION     NA56649   5.093   1.297   5.416  0.0888  0.1915  0.1170
48050ION     NA56650  15.131   5.881  29.463 -0.0515 -0.3261 -0.1755
48051ION     NA56651   9.820   2.702   9.751 -0.6214  0.1477 -0.2206
48052ION     NA56652  12.570   2.259  14.987 -0.0105  0.5035  0.2772
48053ION     NA56653  12.749   5.686  10.019 -0.0827 -0.1225  0.1555
48054ION     NA56654   4.105   4.253   2.422 -0.2140 -0.1618 -0.2849
48055ION     NA56655  22.444   5.001  36.113 -0.0553  0.1707  0.2533
48056ION     NA56656  19.413   5.356  25.568  0.0898  0.4334 -0.1981
48057ION     NA56657   3.455   3.529   1.977 -0.0829  0.3816 -0.4465
48058ION     NA56658  11.663   2.014  30.521 -0.2905 -0.5302 -0.0265
48059ION     NA56659  20.273   2.954   9.532  0.0454  0.5213  0.6548
48060ION     NA56660  15.419   4.939   2.698 -0.1962  0.4483  0.1221
48061ION     NA56661  25.782   2.762   4.064  0.1467 -0.6587 -0.2806
48062ION     NA56662   3.629   1.672  29.346  0.2463 -0.1213 -0.3078
48063ION     NA56663   3.808   0.696  33.553 -0.2026 -0.2435  0.0529
48064ION     NA56664   8.564   2.463  14.971  0.2653 -0.0046  0.0638
48065ION     NA56665  18.184   1.276   7.843 -0.2361  0.2401 -0.2473
48066ION     NA56666   5.426   3.460  13.759 -0.3184 -0.2094 -0.1382
48067ION     NA56667   8.285   5.280   5.107  0.0507 -0.3851  0.1276
48068ION     NA56668  21.108   1.185   6.196  0.1036 -0.1856 -0.3552
48069ION     NA56669   5.722   1.574   7.356 -0.2232 -0.1879 -0.0198
48070ION     NA56670   0.471   1.771  27.391  0.0503 -0.1754 -0.2792
48071ION     NA56671  20.093   1.744   0.831  0.0977 -0.2024  0.2865
48072ION     NA56672   2.192   5.249  12.779  0.1494 -0.0666 -0.0018
48073ION     NA56673  11.391   5.573   2.301 -0.0009 -0.2628 -0.2718
48074ION     NA56674   8.525   3.298  25.554  0.1192 -0.2944  0.0809
48075ION     NA56675  23.104   1.210   5.430 -0.1521  0.4003 -0.0579
48076ION     NA56676  14.863   0.042  13.568  0.1657  0.3171 -0.3986
48077ION     NA56677   1.154   6.282  25.659  0.2433 -0.1225 -0.1096
48078ION     NA56678   6.120   3.308   4.953  0.0793  0.1506 -0.0506
48079ION     NA56679   2.486   1.711  29.248  0.1198 -0.0489  0.1991
48080ION     NA56680  25.299   5.496  26.930 -0.1502 -0.8010  0.1385
48081ION     NA56681  13.559   0.573   1.570  0.2577  0.0843  0.1689
48082ION     NA56682  18.378   5.927   6.845 -0.1265 -0.2788 -0.0222
48083ION     NA56683  12.328   3.244   4.299  0.3372  0.2609  0.0814
48084ION     NA56684  18.829   2.321  34.982 -0.1676 -0.0589 -0.2911
48085ION     NA56685   9.383   4.377  34.173 -0.3331 -0.1610 -0.1744
48086ION     NA56686   6.555   3.731  25.539  0.0132  0.4063 -0.0747
48087ION     NA56687  19.024   5.099  13.106 -0.2586  0.1586  0.0144
48088ION     NA56688   4.717   4.429  32.520 -0.0237 -0.2153 -0.3879
48089ION     NA56689  10.106   4.210  31.404  0.2347 -0.0973  0.2295
48090ION     NA56690  14.413   4.025  12.994 -0.1066  0.0043  0.1896
48091ION     NA56691  15.789   2.167  27.123  0.1837  0.2546 -0.1765
48092ION     NA56692  11.949   5.765  12.902 -0.2661 -0.0628  0.3564
48093ION     NA56693  20.097   3.298  21.385  0.4971  0.0775 -0.2623
48094ION     NA56694   0.198   1.546   2.870  0.2833  0.2210 -0.2815
48095ION     NA56695  13.651   1.535  13.538 -0.2004  0.1933  0.2504
48096ION     NA56696  11.431   0.292   7.595  0.1391  0.0605  0.0621
48097ION     NA56697  20.395   0.203   5.549 -0.5223 -0.2985  0.0695
48098ION     NA56698  16.774   5.142  33.409 -0.3323  0.1950  0.1134
48099ION     NA56699  12.173   4.682  27.790  0.0613  0.1436 -0.3830
48100ION     NA56700   9.385   2.353   0.774 -0.5206  0.4358 -0.1021
48101ION     NA56701  23.933   6.226  23.249 -0.0820 -0.2165  0.2389
48102ION     NA56702   7.612   1.526   3.241  0.0905  0.0127  0.2259
48103ION     NA56703   7.563   3.895  11.001 -0.1358  0.0586 -0.6119
48104ION     NA56704  23.995   5.103  33.528  0.0481  0.1409  0.0762
48105ION     NA56705  18.471   5.094   0.377  0.0149  0.1283 -0.4880
48106ION     NA56706  21.507   0.564  24.850  0.3464 -0.0429 -0.4324
48107ION     NA56707  13.698   2.356  31.301  0.4084  0.3665 -0.0947
48108ION     NA56708  26.229   4.855  24.550  0.1637 -0.2270  0.3883
48109ION     NA56709  23.351   6.168   3.563  0.4570 -0.2430 -0.0896
48110ION     NA56710   5.998   6.024  28.250  0.0946 -0.0734  0.3118
48111ION     NA56711  23.198   2.682  27.051 -0.2161  0.0671  0.3128
48112ION     NA56712   6.214   4.678   0.411  0.0554  0.0084  0.3256
48113ION     NA56713   1.107   1.224   6.741 -0.0307  0.0335 -0.3442
48114ION     NA56714  12.731   1.690  13.079 -0.1259 -0.1081  0.3316
48115ION     NA56715   5.598   4.765   5.359 -0.2133  0.1644  0.3451
48116ION     NA56716  24.979   5.575  32.286 -0.4395 -0.2999 -0.1908
48117ION     NA56717   4.241   4.423  23.285 -0.0436  0.3215  0.0576
48118ION     NA56718  25.623   4.814  14.202 -0.5770 -0.1202  0.1615
48119ION     NA56719   3.400   2.513  21.375 -0.4370 -0.1633 -0.5418
48120ION     NA56720  25.429   2.437  12.231 -0.1443  0.0454 -0.2737
48121ION     NA56721  18.149   0.744   1.345  0.0101  0.1310  0.2963
48122ION     NA56722   8.831   4.222  28.865  0.5117  0.3036  0.2064
48123ION     NA56723   9.491   1.054  33.237 -0.1396  0.0162 -0.3734
48124ION     NA56724  19.045   6.427   6.260 -0.4108 -0.0159 -0.3024
48125ION     NA56725   9.329   0.672  13.988  0.0925 -0.1239  0.0796
48126ION     NA56726  22.876   5.755  28.014  0.3520 -0.1085  0.2900
48127ION     NA56727  19.319   0.943   6.082  0.1866 -0.1545  0.2417
48128ION     NA56728  21.455   5.635  22.135  0.2211 -0.3629  0.3017
48129ION     NA56729  23.256   5.435  25.111  0.2007 -0.1443 -0.1915
48130ION     NA56730  23.764   5.490  14.006  0.1385 -0.0367 -0.2101
48131ION     NA56731  25.501   5.302   0.626  0.2547  0.0113  0.4844
48132ION     NA56732  11.884   0.235  10.662  0.2353  0.0643 -0.1274
48133ION     NA56733  13.881   6.454  31.241 -0.0234 -0.3704  0.1093
48134ION     NA56734   5.752   6.503  32.118 -0.1886  0.1688  0.2376
48135ION     NA56735  20.416   6.544  28.406  0.3731  0.0962  0.0761
48136ION     NA56736  23.712   2.261  13.986  0.0848  0.0693  0.1427
48137ION     NA56737  11.897   4.996  26.753  0.2891  0.3461  0.1427
48138ION     NA56738  21.628   3.418  25.396  0.1799 -0.1398  0.2078
48139ION     NA56739   1.823   1.711  27.524 -0.1847 -0.1952 -0.0539
48140ION     NA56740   1.089   1.963  21.744  0.2655 -0.3415 -0.2510
48141ION     NA56741   3.058   3.909  10.663 -0.0250  0.2685 -0.1299
48142ION     NA56742   7.380   4.876  24.289  0.2795  0.0680  0.0261
48143ION     NA56743   8.964   3.718  26.362 -0.2344  0.1860  0.1520
48144ION     NA56744   9.168   1.166  14.780 -0.0601 -0.1968  0.2714
48145ION     NA56745   9.250   3.742  27.736 -0.0382 -0.3159  0.7205
48146ION     NA56746   8.334   0.519   3.296 -0.3858 -0.0643  0.2476
48147ION     NA56747  19.244   0.912  22.611  0.2774  0.0083 -0.0239
48148ION     NA56748  12.598   3.890  12.558 -0.1851 -0.0289  0.1985
48149ION     NA56749  16.073   5.276  34.185  0.1247  0.2171 -0.1257
48150ION     NA56750   6.195   0.618   1.377 -0.0334 -0.3600  0.0543
48151ION     NA56751   3.208   1.417   2.936  0.0755  0.2502 -0.2892
48152ION     NA56752  16.056   4.490  23.062 -0.2323 -0.1073 -0.1923
48153ION     NA56753   8.861   1.545  10.933  0.1080 -0.0401 -0.0057
48154ION     NA56754  15.066   4.474  34.321 -0.0637  0.0499  0.5720
48155ION     NA56755  12.710   3.563  29.781  0.1113 -0.0084 -0.2152
48156ION     NA56756   6.388   4.314  14.159 -0.2843 -0.3044  0.2079
48157ION     NA56757  16.209   0.541   3.894 -0.1482  0.4516  0.0398
48158ION     NA56758  24.004   1.020  31.042  0.1788 -0.3265  0.0565
48159ION     NA56759  15.979   4.664   2.854  0.1068  0.1726 -0.1430
48160ION     NA56760   5.739   5.183  36.002  0.1404 -0.2391  0.1145
48161ION     NA56761   2.015   0.145  28.687  0.0103  0.0186  0.4515
48162ION     NA56762   8.673   6.394  29.325 -0.1681  0.3657 -0.0210
48163ION     NA56763   5.516   5.603  34.443  0.2647  0.0966 -0.0728
48164ION     NA56764  22.409   2.486   1.912  0.2319  0.3497  0.2313
48165ION     NA56765  13.445   5.756  26.938  0.1967 -0.3228 -0.1502
48166ION     NA56766  11.680   3.626  28.721 -0.3910 -0.2696 -0.0164
48167ION     NA56767  19.578   5.591  31.032 -0.1226  0.1681  0.5343
48168ION     NA56768   7.378   5.129  10.606 -0.0319  0.0132  0.4676
48169ION     NA56769  21.862   0.200  25.384  0.3195 -0.5216 -0.1856
48170ION     NA56770   4.701   4.403  24.712 -0.1330 -0.5048 -0.2916
48171ION     NA56771  14.282   4.560  34.853  0.1390 -0.2242 -0.0726
48172ION     NA56772  19.242   0.892  25.363  0.0044 -0.4453 -0.1374
48173ION     NA56773  12.439   6.150   7.473 -0.0364  0.0643 -0.2780
48174ION     NA56774  14.209   1.624   8.430 -0.2892 -0.0361 -0.0531
48175ION     NA56775  24.749   3.218  26.162 -0.5268  0.0259 -0.0999
48176ION     NA56776  13.470   0.419  15.869  0.1173 -0.1320 -0.2782
48177ION     NA56777  23.421   5.939   4.761  0.4199 -0.5626 -0.3683
48178ION     NA56778  11.640   5.271  10.491  0.3007 -0.4853 -0.0775
48179ION     NA56779  13.078   0.907  12.587 -0.0604  0.1074  0.5119
48180ION     NA56780  14.293   0.300   9.902  0.0435  0.1236 -0.1657
48181ION     NA56781  15.321   2.221  10.032 -0.4212  0.1539 -0.5044
48182ION     NA56782  23.881   6.234  21.853 -0.1341 -0.1621 -0.1545
48183ION     NA56783  10.442   0.448  14.805  0.2453  0.2203  0.1286
48184ION     NA56784   8.322   3.189   8.589  0.1781 -0.0944 -0.1063
48185ION     NA56785   4.955   0.186  32.382  0.1641  0.0436  0.0659
48186ION     NA56786  12.233   4.281  25.842  0.0301 -0.1016 -0.0072
48187ION     NA56787   0.726   0.139  36.123 -0.0414  0.0111  0.0061
48188ION     CL56788   0.327   5.604  32.257  0.5126  0.0892 -0.0562
48189ION     CL56789   6.413   5.572  14.913  0.4536 -0.1241  0.3250
48190ION     CL56790   6.774   1.812  28.071 -0.1110 -0.0593 -0.0531
48191ION     CL56791   1.187   5.423  30.185  0.0946  0.2496 -0.0355
48192ION     CL56792  24.000   2.891  12.804  0.1398  0.0614 -0.0781
48193ION     CL56793  16.212   4.196   5.561 -0.0674 -0.3137  0.0425
48194ION     CL56794  12.738   2.243  33.579  0.0988  0.3415  0.4607
48195ION     CL56795  16.222   3.605  34.678  0.3050  0.0216 -0.0413
48196ION     CL56796   6.651   1.107  26.160 -0.1439 -0.1423 -0.3705
48197ION     CL56797  24.276   5.721  34.682 -0.1893  0.1661  0.2177
48198ION     CL56798  12.187   6.221   7.252  0.0508 -0.1630  0.3776
48199ION     CL56799  18.353   4.026  14.526  0.1928 -0.0035  0.0368
48200ION     CL56800  15.523   3.020   9.078 -0.1141  0.5808 -0.0550
48201ION     CL56801  25.261   3.734  11.862  0.0280  0.3201  0.2182
48202ION     CL56802   8.700   1.632  21.004  0.4617  0.1232  0.1933
48203ION     CL56803  19.415   1.566  32.881 -0.1747 -0.0533 -0.2829
48204ION     CL56804  25.989   2.831  32.376 -0.0930 -0.3598 -0.1656
48205ION     CL56805  21.452   0.653  11.372 -0.0853  0.1229  0.2339
48206ION     CL56806   0.491   2.353  28.619  0.3481 -0.1906 -0.2567
48207ION     CL56807  13.930   0.079   7.390 -0.0693  0.2703 -0.0341
48208ION     CL56808   0.931   6.365  11.321 -0.0798  0.0659 -0.2810
48209ION     CL56809  15.261   2.122   9.722 -0.1404  0.1932 -0.0271
48210ION     CL56810  14.893   4.916  25.592 -0.1394  0.0818  0.1130
48211ION     CL56811   2.267   5.840  27.688  0.0782  0.0410  0.4969
48212ION     CL56812   2.366   2.463  31.795  0.4353  0.3325  0.2828
48213ION     CL56813  24.897   3.951  33.072  0.1929  0.4443 -0.3536
48214ION     CL56814  15.423   1.780  13.429  0.1744 -0.4753 -0.1496
48215ION     CL56815  22.192   2.759   5.451  0.2758 -0.1479  0.0094
48216ION     CL56816  14.283   3.549  28.397  0.1411  0.0133 -0.4557
48217ION     CL56817  17.353   1.565  24.136 -0.0255 -0.3125  0.0090
48218ION     CL56818   5.884   2.231  27.892 -0.1049 -0.2776  0.2288
48219ION     CL56819  19.805   0.553   3.110  0.0858 -0.1866 -0.1712
48220ION     CL56820  21.976   5.996   9.651 -0.2431 -0.0614 -0.1371
48221ION     CL56821   0.435   6.567  35.603 -0.1454 -0.1688 -0.1870
48222ION     CL56822   8.506   3.242  25.937  0.1242  0.2733  0.3114
48223ION     CL56823   6.224   1.436   5.068  0.1520 -0.2052 -0.0988
48224ION     CL56824  11.847   5.382  26.240  0.3266 -0.1558 -0.1340
48225ION     CL56825   6.318   0.141  14.792 -0.2334  0.0225  0.1558
48226ION     CL56826  22.280   1.748  21.411  0.0664 -0.2988  0.0368
48227ION     CL56827  14.212   6.593  31.167  0.0149 -0.0461 -0.0937
48228ION     CL56828  25.304   6.014  26.620 -0.1168 -0.2820 -0.1339
48229ION     CL56829   1.181   2.225   0.220  0.6174  0.0202  0.3389
48230ION     CL56830  23.640   6.179  34.984  0.0845  0.1930  0.1338
48231ION     CL56831   4.567   6.010  32.382  0.2476  0.1724  0.3052
48232ION     CL56832   2.930   2.843  24.137  0.1147  0.3552 -0.2940
48233ION     CL56833   5.298   1.685   5.954  0.0814  0.0857  0.4770
48234ION     CL56834  23.829   2.210  21.550  0.1857 -0.0223 -0.0698
48235ION     CL56835   9.622   0.209  10.529 -0.1268  0.1089  0.1621
48236ION     CL56836  26.090   3.932  34.957 -0.0914  0.0088  0.3123
48237ION     CL56837  21.131   5.969  13.082 -0.6168  0.1204 -0.2433
48238ION     CL56838   4.214   3.085  10.780  0.1140 -0.1080 -0.3965
48239ION     CL56839  16.841   4.786  24.234  0.2488 -0.1765 -0.2899
48240ION     CL56840  16.550   5.067  27.648 -0.2685  0.3343 -0.0442
48241ION     CL56841  12.517   5.505  10.221  0.1013 -0.1664  0.1181
48242ION     CL56842  16.423   6.190   9.661  0.1761 -0.2632 -0.1631
48243ION     CL56843   1.672   4.704  35.087 -0.0812  0.0057  0.3066
48244ION     CL56844   0.847   0.399  14.852 -0.1692  0.1666  0.3968
48245ION     CL56845  18.295   2.553  22.794  0.1304  0.0879  0.1082
48246ION     CL56846  19.924   2.508  26.321  0.0043  0.0236 -0.5547
48247ION     CL56847   3.650   0.260  35.283  0.0209  0.2753  0.1619
48248ION     CL56848   4.672   4.519   5.890 -0.0644 -0.4070 -0.0330
48249ION     CL56849  22.885   0.348   9.466  0.1717 -0.0482 -0.1120
48250ION     CL56850  18.362   5.366  25.435 -0.2790 -0.1749  0.0000
48251ION     CL56851  16.422   5.021  28.276 -0.2620 -0.0377 -0.0762
48252ION     CL56852  20.244   1.577  28.202 -0.2084  0.4365  0.4226
48253ION     CL56853  24.178   2.648  14.397  0.1350  0.1090  0.2677
48254ION     CL56854  10.236   0.672   2.241  0.2274 -0.0946  0.2397
48255ION     CL56855  12.084   2.286   0.122 -0.3813 -0.2502  0.2922
48256ION     CL56856   4.797   3.458  13.309  0.1290 -0.2851  0.1417
48257ION     CL56857   3.947   2.348  27.208  0.3092 -0.5320  0.1264
48258ION     CL56858  21.904   6.196   2.690  0.0067  0.5267 -0.4216
48259ION     CL56859  24.368   4.209  31.710 -0.0264 -0.5763  0.1565
48260ION     CL56860   7.617   5.191  24.873 -0.0035 -0.5234 -0.1092
48261ION     CL56861   8.839   3.602  25.205 -0.1122  0.4366  0.1211
48262ION     CL56862   7.804   2.470  33.058 -0.1217 -0.4716  0.3274
48263ION     CL56863  24.329   1.630  15.050  0.1549  0.1410 -0.0041
48264ION     CL56864   1.853   4.201  13.181  0.3368 -0.1880  0.1163
48265ION     CL56865  24.750   3.037  14.009 -0.0189  0.2839 -0.4219
48266ION     CL56866  13.311   5.367  34.076  0.0462 -0.3302  0.3981
48267ION     CL56867   0.445   0.653   9.793 -0.0398 -0.0298  0.0391
48268ION     CL56868  14.816   0.736  13.472  0.1779 -0.1102  0.0666
48269ION     CL56869  10.273   1.246   7.618  0.0039 -0.3701 -0.1006
48270ION     CL56870  18.114   2.467   2.291 -0.0405  0.1445  0.1013
48271ION     CL56871   3.622   6.084  32.703  0.4034 -0.1572 -0.2682
48272ION     CL56872  21.341   4.564  10.725 -0.2588 -0.1413 -0.2185
48273ION     CL56873  19.880   6.208   7.881 -0.2411 -0.0404  0.1226
48274ION     CL56874  11.793   2.701  13.919 -0.2486  0.4076 -0.0630
48275ION     CL56875  24.906   0.075  21.543  0.0557  0.1701  0.0736
48276ION     CL56876  17.346   0.754  31.830 -0.1151  0.1791  0.2455
48277ION     CL56877   1.572   1.042  25.809 -0.2149  0.0248 -0.2397
48278ION     CL56878   7.249   5.628  11.606 -0.3361  0.0732  0.1996
48279ION     CL56879  19.537   5.192  30.766  0.1620  0.1696 -0.2650
48280ION     CL56880  20.463   1.653   8.093 -0.2858 -0.2466  0.0120
48281ION     CL56881  15.680   5.851   1.961  0.5243  0.1419 -0.2195
48282ION     CL56882  13.025   6.138  33.547 -0.5735 -0.0293  0.2337
48283ION     CL56883   4.049   3.900   6.038  0.2542  0.1968 -0.3478
48284ION     CL56884  17.213   1.555  11.717 -0.0799 -0.2399  0.2335
48285ION     CL56885  19.199   1.229   7.764 -0.3335 -0.0636  0.2210
48286ION     CL56886   6.684   6.007  34.827 -0.9112 -0.2805  0.2042
48287ION     CL56887   6.797   4.250  13.990  0.3342 -0.0417 -0.5641
48288ION     CL56888  16.215   4.748  25.807 -0.0409  0.0992  0.2522
48289ION     CL56889  24.635   0.121  34.673 -0.7807  0.2933 -0.1255
48290ION     CL56890  15.266   6.274  33.528  0.3070 -0.0420 -0.3835
48291ION     CL56891  13.798   0.676  31.046 -0.1705  0.0256  0.0557
48292ION     CL56892   0.872   0.058  12.102  0.0776 -0.0473  0.0314
48293ION     CL56893  13.793   6.318  11.267 -0.2143 -0.8925  0.4228
48294ION     CL56894  22.465   6.127  12.860 -0.3015  0.0967 -0.1960
48295ION     CL56895   6.006   4.223   2.183  0.2124 -0.1888  0.0099
48296ION     CL56896   6.125   2.549  29.449 -0.1294 -0.1296 -0.2899
48297ION     CL56897  24.984   0.925  12.450 -0.0535  0.0511 -0.1764
48298ION     CL56898  21.796   3.009  25.261 -0.0718  0.8092 -0.3801
48299ION     CL56899  10.325   2.793   0.437  0.1045  0.4916  0.2407
48300ION     CL56900  19.573   0.000   6.004 -0.1122 -0.0106  0.4177
48301ION     CL56901   8.636   2.464  25.349 -0.3667 -0.4841 -0.2603
48302ION     CL56902   8.326   4.363   5.411  0.4864 -0.0893 -0.2036
48303ION     CL56903   8.398   0.514  27.101  0.4345 -0.1359 -0.3482
48304ION     CL56904   8.647   2.670  32.009 -0.3896 -0.1446  0.2638
48305ION     CL56905  19.817   1.222   5.022  0.2489  0.0985 -0.1595
48306ION     CL56906   0.535   1.938   1.195  0.2883  0.3703  0.0166
48307ION     CL56907  25.991   2.963   1.935  0.0700  0.3373 -0.2554
48308ION     CL56908  22.767   4.753  10.897 -0.4317  0.2101  0.0481
48309ION     CL56909  16.511   4.116  33.755 -0.3967  0.1365 -0.3783
48310ION     CL56910  12.737   2.865   8.497 -0.1195  0.1531 -0.3586
48311ION     CL56911  21.601   0.556   0.683  0.0926 -0.2473  0.0286
48312ION     CL56912   2.135   2.357   8.897  0.0306 -0.0646  0.1608
48313ION     CL56913  25.348   2.635  11.674 -0.0176  0.0471 -0.2860
48314ION     CL56914   6.594   2.989  25.186  0.0727  0.0511  0.3582
48315ION     CL56915   0.496   5.153   0.366 -0.3806  0.4371  0.3368
48316ION     CL56916   0.919   4.594   8.991  0.1263  0.2222  0.1815
48317ION     CL56917  13.776   5.173  30.315 -0.1866  0.1911 -0.0311
48318ION     CL56918   9.472   4.745  30.171  0.1465 -0.0391  0.0335
48319ION     CL56919   3.951   4.198  28.748  0.0429 -0.0881 -0.1019
48320ION     CL56920  23.947   6.553  22.030 -0.2081  0.2851  0.0722
48321ION     CL56921  10.274   6.322  10.460 -0.0188  0.2030 -0.1344
48322ION     CL56922   5.537   0.082  24.481 -0.1691 -0.3651  0.0479
48323ION     CL56923  11.912   1.874   4.707  0.1829 -0.0233 -0.0171
48324ION     CL56924  15.155   3.619   9.672 -0.4384 -0.0791  0.2936
48325ION     CL56925   3.263   6.376   6.133  0.3857  0.2676  0.2886
48326ION     CL56926  18.596   4.531   0.030 -0.2698 -0.2995 -0.1014
48327ION     CL56927   1.109   1.973   5.203 -0.0526  0.1232  0.0026
48328ION     CL56928   9.078   1.298   7.347 -0.6333 -0.1917  0.2556
48329ION     CL56929   3.167   2.300  13.608  0.1085  0.0124  0.3897
48330ION     CL56930   9.864   1.609  10.283 -0.5842 -0.0954  0.4969
48331ION     CL56931  20.110   5.501  31.840 -0.2959 -0.0228  0.0671
48332ION     CL56932  13.846   0.986   8.421 -0.1277  0.0546  0.0757
  26.43140   6.60785  36.15604
