;after initial compression of system, NVT ensemble
;define                   = -DBILAYER_LIPIDHEAD_FC=200 ;-DPOSRES -DPOSRES_FC=200
integrator               = md
tinit                    = 0.0
dt                       = 0.002
nsteps                   = 500000


nstlog                   = 1000
nstenergy                = 1000
nstxout-compressed       = 1000
compressed-x-precision   = 100

cutoff-scheme            = Verlet
nstlist                  = 20
pbc                      = xyz
verlet-buffer-tolerance  = 0.005

epsilon_r                = 15
coulombtype              = reaction-field
rcoulomb                 = 1.1
vdw_type                 = cutoff
vdw-modifier             = Potential-shift-verlet
rvdw                     = 1.1

tcoupl                   = v-rescale
tc-grps                  = system
tau_t                    = 1.0 
ref_t                    = 285

; Pressure coupling:
Pcoupl                    = no


; GENERATE VELOCITIES FOR STARTUP RUN:
gen_vel                  = yes
gen_temp                 = 285
gen_seed                 = 9122269091

refcoord_scaling         = all
