; soft core minimization

;define                   = -DFLEXIBLE
integrator               = steep
tinit                    = 0.0
nsteps                   = 1000   

;ouput frequency 
nstlog                   = 100
nstenergy                = 100
nstxout-compressed       = 1000
compressed-x-precision   = 100

;neighbor list and cutoff settings
cutoff-scheme            = Verlet
nstlist                  = 20
pbc                      = xyz
;verlet-buffer-tolerance  = 0.005
; OVERRIDE for some systems initially
verlet-buffer-tolerance  = -1
rlist                   = 1.6

;electrostatics and Van der Waals
epsilon_r                = 15
coulombtype              = reaction-field
rcoulomb                 = 1.1
vdw_type                 = cutoff
vdw-modifier             = Potential-shift-verlet
rvdw                     = 1.1

; GENERATE VELOCITIES FOR STARTUP RUN:
gen_vel                  = yes
gen_temp                 = 285 ;below the Tm for DPCC 
gen_seed                 = 

;soft-core-minimization so that single precision GROMACS works here
; Free energy parameters
free-energy              = yes
init-lambda              = 0.01
sc-alpha                 = 4
sc-power                 = 2
sc-coul                  = yes
nstdhdl                  = 0 
couple-moltype           = system
; we are changing both the vdw and the charge. In the initial state, both are on
couple-lambda0           = vdw-q
; in the final state, both are off.
couple-lambda1           = none
couple-intramol          = yes

refcoord_scaling         = all
