;define                   = -DFLEXIBLE
integrator               = steep
tinit                    = 0.0
nsteps                   = 1000

nstlog                   = 100
nstenergy                = 100
nstxout-compressed       = 1000
compressed-x-precision   = 100

cutoff-scheme            = Verlet
nstlist                  = 20
ns_type                  = grid
pbc                      = xyz
verlet-buffer-tolerance  = 0.005

epsilon_r                = 15
coulombtype              = reaction-field
rcoulomb                 = 1.1
vdw_type                 = cutoff
vdw-modifier             = Potential-shift-verlet
rvdw                     = 1.1

tcoupl                   = v-rescale ;velocity rescaling thermostat 
tc-grps                  = system
tau_t                    = 1.0 
ref_t                    = 285 ;below the Tm for DPCC 

; Pressure coupling:
Pcoupl                   = berendsen
Pcoupltype               = semiisotropic
tau_p                    = 5.0
compressibility          = 3e-4 3e-4 ;1bar pressure
ref_p                    = 1.0  1.0

; GENERATE VELOCITIES FOR STARTUP RUN:
gen_vel                  = yes
gen_temp                 = 285
gen_seed                 = 9122269091

refcoord_scaling         = all
