Written by MDAnalysis
 9400
    1DPPC   NC3    1  16.285   4.909  18.377
    1DPPC   PO4    2  15.935   4.829  18.537
    1DPPC   GL1    3  15.615   4.909  18.277
    1DPPC   GL2    4  15.665   5.149  18.217
    1DPPC   C1A    5  15.395   4.859  17.977
    1DPPC   C2A    6  15.065   4.899  17.707
    1DPPC   C3A    7  14.775   4.829  17.327
    1DPPC   C4A    8  14.465   4.839  16.947
    1DPPC   C1B    9  15.325   5.249  18.147
    1DPPC   C2B   10  14.945   5.279  17.997
    1DPPC   C3B   11  14.545   5.199  17.697
    1DPPC   C4B   12  14.365   5.159  17.297
    2DPPC   NC3   13  16.165   3.221  18.017
    2DPPC   PO4   14  16.255   2.831  18.067
    2DPPC   GL1   15  15.965   2.581  17.927
    2DPPC   GL2   16  16.185   2.451  17.757
    2DPPC   C1A   17  15.785   2.431  17.657
    2DPPC   C2A   18  15.525   2.431  17.397
    2DPPC   C3A   19  15.275   2.381  17.037
    2DPPC   C4A   20  14.975   2.271  16.627
    2DPPC   C1B   21  16.105   2.451  17.417
    2DPPC   C2B   22  15.915   2.431  17.047
    2DPPC   C3B   23  15.615   2.351  16.687
    2DPPC   C4B   24  15.295   2.321  16.277
    3DPPC   NC3   25  17.515   4.679  17.187
    3DPPC   PO4   26  17.265   4.439  17.037
    3DPPC   GL1   27  16.995   4.619  16.807
    3DPPC   GL2   28  17.125   4.859  16.667
    3DPPC   C1A   29  16.805   4.469  16.547
    3DPPC   C2A   30  16.555   4.469  16.227
    3DPPC   C3A   31  16.305   4.439  15.827
    3DPPC   C4A   32  15.955   4.509  15.497
    3DPPC   C1B   33  16.805   5.019  16.557
    3DPPC   C2B   34  16.525   5.229  16.317
    3DPPC   C3B   35  16.145   5.219  15.897
    3DPPC   C4B   36  15.755   5.209  15.587
    4DPPC   NC3   37   7.405   5.629  21.347
    4DPPC   PO4   38   7.115   5.359  21.467
    4DPPC   GL1   39   6.855   5.199  21.117
    4DPPC   GL2   40   6.645   5.359  21.077
    4DPPC   C1A   41   6.995   5.029  20.847
    4DPPC   C2A   42   7.175   4.779  20.597
    4DPPC   C3A   43   7.525   4.679  20.327
    4DPPC   C4A   44   7.745   4.739  19.917
    4DPPC   C1B   45   6.625   5.299  20.697
    4DPPC   C2B   46   6.885   5.179  20.427
    4DPPC   C3B   47   7.245   5.109  20.157
    4DPPC   C4B   48   7.475   5.189  19.757
    5DPPC   NC3   49  16.805   6.139  17.787
    5DPPC   PO4   50  16.925   6.279  17.447
    5DPPC   GL1   51  16.835   6.299  17.037
    5DPPC   GL2   52  16.735   6.549  17.137
    5DPPC   C1A   53  16.705   6.049  16.837
    5DPPC   C2A   54  16.495   6.009  16.507
    5DPPC   C3A   55  16.125   6.099  16.217
    5DPPC   C4A   56  15.765   6.049  15.827
    5DPPC   C1B   57  16.455   0.011  16.947
    5DPPC   C2B   58  16.085   6.519  16.737
    5DPPC   C3B   59  15.835   6.519  16.307
    5DPPC   C4B   60  15.505   6.579  15.877
    6DPPC   NC3   61  15.045   4.039  20.207
    6DPPC   PO4   62  14.795   4.319  20.357
    6DPPC   GL1   63  14.375   4.409  20.197
    6DPPC   GL2   64  14.275   4.179  20.107
    6DPPC   C1A   65  14.125   4.619  20.047
    6DPPC   C2A   66  13.825   4.769  19.747
    6DPPC   C3A   67  13.555   4.829  19.367
    6DPPC   C4A   68  13.215   4.869  18.957
    6DPPC   C1B   69  14.175   4.309  19.737
    6DPPC   C2B   70  13.975   4.409  19.427
    6DPPC   C3B   71  13.685   4.459  19.087
    6DPPC   C4B   72  13.295   4.389  18.707
    7DPPC   NC3   73  16.635   4.399  17.637
    7DPPC   PO4   74  16.775   4.359  17.267
    7DPPC   GL1   75  16.595   4.339  16.897
    7DPPC   GL2   76  16.535   4.659  16.937
    7DPPC   C1A   77  16.375   4.229  16.637
    7DPPC   C2A   78  16.115   4.279  16.337
    7DPPC   C3A   79  15.735   4.289  15.987
    7DPPC   C4A   80  15.405   4.309  15.587
    7DPPC   C1B   81  16.445   4.809  16.557
    7DPPC   C2B   82  16.135   4.779  16.267
    7DPPC   C3B   83  15.855   4.819  15.917
    7DPPC   C4B   84  15.535   4.759  15.567
    8DPPC   NC3   85  15.045   1.681  19.877
    8DPPC   PO4   86  14.965   1.281  19.887
    8DPPC   GL1   87  14.695   1.091  19.697
    8DPPC   GL2   88  14.455   1.291  19.757
    8DPPC   C1A   89  14.595   1.121  19.327
    8DPPC   C2A   90  14.525   1.251  18.977
    8DPPC   C3A   91  14.285   1.151  18.627
    8DPPC   C4A   92  14.035   1.071  18.267
    8DPPC   C1B   93  14.305   1.431  19.367
    8DPPC   C2B   94  14.105   1.471  18.987
    8DPPC   C3B   95  13.795   1.431  18.597
    8DPPC   C4B   96  13.495   1.381  18.177
    9DPPC   NC3   97  14.725   3.731  20.947
    9DPPC   PO4   98  14.475   3.521  20.667
    9DPPC   GL1   99  14.015   3.601  20.517
    9DPPC   GL2  100  13.915   3.431  20.687
    9DPPC   C1A  101  13.785   3.761  20.207
    9DPPC   C2A  102  13.495   3.831  19.937
    9DPPC   C3A  103  13.185   3.909  19.487
    9DPPC   C4A  104  12.905   3.891  19.107
    9DPPC   C1B  105  13.655   3.351  20.437
    9DPPC   C2B  106  13.405   3.411  20.117
    9DPPC   C3B  107  13.165   3.441  19.727
    9DPPC   C4B  108  12.865   3.361  19.307
   10DPPC   NC3  109  14.715   3.271  20.317
   10DPPC   PO4  110  14.895   3.631  20.327
   10DPPC   GL1  111  14.515   3.741  20.067
   10DPPC   GL2  112  14.565   3.491  19.897
   10DPPC   C1A  113  14.185   3.811  19.967
   10DPPC   C2A  114  13.915   3.891  19.697
   10DPPC   C3A  115  13.695   3.969  19.307
   10DPPC   C4A  116  13.365   3.949  18.897
   10DPPC   C1B  117  14.335   3.541  19.637
   10DPPC   C2B  118  14.035   3.571  19.337
   10DPPC   C3B  119  13.735   3.621  18.917
   10DPPC   C4B  120  13.475   3.621  18.497
   11DPPC   NC3  121  15.785   2.021  19.007
   11DPPC   PO4  122  15.675   2.391  18.897
   11DPPC   GL1  123  15.265   2.381  18.877
   11DPPC   GL2  124  15.105   2.551  18.997
   11DPPC   C1A  125  15.085   2.311  18.597
   11DPPC   C2A  126  14.975   2.121  18.257
   11DPPC   C3A  127  14.705   2.081  17.887
   11DPPC   C4A  128  14.405   2.051  17.497
   11DPPC   C1B  129  14.875   2.661  18.727
   11DPPC   C2B  130  14.625   2.551  18.397
   11DPPC   C3B  131  14.295   2.511  17.957
   11DPPC   C4B  132  14.025   2.511  17.557
   12DPPC   NC3  133  17.115   2.201  17.547
   12DPPC   PO4  134  17.225   1.881  17.407
   12DPPC   GL1  135  16.785   1.991  17.317
   12DPPC   GL2  136  16.775   1.681  17.227
   12DPPC   C1A  137  16.625   2.041  16.947
   12DPPC   C2A  138  16.485   2.161  16.557
   12DPPC   C3A  139  16.205   2.201  16.217
   12DPPC   C4A  140  15.895   2.201  15.837
   12DPPC   C1B  141  16.425   1.581  17.197
   12DPPC   C2B  142  16.015   1.651  17.027
   12DPPC   C3B  143  15.775   1.601  16.577
   12DPPC   C4B  144  15.425   1.561  16.237
   13DPPC   NC3  145  16.595   5.349  17.647
   13DPPC   PO4  146  16.555   5.699  17.857
   13DPPC   GL1  147  16.215   5.959  17.697
   13DPPC   GL2  148  16.245   6.209  17.747
   13DPPC   C1A  149  15.945   5.929  17.427
   13DPPC   C2A  150  15.625   5.959  17.157
   13DPPC   C3A  151  15.325   5.939  16.787
   13DPPC   C4A  152  14.965   5.949  16.427
   13DPPC   C1B  153  15.955   6.319  17.587
   13DPPC   C2B  154  15.555   6.389  17.447
   13DPPC   C3B  155  15.295   6.339  17.117
   13DPPC   C4B  156  14.895   6.289  16.737
   14DPPC   NC3  157  15.585   4.939  18.907
   14DPPC   PO4  158  15.465   4.549  18.937
   14DPPC   GL1  159  15.295   4.259  18.777
   14DPPC   GL2  160  15.515   4.289  18.607
   14DPPC   C1A  161  15.005   4.139  18.577
   14DPPC   C2A  162  14.735   4.309  18.297
   14DPPC   C3A  163  14.395   4.299  17.927
   14DPPC   C4A  164  14.075   4.209  17.567
   14DPPC   C1B  165  15.385   4.539  18.387
   14DPPC   C2B  166  15.165   4.459  18.017
   14DPPC   C3B  167  14.855   4.439  17.677
   14DPPC   C4B  168  14.475   4.339  17.337
   15DPPC   NC3  169  13.835   1.641  21.637
   15DPPC   PO4  170  13.775   1.681  21.217
   15DPPC   GL1  171  13.675   1.571  20.857
   15DPPC   GL2  172  13.995   1.451  20.757
   15DPPC   C1A  173  13.425   1.801  20.717
   15DPPC   C2A  174  13.215   2.011  20.487
   15DPPC   C3A  175  12.865   2.021  20.127
   15DPPC   C4A  176  12.605   2.041  19.707
   15DPPC   C1B  177  13.795   1.301  20.527
   15DPPC   C2B  178  13.655   1.271  20.137
   15DPPC   C3B  179  13.435   1.321  19.727
   15DPPC   C4B  180  13.165   1.311  19.347
   16DPPC   NC3  181  15.825   4.439  18.317
   16DPPC   PO4  182  16.215   4.449  18.177
   16DPPC   GL1  183  16.035   4.429  17.767
   16DPPC   GL2  184  15.765   4.419  17.827
   16DPPC   C1A  185  16.185   4.359  17.477
   16DPPC   C2A  186  16.175   4.249  17.087
   16DPPC   C3A  187  15.805   4.179  16.777
   16DPPC   C4A  188  15.495   4.189  16.397
   16DPPC   C1B  189  15.455   4.529  17.637
   16DPPC   C2B  190  15.185   4.529  17.327
   16DPPC   C3B  191  14.845   4.469  16.947
   16DPPC   C4B  192  14.575   4.399  16.527
   17DPPC   NC3  193  16.655   2.641  17.807
   17DPPC   PO4  194  16.635   2.311  17.607
   17DPPC   GL1  195  16.455   2.301  17.267
   17DPPC   GL2  196  16.575   2.451  17.087
   17DPPC   C1A  197  16.175   2.081  17.037
   17DPPC   C2A  198  16.005   2.091  16.657
   17DPPC   C3A  199  15.715   1.961  16.247
   17DPPC   C4A  200  15.425   1.951  15.897
   17DPPC   C1B  201  16.415   2.561  16.817
   17DPPC   C2B  202  16.135   2.561  16.537
   17DPPC   C3B  203  15.745   2.531  16.247
   17DPPC   C4B  204  15.535   2.501  15.867
   18DPPC   NC3  205  15.555   2.781  19.117
   18DPPC   PO4  206  15.705   3.031  18.867
   18DPPC   GL1  207  15.455   2.981  18.517
   18DPPC   GL2  208  15.385   2.681  18.587
   18DPPC   C1A  209  15.345   3.031  18.147
   18DPPC   C2A  210  15.035   3.091  17.867
   18DPPC   C3A  211  14.755   3.091  17.497
   18DPPC   C4A  212  14.435   3.091  17.097
   18DPPC   C1B  213  15.195   2.581  18.257
   18DPPC   C2B  214  14.885   2.571  17.987
   18DPPC   C3B  215  14.605   2.581  17.537
   18DPPC   C4B  216  14.345   2.611  17.137
   19DPPC   NC3  217  14.625   1.451  20.257
   19DPPC   PO4  218  14.695   1.061  20.197
   19DPPC   GL1  219  14.475   0.861  19.997
   19DPPC   GL2  220  14.225   0.821  20.207
   19DPPC   C1A  221  14.245   0.911  19.657
   19DPPC   C2A  222  14.095   1.021  19.317
   19DPPC   C3A  223  13.795   1.001  18.897
   19DPPC   C4A  224  13.555   0.981  18.467
   19DPPC   C1B  225  13.935   0.881  19.967
   19DPPC   C2B  226  13.755   0.861  19.617
   19DPPC   C3B  227  13.445   0.921  19.267
   19DPPC   C4B  228  13.145   0.891  18.867
   20DPPC   NC3  229  16.185   4.949  18.937
   20DPPC   PO4  230  15.955   5.299  18.977
   20DPPC   GL1  231  15.615   5.329  18.667
   20DPPC   GL2  232  15.435   5.539  18.777
   20DPPC   C1A  233  15.325   5.159  18.567
   20DPPC   C2A  234  15.075   4.909  18.377
   20DPPC   C3A  235  14.695   4.799  18.097
   20DPPC   C4A  236  14.405   4.719  17.647
   20DPPC   C1B  237  15.185   5.559  18.467
   20DPPC   C2B  238  14.785   5.649  18.307
   20DPPC   C3B  239  14.515   5.669  17.927
   20DPPC   C4B  240  14.165   5.579  17.617
   21DPPC   NC3  241   5.895   4.369  21.027
   21DPPC   PO4  242   5.905   4.729  20.907
   21DPPC   GL1  243   5.985   4.989  20.537
   21DPPC   GL2  244   6.265   4.939  20.597
   21DPPC   C1A  245   6.025   4.879  20.207
   21DPPC   C2A  246   6.365   4.799  19.977
   21DPPC   C3A  247   6.685   4.689  19.647
   21DPPC   C4A  248   7.005   4.669  19.287
   21DPPC   C1B  249   6.565   4.849  20.387
   21DPPC   C2B  250   6.885   4.709  20.147
   21DPPC   C3B  251   7.285   4.659  19.847
   21DPPC   C4B  252   7.475   4.829  19.417
   22DPPC   NC3  253  15.125   4.439  19.377
   22DPPC   PO4  254  15.045   4.109  19.577
   22DPPC   GL1  255  14.785   3.821  19.567
   22DPPC   GL2  256  14.485   3.949  19.587
   22DPPC   C1A  257  14.695   3.651  19.267
   22DPPC   C2A  258  14.395   3.771  19.017
   22DPPC   C3A  259  14.155   3.771  18.657
   22DPPC   C4A  260  13.905   3.801  18.247
   22DPPC   C1B  261  14.255   4.079  19.297
   22DPPC   C2B  262  14.015   4.139  18.947
   22DPPC   C3B  263  13.705   4.109  18.557
   22DPPC   C4B  264  13.445   4.109  18.127
   23DPPC   NC3  265  16.515   5.869  18.707
   23DPPC   PO4  266  16.125   5.729  18.767
   23DPPC   GL1  267  15.825   5.889  18.597
   23DPPC   GL2  268  15.645   6.089  18.677
   23DPPC   C1A  269  15.605   5.729  18.347
   23DPPC   C2A  270  15.305   5.729  18.087
   23DPPC   C3A  271  14.965   5.759  17.747
   23DPPC   C4A  272  14.635   5.659  17.417
   23DPPC   C1B  273  15.505   6.179  18.357
   23DPPC   C2B  274  15.355   6.239  17.987
   23DPPC   C3B  275  15.035   6.219  17.537
   23DPPC   C4B  276  14.785   6.169  17.187
   24DPPC   NC3  277  15.035   0.791  19.847
   24DPPC   PO4  278  14.765   0.561  19.927
   24DPPC   GL1  279  14.605   0.391  19.637
   24DPPC   GL2  280  14.545   0.161  19.597
   24DPPC   C1A  281  14.475   0.601  19.387
   24DPPC   C2A  282  14.385   0.731  18.997
   24DPPC   C3A  283  14.095   0.611  18.667
   24DPPC   C4A  284  13.765   0.561  18.297
   24DPPC   C1B  285  14.335   0.171  19.267
   24DPPC   C2B  286  14.045   0.171  18.897
   24DPPC   C3B  287  13.735   0.121  18.557
   24DPPC   C4B  288  13.405   0.151  18.177
   25DPPC   NC3  289  14.085   2.651  21.317
   25DPPC   PO4  290  14.215   2.441  21.007
   25DPPC   GL1  291  13.875   2.311  20.757
   25DPPC   GL2  292  13.795   2.561  20.667
   25DPPC   C1A  293  13.825   2.171  20.457
   25DPPC   C2A  294  13.565   2.171  20.177
   25DPPC   C3A  295  13.205   2.161  19.827
   25DPPC   C4A  296  12.965   2.141  19.407
   25DPPC   C1B  297  13.775   2.571  20.317
   25DPPC   C2B  298  13.575   2.581  19.977
   25DPPC   C3B  299  13.275   2.591  19.537
   25DPPC   C4B  300  12.995   2.551  19.097
   26DPPC   NC3  301  13.025   3.621  21.957
   26DPPC   PO4  302  13.405   3.541  21.927
   26DPPC   GL1  303  13.325   3.381  21.657
   26DPPC   GL2  304  13.435   3.171  21.497
   26DPPC   C1A  305  13.055   3.431  21.437
   26DPPC   C2A  306  12.775   3.701  21.277
   26DPPC   C3A  307  12.525   3.881  21.007
   26DPPC   C4A  308  12.115   4.229  20.787
   26DPPC   C1B  309  13.265   3.201  21.117
   26DPPC   C2B  310  13.175   3.231  20.707
   26DPPC   C3B  311  12.925   3.231  20.377
   26DPPC   C4B  312  12.735   3.291  19.967
   27DPPC   NC3  313  17.405   0.881  17.647
   27DPPC   PO4  314  17.045   0.921  17.767
   27DPPC   GL1  315  16.795   0.971  17.537
   27DPPC   GL2  316  16.625   0.761  17.667
   27DPPC   C1A  317  16.635   1.181  17.297
   27DPPC   C2A  318  16.465   1.261  16.897
   27DPPC   C3A  319  16.105   1.231  16.607
   27DPPC   C4A  320  15.835   1.241  16.197
   27DPPC   C1B  321  16.405   0.771  17.397
   27DPPC   C2B  322  16.265   0.821  17.017
   27DPPC   C3B  323  16.035   0.711  16.667
   27DPPC   C4B  324  15.675   0.701  16.307
   28DPPC   NC3  325  17.995   2.801  16.697
   28DPPC   PO4  326  17.755   2.601  16.437
   28DPPC   GL1  327  17.505   2.641  16.167
   28DPPC   GL2  328  17.615   2.801  15.937
   28DPPC   C1A  329  17.375   2.431  15.887
   28DPPC   C2A  330  17.075   2.361  15.567
   28DPPC   C3A  331  16.675   2.301  15.227
   28DPPC   C4A  332  16.355   2.311  14.867
   28DPPC   C1B  333  17.345   2.891  15.667
   28DPPC   C2B  334  17.085   2.791  15.397
   28DPPC   C3B  335  16.725   2.791  15.027
   28DPPC   C4B  336  16.365   2.761  14.647
   29DPPC   NC3  337  16.365   0.491  18.527
   29DPPC   PO4  338  16.235   0.841  18.367
   29DPPC   GL1  339  15.825   0.751  18.297
   29DPPC   GL2  340  15.855   0.501  18.157
   29DPPC   C1A  341  15.595   0.941  18.097
   29DPPC   C2A  342  15.325   0.911  17.817
   29DPPC   C3A  343  15.025   0.891  17.507
   29DPPC   C4A  344  14.715   0.951  17.107
   29DPPC   C1B  345  15.645   0.521  17.827
   29DPPC   C2B  346  15.465   0.511  17.457
   29DPPC   C3B  347  15.135   0.481  17.107
   29DPPC   C4B  348  14.785   0.491  16.787
   30DPPC   NC3  349  14.785   1.941  20.567
   30DPPC   PO4  350  14.855   1.991  20.177
   30DPPC   GL1  351  14.455   1.911  20.057
   30DPPC   GL2  352  14.495   1.701  19.837
   30DPPC   C1A  353  14.075   1.901  20.037
   30DPPC   C2A  354  13.745   1.811  19.827
   30DPPC   C3A  355  13.405   1.811  19.447
   30DPPC   C4A  356  13.135   1.781  19.077
   30DPPC   C1B  357  14.295   1.851  19.597
   30DPPC   C2B  358  13.895   1.871  19.377
   30DPPC   C3B  359  13.625   1.821  19.007
   30DPPC   C4B  360  13.385   1.711  18.607
   31DPPC   NC3  361  14.635   5.019  19.657
   31DPPC   PO4  362  14.885   4.799  19.537
   31DPPC   GL1  363  14.825   4.739  19.197
   31DPPC   GL2  364  15.075   4.829  19.087
   31DPPC   C1A  365  14.505   4.799  19.077
   31DPPC   C2A  366  14.205   4.619  18.947
   31DPPC   C3A  367  13.845   4.639  18.627
   31DPPC   C4A  368  13.445   4.649  18.197
   31DPPC   C1B  369  14.995   5.019  18.817
   31DPPC   C2B  370  14.715   5.209  18.547
   31DPPC   C3B  371  14.385   5.149  18.207
   31DPPC   C4B  372  14.075   5.109  17.807
   32DPPC   NC3  373  15.835   3.491  18.777
   32DPPC   PO4  374  15.865   3.841  18.587
   32DPPC   GL1  375  15.385   3.851  18.537
   32DPPC   GL2  376  15.565   4.029  18.267
   32DPPC   C1A  377  15.155   3.831  18.257
   32DPPC   C2A  378  14.875   3.929  17.947
   32DPPC   C3A  379  14.535   3.919  17.627
   32DPPC   C4A  380  14.195   3.851  17.257
   32DPPC   C1B  381  15.455   4.019  17.887
   32DPPC   C2B  382  15.205   4.039  17.557
   32DPPC   C3B  383  14.875   3.969  17.267
   32DPPC   C4B  384  14.555   4.049  16.937
   33DPPC   NC3  385  15.865   4.299  18.827
   33DPPC   PO4  386  15.595   4.049  19.067
   33DPPC   GL1  387  15.205   4.039  19.147
   33DPPC   GL2  388  15.185   3.821  18.907
   33DPPC   C1A  389  14.955   4.249  18.997
   33DPPC   C2A  390  14.855   4.539  18.777
   33DPPC   C3A  391  14.465   4.719  18.557
   33DPPC   C4A  392  14.155   4.719  18.177
   33DPPC   C1B  393  14.825   3.811  18.887
   33DPPC   C2B  394  14.675   3.761  18.507
   33DPPC   C3B  395  14.405   3.791  18.097
   33DPPC   C4B  396  14.025   3.741  17.737
   34DPPC   NC3  397  15.205   3.611  19.367
   34DPPC   PO4  398  15.515   3.531  19.137
   34DPPC   GL1  399  15.265   3.241  18.947
   34DPPC   GL2  400  15.285   3.441  18.737
   34DPPC   C1A  401  15.085   3.021  18.727
   34DPPC   C2A  402  14.915   2.991  18.357
   34DPPC   C3A  403  14.575   3.031  17.967
   34DPPC   C4A  404  14.255   3.001  17.627
   34DPPC   C1B  405  15.065   3.471  18.467
   34DPPC   C2B  406  14.775   3.461  18.157
   34DPPC   C3B  407  14.435   3.461  17.717
   34DPPC   C4B  408  14.155   3.401  17.347
   35DPPC   NC3  409  16.925   0.501  17.957
   35DPPC   PO4  410  16.725   0.291  18.217
   35DPPC   GL1  411  16.415   0.311  18.037
   35DPPC   GL2  412  16.435   0.641  18.017
   35DPPC   C1A  413  16.165   0.241  17.767
   35DPPC   C2A  414  15.875   0.171  17.477
   35DPPC   C3A  415  15.565   0.161  17.137
   35DPPC   C4A  416  15.205   0.151  16.737
   35DPPC   C1B  417  16.195   0.701  17.747
   35DPPC   C2B  418  15.885   0.681  17.447
   35DPPC   C3B  419  15.635   0.651  17.007
   35DPPC   C4B  420  15.305   0.621  16.617
   36DPPC   NC3  421  17.845   2.111  16.257
   36DPPC   PO4  422  17.725   1.731  16.297
   36DPPC   GL1  423  17.355   1.521  16.117
   36DPPC   GL2  424  17.485   1.491  15.907
   36DPPC   C1A  425  16.985   1.521  16.097
   36DPPC   C2A  426  16.735   1.431  15.767
   36DPPC   C3A  427  16.415   1.401  15.417
   36DPPC   C4A  428  16.185   1.391  14.977
   36DPPC   C1B  429  17.275   1.531  15.637
   36DPPC   C2B  430  16.995   1.491  15.367
   36DPPC   C3B  431  16.705   1.481  14.997
   36DPPC   C4B  432  16.455   1.421  14.567
   37DPPC   NC3  433  16.975   4.889  17.157
   37DPPC   PO4  434  16.935   5.299  17.277
   37DPPC   GL1  435  16.585   5.469  17.217
   37DPPC   GL2  436  16.705   5.669  16.957
   37DPPC   C1A  437  16.285   5.299  17.277
   37DPPC   C2A  438  15.985   5.079  17.127
   37DPPC   C3A  439  15.615   5.019  16.867
   37DPPC   C4A  440  15.295   5.089  16.527
   37DPPC   C1B  441  16.495   5.519  16.687
   37DPPC   C2B  442  16.145   5.559  16.417
   37DPPC   C3B  443  15.825   5.549  16.067
   37DPPC   C4B  444  15.475   5.599  15.707
   38DPPC   NC3  445  17.125   3.989  17.317
   38DPPC   PO4  446  16.915   3.651  17.257
   38DPPC   GL1  447  16.475   3.521  17.197
   38DPPC   GL2  448  16.645   3.231  17.247
   38DPPC   C1A  449  16.255   3.431  16.957
   38DPPC   C2A  450  15.985   3.401  16.707
   38DPPC   C3A  451  15.615   3.321  16.367
   38DPPC   C4A  452  15.265   3.271  15.987
   38DPPC   C1B  453  16.485   3.111  16.897
   38DPPC   C2B  454  16.315   3.011  16.557
   38DPPC   C3B  455  16.005   3.041  16.257
   38DPPC   C4B  456  15.725   3.011  15.887
   39DPPC   NC3  457  15.115   2.971  19.867
   39DPPC   PO4  458  15.015   3.321  19.797
   39DPPC   GL1  459  14.875   3.331  19.517
   39DPPC   GL2  460  14.635   3.191  19.527
   39DPPC   C1A  461  14.895   3.301  19.167
   39DPPC   C2A  462  14.715   3.361  18.827
   39DPPC   C3A  463  14.415   3.331  18.437
   39DPPC   C4A  464  14.075   3.351  18.007
   39DPPC   C1B  465  14.395   3.281  19.247
   39DPPC   C2B  466  14.195   3.291  18.897
   39DPPC   C3B  467  13.935   3.301  18.547
   39DPPC   C4B  468  13.625   3.281  18.147
   40DPPC   NC3  469  14.715   0.691  20.557
   40DPPC   PO4  470  14.315   0.631  20.617
   40DPPC   GL1  471  13.955   0.461  20.477
   40DPPC   GL2  472  14.135   0.221  20.647
   40DPPC   C1A  473  13.905   0.331  20.117
   40DPPC   C2A  474  13.635   0.411  19.757
   40DPPC   C3A  475  13.335   0.371  19.367
   40DPPC   C4A  476  13.065   0.371  19.037
   40DPPC   C1B  477  13.945   0.031  20.417
   40DPPC   C2B  478  13.715   6.509  20.147
   40DPPC   C3B  479  13.395   6.589  19.817
   40DPPC   C4B  480  13.035   6.569  19.397
   41DPPC   NC3  481  14.705   5.829  21.167
   41DPPC   PO4  482  14.455   5.539  21.157
   41DPPC   GL1  483  14.305   5.519  20.817
   41DPPC   GL2  484  14.305   5.309  20.727
   41DPPC   C1A  485  13.945   5.509  20.757
   41DPPC   C2A  486  13.635   5.569  20.507
   41DPPC   C3A  487  13.375   5.559  20.197
   41DPPC   C4A  488  13.095   5.589  19.757
   41DPPC   C1B  489  14.055   5.219  20.457
   41DPPC   C2B  490  13.815   5.189  20.157
   41DPPC   C3B  491  13.525   5.179  19.717
   41DPPC   C4B  492  13.155   5.109  19.387
   42DPPC   NC3  493  14.095   5.929  21.307
   42DPPC   PO4  494  14.205   6.039  20.957
   42DPPC   GL1  495  13.935   6.239  20.717
   42DPPC   GL2  496  13.995   6.109  20.427
   42DPPC   C1A  497  13.565   6.359  20.637
   42DPPC   C2A  498  13.275   6.469  20.417
   42DPPC   C3A  499  12.965   6.419  20.067
   42DPPC   C4A  500  12.685   6.419  19.707
   42DPPC   C1B  501  13.715   5.999  20.347
   42DPPC   C2B  502  13.425   6.069  20.027
   42DPPC   C3B  503  13.105   6.119  19.657
   42DPPC   C4B  504  12.725   6.159  19.277
   43DPPC   NC3  505  14.265   2.551  20.537
   43DPPC   PO4  506  14.485   2.871  20.497
   43DPPC   GL1  507  14.205   3.161  20.477
   43DPPC   GL2  508  13.945   2.931  20.477
   43DPPC   C1A  509  14.135   3.361  20.197
   43DPPC   C2A  510  13.935   3.441  19.887
   43DPPC   C3A  511  13.605   3.441  19.517
   43DPPC   C4A  512  13.295   3.551  19.157
   43DPPC   C1B  513  13.795   3.011  20.137
   43DPPC   C2B  514  13.615   3.011  19.767
   43DPPC   C3B  515  13.295   3.051  19.367
   43DPPC   C4B  516  13.055   2.981  18.987
   44DPPC   NC3  517  17.465   3.491  16.737
   44DPPC   PO4  518  17.645   3.651  16.467
   44DPPC   GL1  519  17.505   3.521  16.187
   44DPPC   GL2  520  17.235   3.441  16.287
   44DPPC   C1A  521  17.345   3.751  15.947
   44DPPC   C2A  522  17.095   3.731  15.647
   44DPPC   C3A  523  16.725   3.681  15.337
   44DPPC   C4A  524  16.375   3.581  15.027
   44DPPC   C1B  525  16.955   3.581  16.097
   44DPPC   C2B  526  16.675   3.571  15.827
   44DPPC   C3B  527  16.275   3.561  15.567
   44DPPC   C4B  528  15.905   3.621  15.247
   45DPPC   NC3  529  16.715   3.451  17.707
   45DPPC   PO4  530  16.625   3.091  17.787
   45DPPC   GL1  531  16.365   2.821  17.567
   45DPPC   GL2  532  16.065   2.911  17.637
   45DPPC   C1A  533  16.305   2.861  17.207
   45DPPC   C2A  534  15.985   2.931  16.937
   45DPPC   C3A  535  15.685   2.831  16.627
   45DPPC   C4A  536  15.405   2.881  16.267
   45DPPC   C1B  537  15.745   2.841  17.387
   45DPPC   C2B  538  15.485   2.791  17.067
   45DPPC   C3B  539  15.215   2.671  16.677
   45DPPC   C4B  540  14.815   2.701  16.297
   46DPPC   NC3  541  17.125   0.131  17.367
   46DPPC   PO4  542  16.955   0.511  17.407
   46DPPC   GL1  543  16.735   0.611  17.127
   46DPPC   GL2  544  16.645   0.311  17.067
   46DPPC   C1A  545  16.765   0.871  16.897
   46DPPC   C2A  546  16.575   0.881  16.547
   46DPPC   C3A  547  16.245   0.771  16.217
   46DPPC   C4A  548  15.915   0.891  15.867
   46DPPC   C1B  549  16.385   0.381  16.757
   46DPPC   C2B  550  16.155   0.321  16.387
   46DPPC   C3B  551  15.965   0.371  15.967
   46DPPC   C4B  552  15.605   0.351  15.557
   47DPPC   NC3  553  16.915   5.069  18.017
   47DPPC   PO4  554  16.875   4.919  17.667
   47DPPC   GL1  555  16.555   4.969  17.257
   47DPPC   GL2  556  16.435   4.739  17.367
   47DPPC   C1A  557  16.485   5.109  16.917
   47DPPC   C2A  558  16.155   5.159  16.667
   47DPPC   C3A  559  15.835   5.149  16.357
   47DPPC   C4A  560  15.465   5.139  16.007
   47DPPC   C1B  561  16.135   4.689  17.127
   47DPPC   C2B  562  16.005   4.649  16.727
   47DPPC   C3B  563  15.635   4.659  16.357
   47DPPC   C4B  564  15.305   4.619  16.027
   48DPPC   NC3  565  15.605   0.461  19.087
   48DPPC   PO4  566  15.345   0.181  19.187
   48DPPC   GL1  567  15.085   6.549  18.987
   48DPPC   GL2  568  15.075   6.329  19.137
   48DPPC   C1A  569  14.855   6.489  18.747
   48DPPC   C2A  570  14.725   6.509  18.397
   48DPPC   C3A  571  14.385   6.469  18.057
   48DPPC   C4A  572  14.075   6.469  17.677
   48DPPC   C1B  573  14.875   6.109  18.957
   48DPPC   C2B  574  14.635   6.019  18.637
   48DPPC   C3B  575  14.385   6.019  18.267
   48DPPC   C4B  576  14.035   5.979  17.877
   49DPPC   NC3  577  13.765   0.071  21.867
   49DPPC   PO4  578  13.915   0.311  21.617
   49DPPC   GL1  579  13.675   0.361  21.227
   49DPPC   GL2  580  13.845   0.141  21.247
   49DPPC   C1A  581  13.305   0.261  21.067
   49DPPC   C2A  582  13.115   0.181  20.727
   49DPPC   C3A  583  12.765   0.171  20.387
   49DPPC   C4A  584  12.515   0.171  20.007
   49DPPC   C1B  585  13.755   0.061  20.887
   49DPPC   C2B  586  13.565   0.211  20.547
   49DPPC   C3B  587  13.235   0.281  20.197
   49DPPC   C4B  588  12.965   0.291  19.797
   50DPPC   NC3  589  17.425   5.579  16.427
   50DPPC   PO4  590  17.435   5.199  16.477
   50DPPC   GL1  591  17.155   5.089  16.227
   50DPPC   GL2  592  17.275   4.959  16.017
   50DPPC   C1A  593  16.835   4.939  16.137
   50DPPC   C2A  594  16.505   4.889  15.877
   50DPPC   C3A  595  16.195   4.899  15.467
   50DPPC   C4A  596  15.875   4.859  15.097
   50DPPC   C1B  597  17.045   5.039  15.737
   50DPPC   C2B  598  16.745   4.959  15.467
   50DPPC   C3B  599  16.425   5.029  15.067
   50DPPC   C4B  600  16.145   4.909  14.707
   51DPPC   NC3  601  16.825   0.931  18.237
   51DPPC   PO4  602  16.545   1.101  18.017
   51DPPC   GL1  603  16.145   1.061  17.927
   51DPPC   GL2  604  16.325   1.121  17.687
   51DPPC   C1A  605  15.825   1.081  17.727
   51DPPC   C2A  606  15.585   1.081  17.407
   51DPPC   C3A  607  15.255   0.951  17.017
   51DPPC   C4A  608  14.955   0.931  16.627
   51DPPC   C1B  609  16.115   1.151  17.387
   51DPPC   C2B  610  15.915   1.131  17.067
   51DPPC   C3B  611  15.615   1.061  16.657
   51DPPC   C4B  612  15.295   1.071  16.297
   52DPPC   NC3  613  16.665   4.169  18.247
   52DPPC   PO4  614  16.345   4.009  18.427
   52DPPC   GL1  615  16.035   3.701  18.157
   52DPPC   GL2  616  15.955   4.009  18.147
   52DPPC   C1A  617  15.665   3.661  18.017
   52DPPC   C2A  618  15.305   3.511  17.947
   52DPPC   C3A  619  14.925   3.511  17.597
   52DPPC   C4A  620  14.615   3.581  17.247
   52DPPC   C1B  621  15.905   3.999  17.787
   52DPPC   C2B  622  15.785   4.159  17.427
   52DPPC   C3B  623  15.415   4.109  17.107
   52DPPC   C4B  624  15.085   4.089  16.747
   53DPPC   NC3  625  14.955   2.401  19.937
   53DPPC   PO4  626  14.605   2.451  20.147
   53DPPC   GL1  627  14.175   2.421  20.107
   53DPPC   GL2  628  14.145   2.771  20.027
   53DPPC   C1A  629  13.955   2.271  19.877
   53DPPC   C2A  630  13.665   2.271  19.607
   53DPPC   C3A  631  13.375   2.191  19.177
   53DPPC   C4A  632  13.045   2.171  18.767
   53DPPC   C1B  633  13.955   2.711  19.717
   53DPPC   C2B  634  13.755   2.721  19.357
   53DPPC   C3B  635  13.455   2.721  18.957
   53DPPC   C4B  636  13.115   2.701  18.587
   54DPPC   NC3  637  16.105   2.591  18.717
   54DPPC   PO4  638  15.845   2.521  18.457
   54DPPC   GL1  639  15.715   2.801  18.177
   54DPPC   GL2  640  15.535   2.571  18.027
   54DPPC   C1A  641  15.765   3.011  17.957
   54DPPC   C2A  642  15.555   3.201  17.677
   54DPPC   C3A  643  15.225   3.171  17.317
   54DPPC   C4A  644  14.895   3.181  16.957
   54DPPC   C1B  645  15.415   2.771  17.807
   54DPPC   C2B  646  15.185   2.751  17.537
   54DPPC   C3B  647  14.945   2.751  17.127
   54DPPC   C4B  648  14.715   2.701  16.777
   55DPPC   NC3  649  16.125   1.301  18.307
   55DPPC   PO4  650  16.165   1.591  18.047
   55DPPC   GL1  651  15.775   1.701  18.087
   55DPPC   GL2  652  15.645   1.451  18.117
   55DPPC   C1A  653  15.615   1.891  17.787
   55DPPC   C2A  654  15.355   1.941  17.437
   55DPPC   C3A  655  15.095   1.921  17.047
   55DPPC   C4A  656  14.745   1.851  16.717
   55DPPC   C1B  657  15.475   1.361  17.807
   55DPPC   C2B  658  15.255   1.431  17.457
   55DPPC   C3B  659  14.925   1.441  17.097
   55DPPC   C4B  660  14.635   1.351  16.737
   56DPPC   NC3  661  17.075   5.919  17.147
   56DPPC   PO4  662  16.835   5.749  17.427
   56DPPC   GL1  663  16.505   6.009  17.437
   56DPPC   GL2  664  16.505   6.209  17.257
   56DPPC   C1A  665  16.285   5.739  17.267
   56DPPC   C2A  666  16.015   5.599  16.977
   56DPPC   C3A  667  15.695   5.609  16.627
   56DPPC   C4A  668  15.355   5.579  16.327
   56DPPC   C1B  669  16.275   6.109  16.977
   56DPPC   C2B  670  16.015   5.999  16.717
   56DPPC   C3B  671  15.675   6.009  16.347
   56DPPC   C4B  672  15.255   5.929  16.037
   57DPPC   NC3  673  18.575   3.949  15.777
   57DPPC   PO4  674  18.215   3.989  15.967
   57DPPC   GL1  675  17.965   3.861  15.587
   57DPPC   GL2  676  17.745   3.771  15.747
   57DPPC   C1A  677  17.825   4.059  15.347
   57DPPC   C2A  678  17.475   4.229  15.197
   57DPPC   C3A  679  17.095   4.219  14.887
   57DPPC   C4A  680  16.835   4.139  14.527
   57DPPC   C1B  681  17.505   3.741  15.467
   57DPPC   C2B  682  17.215   3.701  15.127
   57DPPC   C3B  683  16.825   3.711  14.847
   57DPPC   C4B  684  16.535   3.671  14.467
   58DPPC   NC3  685  15.385   1.311  19.007
   58DPPC   PO4  686  15.415   1.681  18.987
   58DPPC   GL1  687  15.225   1.951  18.817
   58DPPC   GL2  688  15.495   2.051  18.607
   58DPPC   C1A  689  14.935   1.841  18.577
   58DPPC   C2A  690  14.715   1.691  18.227
   58DPPC   C3A  691  14.435   1.581  17.847
   58DPPC   C4A  692  14.145   1.571  17.447
   58DPPC   C1B  693  15.485   2.161  18.257
   58DPPC   C2B  694  15.265   2.231  17.907
   58DPPC   C3B  695  14.985   2.241  17.537
   58DPPC   C4B  696  14.705   2.221  17.097
   59DPPC   NC3  697  15.505   5.629  19.567
   59DPPC   PO4  698  15.615   5.349  19.327
   59DPPC   GL1  699  15.295   5.289  19.187
   59DPPC   GL2  700  15.065   5.179  19.357
   59DPPC   C1A  701  15.055   5.429  18.967
   59DPPC   C2A  702  14.685   5.619  18.897
   59DPPC   C3A  703  14.345   5.569  18.557
   59DPPC   C4A  704  14.055   5.509  18.167
   59DPPC   C1B  705  14.725   5.209  19.207
   59DPPC   C2B  706  14.395   5.179  18.917
   59DPPC   C3B  707  14.065   5.029  18.547
   59DPPC   C4B  708  13.755   5.079  18.147
   60DPPC   NC3  709  16.955   4.059  16.837
   60DPPC   PO4  710  17.325   3.979  16.857
   60DPPC   GL1  711  17.225   3.851  16.527
   60DPPC   GL2  712  17.295   3.949  16.307
   60DPPC   C1A  713  16.905   3.711  16.467
   60DPPC   C2A  714  16.575   3.871  16.297
   60DPPC   C3A  715  16.195   3.919  15.947
   60DPPC   C4A  716  15.785   3.969  15.637
   60DPPC   C1B  717  17.015   4.049  16.087
   60DPPC   C2B  718  16.715   4.069  15.807
   60DPPC   C3B  719  16.325   4.059  15.487
   60DPPC   C4B  720  16.005   4.079  15.137
   61DPPC   NC3  721  14.485   4.869  20.177
   61DPPC   PO4  722  14.695   4.639  19.977
   61DPPC   GL1  723  14.485   4.609  19.597
   61DPPC   GL2  724  14.615   4.429  19.497
   61DPPC   C1A  725  14.235   4.829  19.417
   61DPPC   C2A  726  13.995   5.029  19.197
   61DPPC   C3A  727  13.675   5.049  18.867
   61DPPC   C4A  728  13.375   4.969  18.507
   61DPPC   C1B  729  14.565   4.379  19.127
   61DPPC   C2B  730  14.495   4.159  18.787
   61DPPC   C3B  731  14.225   4.189  18.417
   61DPPC   C4B  732  13.895   4.289  18.037
   62DPPC   NC3  733  16.555   1.521  17.707
   62DPPC   PO4  734  16.415   1.881  17.597
   62DPPC   GL1  735  16.005   1.921  17.617
   62DPPC   GL2  736  16.005   1.621  17.587
   62DPPC   C1A  737  15.835   1.991  17.337
   62DPPC   C2A  738  15.645   1.931  16.987
   62DPPC   C3A  739  15.355   1.901  16.597
   62DPPC   C4A  740  15.015   1.891  16.227
   62DPPC   C1B  741  15.695   1.531  17.357
   62DPPC   C2B  742  15.545   1.441  16.977
   62DPPC   C3B  743  15.145   1.451  16.677
   62DPPC   C4B  744  14.845   1.351  16.247
   63DPPC   NC3  745  14.235   4.629  21.337
   63DPPC   PO4  746  14.225   4.439  21.027
   63DPPC   GL1  747  13.925   4.229  20.827
   63DPPC   GL2  748  14.085   4.099  20.587
   63DPPC   C1A  749  13.575   4.249  20.577
   63DPPC   C2A  750  13.315   4.269  20.277
   63DPPC   C3A  751  13.035   4.269  19.907
   63DPPC   C4A  752  12.755   4.169  19.547
   63DPPC   C1B  753  13.905   4.299  20.307
   63DPPC   C2B  754  13.755   4.289  19.967
   63DPPC   C3B  755  13.485   4.299  19.597
   63DPPC   C4B  756  13.165   4.359  19.257
   64DPPC   NC3  757  12.815   4.719  22.327
   64DPPC   PO4  758  12.585   4.899  22.067
   64DPPC   GL1  759  12.265   4.829  21.697
   64DPPC   GL2  760  12.095   5.009  21.897
   64DPPC   C1A  761  12.265   4.419  21.667
   64DPPC   C2A  762  12.005   4.119  21.757
   64DPPC   C3A  763  12.025   3.631  21.717
   64DPPC   C4A  764  12.115   3.131  21.687
   64DPPC   C1B  765  11.835   5.169  21.627
   64DPPC   C2B  766  11.545   5.249  21.307
   64DPPC   C3B  767  11.055   5.089  21.297
   64DPPC   C4B  768  10.555   5.279  21.227
   65DPPC   NC3  769  14.775   0.071  19.977
   65DPPC   PO4  770  15.095   0.191  19.747
   65DPPC   GL1  771  14.965   0.521  19.437
   65DPPC   GL2  772  14.875   0.201  19.327
   65DPPC   C1A  773  14.945   0.661  19.087
   65DPPC   C2A  774  14.765   0.641  18.707
   65DPPC   C3A  775  14.445   0.751  18.307
   65DPPC   C4A  776  14.155   0.681  17.937
   65DPPC   C1B  777  14.745   0.251  18.997
   65DPPC   C2B  778  14.515   0.221  18.677
   65DPPC   C3B  779  14.165   0.261  18.307
   65DPPC   C4B  780  13.835   0.271  17.927
   66DPPC   NC3  781  13.465   2.571  21.867
   66DPPC   PO4  782  13.615   2.791  21.567
   66DPPC   GL1  783  13.515   2.751  21.167
   66DPPC   GL2  784  13.725   2.791  20.977
   66DPPC   C1A  785  13.195   2.711  20.997
   66DPPC   C2A  786  12.935   2.781  20.617
   66DPPC   C3A  787  12.635   2.811  20.177
   66DPPC   C4A  788  12.335   2.781  19.717
   66DPPC   C1B  789  13.525   2.881  20.697
   66DPPC   C2B  790  13.385   2.971  20.317
   66DPPC   C3B  791  13.125   2.981  19.977
   66DPPC   C4B  792  12.825   2.971  19.587
   67DPPC   NC3  793  13.765   1.191  21.127
   67DPPC   PO4  794  13.615   1.221  21.467
   67DPPC   GL1  795  13.195   1.361  21.387
   67DPPC   GL2  796  13.355   1.431  21.147
   67DPPC   C1A  797  12.905   1.381  21.217
   67DPPC   C2A  798  12.585   1.471  20.907
   67DPPC   C3A  799  12.315   1.341  20.547
   67DPPC   C4A  800  12.045   1.011  20.317
   67DPPC   C1B  801  13.225   1.451  20.847
   67DPPC   C2B  802  13.025   1.471  20.497
   67DPPC   C3B  803  12.815   1.491  20.137
   67DPPC   C4B  804  12.495   1.491  19.717
   68DPPC   NC3  805  16.015   6.229  18.947
   68DPPC   PO4  806  16.165   6.279  18.627
   68DPPC   GL1  807  15.915   6.279  18.267
   68DPPC   GL2  808  15.975   6.009  18.197
   68DPPC   C1A  809  15.755   6.499  18.077
   68DPPC   C2A  810  15.525   0.111  17.827
   68DPPC   C3A  811  15.145   0.121  17.487
   68DPPC   C4A  812  14.915   0.011  17.077
   68DPPC   C1B  813  15.735   5.919  17.907
   68DPPC   C2B  814  15.465   5.879  17.587
   68DPPC   C3B  815  15.135   5.769  17.267
   68DPPC   C4B  816  14.835   5.729  16.887
   69DPPC   NC3  817  15.425   6.459  19.557
   69DPPC   PO4  818  15.255   6.089  19.497
   69DPPC   GL1  819  14.865   6.319  19.607
   69DPPC   GL2  820  14.725   6.069  19.527
   69DPPC   C1A  821  14.645   6.459  19.367
   69DPPC   C2A  822  14.475   6.439  19.027
   69DPPC   C3A  823  14.205   6.369  18.607
   69DPPC   C4A  824  13.905   6.329  18.237
   69DPPC   C1B  825  14.515   5.969  19.237
   69DPPC   C2B  826  14.245   5.919  18.907
   69DPPC   C3B  827  13.895   5.839  18.537
   69DPPC   C4B  828  13.615   5.929  18.087
   70DPPC   NC3  829  17.125   0.981  16.707
   70DPPC   PO4  830  17.315   0.631  16.627
   70DPPC   GL1  831  17.145   0.551  16.257
   70DPPC   GL2  832  17.265   0.271  16.387
   70DPPC   C1A  833  17.005   0.531  15.917
   70DPPC   C2A  834  16.855   0.451  15.587
   70DPPC   C3A  835  16.545   0.511  15.257
   70DPPC   C4A  836  16.155   0.461  14.887
   70DPPC   C1B  837  16.995   0.081  16.187
   70DPPC   C2B  838  16.755   0.001  15.877
   70DPPC   C3B  839  16.435   0.001  15.557
   70DPPC   C4B  840  16.095   0.041  15.157
   71DPPC   NC3  841  15.705   1.741  19.457
   71DPPC   PO4  842  15.345   1.581  19.547
   71DPPC   GL1  843  14.965   1.641  19.407
   71DPPC   GL2  844  15.015   1.511  19.207
   71DPPC   C1A  845  14.605   1.711  19.307
   71DPPC   C2A  846  14.325   1.921  19.087
   71DPPC   C3A  847  14.005   1.881  18.727
   71DPPC   C4A  848  13.765   1.841  18.307
   71DPPC   C1B  849  14.805   1.601  18.927
   71DPPC   C2B  850  14.465   1.671  18.647
   71DPPC   C3B  851  14.185   1.581  18.287
   71DPPC   C4B  852  13.905   1.591  17.867
   72DPPC   NC3  853  11.685   0.901  22.677
   72DPPC   PO4  854  11.895   0.991  22.377
   72DPPC   GL1  855  11.975   1.201  22.017
   72DPPC   GL2  856  11.795   1.051  21.887
   72DPPC   C1A  857  12.255   1.361  21.827
   72DPPC   C2A  858  12.445   1.471  21.417
   72DPPC   C3A  859  12.535   1.901  21.207
   72DPPC   C4A  860  12.415   2.251  20.957
   72DPPC   C1B  861  11.635   1.151  21.587
   72DPPC   C2B  862  11.555   1.101  21.207
   72DPPC   C3B  863  11.725   0.941  20.777
   72DPPC   C4B  864  11.875   0.531  20.437
   73DPPC   NC3  865  13.785   4.759  21.767
   73DPPC   PO4  866  13.425   4.649  21.917
   73DPPC   GL1  867  13.055   4.709  21.847
   73DPPC   GL2  868  12.875   4.479  21.947
   73DPPC   C1A  869  12.835   4.769  21.527
   73DPPC   C2A  870  12.525   4.999  21.377
   73DPPC   C3A  871  12.175   5.329  21.357
   73DPPC   C4A  872  11.785   5.639  21.187
   73DPPC   C1B  873  12.665   4.379  21.637
   73DPPC   C2B  874  12.495   4.059  21.457
   73DPPC   C3B  875  12.075   3.821  21.297
   73DPPC   C4B  876  11.635   3.551  21.397
   74DPPC   NC3  877  17.155   3.171  17.357
   74DPPC   PO4  878  17.075   3.261  16.967
   74DPPC   GL1  879  16.785   3.431  16.797
   74DPPC   GL2  880  16.695   3.651  16.827
   74DPPC   C1A  881  16.755   3.291  16.517
   74DPPC   C2A  882  16.685   3.141  16.137
   74DPPC   C3A  883  16.295   3.131  15.847
   74DPPC   C4A  884  15.955   3.101  15.467
   74DPPC   C1B  885  16.435   3.551  16.567
   74DPPC   C2B  886  16.265   3.511  16.187
   74DPPC   C3B  887  15.855   3.521  15.927
   74DPPC   C4B  888  15.535   3.371  15.567
   75DPPC   NC3  889  16.915   6.459  18.187
   75DPPC   PO4  890  16.935   6.599  17.827
   75DPPC   GL1  891  16.565   6.559  17.567
   75DPPC   GL2  892  16.545   0.291  17.567
   75DPPC   C1A  893  16.265   6.549  17.337
   75DPPC   C2A  894  15.915   6.379  17.127
   75DPPC   C3A  895  15.585   6.349  16.717
   75DPPC   C4A  896  15.325   6.359  16.317
   75DPPC   C1B  897  16.225   0.391  17.387
   75DPPC   C2B  898  16.055   0.341  17.047
   75DPPC   C3B  899  15.735   0.271  16.657
   75DPPC   C4B  900  15.445   0.261  16.247
   76DPPA   PO4  901  17.585   0.631  16.167
   76DPPA   GL1  902  17.415   1.001  16.077
   76DPPA   GL2  903  17.325   1.111  16.327
   76DPPA   C1A  904  17.185   1.051  15.757
   76DPPA   C2A  905  16.915   0.961  15.527
   76DPPA   C3A  906  16.625   0.971  15.137
   76DPPA   C4A  907  16.315   0.911  14.777
   76DPPA   C1B  908  16.915   1.051  16.237
   76DPPA   C2B  909  16.675   0.891  15.957
   76DPPA   C3B  910  16.385   0.831  15.627
   76DPPA   C4B  911  16.005   0.841  15.257
   77DPPA   PO4  912  15.785   0.911  19.047
   77DPPA   GL1  913  15.445   0.751  18.737
   77DPPA   GL2  914  15.295   0.831  18.957
   77DPPA   C1A  915  15.155   0.781  18.507
   77DPPA   C2A  916  14.975   0.921  18.187
   77DPPA   C3A  917  14.635   0.871  17.827
   77DPPA   C4A  918  14.345   0.821  17.467
   77DPPA   C1B  919  14.975   1.071  18.877
   77DPPA   C2B  920  14.875   1.271  18.507
   77DPPA   C3B  921  14.555   1.231  18.187
   77DPPA   C4B  922  14.255   1.151  17.807
   78DPPA   PO4  923  17.035   2.401  17.127
   78DPPA   GL1  924  17.215   2.121  16.837
   78DPPA   GL2  925  17.055   1.901  16.977
   78DPPA   C1A  926  17.015   2.271  16.557
   78DPPA   C2A  927  16.805   2.261  16.187
   78DPPA   C3A  928  16.585   2.271  15.797
   78DPPA   C4A  929  16.235   2.191  15.427
   78DPPA   C1B  930  16.815   1.721  16.767
   78DPPA   C2B  931  16.405   1.661  16.637
   78DPPA   C3B  932  16.095   1.621  16.237
   78DPPA   C4B  933  15.845   1.651  15.857
   79DPPA   PO4  934  13.785   1.361  14.277
   79DPPA   GL1  935  14.025   1.431  14.517
   79DPPA   GL2  936  14.245   1.531  14.367
   79DPPA   C1A  937  14.245   1.461  14.787
   79DPPA   C2A  938  14.405   1.491  15.097
   79DPPA   C3A  939  14.725   1.501  15.417
   79DPPA   C4A  940  15.075   1.571  15.807
   79DPPA   C1B  941  14.585   1.551  14.517
   79DPPA   C2B  942  14.845   1.511  14.797
   79DPPA   C3B  943  15.195   1.601  15.107
   79DPPA   C4B  944  15.455   1.581  15.517
   80DPPA   PO4  945  15.295   5.609  20.037
   80DPPA   GL1  946  15.085   5.779  19.767
   80DPPA   GL2  947  15.045   5.619  19.537
   80DPPA   C1A  948  14.695   5.869  19.867
   80DPPA   C2A  949  14.305   5.889  19.717
   80DPPA   C3A  950  14.005   5.849  19.357
   80DPPA   C4A  951  13.665   5.809  18.977
   80DPPA   C1B  952  14.715   5.549  19.497
   80DPPA   C2B  953  14.375   5.479  19.277
   80DPPA   C3B  954  14.005   5.479  18.977
   80DPPA   C4B  955  13.675   5.419  18.517
   81DPPA   PO4  956  16.465   3.651  18.047
   81DPPA   GL1  957  16.205   3.601  17.717
   81DPPA   GL2  958  16.285   3.361  17.607
   81DPPA   C1A  959  15.875   3.591  17.617
   81DPPA   C2A  960  15.515   3.661  17.427
   81DPPA   C3A  961  15.145   3.621  17.097
   81DPPA   C4A  962  14.785   3.641  16.767
   81DPPA   C1B  963  16.035   3.351  17.297
   81DPPA   C2B  964  15.715   3.261  17.137
   81DPPA   C3B  965  15.375   3.211  16.757
   81DPPA   C4B  966  15.035   3.141  16.497
   82DPPA   PO4  967  14.665   5.239  20.437
   82DPPA   GL1  968  14.495   5.569  20.327
   82DPPA   GL2  969  14.395   5.339  20.017
   82DPPA   C1A  970  14.145   5.669  20.187
   82DPPA   C2A  971  13.885   5.759  19.947
   82DPPA   C3A  972  13.535   5.739  19.627
   82DPPA   C4A  973  13.155   5.679  19.317
   82DPPA   C1B  974  14.085   5.279  19.847
   82DPPA   C2B  975  13.915   5.419  19.547
   82DPPA   C3B  976  13.585   5.399  19.237
   82DPPA   C4B  977  13.205   5.339  18.887
   83DPPA   PO4  978  15.795   0.451  18.667
   83DPPA   GL1  979  15.545   0.281  18.377
   83DPPA   GL2  980  15.375   0.271  18.727
   83DPPA   C1A  981  15.295   0.431  18.117
   83DPPA   C2A  982  15.045   0.501  17.817
   83DPPA   C3A  983  14.715   0.431  17.427
   83DPPA   C4A  984  14.405   0.441  17.057
   83DPPA   C1B  985  15.075   0.301  18.527
   83DPPA   C2B  986  14.795   0.421  18.257
   83DPPA   C3B  987  14.535   0.361  17.877
   83DPPA   C4B  988  14.215   0.341  17.517
   84DPPA   PO4  989  17.505   5.919  16.887
   84DPPA   GL1  990  17.225   5.979  16.537
   84DPPA   GL2  991  17.075   6.179  16.647
   84DPPA   C1A  992  17.125   5.899  16.157
   84DPPA   C2A  993  16.945   5.799  15.807
   84DPPA   C3A  994  16.545   5.839  15.577
   84DPPA   C4A  995  16.255   5.799  15.187
   84DPPA   C1B  996  16.835   6.279  16.327
   84DPPA   C2B  997  16.635   6.119  15.997
   84DPPA   C3B  998  16.295   6.199  15.717
   84DPPA   C4B  999  16.025   6.169  15.337
   85DPPA   PO4 1000  13.335   1.791  21.557
   85DPPA   GL1 1001  13.105   1.771  21.137
   85DPPA   GL2 1002  13.385   1.961  21.197
   85DPPA   C1A 1003  12.885   1.861  20.847
   85DPPA   C2A 1004  12.595   1.811  20.527
   85DPPA   C3A 1005  12.345   1.841  20.107
   85DPPA   C4A 1006  12.055   1.791  19.697
   85DPPA   C1B 1007  13.395   2.191  20.917
   85DPPA   C2B 1008  13.365   2.491  20.597
   85DPPA   C3B 1009  13.095   2.471  20.197
   85DPPA   C4B 1010  12.845   2.491  19.787
   86DPPA   PO4 1011  14.555   0.271  20.357
   86DPPA   GL1 1012  14.325   0.091  19.997
   86DPPA   GL2 1013  14.255   0.361  19.907
   86DPPA   C1A 1014  14.015   0.061  19.747
   86DPPA   C2A 1015  13.775   0.041  19.387
   86DPPA   C3A 1016  13.465   6.599  19.027
   86DPPA   C4A 1017  13.205   6.569  18.587
   86DPPA   C1B 1018  14.075   0.491  19.577
   86DPPA   C2B 1019  13.865   0.531  19.197
   86DPPA   C3B 1020  13.535   0.491  18.867
   86DPPA   C4B 1021  13.285   0.581  18.447
   87DPPA   PO4 1022  15.815   1.641  18.537
   87DPPA   GL1 1023  15.405   1.591  18.487
   87DPPA   GL2 1024  15.315   1.361  18.457
   87DPPA   C1A 1025  15.295   1.771  18.247
   87DPPA   C2A 1026  15.115   1.741  17.877
   87DPPA   C3A 1027  14.845   1.711  17.477
   87DPPA   C4A 1028  14.475   1.681  17.127
   87DPPA   C1B 1029  15.155   1.301  18.127
   87DPPA   C2B 1030  14.905   1.311  17.827
   87DPPA   C3B 1031  14.605   1.271  17.437
   87DPPA   C4B 1032  14.305   1.211  17.087
   88DPPA   PO4 1033  11.485   1.321  22.447
   88DPPA   GL1 1034  11.445   1.051  22.087
   88DPPA   GL2 1035  11.235   1.061  22.067
   88DPPA   C1A 1036  11.455   0.831  21.767
   88DPPA   C2A 1037  11.465   0.661  21.437
   88DPPA   C3A 1038  11.375   0.191  21.247
   88DPPA   C4A 1039  11.605   6.369  21.247
   88DPPA   C1B 1040  11.175   1.131  21.737
   88DPPA   C2B 1041  11.185   1.351  21.367
   88DPPA   C3B 1042  11.185   1.511  20.937
   88DPPA   C4B 1043  11.265   1.611  20.427
   89DPPA   PO4 1044  15.545   6.289  19.117
   89DPPA   GL1 1045  15.245   6.059  18.757
   89DPPA   GL2 1046  15.215   6.369  18.627
   89DPPA   C1A 1047  15.145   5.999  18.417
   89DPPA   C2A 1048  14.845   6.099  18.097
   89DPPA   C3A 1049  14.595   6.109  17.727
   89DPPA   C4A 1050  14.335   6.009  17.347
   89DPPA   C1B 1051  15.195   6.519  18.317
   89DPPA   C2B 1052  15.005   6.559  17.967
   89DPPA   C3B 1053  14.705   6.579  17.667
   89DPPA   C4B 1054  14.425   6.499  17.277
   90DPPA   PO4 1055  14.235   1.001  21.097
   90DPPA   GL1 1056  13.955   0.871  20.797
   90DPPA   GL2 1057  13.755   0.741  20.967
   90DPPA   C1A 1058  13.815   0.881  20.477
   90DPPA   C2A 1059  13.585   0.691  20.187
   90DPPA   C3A 1060  13.275   0.781  19.757
   90DPPA   C4A 1061  12.995   0.731  19.357
   90DPPA   C1B 1062  13.485   0.691  20.797
   90DPPA   C2B 1063  13.125   0.681  20.537
   90DPPA   C3B 1064  12.875   0.651  20.147
   90DPPA   C4B 1065  12.595   0.681  19.697
   91DPPA   PO4 1066  14.855   6.429  20.397
   91DPPA   GL1 1067  14.535   6.289  20.067
   91DPPA   GL2 1068  14.415   6.009  20.187
   91DPPA   C1A 1069  14.375   6.359  19.727
   91DPPA   C2A 1070  14.175   6.319  19.387
   91DPPA   C3A 1071  13.835   6.329  18.977
   91DPPA   C4A 1072  13.545   6.249  18.617
   91DPPA   C1B 1073  14.105   6.139  20.017
   91DPPA   C2B 1074  13.815   6.179  19.717
   91DPPA   C3B 1075  13.505   6.219  19.357
   91DPPA   C4B 1076  13.165   6.139  18.987
   92DPPA   PO4 1077  14.925   2.821  20.257
   92DPPA   GL1 1078  14.635   2.971  19.917
   92DPPA   GL2 1079  14.675   2.721  19.807
   92DPPA   C1A 1080  14.305   3.071  19.797
   92DPPA   C2A 1081  14.025   3.111  19.537
   92DPPA   C3A 1082  13.745   3.171  19.137
   92DPPA   C4A 1083  13.455   3.191  18.827
   92DPPA   C1B 1084  14.415   2.681  19.547
   92DPPA   C2B 1085  14.235   2.761  19.197
   92DPPA   C3B 1086  13.945   2.831  18.817
   92DPPA   C4B 1087  13.615   2.741  18.497
   93DPPA   PO4 1088  15.245   2.541  19.507
   93DPPA   GL1 1089  14.865   2.461  19.447
   93DPPA   GL2 1090  14.865   2.741  19.347
   93DPPA   C1A 1091  14.555   2.441  19.187
   93DPPA   C2A 1092  14.315   2.381  18.817
   93DPPA   C3A 1093  14.025   2.321  18.417
   93DPPA   C4A 1094  13.815   2.301  18.057
   93DPPA   C1B 1095  14.675   2.871  19.027
   93DPPA   C2B 1096  14.445   2.901  18.717
   93DPPA   C3B 1097  14.195   2.811  18.367
   93DPPA   C4B 1098  13.875   2.881  18.027
   94DPPA   PO4 1099  14.485   1.581  20.687
   94DPPA   GL1 1100  14.175   1.621  20.357
   94DPPA   GL2 1101  13.985   1.781  20.437
   94DPPA   C1A 1102  14.125   1.361  20.097
   94DPPA   C2A 1103  13.975   1.351  19.697
   94DPPA   C3A 1104  13.705   1.431  19.297
   94DPPA   C4A 1105  13.435   1.341  18.937
   94DPPA   C1B 1106  13.615   1.711  20.347
   94DPPA   C2B 1107  13.305   1.701  20.077
   94DPPA   C3B 1108  12.995   1.651  19.717
   94DPPA   C4B 1109  12.735   1.631  19.327
   95DPPA   PO4 1110  17.605   1.421  16.617
   95DPPA   GL1 1111  17.155   1.471  16.527
   95DPPA   GL2 1112  17.225   1.741  16.537
   95DPPA   C1A 1113  16.805   1.371  16.487
   95DPPA   C2A 1114  16.455   1.241  16.277
   95DPPA   C3A 1115  16.205   1.271  15.867
   95DPPA   C4A 1116  15.925   1.281  15.457
   95DPPA   C1B 1117  16.945   1.871  16.357
   95DPPA   C2B 1118  16.585   1.811  16.167
   95DPPA   C3B 1119  16.285   1.791  15.787
   95DPPA   C4B 1120  15.965   1.771  15.407
   96DPPA   PO4 1121  16.835   3.989  17.747
   96DPPA   GL1 1122  16.545   3.899  17.547
   96DPPA   GL2 1123  16.585   3.949  17.267
   96DPPA   C1A 1124  16.205   3.821  17.377
   96DPPA   C2A 1125  15.915   3.751  17.107
   96DPPA   C3A 1126  15.525   3.731  16.807
   96DPPA   C4A 1127  15.275   3.671  16.367
   96DPPA   C1B 1128  16.365   3.881  16.987
   96DPPA   C2B 1129  16.105   3.861  16.667
   96DPPA   C3B 1130  15.825   3.811  16.327
   96DPPA   C4B 1131  15.475   3.851  15.977
   97DPPA   PO4 1132  15.365   2.061  19.837
   97DPPA   GL1 1133  15.015   2.031  19.557
   97DPPA   GL2 1134  14.795   2.021  19.667
   97DPPA   C1A 1135  14.875   2.061  19.197
   97DPPA   C2A 1136  14.725   2.161  18.847
   97DPPA   C3A 1137  14.465   2.081  18.377
   97DPPA   C4A 1138  14.185   2.021  17.957
   97DPPA   C1B 1139  14.485   2.201  19.537
   97DPPA   C2B 1140  14.125   2.331  19.407
   97DPPA   C3B 1141  13.865   2.311  19.017
   97DPPA   C4B 1142  13.535   2.271  18.687
   98DPPA   PO4 1143  16.405   4.789  17.877
   98DPPA   GL1 1144  16.155   4.899  17.617
   98DPPA   GL2 1145  16.145   5.149  17.657
   98DPPA   C1A 1146  15.875   4.719  17.497
   98DPPA   C2A 1147  15.715   4.589  17.147
   98DPPA   C3A 1148  15.435   4.539  16.857
   98DPPA   C4A 1149  15.135   4.479  16.477
   98DPPA   C1B 1150  15.775   5.179  17.617
   98DPPA   C2B 1151  15.485   4.979  17.387
   98DPPA   C3B 1152  15.155   4.919  17.017
   98DPPA   C4B 1153  14.865   4.879  16.637
   99DPPA   PO4 1154  16.375   5.269  18.067
   99DPPA   GL1 1155  16.145   5.529  17.797
   99DPPA   GL2 1156  15.955   5.509  18.067
   99DPPA   C1A 1157  16.005   5.519  17.467
   99DPPA   C2A 1158  15.605   5.469  17.257
   99DPPA   C3A 1159  15.305   5.409  16.877
   99DPPA   C4A 1160  14.905   5.379  16.547
   99DPPA   C1B 1161  15.605   5.499  17.907
   99DPPA   C2B 1162  15.325   5.399  17.667
   99DPPA   C3B 1163  15.045   5.289  17.357
   99DPPA   C4B 1164  14.755   5.199  17.007
  100DPPA   PO4 1165  13.355   0.721  14.777
  100DPPA   GL1 1166  13.765   0.661  14.937
  100DPPA   GL2 1167  13.835   0.391  14.897
  100DPPA   C1A 1168  14.035   0.861  15.027
  100DPPA   C2A 1169  14.375   1.031  15.127
  100DPPA   C3A 1170  14.665   0.981  15.497
  100DPPA   C4A 1171  14.915   1.011  15.877
  100DPPA   C1B 1172  14.095   0.461  15.157
  100DPPA   C2B 1173  14.335   0.561  15.517
  100DPPA   C3B 1174  14.675   0.561  15.857
  100DPPA   C4B 1175  14.965   0.511  16.207
  101DPPC   NC3 1176  12.065   1.431  15.227
  101DPPC   PO4 1177  12.375   1.311  15.467
  101DPPC   GL1 1178  12.745   1.351  15.597
  101DPPC   GL2 1179  12.905   1.501  15.447
  101DPPC   C1A 1180  12.875   1.451  15.947
  101DPPC   C2A 1181  13.065   1.541  16.367
  101DPPC   C3A 1182  13.475   1.551  16.647
  101DPPC   C4A 1183  13.835   1.601  16.987
  101DPPC   C1B 1184  13.285   1.521  15.477
  101DPPC   C2B 1185  13.595   1.301  15.637
  101DPPC   C3B 1186  13.935   1.291  15.917
  101DPPC   C4B 1187  14.225   1.281  16.277
  102DPPC   NC3 1188  11.805   2.871  16.567
  102DPPC   PO4 1189  11.645   2.681  16.857
  102DPPC   GL1 1190  11.595   2.841  17.207
  102DPPC   GL2 1191  11.545   3.061  17.307
  102DPPC   C1A 1192  11.935   2.791  17.297
  102DPPC   C2A 1193  12.215   2.651  17.567
  102DPPC   C3A 1194  12.495   2.611  17.877
  102DPPC   C4A 1195  12.855   2.621  18.187
  102DPPC   C1B 1196  11.765   3.021  17.597
  102DPPC   C2B 1197  12.095   3.081  17.897
  102DPPC   C3B 1198  12.415   2.951  18.247
  102DPPC   C4B 1199  12.695   3.061  18.597
  103DPPC   NC3 1200  15.125   2.041  12.757
  103DPPC   PO4 1201  15.325   1.701  12.657
  103DPPC   GL1 1202  15.375   1.361  12.847
  103DPPC   GL2 1203  15.575   1.281  12.737
  103DPPC   C1A 1204  15.285   1.291  13.187
  103DPPC   C2A 1205  15.545   1.421  13.547
  103DPPC   C3A 1206  15.795   1.451  13.907
  103DPPC   C4A 1207  16.165   1.391  14.167
  103DPPC   C1B 1208  15.815   1.391  12.987
  103DPPC   C2B 1209  16.035   1.491  13.357
  103DPPC   C3B 1210  16.355   1.491  13.727
  103DPPC   C4B 1211  16.625   1.471  14.117
  104DPPC   NC3 1212  12.065   1.431  16.297
  104DPPC   PO4 1213  12.075   1.781  16.487
  104DPPC   GL1 1214  12.325   1.931  16.677
  104DPPC   GL2 1215  12.135   2.071  16.867
  104DPPC   C1A 1216  12.695   1.911  16.707
  104DPPC   C2A 1217  13.115   1.911  16.867
  104DPPC   C3A 1218  13.515   1.931  17.167
  104DPPC   C4A 1219  13.815   2.001  17.547
  104DPPC   C1B 1220  12.405   2.151  17.117
  104DPPC   C2B 1221  12.615   2.241  17.507
  104DPPC   C3B 1222  12.885   2.201  17.907
  104DPPC   C4B 1223  13.245   2.121  18.297
  105DPPC   NC3 1224  11.125   6.139  17.777
  105DPPC   PO4 1225  10.805   6.089  17.957
  105DPPC   GL1 1226  10.925   6.239  18.377
  105DPPC   GL2 1227  11.025   6.019  18.447
  105DPPC   C1A 1228  11.105   6.519  18.587
  105DPPC   C2A 1229  11.155   6.599  18.997
  105DPPC   C3A 1230  11.445   0.031  19.327
  105DPPC   C4A 1231  11.745   0.031  19.687
  105DPPC   C1B 1232  11.275   6.099  18.687
  105DPPC   C2B 1233  11.505   6.269  18.957
  105DPPC   C3B 1234  11.835   6.289  19.267
  105DPPC   C4B 1235  12.155   6.289  19.687
  106DPPC   NC3 1236  11.405   0.301  16.987
  106DPPC   PO4 1237  11.445   6.599  17.217
  106DPPC   GL1 1238  11.375   6.499  17.677
  106DPPC   GL2 1239  11.645   0.001  17.687
  106DPPC   C1A 1240  11.555   6.239  17.837
  106DPPC   C2A 1241  11.805   6.039  18.037
  106DPPC   C3A 1242  12.095   5.969  18.447
  106DPPC   C4A 1243  12.485   6.089  18.807
  106DPPC   C1B 1244  11.925   6.529  17.977
  106DPPC   C2B 1245  12.215   6.469  18.247
  106DPPC   C3B 1246  12.445   6.529  18.647
  106DPPC   C4B 1247  12.775   6.599  18.987
  107DPPC   NC3 1248  14.205   4.419  13.397
  107DPPC   PO4 1249  14.345   4.459  13.047
  107DPPC   GL1 1250  14.785   4.609  13.087
  107DPPC   GL2 1251  14.625   4.759  13.247
  107DPPC   C1A 1252  15.125   4.649  13.177
  107DPPC   C2A 1253  15.465   4.559  13.377
  107DPPC   C3A 1254  15.825   4.569  13.757
  107DPPC   C4A 1255  16.145   4.469  14.137
  107DPPC   C1B 1256  14.705   4.719  13.587
  107DPPC   C2B 1257  14.855   4.809  13.947
  107DPPC   C3B 1258  15.255   4.849  14.297
  107DPPC   C4B 1259  15.585   4.849  14.697
  108DPPC   NC3 1260  11.615   1.161  16.347
  108DPPC   PO4 1261  11.645   1.431  16.607
  108DPPC   GL1 1262  11.955   1.401  16.967
  108DPPC   GL2 1263  12.205   1.461  16.807
  108DPPC   C1A 1264  12.125   1.621  17.217
  108DPPC   C2A 1265  12.375   1.721  17.497
  108DPPC   C3A 1266  12.685   1.741  17.817
  108DPPC   C4A 1267  13.015   1.711  18.127
  108DPPC   C1B 1268  12.475   1.681  16.947
  108DPPC   C2B 1269  12.755   1.871  17.217
  108DPPC   C3B 1270  13.085   1.891  17.527
  108DPPC   C4B 1271  13.435   1.821  17.907
  109DPPC   NC3 1272  14.035   3.641  12.977
  109DPPC   PO4 1273  14.215   3.381  13.227
  109DPPC   GL1 1274  14.495   3.561  13.557
  109DPPC   GL2 1275  14.735   3.591  13.407
  109DPPC   C1A 1276  14.625   3.491  13.907
  109DPPC   C2A 1277  14.665   3.491  14.287
  109DPPC   C3A 1278  14.935   3.381  14.627
  109DPPC   C4A 1279  15.265   3.331  14.997
  109DPPC   C1B 1280  15.015   3.561  13.667
  109DPPC   C2B 1281  15.085   3.591  14.067
  109DPPC   C3B 1282  15.455   3.491  14.377
  109DPPC   C4B 1283  15.715   3.491  14.787
  110DPPC   NC3 1284  13.805   2.001  13.607
  110DPPC   PO4 1285  14.175   1.831  13.687
  110DPPC   GL1 1286  14.445   1.951  13.897
  110DPPC   GL2 1287  14.375   1.841  14.107
  110DPPC   C1A 1288  14.675   2.201  14.067
  110DPPC   C2A 1289  14.865   2.391  14.367
  110DPPC   C3A 1290  15.225   2.491  14.687
  110DPPC   C4A 1291  15.525   2.501  15.047
  110DPPC   C1B 1292  14.545   1.991  14.397
  110DPPC   C2B 1293  14.885   2.021  14.667
  110DPPC   C3B 1294  15.235   2.101  15.007
  110DPPC   C4B 1295  15.585   2.081  15.407
  111DPPC   NC3 1296  13.335   6.219  14.337
  111DPPC   PO4 1297  13.335   6.349  14.707
  111DPPC   GL1 1298  13.475   6.269  15.047
  111DPPC   GL2 1299  13.625   6.579  15.087
  111DPPC   C1A 1300  13.755   6.229  15.297
  111DPPC   C2A 1301  13.955   6.229  15.667
  111DPPC   C3A 1302  14.215   6.249  15.987
  111DPPC   C4A 1303  14.585   6.279  16.327
  111DPPC   C1B 1304  13.885   0.041  15.317
  111DPPC   C2B 1305  14.225   0.071  15.597
  111DPPC   C3B 1306  14.545   0.041  15.987
  111DPPC   C4B 1307  14.895   0.061  16.377
  112DPPC   NC3 1308  12.715   0.231  15.107
  112DPPC   PO4 1309  12.655   0.471  15.437
  112DPPC   GL1 1310  12.945   0.611  15.737
  112DPPC   GL2 1311  13.165   0.681  15.577
  112DPPC   C1A 1312  13.125   0.641  16.057
  112DPPC   C2A 1313  13.345   0.751  16.347
  112DPPC   C3A 1314  13.635   0.721  16.717
  112DPPC   C4A 1315  13.975   0.731  17.037
  112DPPC   C1B 1316  13.405   0.801  15.757
  112DPPC   C2B 1317  13.765   0.841  15.947
  112DPPC   C3B 1318  14.025   0.821  16.377
  112DPPC   C4B 1319  14.395   0.811  16.707
  113DPPC   NC3 1320  12.185   5.439  16.407
  113DPPC   PO4 1321  12.415   5.369  16.157
  113DPPC   GL1 1322  12.675   5.379  16.377
  113DPPC   GL2 1323  12.605   5.559  16.537
  113DPPC   C1A 1324  12.955   5.109  16.347
  113DPPC   C2A 1325  13.175   4.999  16.707
  113DPPC   C3A 1326  13.525   5.069  17.057
  113DPPC   C4A 1327  13.825   5.119  17.397
  113DPPC   C1B 1328  12.825   5.379  16.767
  113DPPC   C2B 1329  13.115   5.389  17.067
  113DPPC   C3B 1330  13.425   5.419  17.447
  113DPPC   C4B 1331  13.705   5.489  17.797
  114DPPC   NC3 1332  12.055   4.209  15.627
  114DPPC   PO4 1333  12.235   3.851  15.647
  114DPPC   GL1 1334  12.545   3.731  15.917
  114DPPC   GL2 1335  12.475   3.891  16.097
  114DPPC   C1A 1336  12.885   3.621  16.057
  114DPPC   C2A 1337  13.255   3.711  16.157
  114DPPC   C3A 1338  13.565   3.811  16.497
  114DPPC   C4A 1339  13.915   3.831  16.827
  114DPPC   C1B 1340  12.795   4.029  16.167
  114DPPC   C2B 1341  13.075   4.169  16.447
  114DPPC   C3B 1342  13.425   4.169  16.797
  114DPPC   C4B 1343  13.735   4.199  17.157
  115DPPC   NC3 1344  12.565   5.699  15.647
  115DPPC   PO4 1345  12.295   5.969  15.767
  115DPPC   GL1 1346  12.715   5.999  16.007
  115DPPC   GL2 1347  12.695   5.779  16.097
  115DPPC   C1A 1348  12.975   6.269  16.177
  115DPPC   C2A 1349  13.245   6.319  16.507
  115DPPC   C3A 1350  13.495   6.389  16.897
  115DPPC   C4A 1351  13.725   6.439  17.317
  115DPPC   C1B 1352  12.935   5.899  16.437
  115DPPC   C2B 1353  13.145   5.849  16.757
  115DPPC   C3B 1354  13.365   5.879  17.157
  115DPPC   C4B 1355  13.695   5.959  17.497
  116DPPC   NC3 1356  13.475   5.369  13.767
  116DPPC   PO4 1357  13.735   5.679  13.617
  116DPPC   GL1 1358  14.145   5.679  13.797
  116DPPC   GL2 1359  13.955   5.669  14.037
  116DPPC   C1A 1360  14.465   5.539  13.767
  116DPPC   C2A 1361  14.665   5.659  14.067
  116DPPC   C3A 1362  15.005   5.619  14.397
  116DPPC   C4A 1363  15.405   5.619  14.737
  116DPPC   C1B 1364  14.255   5.629  14.247
  116DPPC   C2B 1365  14.515   5.529  14.517
  116DPPC   C3B 1366  14.815   5.549  14.897
  116DPPC   C4B 1367  15.105   5.619  15.217
  117DPPC   NC3 1368  11.165   4.309  17.107
  117DPPC   PO4 1369  11.205   3.929  17.257
  117DPPC   GL1 1370  11.545   3.999  17.407
  117DPPC   GL2 1371  11.655   4.229  17.177
  117DPPC   C1A 1372  11.645   3.929  17.767
  117DPPC   C2A 1373  11.915   3.821  18.067
  117DPPC   C3A 1374  12.245   3.831  18.397
  117DPPC   C4A 1375  12.545   3.871  18.737
  117DPPC   C1B 1376  12.005   4.279  17.367
  117DPPC   C2B 1377  12.385   4.319  17.547
  117DPPC   C3B 1378  12.735   4.399  17.877
  117DPPC   C4B 1379  12.985   4.359  18.277
  118DPPC   NC3 1380  10.855   0.841  16.987
  118DPPC   PO4 1381  11.205   0.721  17.167
  118DPPC   GL1 1382  11.435   0.921  17.487
  118DPPC   GL2 1383  11.325   0.801  17.757
  118DPPC   C1A 1384  11.825   0.941  17.537
  118DPPC   C2A 1385  12.155   0.851  17.707
  118DPPC   C3A 1386  12.475   0.851  18.077
  118DPPC   C4A 1387  12.785   0.881  18.447
  118DPPC   C1B 1388  11.655   0.721  17.887
  118DPPC   C2B 1389  11.925   0.711  18.177
  118DPPC   C3B 1390  12.325   0.721  18.527
  118DPPC   C4B 1391  12.655   0.701  18.887
  119DPPC   NC3 1392  12.865   5.229  15.027
  119DPPC   PO4 1393  12.825   5.309  15.417
  119DPPC   GL1 1394  12.785   5.379  15.877
  119DPPC   GL2 1395  12.835   5.089  15.907
  119DPPC   C1A 1396  13.015   5.489  16.157
  119DPPC   C2A 1397  13.245   5.449  16.517
  119DPPC   C3A 1398  13.575   5.519  16.837
  119DPPC   C4A 1399  13.885   5.559  17.247
  119DPPC   C1B 1400  13.185   5.099  15.937
  119DPPC   C2B 1401  13.455   5.089  16.227
  119DPPC   C3B 1402  13.715   5.099  16.557
  119DPPC   C4B 1403  14.055   5.149  16.907
  120DPPC   NC3 1404  13.955   0.581  13.987
  120DPPC   PO4 1405  14.065   0.941  14.157
  120DPPC   GL1 1406  14.255   1.061  14.527
  120DPPC   GL2 1407  14.245   0.851  14.657
  120DPPC   C1A 1408  14.595   1.081  14.747
  120DPPC   C2A 1409  14.855   1.101  15.077
  120DPPC   C3A 1410  15.175   1.181  15.447
  120DPPC   C4A 1411  15.495   1.161  15.827
  120DPPC   C1B 1412  14.485   0.641  14.877
  120DPPC   C2B 1413  14.785   0.601  15.137
  120DPPC   C3B 1414  15.095   0.671  15.507
  120DPPC   C4B 1415  15.315   0.721  15.937
  121DPPC   NC3 1416  11.055   4.359  18.157
  121DPPC   PO4 1417  10.725   4.499  18.347
  121DPPC   GL1 1418  11.125   4.599  18.597
  121DPPC   GL2 1419  11.035   4.809  18.477
  121DPPC   C1A 1420  11.335   4.569  18.837
  121DPPC   C2A 1421  11.515   4.599  19.237
  121DPPC   C3A 1422  11.765   4.599  19.657
  121DPPC   C4A 1423  12.095   4.549  20.017
  121DPPC   C1B 1424  11.285   5.019  18.567
  121DPPC   C2B 1425  11.465   4.989  18.917
  121DPPC   C3B 1426  11.775   5.019  19.277
  121DPPC   C4B 1427  12.095   4.959  19.647
  122DPPC   NC3 1428  11.455   6.509  16.657
  122DPPC   PO4 1429  11.505   6.199  16.897
  122DPPC   GL1 1430  11.885   6.219  17.137
  122DPPC   GL2 1431  11.785   6.339  17.387
  122DPPC   C1A 1432  12.205   6.379  17.097
  122DPPC   C2A 1433  12.475   6.159  17.317
  122DPPC   C3A 1434  12.785   6.169  17.697
  122DPPC   C4A 1435  13.145   6.169  18.017
  122DPPC   C1B 1436  11.985   6.239  17.667
  122DPPC   C2B 1437  12.335   6.069  17.837
  122DPPC   C3B 1438  12.565   6.139  18.187
  122DPPC   C4B 1439  12.925   6.129  18.557
  123DPPC   NC3 1440  13.125   5.909  14.927
  123DPPC   PO4 1441  12.915   5.769  15.217
  123DPPC   GL1 1442  13.025   5.689  15.587
  123DPPC   GL2 1443  13.195   5.489  15.687
  123DPPC   C1A 1444  13.105   5.899  15.867
  123DPPC   C2A 1445  13.315   5.939  16.237
  123DPPC   C3A 1446  13.615   5.959  16.587
  123DPPC   C4A 1447  13.875   6.049  17.017
  123DPPC   C1B 1448  13.395   5.539  15.977
  123DPPC   C2B 1449  13.695   5.579  16.227
  123DPPC   C3B 1450  14.025   5.569  16.557
  123DPPC   C4B 1451  14.375   5.589  16.937
  124DPPC   NC3 1452  11.585   5.259  16.257
  124DPPC   PO4 1453  11.905   5.029  16.277
  124DPPC   GL1 1454  12.155   5.039  16.627
  124DPPC   GL2 1455  11.995   4.909  16.797
  124DPPC   C1A 1456  12.435   5.079  16.847
  124DPPC   C2A 1457  12.765   4.969  17.047
  124DPPC   C3A 1458  13.175   4.959  17.367
  124DPPC   C4A 1459  13.455   5.019  17.777
  124DPPC   C1B 1460  12.165   4.909  17.097
  124DPPC   C2B 1461  12.445   4.819  17.407
  124DPPC   C3B 1462  12.715   4.909  17.757
  124DPPC   C4B 1463  13.045   4.909  18.117
  125DPPC   NC3 1464  11.295   4.919  17.507
  125DPPC   PO4 1465  11.165   4.549  17.527
  125DPPC   GL1 1466  11.515   4.369  17.617
  125DPPC   GL2 1467  11.355   4.229  17.747
  125DPPC   C1A 1468  11.825   4.369  17.817
  125DPPC   C2A 1469  12.105   4.309  18.107
  125DPPC   C3A 1470  12.475   4.309  18.437
  125DPPC   C4A 1471  12.815   4.309  18.777
  125DPPC   C1B 1472  11.505   4.309  18.047
  125DPPC   C2B 1473  11.675   4.239  18.407
  125DPPC   C3B 1474  12.075   4.179  18.737
  125DPPC   C4B 1475  12.465   4.229  19.107
  126DPPC   NC3 1476  11.055   3.051  17.427
  126DPPC   PO4 1477  11.255   2.741  17.497
  126DPPC   GL1 1478  11.415   2.891  17.867
  126DPPC   GL2 1479  11.405   3.181  17.747
  126DPPC   C1A 1480  11.675   2.861  18.117
  126DPPC   C2A 1481  11.885   2.891  18.457
  126DPPC   C3A 1482  12.195   2.901  18.847
  126DPPC   C4A 1483  12.565   2.911  19.217
  126DPPC   C1B 1484  11.575   3.401  17.927
  126DPPC   C2B 1485  11.795   3.341  18.327
  126DPPC   C3B 1486  12.245   3.331  18.567
  126DPPC   C4B 1487  12.595   3.371  18.947
  127DPPC   NC3 1488  12.105   3.561  15.997
  127DPPC   PO4 1489  11.955   3.371  16.297
  127DPPC   GL1 1490  12.385   3.261  16.587
  127DPPC   GL2 1491  12.175   3.361  16.737
  127DPPC   C1A 1492  12.715   3.261  16.697
  127DPPC   C2A 1493  13.065   3.261  16.937
  127DPPC   C3A 1494  13.455   3.241  17.267
  127DPPC   C4A 1495  13.755   3.301  17.577
  127DPPC   C1B 1496  12.215   3.491  17.097
  127DPPC   C2B 1497  12.375   3.581  17.477
  127DPPC   C3B 1498  12.765   3.521  17.727
  127DPPC   C4B 1499  13.075   3.631  18.097
  128DPPC   NC3 1500  10.355   5.299  18.727
  128DPPC   PO4 1501  10.655   5.039  18.607
  128DPPC   GL1 1502  11.035   5.119  18.837
  128DPPC   GL2 1503  11.015   4.909  18.997
  128DPPC   C1A 1504  11.215   5.339  19.057
  128DPPC   C2A 1505  11.375   5.369  19.397
  128DPPC   C3A 1506  11.745   5.359  19.727
  128DPPC   C4A 1507  12.065   5.359  20.037
  128DPPC   C1B 1508  11.145   5.009  19.307
  128DPPC   C2B 1509  11.365   4.949  19.647
  128DPPC   C3B 1510  11.585   4.959  19.987
  128DPPC   C4B 1511  11.975   4.999  20.307
  129DPPC   NC3 1512  14.005   0.091  14.037
  129DPPC   PO4 1513  13.975   0.181  13.627
  129DPPC   GL1 1514  14.405   0.201  13.697
  129DPPC   GL2 1515  14.565   0.011  13.557
  129DPPC   C1A 1516  14.425   0.261  14.077
  129DPPC   C2A 1517  14.625   0.261  14.427
  129DPPC   C3A 1518  14.905   0.241  14.777
  129DPPC   C4A 1519  15.185   0.311  15.187
  129DPPC   C1B 1520  14.805   0.041  13.847
  129DPPC   C2B 1521  15.125   6.569  14.097
  129DPPC   C3B 1522  15.515   0.031  14.327
  129DPPC   C4B 1523  15.805   0.031  14.747
  130DPPC   NC3 1524  12.435   1.831  15.397
  130DPPC   PO4 1525  12.435   1.751  15.817
  130DPPC   GL1 1526  12.815   1.921  15.967
  130DPPC   GL2 1527  12.935   1.841  15.727
  130DPPC   C1A 1528  12.895   2.081  16.317
  130DPPC   C2A 1529  13.055   2.371  16.477
  130DPPC   C3A 1530  13.345   2.411  16.867
  130DPPC   C4A 1531  13.675   2.471  17.227
  130DPPC   C1B 1532  13.265   1.751  15.817
  130DPPC   C2B 1533  13.535   1.631  16.077
  130DPPC   C3B 1534  13.885   1.631  16.367
  130DPPC   C4B 1535  14.225   1.701  16.677
  131DPPC   NC3 1536  12.565   0.851  15.707
  131DPPC   PO4 1537  12.355   0.601  16.017
  131DPPC   GL1 1538  12.675   0.671  16.167
  131DPPC   GL2 1539  12.705   0.901  16.117
  131DPPC   C1A 1540  12.895   0.561  16.417
  131DPPC   C2A 1541  13.135   0.601  16.777
  131DPPC   C3A 1542  13.435   0.611  17.237
  131DPPC   C4A 1543  13.805   0.621  17.597
  131DPPC   C1B 1544  12.905   1.051  16.377
  131DPPC   C2B 1545  13.205   1.101  16.667
  131DPPC   C3B 1546  13.495   1.141  17.077
  131DPPC   C4B 1547  13.875   1.081  17.387
  132DPPC   NC3 1548  12.635   4.149  15.767
  132DPPC   PO4 1549  12.375   4.369  16.007
  132DPPC   GL1 1550  12.405   4.259  16.377
  132DPPC   GL2 1551  12.585   4.529  16.447
  132DPPC   C1A 1552  12.665   4.069  16.537
  132DPPC   C2A 1553  12.865   4.099  16.897
  132DPPC   C3A 1554  13.185   4.159  17.297
  132DPPC   C4A 1555  13.575   4.189  17.607
  132DPPC   C1B 1556  12.885   4.509  16.647
  132DPPC   C2B 1557  13.165   4.569  16.957
  132DPPC   C3B 1558  13.525   4.589  17.327
  132DPPC   C4B 1559  13.795   4.689  17.737
  133DPPC   NC3 1560  14.155   6.359  13.447
  133DPPC   PO4 1561  14.055   6.149  13.797
  133DPPC   GL1 1562  14.315   6.089  14.047
  133DPPC   GL2 1563  14.405   6.409  14.017
  133DPPC   C1A 1564  14.555   6.009  14.367
  133DPPC   C2A 1565  14.855   5.999  14.657
  133DPPC   C3A 1566  15.105   6.069  15.087
  133DPPC   C4A 1567  15.495   6.089  15.427
  133DPPC   C1B 1568  14.675   6.419  14.227
  133DPPC   C2B 1569  15.015   6.459  14.517
  133DPPC   C3B 1570  15.305   6.569  14.867
  133DPPC   C4B 1571  15.605   6.509  15.207
  134DPPC   NC3 1572  13.915   4.689  13.977
  134DPPC   PO4 1573  13.935   4.799  13.587
  134DPPC   GL1 1574  14.325   4.839  13.807
  134DPPC   GL2 1575  14.335   5.059  13.867
  134DPPC   C1A 1576  14.415   4.629  14.067
  134DPPC   C2A 1577  14.645   4.679  14.367
  134DPPC   C3A 1578  14.895   4.749  14.757
  134DPPC   C4A 1579  15.255   4.769  15.097
  134DPPC   C1B 1580  14.555   5.159  14.137
  134DPPC   C2B 1581  14.835   5.159  14.437
  134DPPC   C3B 1582  15.115   5.189  14.807
  134DPPC   C4B 1583  15.505   5.189  15.107
  135DPPC   NC3 1584  12.355   3.821  15.077
  135DPPC   PO4 1585  12.755   3.881  14.977
  135DPPC   GL1 1586  13.075   3.919  15.217
  135DPPC   GL2 1587  12.975   4.169  15.417
  135DPPC   C1A 1588  13.405   3.811  15.367
  135DPPC   C2A 1589  13.665   3.541  15.437
  135DPPC   C3A 1590  14.085   3.511  15.667
  135DPPC   C4A 1591  14.415   3.581  16.047
  135DPPC   C1B 1592  13.235   4.409  15.577
  135DPPC   C2B 1593  13.465   4.699  15.827
  135DPPC   C3B 1594  13.795   4.659  16.167
  135DPPC   C4B 1595  14.085   4.709  16.527
  136DPPC   NC3 1596  14.705   2.891  12.697
  136DPPC   PO4 1597  14.575   3.041  13.057
  136DPPC   GL1 1598  14.795   2.991  13.387
  136DPPC   GL2 1599  14.715   3.111  13.587
  136DPPC   C1A 1600  15.105   2.821  13.457
  136DPPC   C2A 1601  15.485   2.751  13.507
  136DPPC   C3A 1602  15.785   2.711  13.837
  136DPPC   C4A 1603  16.085   2.721  14.207
  136DPPC   C1B 1604  14.805   3.081  13.927
  136DPPC   C2B 1605  15.055   3.061  14.257
  136DPPC   C3B 1606  15.355   2.961  14.627
  136DPPC   C4B 1607  15.665   2.971  15.017
  137DPPC   NC3 1608  12.635   2.891  15.757
  137DPPC   PO4 1609  12.275   3.051  15.767
  137DPPC   GL1 1610  12.565   3.341  15.837
  137DPPC   GL2 1611  12.825   3.321  15.677
  137DPPC   C1A 1612  12.595   3.271  16.197
  137DPPC   C2A 1613  13.005   3.291  16.337
  137DPPC   C3A 1614  13.425   3.341  16.607
  137DPPC   C4A 1615  13.795   3.331  16.917
  137DPPC   C1B 1616  13.115   3.251  15.877
  137DPPC   C2B 1617  13.425   3.101  16.157
  137DPPC   C3B 1618  13.775   3.021  16.407
  137DPPC   C4B 1619  14.155   2.981  16.737
  138DPPC   NC3 1620  13.405   2.901  14.197
  138DPPC   PO4 1621  13.245   2.991  14.537
  138DPPC   GL1 1622  13.465   2.861  14.827
  138DPPC   GL2 1623  13.265   2.631  14.987
  138DPPC   C1A 1624  13.725   3.051  15.037
  138DPPC   C2A 1625  14.055   3.261  15.227
  138DPPC   C3A 1626  14.395   3.131  15.617
  138DPPC   C4A 1627  14.755   3.141  15.967
  138DPPC   C1B 1628  13.375   2.611  15.377
  138DPPC   C2B 1629  13.675   2.561  15.687
  138DPPC   C3B 1630  13.965   2.571  16.027
  138DPPC   C4B 1631  14.335   2.651  16.437
  139DPPC   NC3 1632  12.855   3.441  15.187
  139DPPC   PO4 1633  12.685   3.101  15.307
  139DPPC   GL1 1634  13.045   2.871  15.447
  139DPPC   GL2 1635  13.175   3.091  15.417
  139DPPC   C1A 1636  13.135   2.811  15.827
  139DPPC   C2A 1637  13.415   2.631  16.097
  139DPPC   C3A 1638  13.705   2.521  16.447
  139DPPC   C4A 1639  13.955   2.431  16.757
  139DPPC   C1B 1640  13.555   3.031  15.497
  139DPPC   C2B 1641  13.895   2.991  15.717
  139DPPC   C3B 1642  14.265   3.061  16.097
  139DPPC   C4B 1643  14.505   3.201  16.467
  140DPPC   NC3 1644  12.045   0.631  16.377
  140DPPC   PO4 1645  12.045   0.991  16.187
  140DPPC   GL1 1646  12.415   1.121  16.407
  140DPPC   GL2 1647  12.515   0.891  16.587
  140DPPC   C1A 1648  12.645   1.401  16.587
  140DPPC   C2A 1649  12.915   1.501  16.857
  140DPPC   C3A 1650  13.195   1.511  17.207
  140DPPC   C4A 1651  13.565   1.471  17.457
  140DPPC   C1B 1652  12.745   1.081  16.867
  140DPPC   C2B 1653  13.025   0.981  17.177
  140DPPC   C3B 1654  13.385   0.981  17.557
  140DPPC   C4B 1655  13.705   0.981  17.957
  141DPPC   NC3 1656  14.555   3.661  12.997
  141DPPC   PO4 1657  14.335   3.919  13.267
  141DPPC   GL1 1658  14.645   4.079  13.417
  141DPPC   GL2 1659  14.655   4.349  13.447
  141DPPC   C1A 1660  14.935   4.019  13.627
  141DPPC   C2A 1661  15.195   4.029  13.927
  141DPPC   C3A 1662  15.475   4.009  14.327
  141DPPC   C4A 1663  15.765   4.009  14.737
  141DPPC   C1B 1664  15.035   4.389  13.527
  141DPPC   C2B 1665  15.275   4.469  13.867
  141DPPC   C3B 1666  15.615   4.439  14.177
  141DPPC   C4B 1667  15.925   4.439  14.577
  142DPPC   NC3 1668  11.945   5.829  16.767
  142DPPC   PO4 1669  11.775   5.739  17.107
  142DPPC   GL1 1670  11.905   5.819  17.417
  142DPPC   GL2 1671  12.185   5.819  17.217
  142DPPC   C1A 1672  12.045   5.749  17.717
  142DPPC   C2A 1673  12.215   5.629  18.047
  142DPPC   C3A 1674  12.495   5.619  18.407
  142DPPC   C4A 1675  12.885   5.669  18.787
  142DPPC   C1B 1676  12.425   5.739  17.507
  142DPPC   C2B 1677  12.685   5.689  17.847
  142DPPC   C3B 1678  12.895   5.749  18.237
  142DPPC   C4B 1679  13.295   5.769  18.477
  143DPPC   NC3 1680  11.165   2.161  17.557
  143DPPC   PO4 1681  11.265   2.001  17.267
  143DPPC   GL1 1682  11.565   1.901  17.467
  143DPPC   GL2 1683  11.595   2.071  17.677
  143DPPC   C1A 1684  11.885   1.731  17.597
  143DPPC   C2A 1685  12.195   1.681  17.947
  143DPPC   C3A 1686  12.455   1.721  18.307
  143DPPC   C4A 1687  12.835   1.721  18.637
  143DPPC   C1B 1688  11.755   2.051  17.977
  143DPPC   C2B 1689  11.985   2.091  18.317
  143DPPC   C3B 1690  12.315   2.071  18.657
  143DPPC   C4B 1691  12.655   2.031  19.027
  144DPPC   NC3 1692  12.355   5.119  15.737
  144DPPC   PO4 1693  12.595   4.799  15.647
  144DPPC   GL1 1694  12.925   4.659  15.937
  144DPPC   GL2 1695  12.845   4.489  15.957
  144DPPC   C1A 1696  13.135   4.719  16.267
  144DPPC   C2A 1697  13.435   4.599  16.497
  144DPPC   C3A 1698  13.685   4.639  16.847
  144DPPC   C4A 1699  14.025   4.719  17.237
  144DPPC   C1B 1700  13.085   4.259  15.977
  144DPPC   C2B 1701  13.465   4.209  16.117
  144DPPC   C3B 1702  13.805   4.239  16.487
  144DPPC   C4B 1703  14.145   4.299  16.797
  145DPPC   NC3 1704  13.165   4.269  14.107
  145DPPC   PO4 1705  13.505   4.399  14.097
  145DPPC   GL1 1706  13.875   4.479  14.407
  145DPPC   GL2 1707  13.695   4.399  14.637
  145DPPC   C1A 1708  14.225   4.539  14.497
  145DPPC   C2A 1709  14.415   4.569  14.837
  145DPPC   C3A 1710  14.665   4.639  15.187
  145DPPC   C4A 1711  15.025   4.699  15.567
  145DPPC   C1B 1712  13.945   4.459  14.907
  145DPPC   C2B 1713  14.155   4.489  15.277
  145DPPC   C3B 1714  14.455   4.469  15.667
  145DPPC   C4B 1715  14.745   4.479  16.017
  146DPPC   NC3 1716  10.665   4.919  18.107
  146DPPC   PO4 1717  11.025   4.809  17.957
  146DPPC   GL1 1718  11.365   4.699  18.087
  146DPPC   GL2 1719  11.565   4.749  17.877
  146DPPC   C1A 1720  11.575   4.719  18.467
  146DPPC   C2A 1721  11.795   4.569  18.817
  146DPPC   C3A 1722  12.065   4.589  19.167
  146DPPC   C4A 1723  12.395   4.639  19.547
  146DPPC   C1B 1724  11.845   4.719  18.117
  146DPPC   C2B 1725  12.065   4.639  18.447
  146DPPC   C3B 1726  12.375   4.639  18.757
  146DPPC   C4B 1727  12.705   4.669  19.157
  147DPPC   NC3 1728  11.635   3.671  16.947
  147DPPC   PO4 1729  11.625   3.321  16.717
  147DPPC   GL1 1730  11.885   3.061  16.937
  147DPPC   GL2 1731  11.905   3.241  17.187
  147DPPC   C1A 1732  12.205   3.011  17.047
  147DPPC   C2A 1733  12.545   3.161  17.137
  147DPPC   C3A 1734  12.955   3.171  17.427
  147DPPC   C4A 1735  13.285   3.221  17.787
  147DPPC   C1B 1736  12.155   3.151  17.447
  147DPPC   C2B 1737  12.505   3.131  17.687
  147DPPC   C3B 1738  12.855   3.131  18.047
  147DPPC   C4B 1739  13.145   3.181  18.457
  148DPPC   NC3 1740  11.455   5.529  17.457
  148DPPC   PO4 1741  11.125   5.679  17.577
  148DPPC   GL1 1742  11.475   5.829  17.837
  148DPPC   GL2 1743  11.665   5.629  17.867
  148DPPC   C1A 1744  11.405   5.889  18.177
  148DPPC   C2A 1745  11.625   5.829  18.587
  148DPPC   C3A 1746  11.895   5.899  18.927
  148DPPC   C4A 1747  12.255   5.929  19.297
  148DPPC   C1B 1748  11.775   5.589  18.227
  148DPPC   C2B 1749  11.995   5.509  18.597
  148DPPC   C3B 1750  12.325   5.559  18.877
  148DPPC   C4B 1751  12.655   5.609  19.217
  149DPPC   NC3 1752  13.455   0.211  14.717
  149DPPC   PO4 1753  13.585   0.061  14.337
  149DPPC   GL1 1754  13.775   6.439  14.617
  149DPPC   GL2 1755  13.725   6.149  14.587
  149DPPC   C1A 1756  14.035   6.529  14.867
  149DPPC   C2A 1757  14.255   6.279  15.117
  149DPPC   C3A 1758  14.545   6.329  15.527
  149DPPC   C4A 1759  14.945   6.379  15.867
  149DPPC   C1B 1760  13.885   6.059  14.907
  149DPPC   C2B 1761  14.035   5.799  15.247
  149DPPC   C3B 1762  14.315   5.829  15.647
  149DPPC   C4B 1763  14.685   5.919  16.027
  150DPPC   NC3 1764  11.725   1.861  16.937
  150DPPC   PO4 1765  11.555   1.561  17.107
  150DPPC   GL1 1766  11.665   1.331  17.427
  150DPPC   GL2 1767  11.415   1.501  17.577
  150DPPC   C1A 1768  12.045   1.311  17.537
  150DPPC   C2A 1769  12.445   1.301  17.727
  150DPPC   C3A 1770  12.715   1.291  18.157
  150DPPC   C4A 1771  13.165   1.291  18.507
  150DPPC   C1B 1772  11.555   1.631  17.887
  150DPPC   C2B 1773  11.775   1.541  18.227
  150DPPC   C3B 1774  12.065   1.641  18.567
  150DPPC   C4B 1775  12.345   1.571  18.967
  151DPPC   NC3 1776  13.795   1.001  14.627
  151DPPC   PO4 1777  13.785   0.641  14.477
  151DPPC   GL1 1778  14.125   0.291  14.447
  151DPPC   GL2 1779  14.295   0.571  14.347
  151DPPC   C1A 1780  14.315   0.241  14.767
  151DPPC   C2A 1781  14.425   0.161  15.167
  151DPPC   C3A 1782  14.725   0.171  15.517
  151DPPC   C4A 1783  15.065   0.231  15.797
  151DPPC   C1B 1784  14.655   0.751  14.467
  151DPPC   C2B 1785  14.965   0.731  14.727
  151DPPC   C3B 1786  15.315   0.771  15.057
  151DPPC   C4B 1787  15.565   0.851  15.427
  152DPPC   NC3 1788  13.055   0.051  14.497
  152DPPC   PO4 1789  12.995   0.331  14.727
  152DPPC   GL1 1790  13.195   0.411  15.147
  152DPPC   GL2 1791  13.145   0.241  15.247
  152DPPC   C1A 1792  13.575   0.361  15.337
  152DPPC   C2A 1793  13.855   0.421  15.637
  152DPPC   C3A 1794  14.145   0.441  15.947
  152DPPC   C4A 1795  14.465   0.411  16.297
  152DPPC   C1B 1796  13.215   0.291  15.647
  152DPPC   C2B 1797  13.465   0.371  15.957
  152DPPC   C3B 1798  13.755   0.391  16.357
  152DPPC   C4B 1799  14.035   0.401  16.717
  153DPPC   NC3 1800  14.375   2.751  13.387
  153DPPC   PO4 1801  14.645   2.481  13.287
  153DPPC   GL1 1802  14.915   2.381  13.567
  153DPPC   GL2 1803  14.835   2.151  13.657
  153DPPC   C1A 1804  14.985   2.601  13.797
  153DPPC   C2A 1805  15.285   2.621  14.067
  153DPPC   C3A 1806  15.635   2.561  14.437
  153DPPC   C4A 1807  15.915   2.621  14.767
  153DPPC   C1B 1808  15.125   2.201  13.957
  153DPPC   C2B 1809  15.395   2.151  14.317
  153DPPC   C3B 1810  15.635   2.151  14.707
  153DPPC   C4B 1811  15.935   2.151  15.027
  154DPPC   NC3 1812  13.635   6.269  13.507
  154DPPC   PO4 1813  13.585   6.399  13.877
  154DPPC   GL1 1814  13.935   6.319  14.237
  154DPPC   GL2 1815  13.835   6.029  14.207
  154DPPC   C1A 1816  14.175   6.389  14.427
  154DPPC   C2A 1817  14.535   6.389  14.707
  154DPPC   C3A 1818  14.805   6.459  15.047
  154DPPC   C4A 1819  15.115   6.469  15.437
  154DPPC   C1B 1820  14.155   5.969  14.467
  154DPPC   C2B 1821  14.415   5.889  14.797
  154DPPC   C3B 1822  14.665   5.909  15.247
  154DPPC   C4B 1823  15.005   5.939  15.607
  155DPPC   NC3 1824  13.195   3.741  14.837
  155DPPC   PO4 1825  13.395   3.521  14.577
  155DPPC   GL1 1826  13.795   3.551  14.767
  155DPPC   GL2 1827  13.675   3.761  14.947
  155DPPC   C1A 1828  14.105   3.581  14.947
  155DPPC   C2A 1829  14.415   3.631  15.227
  155DPPC   C3A 1830  14.735   3.661  15.627
  155DPPC   C4A 1831  14.905   3.621  16.047
  155DPPC   C1B 1832  13.895   3.891  15.207
  155DPPC   C2B 1833  14.175   3.989  15.527
  155DPPC   C3B 1834  14.555   4.009  15.897
  155DPPC   C4B 1835  14.725   3.949  16.377
  156DPPC   NC3 1836  10.165   6.499  18.337
  156DPPC   PO4 1837  10.555   6.409  18.317
  156DPPC   GL1 1838  10.995   6.519  18.067
  156DPPC   GL2 1839  10.865   0.071  18.207
  156DPPC   C1A 1840  11.385   6.489  18.217
  156DPPC   C2A 1841  11.735   6.369  18.387
  156DPPC   C3A 1842  12.035   6.389  18.777
  156DPPC   C4A 1843  12.315   6.389  19.167
  156DPPC   C1B 1844  10.955   0.331  18.457
  156DPPC   C2B 1845  11.145   0.541  18.797
  156DPPC   C3B 1846  11.455   0.531  19.167
  156DPPC   C4B 1847  11.775   0.551  19.527
  157DPPC   NC3 1848  11.215   2.541  17.037
  157DPPC   PO4 1849  11.315   2.271  16.847
  157DPPC   GL1 1850  11.725   2.251  17.137
  157DPPC   GL2 1851  11.585   2.431  17.317
  157DPPC   C1A 1852  11.965   2.021  17.237
  157DPPC   C2A 1853  12.085   2.131  17.647
  157DPPC   C3A 1854  12.395   2.141  18.017
  157DPPC   C4A 1855  12.735   2.171  18.417
  157DPPC   C1B 1856  11.785   2.501  17.657
  157DPPC   C2B 1857  12.025   2.521  18.027
  157DPPC   C3B 1858  12.325   2.491  18.437
  157DPPC   C4B 1859  12.645   2.511  18.807
  158DPPC   NC3 1860  10.855   1.691  17.187
  158DPPC   PO4 1861  10.955   1.711  17.577
  158DPPC   GL1 1862  11.225   1.881  17.897
  158DPPC   GL2 1863  11.115   1.651  18.047
  158DPPC   C1A 1864  11.435   1.981  18.197
  158DPPC   C2A 1865  11.625   1.901  18.587
  158DPPC   C3A 1866  11.915   1.961  18.897
  158DPPC   C4A 1867  12.205   1.981  19.287
  158DPPC   C1B 1868  11.185   1.491  18.347
  158DPPC   C2B 1869  11.535   1.451  18.627
  158DPPC   C3B 1870  11.825   1.431  19.017
  158DPPC   C4B 1871  12.105   1.391  19.367
  159DPPC   NC3 1872  12.915   1.661  14.777
  159DPPC   PO4 1873  13.175   1.971  14.677
  159DPPC   GL1 1874  13.615   2.031  14.847
  159DPPC   GL2 1875  13.595   2.221  14.617
  159DPPC   C1A 1876  13.785   2.191  15.177
  159DPPC   C2A 1877  13.995   2.181  15.547
  159DPPC   C3A 1878  14.295   2.201  15.887
  159DPPC   C4A 1879  14.615   2.231  16.227
  159DPPC   C1B 1880  13.675   2.521  14.827
  159DPPC   C2B 1881  13.915   2.591  15.187
  159DPPC   C3B 1882  14.265   2.601  15.577
  159DPPC   C4B 1883  14.565   2.601  15.907
  160DPPC   NC3 1884  11.285   3.741  17.727
  160DPPC   PO4 1885  11.215   3.891  18.087
  160DPPC   GL1 1886  11.505   3.841  18.447
  160DPPC   GL2 1887  11.405   3.541  18.417
  160DPPC   C1A 1888  11.785   3.741  18.617
  160DPPC   C2A 1889  12.095   3.711  18.947
  160DPPC   C3A 1890  12.405   3.731  19.277
  160DPPC   C4A 1891  12.705   3.701  19.657
  160DPPC   C1B 1892  11.345   3.591  18.777
  160DPPC   C2B 1893  11.555   3.611  19.137
  160DPPC   C3B 1894  11.895   3.641  19.517
  160DPPC   C4B 1895  12.245   3.691  19.897
  161DPPC   NC3 1896  13.245   5.119  14.557
  161DPPC   PO4 1897  13.195   5.449  14.777
  161DPPC   GL1 1898  13.325   5.529  15.177
  161DPPC   GL2 1899  13.245   5.359  15.267
  161DPPC   C1A 1900  13.585   5.599  15.407
  161DPPC   C2A 1901  13.835   5.669  15.717
  161DPPC   C3A 1902  14.175   5.759  16.117
  161DPPC   C4A 1903  14.505   5.749  16.487
  161DPPC   C1B 1904  13.465   5.219  15.567
  161DPPC   C2B 1905  13.785   5.189  15.857
  161DPPC   C3B 1906  14.105   5.239  16.227
  161DPPC   C4B 1907  14.435   5.269  16.607
  162DPPC   NC3 1908  12.205   6.469  15.237
  162DPPC   PO4 1909  12.505   6.599  15.467
  162DPPC   GL1 1910  12.885   6.599  15.527
  162DPPC   GL2 1911  12.765   0.191  15.777
  162DPPC   C1A 1912  13.105   6.389  15.767
  162DPPC   C2A 1913  13.385   6.449  16.057
  162DPPC   C3A 1914  13.735   6.469  16.387
  162DPPC   C4A 1915  13.995   6.489  16.807
  162DPPC   C1B 1916  13.045   0.181  16.057
  162DPPC   C2B 1917  13.255   0.261  16.417
  162DPPC   C3B 1918  13.525   0.221  16.727
  162DPPC   C4B 1919  13.795   0.321  17.157
  163DPPC   NC3 1920  13.985   3.551  13.597
  163DPPC   PO4 1921  14.035   3.929  13.667
  163DPPC   GL1 1922  14.435   4.159  13.757
  163DPPC   GL2 1923  14.525   3.891  13.797
  163DPPC   C1A 1924  14.715   4.349  13.947
  163DPPC   C2A 1925  15.025   4.369  14.257
  163DPPC   C3A 1926  15.325   4.409  14.697
  163DPPC   C4A 1927  15.665   4.429  15.077
  163DPPC   C1B 1928  14.755   3.959  14.107
  163DPPC   C2B 1929  14.995   3.881  14.447
  163DPPC   C3B 1930  15.315   3.781  14.797
  163DPPC   C4B 1931  15.515   3.989  15.217
  164DPPC   NC3 1932  14.065   5.329  13.547
  164DPPC   PO4 1933  13.905   5.209  13.867
  164DPPC   GL1 1934  14.125   5.189  14.237
  164DPPC   GL2 1935  13.945   5.399  14.437
  164DPPC   C1A 1936  14.295   4.999  14.477
  164DPPC   C2A 1937  14.535   5.109  14.807
  164DPPC   C3A 1938  14.865   5.109  15.167
  164DPPC   C4A 1939  15.195   5.199  15.547
  164DPPC   C1B 1940  14.155   5.429  14.797
  164DPPC   C2B 1941  14.405   5.469  15.197
  164DPPC   C3B 1942  14.725   5.469  15.517
  164DPPC   C4B 1943  15.015   5.519  15.947
  165DPPC   NC3 1944  12.175   0.151  15.877
  165DPPC   PO4 1945  12.175   0.171  16.277
  165DPPC   GL1 1946  12.475   0.331  16.367
  165DPPC   GL2 1947  12.625   0.211  16.167
  165DPPC   C1A 1948  12.575   0.471  16.687
  165DPPC   C2A 1949  12.795   0.451  17.087
  165DPPC   C3A 1950  12.995   0.531  17.527
  165DPPC   C4A 1951  13.365   0.531  17.867
  165DPPC   C1B 1952  12.815   0.101  16.467
  165DPPC   C2B 1953  13.015   0.131  16.827
  165DPPC   C3B 1954  13.275   0.171  17.237
  165DPPC   C4B 1955  13.535   0.151  17.587
  166DPPC   NC3 1956  14.685   6.279  12.827
  166DPPC   PO4 1957  14.385   6.229  13.077
  166DPPC   GL1 1958  14.615   6.139  13.407
  166DPPC   GL2 1959  14.555   6.039  13.617
  166DPPC   C1A 1960  14.995   6.159  13.347
  166DPPC   C2A 1961  15.255   6.179  13.687
  166DPPC   C3A 1962  15.575   6.199  14.017
  166DPPC   C4A 1963  15.905   6.259  14.387
  166DPPC   C1B 1964  14.795   6.119  13.857
  166DPPC   C2B 1965  15.055   6.069  14.157
  166DPPC   C3B 1966  15.415   6.139  14.507
  166DPPC   C4B 1967  15.675   6.149  14.907
  167DPPC   NC3 1968  11.555   4.879  16.717
  167DPPC   PO4 1969  11.545   4.459  16.777
  167DPPC   GL1 1970  11.765   4.069  16.747
  167DPPC   GL2 1971  12.005   4.229  16.617
  167DPPC   C1A 1972  12.015   4.019  17.007
  167DPPC   C2A 1973  12.385   3.979  17.167
  167DPPC   C3A 1974  12.705   3.939  17.547
  167DPPC   C4A 1975  13.095   4.089  17.807
  167DPPC   C1B 1976  12.235   4.449  16.777
  167DPPC   C2B 1977  12.525   4.469  17.037
  167DPPC   C3B 1978  12.845   4.519  17.377
  167DPPC   C4B 1979  13.175   4.599  17.727
  168DPPC   NC3 1980  11.625   1.061  17.037
  168DPPC   PO4 1981  11.675   0.721  16.927
  168DPPC   GL1 1982  11.685   0.561  17.257
  168DPPC   GL2 1983  12.005   0.741  17.267
  168DPPC   C1A 1984  11.865   0.421  17.567
  168DPPC   C2A 1985  12.065   0.341  17.867
  168DPPC   C3A 1986  12.415   0.341  18.217
  168DPPC   C4A 1987  12.785   0.361  18.547
  168DPPC   C1B 1988  12.075   1.061  17.157
  168DPPC   C2B 1989  12.425   1.261  17.117
  168DPPC   C3B 1990  12.815   1.391  17.417
  168DPPC   C4B 1991  13.135   1.401  17.777
  169DPPC   NC3 1992  12.075   6.289  16.187
  169DPPC   PO4 1993  12.245   5.909  16.297
  169DPPC   GL1 1994  12.605   6.149  16.377
  169DPPC   GL2 1995  12.515   6.399  16.377
  169DPPC   C1A 1996  12.835   6.239  16.647
  169DPPC   C2A 1997  13.025   6.239  17.027
  169DPPC   C3A 1998  13.285   6.279  17.477
  169DPPC   C4A 1999  13.595   6.359  17.827
  169DPPC   C1B 2000  12.475   6.489  16.687
  169DPPC   C2B 2001  12.605   6.579  17.057
  169DPPC   C3B 2002  12.805   0.061  17.387
  169DPPC   C4B 2003  13.065   0.101  17.747
  170DPPC   NC3 2004  14.195   0.401  13.257
  170DPPC   PO4 2005  14.295   0.661  13.567
  170DPPC   GL1 2006  14.455   0.701  13.957
  170DPPC   GL2 2007  14.545   0.931  13.857
  170DPPC   C1A 2008  14.765   0.551  14.047
  170DPPC   C2A 2009  15.075   0.451  14.327
  170DPPC   C3A 2010  15.445   0.411  14.677
  170DPPC   C4A 2011  15.705   0.451  15.097
  170DPPC   C1B 2012  14.625   1.101  14.187
  170DPPC   C2B 2013  14.965   1.141  14.417
  170DPPC   C3B 2014  15.295   1.231  14.787
  170DPPC   C4B 2015  15.535   1.231  15.157
  171DPPC   NC3 2016  11.915   2.441  16.007
  171DPPC   PO4 2017  12.285   2.591  15.927
  171DPPC   GL1 2018  12.515   2.571  16.267
  171DPPC   GL2 2019  12.775   2.601  16.057
  171DPPC   C1A 2020  12.615   2.441  16.597
  171DPPC   C2A 2021  12.815   2.331  16.957
  171DPPC   C3A 2022  13.125   2.331  17.297
  171DPPC   C4A 2023  13.445   2.311  17.717
  171DPPC   C1B 2024  12.915   2.831  16.337
  171DPPC   C2B 2025  13.245   2.821  16.567
  171DPPC   C3B 2026  13.605   2.851  16.887
  171DPPC   C4B 2027  13.935   2.941  17.207
  172DPPC   NC3 2028  13.865   1.521  13.867
  172DPPC   PO4 2029  13.595   1.771  13.997
  172DPPC   GL1 2030  13.755   1.941  14.347
  172DPPC   GL2 2031  13.655   1.741  14.457
  172DPPC   C1A 2032  14.105   2.011  14.497
  172DPPC   C2A 2033  14.395   1.891  14.777
  172DPPC   C3A 2034  14.745   1.871  15.137
  172DPPC   C4A 2035  15.095   1.941  15.487
  172DPPC   C1B 2036  13.835   1.681  14.777
  172DPPC   C2B 2037  13.995   1.811  15.107
  172DPPC   C3B 2038  14.365   1.851  15.437
  172DPPC   C4B 2039  14.695   1.861  15.787
  173DPPC   NC3 2040  11.545   5.629  16.617
  173DPPC   PO4 2041  11.755   5.319  16.717
  173DPPC   GL1 2042  12.145   5.409  16.927
  173DPPC   GL2 2043  12.005   5.319  17.137
  173DPPC   C1A 2044  12.475   5.409  17.117
  173DPPC   C2A 2045  12.705   5.329  17.447
  173DPPC   C3A 2046  13.075   5.369  17.747
  173DPPC   C4A 2047  13.325   5.449  18.117
  173DPPC   C1B 2048  12.095   5.389  17.417
  173DPPC   C2B 2049  12.315   5.229  17.727
  173DPPC   C3B 2050  12.655   5.279  18.077
  173DPPC   C4B 2051  12.995   5.279  18.447
  174DPPC   NC3 2052  11.325   0.381  17.547
  174DPPC   PO4 2053  11.025   0.361  17.867
  174DPPC   GL1 2054  11.285   0.271  18.167
  174DPPC   GL2 2055  11.525   0.211  18.027
  174DPPC   C1A 2056  11.395   0.181  18.477
  174DPPC   C2A 2057  11.645   0.141  18.807
  174DPPC   C3A 2058  11.895   0.181  19.207
  174DPPC   C4A 2059  12.185   0.231  19.577
  174DPPC   C1B 2060  11.805   0.251  18.277
  174DPPC   C2B 2061  12.065   0.231  18.547
  174DPPC   C3B 2062  12.365   0.291  18.967
  174DPPC   C4B 2063  12.645   0.331  19.337
  175DPPC   NC3 2064  10.705   1.301  17.867
  175DPPC   PO4 2065  11.085   1.201  17.797
  175DPPC   GL1 2066  11.345   1.131  18.137
  175DPPC   GL2 2067  11.555   1.191  17.867
  175DPPC   C1A 2068  11.565   1.011  18.397
  175DPPC   C2A 2069  11.875   1.071  18.657
  175DPPC   C3A 2070  12.255   1.071  18.957
  175DPPC   C4A 2071  12.585   1.051  19.277
  175DPPC   C1B 2072  11.885   1.161  17.947
  175DPPC   C2B 2073  12.175   1.231  18.257
  175DPPC   C3B 2074  12.515   1.301  18.567
  175DPPC   C4B 2075  12.835   1.331  18.947
  176DPPA   PO4 2076  13.615   2.361  14.137
  176DPPA   GL1 2077  13.935   2.451  14.477
  176DPPA   GL2 2078  13.955   2.741  14.467
  176DPPA   C1A 2079  14.075   2.281  14.817
  176DPPA   C2A 2080  14.345   2.251  15.117
  176DPPA   C3A 2081  14.625   2.321  15.497
  176DPPA   C4A 2082  14.995   2.281  15.857
  176DPPA   C1B 2083  14.175   2.731  14.727
  176DPPA   C2B 2084  14.465   2.771  15.027
  176DPPA   C3B 2085  14.795   2.821  15.357
  176DPPA   C4B 2086  15.055   2.761  15.797
  177DPPA   PO4 2087  13.855   3.071  13.957
  177DPPA   GL1 2088  14.175   3.241  14.097
  177DPPA   GL2 2089  14.215   3.481  13.997
  177DPPA   C1A 2090  14.285   3.201  14.417
  177DPPA   C2A 2091  14.445   3.231  14.737
  177DPPA   C3A 2092  14.765   3.271  15.117
  177DPPA   C4A 2093  15.035   3.311  15.507
  177DPPA   C1B 2094  14.335   3.811  14.127
  177DPPA   C2B 2095  14.455   4.129  14.427
  177DPPA   C3B 2096  14.825   4.249  14.777
  177DPPA   C4B 2097  15.075   4.329  15.127
  178DPPA   PO4 2098  11.995   4.079  16.177
  178DPPA   GL1 2099  12.225   3.751  16.377
  178DPPA   GL2 2100  12.175   3.811  16.597
  178DPPA   C1A 2101  12.605   3.641  16.397
  178DPPA   C2A 2102  12.945   3.721  16.597
  178DPPA   C3A 2103  13.275   3.691  16.977
  178DPPA   C4A 2104  13.685   3.671  17.237
  178DPPA   C1B 2105  12.505   3.741  16.817
  178DPPA   C2B 2106  12.775   3.641  17.147
  178DPPA   C3B 2107  13.165   3.631  17.437
  178DPPA   C4B 2108  13.525   3.741  17.797
  179DPPA   PO4 2109  11.585   5.169  17.157
  179DPPA   GL1 2110  11.755   5.009  17.507
  179DPPA   GL2 2111  11.815   5.249  17.657
  179DPPA   C1A 2112  11.985   4.729  17.597
  179DPPA   C2A 2113  12.275   4.739  17.867
  179DPPA   C3A 2114  12.565   4.739  18.267
  179DPPA   C4A 2115  12.805   4.809  18.637
  179DPPA   C1B 2116  11.915   5.149  17.947
  179DPPA   C2B 2117  12.155   5.099  18.267
  179DPPA   C3B 2118  12.495   5.179  18.647
  179DPPA   C4B 2119  12.795   5.149  19.037
  180DPPA   PO4 2120  11.335   5.239  17.847
  180DPPA   GL1 2121  11.405   5.429  18.287
  180DPPA   GL2 2122  11.575   5.159  18.247
  180DPPA   C1A 2123  11.445   5.389  18.637
  180DPPA   C2A 2124  11.675   5.449  18.947
  180DPPA   C3A 2125  12.035   5.439  19.247
  180DPPA   C4A 2126  12.325   5.389  19.577
  180DPPA   C1B 2127  11.795   5.109  18.527
  180DPPA   C2B 2128  12.035   5.029  18.837
  180DPPA   C3B 2129  12.325   5.009  19.197
  180DPPA   C4B 2130  12.695   5.069  19.517
  181DPPA   PO4 2131  12.875   4.829  14.747
  181DPPA   GL1 2132  13.155   4.779  15.017
  181DPPA   GL2 2133  13.315   5.009  15.027
  181DPPA   C1A 2134  13.395   4.559  15.157
  181DPPA   C2A 2135  13.665   4.319  15.417
  181DPPA   C3A 2136  13.955   4.319  15.797
  181DPPA   C4A 2137  14.265   4.369  16.177
  181DPPA   C1B 2138  13.595   5.139  15.187
  181DPPA   C2B 2139  13.905   5.289  15.377
  181DPPA   C3B 2140  14.235   5.349  15.707
  181DPPA   C4B 2141  14.565   5.419  16.127
  182DPPA   PO4 2142  10.605   3.211  18.307
  182DPPA   GL1 2143  10.715   2.841  18.487
  182DPPA   GL2 2144  10.845   2.681  18.277
  182DPPA   C1A 2145  10.885   2.811  18.787
  182DPPA   C2A 2146  11.075   2.681  19.127
  182DPPA   C3A 2147  11.415   2.661  19.427
  182DPPA   C4A 2148  11.775   2.741  19.757
  182DPPA   C1B 2149  11.165   2.581  18.267
  182DPPA   C2B 2150  11.405   2.781  18.597
  182DPPA   C3B 2151  11.745   2.761  18.997
  182DPPA   C4B 2152  12.035   2.791  19.337
  183DPPA   PO4 2153  12.905   1.891  15.147
  183DPPA   GL1 2154  13.315   1.761  15.037
  183DPPA   GL2 2155  13.195   1.461  15.067
  183DPPA   C1A 2156  13.585   1.771  15.327
  183DPPA   C2A 2157  13.885   1.731  15.587
  183DPPA   C3A 2158  14.225   1.721  15.957
  183DPPA   C4A 2159  14.565   1.721  16.297
  183DPPA   C1B 2160  13.515   1.351  15.197
  183DPPA   C2B 2161  13.905   1.311  15.067
  183DPPA   C3B 2162  14.175   1.261  15.467
  183DPPA   C4B 2163  14.525   1.381  15.837
  184DPPA   PO4 2164  13.025   6.419  15.127
  184DPPA   GL1 2165  13.305   6.369  15.417
  184DPPA   GL2 2166  13.255   6.059  15.507
  184DPPA   C1A 2167  13.535   0.021  15.637
  184DPPA   C2A 2168  13.835   0.021  15.927
  184DPPA   C3A 2169  14.185   0.021  16.317
  184DPPA   C4A 2170  14.495   0.091  16.697
  184DPPA   C1B 2171  13.505   6.089  15.797
  184DPPA   C2B 2172  13.765   6.039  16.087
  184DPPA   C3B 2173  14.085   6.109  16.467
  184DPPA   C4B 2174  14.385   6.119  16.907
  185DPPA   PO4 2175  11.385   3.461  17.327
  185DPPA   GL1 2176  11.735   3.541  17.487
  185DPPA   GL2 2177  11.855   3.681  17.337
  185DPPA   C1A 2178  11.995   3.481  17.767
  185DPPA   C2A 2179  12.365   3.481  17.997
  185DPPA   C3A 2180  12.665   3.491  18.337
  185DPPA   C4A 2181  13.025   3.541  18.777
  185DPPA   C1B 2182  12.065   3.891  17.567
  185DPPA   C2B 2183  12.355   3.979  17.867
  185DPPA   C3B 2184  12.715   3.969  18.107
  185DPPA   C4B 2185  13.055   3.939  18.507
  186DPPA   PO4 2186  13.995   2.591  13.667
  186DPPA   GL1 2187  14.215   2.651  14.017
  186DPPA   GL2 2188  14.455   2.791  13.917
  186DPPA   C1A 2189  14.405   2.471  14.297
  186DPPA   C2A 2190  14.485   2.381  14.667
  186DPPA   C3A 2191  14.845   2.371  15.017
  186DPPA   C4A 2192  15.185   2.441  15.397
  186DPPA   C1B 2193  14.605   2.911  14.257
  186DPPA   C2B 2194  14.725   2.851  14.627
  186DPPA   C3B 2195  15.065   2.831  14.987
  186DPPA   C4B 2196  15.395   2.901  15.407
  187DPPA   PO4 2197  13.485   4.019  14.487
  187DPPA   GL1 2198  14.015   3.979  14.467
  187DPPA   GL2 2199  13.945   4.049  14.737
  187DPPA   C1A 2200  14.295   3.741  14.547
  187DPPA   C2A 2201  14.615   3.731  14.817
  187DPPA   C3A 2202  14.975   3.751  15.127
  187DPPA   C4A 2203  15.195   3.751  15.537
  187DPPA   C1B 2204  14.245   4.109  14.937
  187DPPA   C2B 2205  14.555   4.119  15.237
  187DPPA   C3B 2206  14.905   4.199  15.607
  187DPPA   C4B 2207  15.095   4.159  16.087
  188DPPA   PO4 2208  11.695   6.139  16.457
  188DPPA   GL1 2209  12.065   6.259  16.657
  188DPPA   GL2 2210  12.065   6.579  16.647
  188DPPA   C1A 2211  12.345   6.039  16.767
  188DPPA   C2A 2212  12.635   5.849  16.997
  188DPPA   C3A 2213  12.935   5.809  17.367
  188DPPA   C4A 2214  13.275   5.799  17.707
  188DPPA   C1B 2215  12.245   0.171  16.897
  188DPPA   C2B 2216  12.345   0.381  17.267
  188DPPA   C3B 2217  12.495   0.451  17.667
  188DPPA   C4B 2218  12.845   0.461  18.017
  189DPPA   PO4 2219  14.395   1.621  13.237
  189DPPA   GL1 2220  14.875   1.801  13.427
  189DPPA   GL2 2221  14.745   1.671  13.657
  189DPPA   C1A 2222  15.165   1.901  13.617
  189DPPA   C2A 2223  15.405   1.811  13.877
  189DPPA   C3A 2224  15.655   1.771  14.247
  189DPPA   C4A 2225  16.005   1.731  14.637
  189DPPA   C1B 2226  14.855   1.821  13.937
  189DPPA   C2B 2227  15.045   1.811  14.257
  189DPPA   C3B 2228  15.295   1.751  14.627
  189DPPA   C4B 2229  15.665   1.731  14.997
  190DPPA   PO4 2230  14.735   1.701  12.707
  190DPPA   GL1 2231  15.025   1.601  13.027
  190DPPA   GL2 2232  14.865   1.421  13.157
  190DPPA   C1A 2233  15.295   1.791  13.207
  190DPPA   C2A 2234  15.605   1.951  13.337
  190DPPA   C3A 2235  15.865   1.891  13.717
  190DPPA   C4A 2236  16.125   1.901  14.117
  190DPPA   C1B 2237  14.895   1.261  13.437
  190DPPA   C2B 2238  15.055   1.331  13.797
  190DPPA   C3B 2239  15.395   1.331  14.157
  190DPPA   C4B 2240  15.745   1.341  14.547
  191DPPA   PO4 2241  12.035   2.301  16.487
  191DPPA   GL1 2242  12.105   2.601  16.757
  191DPPA   GL2 2243  12.045   2.471  17.017
  191DPPA   C1A 2244  12.425   2.801  16.737
  191DPPA   C2A 2245  12.795   2.821  16.877
  191DPPA   C3A 2246  13.175   2.801  17.157
  191DPPA   C4A 2247  13.585   2.821  17.567
  191DPPA   C1B 2248  12.385   2.571  17.137
  191DPPA   C2B 2249  12.655   2.731  17.377
  191DPPA   C3B 2250  12.995   2.731  17.717
  191DPPA   C4B 2251  13.335   2.741  18.047
  192DPPA   PO4 2252  11.755   0.311  16.577
  192DPPA   GL1 2253  11.885   0.341  16.967
  192DPPA   GL2 2254  12.095   0.561  16.867
  192DPPA   C1A 2255  11.975   0.111  17.267
  192DPPA   C2A 2256  12.245   6.569  17.537
  192DPPA   C3A 2257  12.565   6.579  17.867
  192DPPA   C4A 2258  12.905   6.569  18.227
  192DPPA   C1B 2259  12.385   0.781  16.997
  192DPPA   C2B 2260  12.545   0.831  17.347
  192DPPA   C3B 2261  12.855   0.981  17.747
  192DPPA   C4B 2262  13.185   0.911  18.117
  193DPPA   PO4 2263  12.675   2.251  15.667
  193DPPA   GL1 2264  13.035   2.381  15.747
  193DPPA   GL2 2265  13.175   2.191  15.567
  193DPPA   C1A 2266  13.225   2.191  16.017
  193DPPA   C2A 2267  13.435   2.041  16.367
  193DPPA   C3A 2268  13.705   2.031  16.727
  193DPPA   C4A 2269  14.095   2.071  17.107
  193DPPA   C1B 2270  13.525   2.101  15.717
  193DPPA   C2B 2271  13.825   2.041  16.027
  193DPPA   C3B 2272  14.125   2.051  16.377
  193DPPA   C4B 2273  14.415   2.241  16.727
  194DPPA   PO4 2274  12.685   3.781  15.467
  194DPPA   GL1 2275  13.005   3.811  15.717
  194DPPA   GL2 2276  13.155   3.611  15.677
  194DPPA   C1A 2277  13.335   3.969  15.747
  194DPPA   C2A 2278  13.695   3.851  15.857
  194DPPA   C3A 2279  14.045   3.919  16.137
  194DPPA   C4A 2280  14.265   3.929  16.507
  194DPPA   C1B 2281  13.465   3.461  15.837
  194DPPA   C2B 2282  13.805   3.411  16.037
  194DPPA   C3B 2283  14.095   3.441  16.417
  194DPPA   C4B 2284  14.315   3.561  16.837
  195DPPA   PO4 2285  13.575   4.809  14.367
  195DPPA   GL1 2286  13.615   4.799  14.797
  195DPPA   GL2 2287  13.895   4.829  14.687
  195DPPA   C1A 2288  13.755   4.789  15.107
  195DPPA   C2A 2289  13.905   4.829  15.527
  195DPPA   C3A 2290  14.175   4.829  15.887
  195DPPA   C4A 2291  14.485   4.909  16.267
  195DPPA   C1B 2292  14.085   4.969  14.907
  195DPPA   C2B 2293  14.325   4.999  15.267
  195DPPA   C3B 2294  14.585   4.949  15.627
  195DPPA   C4B 2295  14.975   4.989  16.007
  196DPPA   PO4 2296  10.965   3.151  17.897
  196DPPA   GL1 2297  11.085   3.021  18.277
  196DPPA   GL2 2298  11.375   3.141  18.227
  196DPPA   C1A 2299  11.075   3.181  18.617
  196DPPA   C2A 2300  11.265   3.141  18.977
  196DPPA   C3A 2301  11.635   3.171  19.307
  196DPPA   C4A 2302  11.915   3.211  19.727
  196DPPA   C1B 2303  11.485   3.231  18.597
  196DPPA   C2B 2304  11.775   3.251  18.857
  196DPPA   C3B 2305  12.125   3.271  19.187
  196DPPA   C4B 2306  12.385   3.321  19.607
  197DPPA   PO4 2307  10.875   2.501  17.797
  197DPPA   GL1 2308  11.205   2.291  18.007
  197DPPA   GL2 2309  11.445   2.371  17.947
  197DPPA   C1A 2310  11.055   2.151  18.287
  197DPPA   C2A 2311  11.135   1.911  18.597
  197DPPA   C3A 2312  11.395   1.731  19.007
  197DPPA   C4A 2313  11.685   1.791  19.357
  197DPPA   C1B 2314  11.645   2.451  18.257
  197DPPA   C2B 2315  11.805   2.431  18.637
  197DPPA   C3B 2316  12.155   2.431  18.997
  197DPPA   C4B 2317  12.525   2.411  19.347
  198DPPA   PO4 2318  14.485   0.781  12.997
  198DPPA   GL1 2319  14.695   0.761  13.367
  198DPPA   GL2 2320  14.665   0.441  13.347
  198DPPA   C1A 2321  14.925   0.851  13.657
  198DPPA   C2A 2322  15.105   0.881  14.057
  198DPPA   C3A 2323  15.435   0.901  14.447
  198DPPA   C4A 2324  15.765   0.881  14.837
  198DPPA   C1B 2325  14.925   0.351  13.557
  198DPPA   C2B 2326  15.205   0.381  13.807
  198DPPA   C3B 2327  15.575   0.491  14.187
  198DPPA   C4B 2328  15.905   0.471  14.487
  199DPPA   PO4 2329  12.765   1.301  15.097
  199DPPA   GL1 2330  12.985   1.021  15.397
  199DPPA   GL2 2331  13.265   1.011  15.247
  199DPPA   C1A 2332  13.125   1.161  15.667
  199DPPA   C2A 2333  13.285   1.181  16.047
  199DPPA   C3A 2334  13.655   1.141  16.347
  199DPPA   C4A 2335  13.915   1.151  16.767
  199DPPA   C1B 2336  13.525   0.781  15.327
  199DPPA   C2B 2337  13.935   0.861  15.457
  199DPPA   C3B 2338  14.245   0.921  15.897
  199DPPA   C4B 2339  14.545   0.881  16.237
  200DPPA   PO4 2340  17.605   0.151  16.927
  200DPPA   GL1 2341  17.235   0.151  16.917
  200DPPA   GL2 2342  17.075   0.431  16.947
  200DPPA   C1A 2343  16.925   0.001  16.727
  200DPPA   C2A 2344  16.555   6.559  16.447
  200DPPA   C3A 2345  16.245   6.569  16.067
  200DPPA   C4A 2346  15.945   6.549  15.667
  200DPPA   C1B 2347  16.815   0.471  16.697
  200DPPA   C2B 2348  16.665   0.431  16.277
  200DPPA   C3B 2349  16.455   0.401  15.867
  200DPPA   C4B 2350  16.115   0.431  15.487
12084DPPC   NC3 2351   0.177   1.251  13.207
12084DPPC   PO4 2352  21.125   1.121  12.907
12084DPPC   GL1 2353   0.287   1.191  12.597
12084DPPC   GL2 2354   0.067   0.981  12.467
12084DPPC   C1A 2355   0.537   1.151  12.297
12084DPPC   C2A 2356   0.657   1.021  11.957
12084DPPC   C3A 2357   0.967   0.991  11.537
12084DPPC   C4A 2358   1.237   0.921  11.107
12084DPPC   C1B 2359   0.077   0.911  12.117
12084DPPC   C2B 2360   0.087   1.141  11.757
12084DPPC   C3B 2361   0.037   1.391  11.357
12084DPPC   C4B 2362  21.125   1.741  10.997
12085DPPC   NC3 2363  20.255   0.881  13.517
12085DPPC   PO4 2364  20.225   0.761  13.177
12085DPPC   GL1 2365  19.885   0.911  13.077
12085DPPC   GL2 2366  19.735   0.921  13.307
12085DPPC   C1A 2367  19.665   0.851  12.777
12085DPPC   C2A 2368  19.475   0.851  12.357
12085DPPC   C3A 2369  19.175   0.821  11.997
12085DPPC   C4A 2370  18.865   0.841  11.577
12085DPPC   C1B 2371  19.375   0.951  13.167
12085DPPC   C2B 2372  19.175   0.841  12.857
12085DPPC   C3B 2373  19.005   0.761  12.477
12085DPPC   C4B 2374  18.665   0.751  12.057
12086DPPC   NC3 2375  20.405   5.669  13.437
12086DPPC   PO4 2376  20.675   5.629  13.157
12086DPPC   GL1 2377  20.515   5.359  12.827
12086DPPC   GL2 2378  20.755   5.219  12.807
12086DPPC   C1A 2379  20.615   5.329  12.437
12086DPPC   C2A 2380  20.765   5.169  12.077
12086DPPC   C3A 2381  21.065   5.029  11.767
12086DPPC   C4A 2382   0.147   4.959  11.337
12086DPPC   C1B 2383  20.905   5.029  12.527
12086DPPC   C2B 2384  21.115   4.829  12.247
12086DPPC   C3B 2385   0.027   4.529  11.837
12086DPPC   C4B 2386   0.147   4.209  11.507
12087DPPC   NC3 2387  17.775   0.251  16.487
12087DPPC   PO4 2388  17.795   6.519  16.257
12087DPPC   GL1 2389  17.365   6.419  16.067
12087DPPC   GL2 2390  17.525   6.279  15.857
12087DPPC   C1A 2391  17.125   6.269  15.887
12087DPPC   C2A 2392  16.875   6.259  15.567
12087DPPC   C3A 2393  16.505   6.249  15.227
12087DPPC   C4A 2394  16.145   6.209  14.847
12087DPPC   C1B 2395  17.385   6.339  15.547
12087DPPC   C2B 2396  17.265   6.349  15.167
12087DPPC   C3B 2397  16.985   6.319  14.797
12087DPPC   C4B 2398  16.585   6.299  14.457
12088DPPC   NC3 2399  20.825   2.121  13.267
12088DPPC   PO4 2400  20.705   2.131  12.877
12088DPPC   GL1 2401  20.775   2.391  12.517
12088DPPC   GL2 2402  20.505   2.481  12.577
12088DPPC   C1A 2403  21.075   2.381  12.257
12088DPPC   C2A 2404   0.167   2.321  11.957
12088DPPC   C3A 2405   0.477   2.331  11.567
12088DPPC   C4A 2406   0.737   2.301  11.167
12088DPPC   C1B 2407  20.165   2.361  12.467
12088DPPC   C2B 2408  20.005   2.271  12.097
12088DPPC   C3B 2409  19.745   2.211  11.677
12088DPPC   C4B 2410  19.585   2.061  11.267
12089DPPC   NC3 2411  19.245   5.839  15.277
12089DPPC   PO4 2412  19.135   5.679  14.907
12089DPPC   GL1 2413  18.795   5.449  14.917
12089DPPC   GL2 2414  18.865   5.239  14.767
12089DPPC   C1A 2415  18.475   5.599  14.817
12089DPPC   C2A 2416  18.205   5.809  14.577
12089DPPC   C3A 2417  17.905   5.809  14.227
12089DPPC   C4A 2418  17.655   5.759  13.877
12089DPPC   C1B 2419  18.565   5.099  14.577
12089DPPC   C2B 2420  18.265   4.879  14.387
12089DPPC   C3B 2421  17.935   4.869  13.957
12089DPPC   C4B 2422  17.685   4.859  13.587
12090DPPC   NC3 2423  20.035   0.101  11.977
12090DPPC   PO4 2424  20.395   6.549  12.037
12090DPPC   GL1 2425  20.555   6.179  11.867
12090DPPC   GL2 2426  20.775   6.109  12.057
12090DPPC   C1A 2427  20.695   6.149  11.517
12090DPPC   C2A 2428  20.975   5.969  11.327
12090DPPC   C3A 2429   0.137   5.759  11.067
12090DPPC   C4A 2430   0.447   5.549  10.767
12090DPPC   C1B 2431  21.095   5.919  12.007
12090DPPC   C2B 2432   0.287   5.849  11.767
12090DPPC   C3B 2433   0.507   5.739  11.377
12090DPPC   C4B 2434   0.817   5.749  11.017
12091DPPC   NC3 2435  19.895   1.991  13.877
12091DPPC   PO4 2436  19.725   1.961  14.257
12091DPPC   GL1 2437  19.345   2.031  14.217
12091DPPC   GL2 2438  19.235   2.251  14.357
12091DPPC   C1A 2439  19.275   1.991  13.827
12091DPPC   C2A 2440  19.065   2.021  13.497
12091DPPC   C3A 2441  18.785   2.071  13.077
12091DPPC   C4A 2442  18.555   1.941  12.737
12091DPPC   C1B 2443  18.915   2.211  14.117
12091DPPC   C2B 2444  18.565   2.261  13.907
12091DPPC   C3B 2445  18.205   2.311  13.607
12091DPPC   C4B 2446  17.895   2.321  13.207
12092DPPC   NC3 2447  18.505   5.079  15.057
12092DPPC   PO4 2448  18.535   4.719  15.067
12092DPPC   GL1 2449  18.305   4.539  15.007
12092DPPC   GL2 2450  18.085   4.429  15.217
12092DPPC   C1A 2451  18.165   4.469  14.637
12092DPPC   C2A 2452  17.895   4.459  14.317
12092DPPC   C3A 2453  17.665   4.439  13.947
12092DPPC   C4A 2454  17.445   4.389  13.487
12092DPPC   C1B 2455  17.885   4.329  14.967
12092DPPC   C2B 2456  17.585   4.339  14.677
12092DPPC   C3B 2457  17.325   4.369  14.287
12092DPPC   C4B 2458  17.065   4.319  13.897
12093DPPC   NC3 2459  19.185   3.989  14.917
12093DPPC   PO4 2460  19.125   4.219  14.607
12093DPPC   GL1 2461  18.805   4.179  14.427
12093DPPC   GL2 2462  18.905   4.159  14.157
12093DPPC   C1A 2463  18.395   4.119  14.367
12093DPPC   C2A 2464  18.135   4.109  14.057
12093DPPC   C3A 2465  17.875   4.109  13.657
12093DPPC   C4A 2466  17.675   4.039  13.237
12093DPPC   C1B 2467  18.675   4.109  13.877
12093DPPC   C2B 2468  18.485   4.039  13.507
12093DPPC   C3B 2469  18.185   4.029  13.127
12093DPPC   C4B 2470  17.835   3.989  12.757
12094DPPC   NC3 2471  19.125   2.621  14.747
12094DPPC   PO4 2472  19.265   2.761  14.407
12094DPPC   GL1 2473  19.235   2.721  13.987
12094DPPC   GL2 2474  19.225   2.961  13.897
12094DPPC   C1A 2475  19.015   2.481  13.767
12094DPPC   C2A 2476  18.725   2.421  13.477
12094DPPC   C3A 2477  18.445   2.391  13.077
12094DPPC   C4A 2478  18.095   2.391  12.737
12094DPPC   C1B 2479  19.065   2.901  13.567
12094DPPC   C2B 2480  18.845   2.881  13.227
12094DPPC   C3B 2481  18.525   2.811  12.867
12094DPPC   C4B 2482  18.275   2.801  12.467
12095DPPC   NC3 2483  20.345   4.299  13.667
12095DPPC   PO4 2484  20.525   4.139  13.347
12095DPPC   GL1 2485  20.595   4.239  12.927
12095DPPC   GL2 2486  20.855   4.319  12.927
12095DPPC   C1A 2487  20.485   4.229  12.547
12095DPPC   C2A 2488  20.375   4.289  12.147
12095DPPC   C3A 2489  20.165   4.379  11.697
12095DPPC   C4A 2490  19.915   4.409  11.297
12095DPPC   C1B 2491  20.945   4.269  12.577
12095DPPC   C2B 2492  20.935   4.289  12.147
12095DPPC   C3B 2493  20.795   4.279  11.707
12095DPPC   C4B 2494  20.465   4.179  11.317
12096DPPC   NC3 2495  20.935   6.479  12.237
12096DPPC   PO4 2496  20.605   6.359  12.417
12096DPPC   GL1 2497  20.275   6.109  12.397
12096DPPC   GL2 2498  20.075   6.279  12.477
12096DPPC   C1A 2499  20.235   5.959  12.077
12096DPPC   C2A 2500  20.265   5.839  11.697
12096DPPC   C3A 2501  20.505   5.699  11.317
12096DPPC   C4A 2502  20.825   5.749  10.927
12096DPPC   C1B 2503  19.845   6.259  12.137
12096DPPC   C2B 2504  19.855   6.199  11.707
12096DPPC   C3B 2505  19.595   6.169  11.377
12096DPPC   C4B 2506  19.385   6.219  10.947
12097DPPC   NC3 2507  19.805   5.149  14.687
12097DPPC   PO4 2508  19.965   4.859  14.447
12097DPPC   GL1 2509  19.615   4.909  14.137
12097DPPC   GL2 2510  19.565   4.709  13.947
12097DPPC   C1A 2511  19.475   5.129  13.827
12097DPPC   C2A 2512  19.345   5.199  13.437
12097DPPC   C3A 2513  19.095   5.159  13.007
12097DPPC   C4A 2514  18.815   5.119  12.617
12097DPPC   C1B 2515  19.345   4.699  13.667
12097DPPC   C2B 2516  19.055   4.679  13.367
12097DPPC   C3B 2517  18.815   4.639  12.937
12097DPPC   C4B 2518  18.555   4.699  12.507
12098DPPC   NC3 2519  18.375   1.601  16.217
12098DPPC   PO4 2520  18.245   1.861  15.947
12098DPPC   GL1 2521  17.905   1.861  15.667
12098DPPC   GL2 2522  17.685   1.931  15.867
12098DPPC   C1A 2523  17.885   1.581  15.467
12098DPPC   C2A 2524  17.575   1.581  15.277
12098DPPC   C3A 2525  17.215   1.591  14.937
12098DPPC   C4A 2526  16.955   1.601  14.537
12098DPPC   C1B 2527  17.425   1.981  15.587
12098DPPC   C2B 2528  17.255   1.971  15.237
12098DPPC   C3B 2529  16.895   1.951  14.937
12098DPPC   C4B 2530  16.575   1.951  14.537
12099DPPC   NC3 2531  20.145   0.971  12.637
12099DPPC   PO4 2532  20.365   0.671  12.517
12099DPPC   GL1 2533  20.165   0.621  12.137
12099DPPC   GL2 2534  20.015   0.871  12.157
12099DPPC   C1A 2535  20.065   0.511  11.827
12099DPPC   C2A 2536  19.855   0.461  11.447
12099DPPC   C3A 2537  19.655   0.601  11.047
12099DPPC   C4A 2538  19.355   0.551  10.617
12099DPPC   C1B 2539  19.735   0.901  11.947
12099DPPC   C2B 2540  19.615   0.931  11.537
12099DPPC   C3B 2541  19.915   1.031  11.187
12099DPPC   C4B 2542  20.175   1.021  10.727
12100DPPC   NC3 2543   0.157   3.171  13.207
12100DPPC   PO4 2544  21.055   3.481  13.157
12100DPPC   GL1 2545   0.047   3.661  12.887
12100DPPC   GL2 2546  20.945   3.841  12.797
12100DPPC   C1A 2547   0.317   3.611  12.617
12100DPPC   C2A 2548   0.507   3.681  12.247
12100DPPC   C3A 2549   0.887   3.671  11.887
12100DPPC   C4A 2550   1.187   3.621  11.497
12100DPPC   C1B 2551  20.755   3.781  12.477
12100DPPC   C2B 2552  20.665   3.761  12.077
12100DPPC   C3B 2553  20.415   3.811  11.657
12100DPPC   C4B 2554  20.235   3.771  11.237
12101DPPC   NC3 2555  19.725   2.821  14.167
12101DPPC   PO4 2556  19.825   3.161  14.007
12101DPPC   GL1 2557  19.785   3.091  13.557
12101DPPC   GL2 2558  19.465   3.041  13.567
12101DPPC   C1A 2559  19.745   3.331  13.287
12101DPPC   C2A 2560  19.455   3.471  13.067
12101DPPC   C3A 2561  19.275   3.411  12.667
12101DPPC   C4A 2562  19.005   3.311  12.267
12101DPPC   C1B 2563  19.375   2.981  13.207
12101DPPC   C2B 2564  19.165   2.951  12.877
12101DPPC   C3B 2565  18.905   2.851  12.557
12101DPPC   C4B 2566  18.635   2.871  12.147
12102DPPC   NC3 2567  19.235   1.651  14.937
12102DPPC   PO4 2568  18.835   1.671  14.897
12102DPPC   GL1 2569  18.645   1.641  14.517
12102DPPC   GL2 2570  18.525   1.391  14.547
12102DPPC   C1A 2571  18.455   1.871  14.277
12102DPPC   C2A 2572  18.225   1.851  13.907
12102DPPC   C3A 2573  17.995   1.821  13.527
12102DPPC   C4A 2574  17.665   1.871  13.167
12102DPPC   C1B 2575  18.345   1.331  14.217
12102DPPC   C2B 2576  18.065   1.351  13.947
12102DPPC   C3B 2577  17.785   1.381  13.597
12102DPPC   C4B 2578  17.485   1.361  13.167
12103DPPC   NC3 2579  20.025   4.589  14.067
12103DPPC   PO4 2580  20.045   4.739  13.727
12103DPPC   GL1 2581  19.755   4.879  13.397
12103DPPC   GL2 2582  20.015   4.929  13.287
12103DPPC   C1A 2583  19.495   4.779  13.157
12103DPPC   C2A 2584  19.315   4.779  12.787
12103DPPC   C3A 2585  19.125   4.759  12.377
12103DPPC   C4A 2586  18.885   4.689  11.977
12103DPPC   C1B 2587  19.915   4.889  12.927
12103DPPC   C2B 2588  19.725   4.889  12.537
12103DPPC   C3B 2589  19.515   4.819  12.057
12103DPPC   C4B 2590  19.245   4.899  11.707
12104DPPC   NC3 2591  17.405   2.601  16.817
12104DPPC   PO4 2592  17.415   2.981  16.677
12104DPPC   GL1 2593  17.095   3.011  16.447
12104DPPC   GL2 2594  17.235   2.971  16.207
12104DPPC   C1A 2595  16.825   2.761  16.397
12104DPPC   C2A 2596  16.475   2.681  16.147
12104DPPC   C3A 2597  16.145   2.621  15.807
12104DPPC   C4A 2598  15.815   2.591  15.477
12104DPPC   C1B 2599  17.115   3.161  15.917
12104DPPC   C2B 2600  16.865   3.191  15.587
12104DPPC   C3B 2601  16.445   3.141  15.277
12104DPPC   C4B 2602  16.105   3.131  14.877
12105DPPC   NC3 2603  18.985   4.869  14.977
12105DPPC   PO4 2604  18.905   4.669  14.697
12105DPPC   GL1 2605  18.835   4.609  14.357
12105DPPC   GL2 2606  18.545   4.509  14.397
12105DPPC   C1A 2607  18.835   4.559  13.967
12105DPPC   C2A 2608  18.685   4.499  13.627
12105DPPC   C3A 2609  18.415   4.539  13.227
12105DPPC   C4A 2610  18.115   4.579  12.837
12105DPPC   C1B 2611  18.425   4.509  14.067
12105DPPC   C2B 2612  18.185   4.509  13.727
12105DPPC   C3B 2613  17.915   4.489  13.337
12105DPPC   C4B 2614  17.645   4.439  12.937
12106DPPC   NC3 2615  20.745   0.661  12.897
12106DPPC   PO4 2616  20.515   0.321  12.997
12106DPPC   GL1 2617  20.065   0.491  12.857
12106DPPC   GL2 2618  20.065   0.231  12.967
12106DPPC   C1A 2619  19.885   0.511  12.507
12106DPPC   C2A 2620  19.715   0.471  12.127
12106DPPC   C3A 2621  19.475   0.461  11.777
12106DPPC   C4A 2622  19.215   0.451  11.347
12106DPPC   C1B 2623  19.825   0.031  12.757
12106DPPC   C2B 2624  19.675   0.011  12.367
12106DPPC   C3B 2625  19.435   6.589  11.907
12106DPPC   C4B 2626  19.285   0.011  11.467
12107DPPC   NC3 2627  18.725   0.471  15.167
12107DPPC   PO4 2628  19.035   0.661  14.907
12107DPPC   GL1 2629  18.895   0.791  14.507
12107DPPC   GL2 2630  18.895   0.501  14.437
12107DPPC   C1A 2631  18.685   0.971  14.277
12107DPPC   C2A 2632  18.435   1.001  13.967
12107DPPC   C3A 2633  18.155   0.941  13.557
12107DPPC   C4A 2634  17.855   1.021  13.227
12107DPPC   C1B 2635  18.605   0.461  14.227
12107DPPC   C2B 2636  18.285   0.501  13.907
12107DPPC   C3B 2637  17.925   0.481  13.497
12107DPPC   C4B 2638  17.635   0.541  13.147
12108DPPC   NC3 2639  18.215   3.091  16.277
12108DPPC   PO4 2640  18.075   2.801  16.037
12108DPPC   GL1 2641  17.955   2.981  15.647
12108DPPC   GL2 2642  18.065   2.781  15.497
12108DPPC   C1A 2643  17.705   3.011  15.327
12108DPPC   C2A 2644  17.415   2.991  15.067
12108DPPC   C3A 2645  17.105   2.871  14.717
12108DPPC   C4A 2646  16.755   2.871  14.387
12108DPPC   C1B 2647  18.015   2.631  15.187
12108DPPC   C2B 2648  17.695   2.541  14.957
12108DPPC   C3B 2649  17.405   2.521  14.597
12108DPPC   C4B 2650  17.095   2.571  14.277
12109DPPC   NC3 2651  17.765   4.959  16.207
12109DPPC   PO4 2652  17.975   4.979  15.847
12109DPPC   GL1 2653  17.795   5.039  15.427
12109DPPC   GL2 2654  17.515   5.009  15.567
12109DPPC   C1A 2655  17.905   4.839  15.097
12109DPPC   C2A 2656  17.855   4.809  14.697
12109DPPC   C3A 2657  17.555   4.829  14.327
12109DPPC   C4A 2658  17.295   4.789  13.897
12109DPPC   C1B 2659  17.225   5.049  15.307
12109DPPC   C2B 2660  16.965   5.059  14.977
12109DPPC   C3B 2661  16.675   5.029  14.647
12109DPPC   C4B 2662  16.445   5.019  14.247
12110DPPC   NC3 2663  19.915   3.531  13.667
12110DPPC   PO4 2664  19.905   3.939  13.687
12110DPPC   GL1 2665  19.835   3.999  13.327
12110DPPC   GL2 2666  20.115   4.069  13.247
12110DPPC   C1A 2667  19.625   3.969  13.057
12110DPPC   C2A 2668  19.435   3.891  12.707
12110DPPC   C3A 2669  19.175   3.909  12.347
12110DPPC   C4A 2670  18.955   3.781  11.987
12110DPPC   C1B 2671  20.075   4.159  12.877
12110DPPC   C2B 2672  19.925   4.089  12.507
12110DPPC   C3B 2673  19.595   3.999  12.097
12110DPPC   C4B 2674  19.285   4.009  11.727
12111DPPC   NC3 2675   0.307   2.881  13.837
12111DPPC   PO4 2676   0.317   2.651  13.497
12111DPPC   GL1 2677   0.537   2.641  13.147
12111DPPC   GL2 2678   0.507   2.471  13.007
12111DPPC   C1A 2679   0.767   2.891  12.957
12111DPPC   C2A 2680   1.037   2.931  12.647
12111DPPC   C3A 2681   1.357   2.891  12.247
12111DPPC   C4A 2682   1.697   2.851  11.927
12111DPPC   C1B 2683   0.727   2.451  12.717
12111DPPC   C2B 2684   0.987   2.451  12.387
12111DPPC   C3B 2685   1.317   2.461  12.017
12111DPPC   C4B 2686   1.587   2.381  11.637
12112DPPC   NC3 2687  20.255   0.351  13.417
12112DPPC   PO4 2688  20.035   0.221  13.717
12112DPPC   GL1 2689  19.755   0.241  13.347
12112DPPC   GL2 2690  19.835   0.471  13.257
12112DPPC   C1A 2691  19.545   0.031  13.117
12112DPPC   C2A 2692  19.375   6.549  12.777
12112DPPC   C3A 2693  19.145   6.489  12.397
12112DPPC   C4A 2694  18.915   6.419  12.067
12112DPPC   C1B 2695  19.675   0.441  12.937
12112DPPC   C2B 2696  19.465   0.381  12.577
12112DPPC   C3B 2697  19.145   0.311  12.157
12112DPPC   C4B 2698  18.905   0.381  11.747
12113DPPC   NC3 2699  18.325   1.881  15.407
12113DPPC   PO4 2700  18.635   2.041  15.337
12113DPPC   GL1 2701  18.515   2.011  14.917
12113DPPC   GL2 2702  18.295   2.271  15.007
12113DPPC   C1A 2703  18.285   1.871  14.677
12113DPPC   C2A 2704  18.035   1.761  14.327
12113DPPC   C3A 2705  17.715   1.751  13.907
12113DPPC   C4A 2706  17.395   1.751  13.587
12113DPPC   C1B 2707  18.085   2.211  14.807
12113DPPC   C2B 2708  17.815   2.201  14.507
12113DPPC   C3B 2709  17.485   2.191  14.157
12113DPPC   C4B 2710  17.185   2.231  13.827
12114DPPC   NC3 2711  19.955   5.159  13.977
12114DPPC   PO4 2712  19.755   5.379  14.217
12114DPPC   GL1 2713  19.325   5.549  14.137
12114DPPC   GL2 2714  19.465   5.599  13.887
12114DPPC   C1A 2715  19.035   5.389  13.977
12114DPPC   C2A 2716  18.645   5.399  13.867
12114DPPC   C3A 2717  18.355   5.429  13.467
12114DPPC   C4A 2718  18.105   5.459  13.087
12114DPPC   C1B 2719  19.205   5.589  13.637
12114DPPC   C2B 2720  18.865   5.439  13.407
12114DPPC   C3B 2721  18.665   5.449  13.017
12114DPPC   C4B 2722  18.385   5.329  12.627
12115DPPC   NC3 2723  19.415   4.019  14.217
12115DPPC   PO4 2724  19.685   4.249  14.017
12115DPPC   GL1 2725  19.675   4.369  13.647
12115DPPC   GL2 2726  19.925   4.369  13.547
12115DPPC   C1A 2727  19.475   4.219  13.377
12115DPPC   C2A 2728  19.255   4.309  13.027
12115DPPC   C3A 2729  19.005   4.339  12.577
12115DPPC   C4A 2730  18.725   4.179  12.207
12115DPPC   C1B 2731  19.885   4.499  13.217
12115DPPC   C2B 2732  19.695   4.419  12.877
12115DPPC   C3B 2733  19.495   4.399  12.537
12115DPPC   C4B 2734  19.265   4.349  12.087
12116DPPC   NC3 2735  19.645   4.209  14.657
12116DPPC   PO4 2736  19.575   4.519  14.457
12116DPPC   GL1 2737  19.245   4.669  14.247
12116DPPC   GL2 2738  19.215   4.449  14.157
12116DPPC   C1A 2739  19.155   4.919  13.987
12116DPPC   C2A 2740  18.945   5.049  13.657
12116DPPC   C3A 2741  18.695   5.019  13.307
12116DPPC   C4A 2742  18.415   5.019  12.957
12116DPPC   C1B 2743  19.145   4.309  13.817
12116DPPC   C2B 2744  18.985   4.159  13.437
12116DPPC   C3B 2745  18.695   4.179  13.037
12116DPPC   C4B 2746  18.435   4.239  12.657
12117DPPC   NC3 2747  20.105   3.541  14.117
12117DPPC   PO4 2748  19.745   3.681  14.157
12117DPPC   GL1 2749  19.465   3.681  13.917
12117DPPC   GL2 2750  19.425   3.929  13.767
12117DPPC   C1A 2751  19.365   3.451  13.627
12117DPPC   C2A 2752  19.075   3.331  13.297
12117DPPC   C3A 2753  18.795   3.271  12.877
12117DPPC   C4A 2754  18.525   3.211  12.537
12117DPPC   C1B 2755  19.315   3.841  13.447
12117DPPC   C2B 2756  19.075   3.831  13.087
12117DPPC   C3B 2757  18.815   3.791  12.627
12117DPPC   C4B 2758  18.465   3.751  12.257
12118DPPC   NC3 2759  19.795   6.459  13.557
12118DPPC   PO4 2760  20.105   6.519  13.277
12118DPPC   GL1 2761  19.885   6.309  13.007
12118DPPC   GL2 2762  19.765   6.119  13.227
12118DPPC   C1A 2763  19.655   6.199  12.727
12118DPPC   C2A 2764  19.505   6.119  12.377
12118DPPC   C3A 2765  19.395   6.119  11.927
12118DPPC   C4A 2766  19.025   6.129  11.617
12118DPPC   C1B 2767  19.415   6.069  13.117
12118DPPC   C2B 2768  19.205   6.079  12.757
12118DPPC   C3B 2769  18.975   6.009  12.317
12118DPPC   C4B 2770  18.715   5.949  11.947
12119DPPC   NC3 2771   0.237   6.149  12.757
12119DPPC   PO4 2772  21.065   6.099  12.497
12119DPPC   GL1 2773  20.685   5.839  12.527
12119DPPC   GL2 2774  20.895   5.659  12.657
12119DPPC   C1A 2775  20.565   5.709  12.217
12119DPPC   C2A 2776  20.765   5.659  11.847
12119DPPC   C3A 2777  21.035   5.439  11.457
12119DPPC   C4A 2778   0.037   5.279  10.957
12119DPPC   C1B 2779  20.965   5.519  12.327
12119DPPC   C2B 2780   0.077   5.439  11.987
12119DPPC   C3B 2781   0.377   5.339  11.647
12119DPPC   C4B 2782   0.537   5.249  11.167
12120DPPC   NC3 2783   0.127   5.269  13.397
12120DPPC   PO4 2784  21.105   5.349  13.067
12120DPPC   GL1 2785   0.167   5.439  12.707
12120DPPC   GL2 2786   0.157   5.689  12.717
12120DPPC   C1A 2787   0.257   5.289  12.377
12120DPPC   C2A 2788   0.367   5.019  12.037
12120DPPC   C3A 2789   0.597   4.959  11.577
12120DPPC   C4A 2790   0.897   4.889  11.107
12120DPPC   C1B 2791   0.377   5.799  12.427
12120DPPC   C2B 2792   0.657   5.829  12.067
12120DPPC   C3B 2793   0.877   5.869  11.727
12120DPPC   C4B 2794   1.227   5.869  11.407
12121DPPC   NC3 2795  20.985   3.969  13.207
12121DPPC   PO4 2796   0.187   4.149  13.117
12121DPPC   GL1 2797   0.417   4.089  12.797
12121DPPC   GL2 2798   0.167   3.999  12.587
12121DPPC   C1A 2799   0.657   4.159  12.537
12121DPPC   C2A 2800   0.867   4.129  12.187
12121DPPC   C3A 2801   1.157   4.099  11.787
12121DPPC   C4A 2802   1.527   4.169  11.427
12121DPPC   C1B 2803   0.297   4.099  12.267
12121DPPC   C2B 2804   0.437   4.099  11.917
12121DPPC   C3B 2805   0.707   4.069  11.567
12121DPPC   C4B 2806   1.097   4.039  11.197
12122DPPC   NC3 2807  19.565   3.401  14.837
12122DPPC   PO4 2808  19.475   3.671  14.577
12122DPPC   GL1 2809  19.145   3.691  14.307
12122DPPC   GL2 2810  18.955   3.741  14.437
12122DPPC   C1A 2811  19.055   3.761  13.937
12122DPPC   C2A 2812  18.885   3.661  13.597
12122DPPC   C3A 2813  18.595   3.691  13.197
12122DPPC   C4A 2814  18.305   3.721  12.777
12122DPPC   C1B 2815  18.635   3.791  14.297
12122DPPC   C2B 2816  18.425   3.741  13.947
12122DPPC   C3B 2817  18.175   3.651  13.557
12122DPPC   C4B 2818  17.935   3.591  13.157
12123DPPC   NC3 2819  18.245   0.241  15.607
12123DPPC   PO4 2820  18.355   0.641  15.587
12123DPPC   GL1 2821  18.305   0.711  15.127
12123DPPC   GL2 2822  18.225   0.441  15.107
12123DPPC   C1A 2823  18.055   0.801  14.887
12123DPPC   C2A 2824  17.725   0.841  14.627
12123DPPC   C3A 2825  17.445   0.801  14.237
12123DPPC   C4A 2826  17.135   0.791  13.857
12123DPPC   C1B 2827  17.975   0.281  14.877
12123DPPC   C2B 2828  17.635   0.271  14.627
12123DPPC   C3B 2829  17.315   0.331  14.207
12123DPPC   C4B 2830  17.015   0.251  13.917
12124DPPC   NC3 2831  17.955   6.079  15.807
12124DPPC   PO4 2832  17.885   5.709  16.037
12124DPPC   GL1 2833  17.695   5.439  15.827
12124DPPC   GL2 2834  17.545   5.339  16.017
12124DPPC   C1A 2835  17.495   5.439  15.427
12124DPPC   C2A 2836  17.305   5.469  15.087
12124DPPC   C3A 2837  17.025   5.469  14.697
12124DPPC   C4A 2838  16.665   5.589  14.367
12124DPPC   C1B 2839  17.245   5.399  15.807
12124DPPC   C2B 2840  17.005   5.409  15.477
12124DPPC   C3B 2841  16.695   5.539  15.097
12124DPPC   C4B 2842  16.345   5.369  14.727
12125DPPC   NC3 2843  18.835   6.399  15.257
12125DPPC   PO4 2844  18.555   0.061  15.277
12125DPPC   GL1 2845  18.155   6.429  15.377
12125DPPC   GL2 2846  17.995   0.011  15.247
12125DPPC   C1A 2847  17.845   6.219  15.387
12125DPPC   C2A 2848  17.565   5.979  15.097
12125DPPC   C3A 2849  17.315   5.859  14.707
12125DPPC   C4A 2850  17.005   5.969  14.367
12125DPPC   C1B 2851  17.715   6.509  14.987
12125DPPC   C2B 2852  17.425   6.439  14.677
12125DPPC   C3B 2853  17.155   6.489  14.267
12125DPPC   C4B 2854  16.845   6.419  13.897
12126DPPC   NC3 2855  18.425   3.551  15.447
12126DPPC   PO4 2856  18.365   3.919  15.277
12126DPPC   GL1 2857  18.215   4.029  14.957
12126DPPC   GL2 2858  17.965   3.881  15.017
12126DPPC   C1A 2859  18.005   4.049  14.647
12126DPPC   C2A 2860  17.715   3.959  14.337
12126DPPC   C3A 2861  17.485   3.929  13.927
12126DPPC   C4A 2862  17.155   3.929  13.557
12126DPPC   C1B 2863  17.615   3.919  14.907
12126DPPC   C2B 2864  17.305   3.851  14.587
12126DPPC   C3B 2865  17.055   3.751  14.187
12126DPPC   C4B 2866  16.715   3.441  14.017
12127DPPC   NC3 2867  20.715   2.581  13.047
12127DPPC   PO4 2868  20.935   2.911  13.097
12127DPPC   GL1 2869  20.985   3.191  12.837
12127DPPC   GL2 2870  20.685   3.321  12.907
12127DPPC   C1A 2871   0.107   3.221  12.577
12127DPPC   C2A 2872   0.377   3.221  12.237
12127DPPC   C3A 2873   0.607   3.241  11.867
12127DPPC   C4A 2874   0.897   3.241  11.487
12127DPPC   C1B 2875  20.495   3.341  12.587
12127DPPC   C2B 2876  20.375   3.321  12.197
12127DPPC   C3B 2877  20.355   3.091  11.797
12127DPPC   C4B 2878  20.365   2.801  11.347
12128DPPC   NC3 2879  19.965   6.129  13.927
12128DPPC   PO4 2880  20.155   6.049  13.537
12128DPPC   GL1 2881  20.035   5.749  13.207
12128DPPC   GL2 2882  19.955   5.589  13.427
12128DPPC   C1A 2883  19.755   5.709  13.037
12128DPPC   C2A 2884  19.585   5.649  12.667
12128DPPC   C3A 2885  19.375   5.649  12.227
12128DPPC   C4A 2886  19.145   5.629  11.797
12128DPPC   C1B 2887  19.765   5.349  13.277
12128DPPC   C2B 2888  19.585   5.199  12.937
12128DPPC   C3B 2889  19.355   5.189  12.527
12128DPPC   C4B 2890  19.085   5.199  12.117
12129DPPC   NC3 2891  20.825   0.801  12.337
12129DPPC   PO4 2892  20.535   1.031  12.227
12129DPPC   GL1 2893  20.555   1.361  11.927
12129DPPC   GL2 2894  20.875   1.441  11.977
12129DPPC   C1A 2895  20.445   1.621  11.707
12129DPPC   C2A 2896  20.585   1.991  11.757
12129DPPC   C3A 2897  20.795   2.381  11.767
12129DPPC   C4A 2898  20.815   2.881  11.717
12129DPPC   C1B 2899  20.865   1.641  11.657
12129DPPC   C2B 2900  20.625   1.751  11.307
12129DPPC   C3B 2901  20.565   1.881  10.917
12129DPPC   C4B 2902  20.565   2.211  10.517
12130DPPC   NC3 2903  20.745   5.169  13.357
12130DPPC   PO4 2904  20.985   4.879  13.467
12130DPPC   GL1 2905   0.137   4.779  13.127
12130DPPC   GL2 2906  21.015   4.849  13.017
12130DPPC   C1A 2907   0.307   4.949  12.867
12130DPPC   C2A 2908   0.557   4.929  12.517
12130DPPC   C3A 2909   0.897   4.909  12.117
12130DPPC   C4A 2910   1.167   4.959  11.697
12130DPPC   C1B 2911  21.045   4.659  12.697
12130DPPC   C2B 2912   0.247   4.509  12.537
12130DPPC   C3B 2913   0.477   4.499  12.157
12130DPPC   C4B 2914   0.787   4.529  11.807
12131DPPC   NC3 2915  19.815   0.481  14.197
12131DPPC   PO4 2916  19.655   0.221  14.477
12131DPPC   GL1 2917  19.325   0.281  14.167
12131DPPC   GL2 2918  19.195   0.031  14.307
12131DPPC   C1A 2919  19.125   0.381  13.917
12131DPPC   C2A 2920  18.975   0.321  13.537
12131DPPC   C3A 2921  18.685   0.211  13.117
12131DPPC   C4A 2922  18.415   0.241  12.767
12131DPPC   C1B 2923  18.865   0.061  14.127
12131DPPC   C2B 2924  18.645   0.171  13.817
12131DPPC   C3B 2925  18.325   0.161  13.467
12131DPPC   C4B 2926  18.015   0.181  13.027
12132DPPC   NC3 2927  17.445   0.231  15.947
12132DPPC   PO4 2928  17.765   0.081  15.757
12132DPPC   GL1 2929  17.555   0.081  15.427
12132DPPC   GL2 2930  17.585   0.321  15.307
12132DPPC   C1A 2931  17.215   0.091  15.507
12132DPPC   C2A 2932  16.865   0.071  15.257
12132DPPC   C3A 2933  16.585   0.011  14.887
12132DPPC   C4A 2934  16.265   0.081  14.497
12132DPPC   C1B 2935  17.435   0.221  15.037
12132DPPC   C2B 2936  17.145   0.211  14.687
12132DPPC   C3B 2937  16.805   0.181  14.417
12132DPPC   C4B 2938  16.525   0.131  14.027
12133DPPC   NC3 2939   0.567   4.989  14.157
12133DPPC   PO4 2940   0.287   4.929  13.857
12133DPPC   GL1 2941   0.507   4.849  13.507
12133DPPC   GL2 2942   0.507   5.049  13.337
12133DPPC   C1A 2943   0.627   4.649  13.207
12133DPPC   C2A 2944   0.687   4.539  12.827
12133DPPC   C3A 2945   0.957   4.539  12.427
12133DPPC   C4A 2946   1.267   4.549  12.027
12133DPPC   C1B 2947   0.717   5.029  13.027
12133DPPC   C2B 2948   0.997   5.129  12.697
12133DPPC   C3B 2949   1.247   5.239  12.317
12133DPPC   C4B 2950   1.207   5.539  11.907
12134DPPC   NC3 2951   0.047   1.591  12.727
12134DPPC   PO4 2952   0.027   1.911  12.897
12134DPPC   GL1 2953   0.227   2.011  12.547
12134DPPC   GL2 2954   0.197   2.291  12.567
12134DPPC   C1A 2955   0.347   2.021  12.217
12134DPPC   C2A 2956   0.587   1.921  11.897
12134DPPC   C3A 2957   0.817   1.871  11.507
12134DPPC   C4A 2958   1.097   1.801  11.087
12134DPPC   C1B 2959   0.477   2.451  12.357
12134DPPC   C2B 2960   0.697   2.371  12.017
12134DPPC   C3B 2961   0.947   2.301  11.647
12134DPPC   C4B 2962   1.247   2.271  11.227
12135DPPC   NC3 2963  20.335   6.439  12.827
12135DPPC   PO4 2964  20.365   6.149  13.077
12135DPPC   GL1 2965  20.305   5.819  12.807
12135DPPC   GL2 2966  20.045   5.919  12.757
12135DPPC   C1A 2967  20.285   5.609  12.477
12135DPPC   C2A 2968  20.245   5.429  12.067
12135DPPC   C3A 2969  20.125   5.359  11.647
12135DPPC   C4A 2970  20.225   5.219  11.187
12135DPPC   C1B 2971  19.895   5.879  12.407
12135DPPC   C2B 2972  19.835   5.709  12.047
12135DPPC   C3B 2973  19.595   5.749  11.647
12135DPPC   C4B 2974  19.345   5.709  11.217
12136DPPC   NC3 2975  18.385   3.061  15.757
12136DPPC   PO4 2976  18.435   3.011  15.357
12136DPPC   GL1 2977  18.355   2.811  15.077
12136DPPC   GL2 2978  18.455   2.771  14.847
12136DPPC   C1A 2979  18.035   3.021  15.037
12136DPPC   C2A 2980  17.765   3.011  14.737
12136DPPC   C3A 2981  17.515   3.001  14.367
12136DPPC   C4A 2982  17.175   3.031  14.047
12136DPPC   C1B 2983  18.235   2.631  14.637
12136DPPC   C2B 2984  17.875   2.721  14.357
12136DPPC   C3B 2985  17.525   2.641  14.007
12136DPPC   C4B 2986  17.225   2.711  13.677
12137DPPC   NC3 2987  20.125   2.581  14.367
12137DPPC   PO4 2988  20.095   2.471  13.997
12137DPPC   GL1 2989  19.825   2.621  13.677
12137DPPC   GL2 2990  19.945   2.531  13.467
12137DPPC   C1A 2991  19.495   2.611  13.617
12137DPPC   C2A 2992  19.185   2.531  13.317
12137DPPC   C3A 2993  18.935   2.511  12.907
12137DPPC   C4A 2994  18.625   2.431  12.507
12137DPPC   C1B 2995  19.675   2.511  13.247
12137DPPC   C2B 2996  19.465   2.541  12.907
12137DPPC   C3B 2997  19.295   2.541  12.437
12137DPPC   C4B 2998  19.005   2.561  12.057
12138DPPC   NC3 2999  20.675   3.231  13.377
12138DPPC   PO4 3000  20.485   2.891  13.317
12138DPPC   GL1 3001  20.295   2.721  12.977
12138DPPC   GL2 3002  20.495   2.891  12.847
12138DPPC   C1A 3003  19.975   2.651  12.787
12138DPPC   C2A 3004  19.845   2.661  12.407
12138DPPC   C3A 3005  19.565   2.611  11.977
12138DPPC   C4A 3006  19.235   2.521  11.597
12138DPPC   C1B 3007  20.405   2.921  12.497
12138DPPC   C2B 3008  20.285   2.741  12.177
12138DPPC   C3B 3009  20.275   2.451  11.737
12138DPPC   C4B 3010  20.515   2.231  11.307
12139DPPC   NC3 3011  20.395   1.961  13.567
12139DPPC   PO4 3012  20.435   1.811  13.187
12139DPPC   GL1 3013  20.165   1.701  12.917
12139DPPC   GL2 3014  20.265   1.951  12.727
12139DPPC   C1A 3015  19.965   1.421  12.777
12139DPPC   C2A 3016  19.725   1.311  12.437
12139DPPC   C3A 3017  19.475   1.301  12.037
12139DPPC   C4A 3018  19.135   1.261  11.637
12139DPPC   C1B 3019  19.975   1.901  12.477
12139DPPC   C2B 3020  19.825   1.711  12.167
12139DPPC   C3B 3021  19.905   1.381  11.817
12139DPPC   C4B 3022  20.195   1.261  11.547
12140DPPC   NC3 3023   0.367   3.561  14.367
12140DPPC   PO4 3024   0.327   3.331  14.027
12140DPPC   GL1 3025   0.597   3.341  13.807
12140DPPC   GL2 3026   0.497   3.201  13.577
12140DPPC   C1A 3027   0.797   3.621  13.657
12140DPPC   C2A 3028   0.977   3.821  13.397
12140DPPC   C3A 3029   1.307   3.801  12.987
12140DPPC   C4A 3030   1.597   3.909  12.667
12140DPPC   C1B 3031   0.697   3.361  13.297
12140DPPC   C2B 3032   1.027   3.391  12.997
12140DPPC   C3B 3033   1.357   3.441  12.657
12140DPPC   C4B 3034   1.567   3.301  12.287
12141DPPC   NC3 3035  19.555   1.441  14.437
12141DPPC   PO4 3036  19.845   1.501  14.217
12141DPPC   GL1 3037  19.645   1.611  13.937
12141DPPC   GL2 3038  19.365   1.611  14.017
12141DPPC   C1A 3039  19.595   1.721  13.587
12141DPPC   C2A 3040  19.355   1.591  13.287
12141DPPC   C3A 3041  19.045   1.701  12.897
12141DPPC   C4A 3042  18.815   1.641  12.457
12141DPPC   C1B 3043  19.145   1.581  13.757
12141DPPC   C2B 3044  18.865   1.551  13.407
12141DPPC   C3B 3045  18.585   1.581  13.057
12141DPPC   C4B 3046  18.295   1.561  12.637
12142DPPC   NC3 3047  19.405   5.779  14.527
12142DPPC   PO4 3048  19.545   5.979  14.177
12142DPPC   GL1 3049  19.485   6.039  13.787
12142DPPC   GL2 3050  19.635   5.889  13.677
12142DPPC   C1A 3051  19.225   6.119  13.497
12142DPPC   C2A 3052  18.955   5.969  13.197
12142DPPC   C3A 3053  18.715   5.899  12.787
12142DPPC   C4A 3054  18.445   5.969  12.427
12142DPPC   C1B 3055  19.495   5.749  13.347
12142DPPC   C2B 3056  19.255   5.619  13.037
12142DPPC   C3B 3057  19.045   5.609  12.647
12142DPPC   C4B 3058  18.725   5.489  12.297
12143DPPC   NC3 3059  20.635   1.631  12.657
12143DPPC   PO4 3060  20.415   1.541  12.327
12143DPPC   GL1 3061  20.305   1.921  12.107
12143DPPC   GL2 3062  20.445   2.091  12.297
12143DPPC   C1A 3063  20.105   1.901  11.797
12143DPPC   C2A 3064  20.125   1.871  11.387
12143DPPC   C3A 3065  20.265   1.431  11.107
12143DPPC   C4A 3066  20.365   0.901  11.227
12143DPPC   C1B 3067  20.535   2.361  12.177
12143DPPC   C2B 3068  20.765   2.721  12.167
12143DPPC   C3B 3069  20.915   3.121  12.237
12143DPPC   C4B 3070  21.135   3.571  12.267
12144DPPC   NC3 3071  19.325   4.899  14.617
12144DPPC   PO4 3072  19.315   5.289  14.647
12144DPPC   GL1 3073  19.015   5.459  14.447
12144DPPC   GL2 3074  19.005   5.129  14.317
12144DPPC   C1A 3075  18.675   5.479  14.387
12144DPPC   C2A 3076  18.345   5.399  14.277
12144DPPC   C3A 3077  18.035   5.409  13.907
12144DPPC   C4A 3078  17.745   5.389  13.487
12144DPPC   C1B 3079  18.755   5.019  14.117
12144DPPC   C2B 3080  18.465   4.929  13.787
12144DPPC   C3B 3081  18.165   4.969  13.457
12144DPPC   C4B 3082  17.905   5.009  13.127
12145DPPC   NC3 3083  18.845   1.201  14.787
12145DPPC   PO4 3084  19.215   1.191  14.657
12145DPPC   GL1 3085  19.245   1.021  14.277
12145DPPC   GL2 3086  19.115   1.251  14.107
12145DPPC   C1A 3087  19.055   0.771  14.137
12145DPPC   C2A 3088  18.795   0.651  13.837
12145DPPC   C3A 3089  18.515   0.591  13.417
12145DPPC   C4A 3090  18.235   0.651  13.027
12145DPPC   C1B 3091  18.935   1.171  13.817
12145DPPC   C2B 3092  18.675   1.101  13.507
12145DPPC   C3B 3093  18.395   1.121  13.107
12145DPPC   C4B 3094  18.095   1.051  12.727
12146DPPC   NC3 3095  18.425   5.219  15.647
12146DPPC   PO4 3096  18.075   5.389  15.527
12146DPPC   GL1 3097  17.865   5.409  15.187
12146DPPC   GL2 3098  18.095   5.319  15.037
12146DPPC   C1A 3099  17.665   5.199  14.997
12146DPPC   C2A 3100  17.415   5.159  14.647
12146DPPC   C3A 3101  17.115   5.149  14.337
12146DPPC   C4A 3102  16.875   5.119  13.917
12146DPPC   C1B 3103  18.095   5.209  14.687
12146DPPC   C2B 3104  17.855   5.199  14.347
12146DPPC   C3B 3105  17.545   5.209  13.937
12146DPPC   C4B 3106  17.255   5.239  13.567
12147DPPC   NC3 3107  18.185   4.369  16.287
12147DPPC   PO4 3108  17.785   4.449  16.367
12147DPPC   GL1 3109  17.455   4.399  16.087
12147DPPC   GL2 3110  17.515   4.639  15.877
12147DPPC   C1A 3111  17.085   4.479  16.077
12147DPPC   C2A 3112  16.835   4.529  15.717
12147DPPC   C3A 3113  16.525   4.499  15.377
12147DPPC   C4A 3114  16.225   4.519  14.977
12147DPPC   C1B 3115  17.255   4.619  15.617
12147DPPC   C2B 3116  17.025   4.619  15.237
12147DPPC   C3B 3117  16.705   4.529  14.877
12147DPPC   C4B 3118  16.525   4.579  14.507
12148DPPC   NC3 3119  20.175   1.101  13.977
12148DPPC   PO4 3120  19.875   1.291  13.747
12148DPPC   GL1 3121  19.475   1.191  13.657
12148DPPC   GL2 3122  19.405   0.961  13.877
12148DPPC   C1A 3123  19.175   1.211  13.457
12148DPPC   C2A 3124  18.945   1.221  13.067
12148DPPC   C3A 3125  18.665   1.151  12.657
12148DPPC   C4A 3126  18.315   1.131  12.277
12148DPPC   C1B 3127  19.215   0.751  13.677
12148DPPC   C2B 3128  18.955   0.761  13.317
12148DPPC   C3B 3129  18.685   0.721  12.947
12148DPPC   C4B 3130  18.345   0.691  12.527
12149DPPC   NC3 3131  18.525   4.379  15.427
12149DPPC   PO4 3132  18.315   4.449  15.757
12149DPPC   GL1 3133  17.875   4.419  15.777
12149DPPC   GL2 3134  17.895   4.599  15.567
12149DPPC   C1A 3135  17.595   4.209  15.727
12149DPPC   C2A 3136  17.255   4.189  15.717
12149DPPC   C3A 3137  16.925   4.159  15.387
12149DPPC   C4A 3138  16.545   4.079  15.037
12149DPPC   C1B 3139  17.615   4.619  15.327
12149DPPC   C2B 3140  17.465   4.769  14.957
12149DPPC   C3B 3141  17.085   4.689  14.667
12149DPPC   C4B 3142  16.905   4.709  14.187
12150DPPC   NC3 3143  17.545   1.831  16.867
12150DPPC   PO4 3144  17.685   2.151  16.727
12150DPPC   GL1 3145  17.415   2.121  16.437
12150DPPC   GL2 3146  17.355   2.341  16.437
12150DPPC   C1A 3147  17.375   2.071  16.067
12150DPPC   C2A 3148  17.055   1.941  15.827
12150DPPC   C3A 3149  16.735   1.851  15.497
12150DPPC   C4A 3150  16.375   1.831  15.087
12150DPPC   C1B 3151  17.125   2.531  16.207
12150DPPC   C2B 3152  16.905   2.681  15.917
12150DPPC   C3B 3153  16.585   2.711  15.557
12150DPPC   C4B 3154  16.195   2.721  15.207
12151DPPC   NC3 3155  20.245   2.861  13.757
12151DPPC   PO4 3156  20.335   3.251  13.747
12151DPPC   GL1 3157  20.165   3.191  13.387
12151DPPC   GL2 3158  20.315   3.311  13.177
12151DPPC   C1A 3159  19.945   3.001  13.157
12151DPPC   C2A 3160  19.675   3.031  12.877
12151DPPC   C3A 3161  19.465   3.081  12.417
12151DPPC   C4A 3162  19.155   3.001  11.977
12151DPPC   C1B 3163  20.145   3.201  12.867
12151DPPC   C2B 3164  20.005   3.171  12.497
12151DPPC   C3B 3165  19.875   3.111  12.077
12151DPPC   C4B 3166  19.535   3.151  11.637
12152DPPC   NC3 3167  19.225   0.191  14.747
12152DPPC   PO4 3168  18.865   0.111  14.827
12152DPPC   GL1 3169  18.565   0.031  14.627
12152DPPC   GL2 3170  18.385   0.031  14.787
12152DPPC   C1A 3171  18.365   0.041  14.297
12152DPPC   C2A 3172  18.175   0.031  13.927
12152DPPC   C3A 3173  17.805   0.021  13.497
12152DPPC   C4A 3174  17.445   0.021  13.097
12152DPPC   C1B 3175  18.095   6.529  14.597
12152DPPC   C2B 3176  17.835   6.489  14.317
12152DPPC   C3B 3177  17.565   6.499  13.987
12152DPPC   C4B 3178  17.295   6.539  13.597
12153DPPC   NC3 3179   0.907   0.581  14.137
12153DPPC   PO4 3180   0.797   0.701  13.777
12153DPPC   GL1 3181   1.017   0.741  13.497
12153DPPC   GL2 3182   0.807   0.631  13.287
12153DPPC   C1A 3183   1.307   0.721  13.237
12153DPPC   C2A 3184   1.597   0.721  12.907
12153DPPC   C3A 3185   1.857   0.711  12.517
12153DPPC   C4A 3186   2.167   0.731  12.057
12153DPPC   C1B 3187   0.907   0.621  12.947
12153DPPC   C2B 3188   1.137   0.621  12.627
12153DPPC   C3B 3189   1.437   0.651  12.227
12153DPPC   C4B 3190   1.687   0.611  11.837
12154DPPC   NC3 3191  18.815   2.711  15.147
12154DPPC   PO4 3192  18.725   2.401  14.987
12154DPPC   GL1 3193  18.565   2.331  14.547
12154DPPC   GL2 3194  18.805   2.541  14.427
12154DPPC   C1A 3195  18.285   2.311  14.347
12154DPPC   C2A 3196  17.995   2.261  14.037
12154DPPC   C3A 3197  17.675   2.261  13.707
12154DPPC   C4A 3198  17.375   2.271  13.297
12154DPPC   C1B 3199  18.825   2.781  14.097
12154DPPC   C2B 3200  18.655   2.841  13.757
12154DPPC   C3B 3201  18.395   2.831  13.357
12154DPPC   C4B 3202  17.985   2.871  13.027
12155DPPC   NC3 3203  18.425   0.871  16.077
12155DPPC   PO4 3204  18.365   1.201  15.927
12155DPPC   GL1 3205  18.255   1.121  15.437
12155DPPC   GL2 3206  18.065   0.981  15.547
12155DPPC   C1A 3207  18.025   1.241  15.187
12155DPPC   C2A 3208  17.685   1.231  14.957
12155DPPC   C3A 3209  17.405   1.221  14.507
12155DPPC   C4A 3210  17.065   1.151  14.197
12155DPPC   C1B 3211  17.785   0.901  15.297
12155DPPC   C2B 3212  17.515   0.701  15.077
12155DPPC   C3B 3213  17.235   0.721  14.677
12155DPPC   C4B 3214  16.905   0.641  14.317
12156DPPC   NC3 3215  17.385   5.149  16.957
12156DPPC   PO4 3216  17.195   5.479  16.857
12156DPPC   GL1 3217  17.015   5.499  16.437
12156DPPC   GL2 3218  16.885   5.679  16.507
12156DPPC   C1A 3219  16.905   5.409  16.127
12156DPPC   C2A 3220  16.685   5.339  15.827
12156DPPC   C3A 3221  16.415   5.369  15.437
12156DPPC   C4A 3222  16.055   5.329  15.137
12156DPPC   C1B 3223  16.665   5.719  16.217
12156DPPC   C2B 3224  16.315   5.759  15.977
12156DPPC   C3B 3225  16.005   5.709  15.617
12156DPPC   C4B 3226  15.635   5.699  15.207
12157DPPC   NC3 3227   0.117   3.969  13.617
12157DPPC   PO4 3228   0.237   3.611  13.577
12157DPPC   GL1 3229   0.357   3.591  13.167
12157DPPC   GL2 3230   0.467   3.831  13.177
12157DPPC   C1A 3231   0.507   3.331  12.927
12157DPPC   C2A 3232   0.727   3.291  12.597
12157DPPC   C3A 3233   0.987   3.291  12.237
12157DPPC   C4A 3234   1.277   3.221  11.887
12157DPPC   C1B 3235   0.767   3.781  12.957
12157DPPC   C2B 3236   1.017   3.841  12.607
12157DPPC   C3B 3237   1.297   3.781  12.237
12157DPPC   C4B 3238   1.607   3.671  11.847
12158DPPC   NC3 3239   0.277   2.201  13.237
12158DPPC   PO4 3240   0.027   2.391  13.067
12158DPPC   GL1 3241   0.117   2.691  12.857
12158DPPC   GL2 3242   0.307   2.901  12.887
12158DPPC   C1A 3243  21.125   2.741  12.507
12158DPPC   C2A 3244   0.187   2.761  12.157
12158DPPC   C3A 3245   0.467   2.771  11.747
12158DPPC   C4A 3246   0.757   2.781  11.327
12158DPPC   C1B 3247   0.507   2.871  12.627
12158DPPC   C2B 3248   0.697   2.861  12.297
12158DPPC   C3B 3249   0.987   2.821  11.907
12158DPPC   C4B 3250   1.307   2.881  11.547
12159DPPA   PO4 3251   0.017   0.551  12.627
12159DPPA   GL1 3252   0.277   0.491  12.337
12159DPPA   GL2 3253   0.417   0.351  12.517
12159DPPA   C1A 3254   0.407   0.621  11.997
12159DPPA   C2A 3255   0.637   0.631  11.627
12159DPPA   C3A 3256   0.867   0.591  11.167
12159DPPA   C4A 3257   1.157   0.411  10.817
12159DPPA   C1B 3258   0.627   0.261  12.177
12159DPPA   C2B 3259   0.807   0.181  11.787
12159DPPA   C3B 3260   1.107   0.161  11.477
12159DPPA   C4B 3261   1.487   0.061  11.087
12160DPPA   PO4 3262  19.125   1.641  14.457
12160DPPA   GL1 3263  18.945   1.761  14.097
12160DPPA   GL2 3264  18.775   1.481  14.117
12160DPPA   C1A 3265  18.745   1.871  13.817
12160DPPA   C2A 3266  18.535   1.931  13.467
12160DPPA   C3A 3267  18.205   1.941  13.087
12160DPPA   C4A 3268  17.895   1.881  12.737
12160DPPA   C1B 3269  18.565   1.401  13.797
12160DPPA   C2B 3270  18.345   1.451  13.487
12160DPPA   C3B 3271  18.035   1.491  13.087
12160DPPA   C4B 3272  17.695   1.381  12.717
12161DPPA   PO4 3273   0.057   1.781  13.377
12161DPPA   GL1 3274   0.457   1.781  13.107
12161DPPA   GL2 3275   0.467   1.551  12.957
12161DPPA   C1A 3276   0.577   1.981  12.797
12161DPPA   C2A 3277   0.757   2.051  12.457
12161DPPA   C3A 3278   1.047   1.991  12.077
12161DPPA   C4A 3279   1.287   1.901  11.697
12161DPPA   C1B 3280   0.577   1.611  12.587
12161DPPA   C2B 3281   0.757   1.571  12.257
12161DPPA   C3B 3282   0.987   1.461  11.887
12161DPPA   C4B 3283   1.207   1.401  11.407
12162DPPA   PO4 3284  16.985   3.361  10.437
12162DPPA   GL1 3285  17.115   3.271  10.867
12162DPPA   GL2 3286  16.895   3.491  10.907
12162DPPA   C1A 3287  17.435   3.281  11.077
12162DPPA   C2A 3288  17.635   3.281  11.397
12162DPPA   C3A 3289  17.905   3.271  11.747
12162DPPA   C4A 3290  18.225   3.351  12.137
12162DPPA   C1B 3291  17.085   3.531  11.267
12162DPPA   C2B 3292  17.305   3.631  11.617
12162DPPA   C3B 3293  17.635   3.641  11.987
12162DPPA   C4B 3294  17.955   3.661  12.397
12163DPPA   PO4 3295  19.135   6.189  14.817
12163DPPA   GL1 3296  18.945   6.279  14.497
12163DPPA   GL2 3297  19.105   6.089  14.377
12163DPPA   C1A 3298  18.715   6.229  14.247
12163DPPA   C2A 3299  18.515   6.249  13.837
12163DPPA   C3A 3300  18.145   6.249  13.507
12163DPPA   C4A 3301  17.835   6.319  13.107
12163DPPA   C1B 3302  18.935   5.779  14.217
12163DPPA   C2B 3303  18.555   5.809  14.177
12163DPPA   C3B 3304  18.295   5.829  13.797
12163DPPA   C4B 3305  18.005   5.779  13.457
12164DPPA   PO4 3306  20.435   1.361  13.567
12164DPPA   GL1 3307  20.085   1.601  13.357
12164DPPA   GL2 3308  20.025   1.301  13.327
12164DPPA   C1A 3309  19.775   1.731  13.167
12164DPPA   C2A 3310  19.655   1.771  12.787
12164DPPA   C3A 3311  19.325   1.721  12.427
12164DPPA   C4A 3312  19.115   1.631  12.067
12164DPPA   C1B 3313  19.715   1.321  13.107
12164DPPA   C2B 3314  19.405   1.321  12.827
12164DPPA   C3B 3315  19.135   1.241  12.447
12164DPPA   C4B 3316  18.875   1.201  12.127
12165DPPA   PO4 3317  18.435   6.129  15.537
12165DPPA   GL1 3318  18.095   5.869  15.407
12165DPPA   GL2 3319  18.165   5.799  15.187
12165DPPA   C1A 3320  17.755   5.799  15.467
12165DPPA   C2A 3321  17.355   5.839  15.527
12165DPPA   C3A 3322  16.985   5.909  15.207
12165DPPA   C4A 3323  16.625   5.949  14.797
12165DPPA   C1B 3324  17.945   5.739  14.917
12165DPPA   C2B 3325  17.735   5.559  14.647
12165DPPA   C3B 3326  17.405   5.599  14.287
12165DPPA   C4B 3327  17.055   5.589  13.947
12166DPPA   PO4 3328  19.835   0.761  13.777
12166DPPA   GL1 3329  19.595   0.481  13.637
12166DPPA   GL2 3330  19.525   0.221  13.777
12166DPPA   C1A 3331  19.375   0.451  13.377
12166DPPA   C2A 3332  19.175   0.361  13.047
12166DPPA   C3A 3333  18.955   0.351  12.647
12166DPPA   C4A 3334  18.645   0.301  12.257
12166DPPA   C1B 3335  19.325   0.011  13.507
12166DPPA   C2B 3336  19.125   6.469  13.197
12166DPPA   C3B 3337  18.875   6.429  12.807
12166DPPA   C4B 3338  18.595   6.429  12.437
12167DPPA   PO4 3339   0.107   0.061  12.557
12167DPPA   GL1 3340   0.277   6.599  12.177
12167DPPA   GL2 3341   0.217   6.289  12.207
12167DPPA   C1A 3342   0.327   0.121  11.837
12167DPPA   C2A 3343   0.367   0.241  11.447
12167DPPA   C3A 3344   0.717   0.121  11.127
12167DPPA   C4A 3345   1.007   6.559  10.827
12167DPPA   C1B 3346   0.367   6.259  11.887
12167DPPA   C2B 3347   0.627   6.269  11.607
12167DPPA   C3B 3348   1.017   6.319  11.287
12167DPPA   C4B 3349   1.277   6.099  10.917
12168DPPA   PO4 3350  18.465   3.481  15.957
12168DPPA   GL1 3351  18.085   3.371  15.767
12168DPPA   GL2 3352  17.975   3.291  15.907
12168DPPA   C1A 3353  17.955   3.371  15.417
12168DPPA   C2A 3354  17.685   3.431  15.147
12168DPPA   C3A 3355  17.335   3.411  14.807
12168DPPA   C4A 3356  17.005   3.331  14.437
12168DPPA   C1B 3357  17.635   3.261  15.687
12168DPPA   C2B 3358  17.315   3.321  15.447
12168DPPA   C3B 3359  16.965   3.261  15.107
12168DPPA   C4B 3360  16.615   3.241  14.767
12169DPPA   PO4 3361  18.665   0.951  15.197
12169DPPA   GL1 3362  18.575   0.751  14.777
12169DPPA   GL2 3363  18.415   0.961  14.697
12169DPPA   C1A 3364  18.395   0.481  14.627
12169DPPA   C2A 3365  18.055   0.401  14.417
12169DPPA   C3A 3366  17.775   0.411  14.097
12169DPPA   C4A 3367  17.465   0.431  13.767
12169DPPA   C1B 3368  18.175   0.881  14.467
12169DPPA   C2B 3369  17.945   0.871  14.127
12169DPPA   C3B 3370  17.695   0.931  13.697
12169DPPA   C4B 3371  17.375   0.891  13.377
12170DPPA   PO4 3372  20.395   2.381  13.317
12170DPPA   GL1 3373  20.065   2.081  13.217
12170DPPA   GL2 3374  19.915   2.081  13.407
12170DPPA   C1A 3375  19.795   2.151  12.977
12170DPPA   C2A 3376  19.705   2.221  12.567
12170DPPA   C3A 3377  19.505   2.111  12.167
12170DPPA   C4A 3378  19.205   2.061  11.797
12170DPPA   C1B 3379  19.525   2.071  13.367
12170DPPA   C2B 3380  19.285   2.121  13.047
12170DPPA   C3B 3381  19.065   2.141  12.577
12170DPPA   C4B 3382  18.785   2.031  12.137
12171DPPA   PO4 3383  17.895   0.971  15.967
12171DPPA   GL1 3384  17.615   1.021  15.627
12171DPPA   GL2 3385  17.465   0.711  15.737
12171DPPA   C1A 3386  17.405   1.111  15.357
12171DPPA   C2A 3387  17.145   1.101  15.057
12171DPPA   C3A 3388  16.825   1.041  14.637
12171DPPA   C4A 3389  16.515   0.981  14.267
12171DPPA   C1B 3390  17.255   0.661  15.437
12171DPPA   C2B 3391  17.035   0.571  15.087
12171DPPA   C3B 3392  16.695   0.481  14.787
12171DPPA   C4B 3393  16.385   0.551  14.377
12172DPPA   PO4 3394  19.705   6.519  14.057
12172DPPA   GL1 3395  19.225   6.299  14.047
12172DPPA   GL2 3396  19.195   6.509  13.887
12172DPPA   C1A 3397  19.005   6.049  13.927
12172DPPA   C2A 3398  18.785   5.879  13.627
12172DPPA   C3A 3399  18.445   5.899  13.287
12172DPPA   C4A 3400  18.155   5.929  12.897
12172DPPA   C1B 3401  18.905   6.389  13.687
12172DPPA   C2B 3402  18.665   6.389  13.377
12172DPPA   C3B 3403  18.395   6.399  13.017
12172DPPA   C4B 3404  18.145   6.449  12.637
12173DPPA   PO4 3405  18.545   2.571  15.877
12173DPPA   GL1 3406  18.215   2.241  15.687
12173DPPA   GL2 3407  18.105   2.321  15.927
12173DPPA   C1A 3408  17.975   2.271  15.397
12173DPPA   C2A 3409  17.715   2.111  15.177
12173DPPA   C3A 3410  17.395   2.091  14.777
12173DPPA   C4A 3411  17.075   2.101  14.407
12173DPPA   C1B 3412  17.795   2.411  15.727
12173DPPA   C2B 3413  17.515   2.501  15.417
12173DPPA   C3B 3414  17.205   2.481  15.067
12173DPPA   C4B 3415  16.865   2.411  14.697
12174DPPA   PO4 3416  18.785   5.949  15.157
12174DPPA   GL1 3417  18.615   6.279  14.877
12174DPPA   GL2 3418  18.445   6.309  15.047
12174DPPA   C1A 3419  18.455   6.179  14.597
12174DPPA   C2A 3420  18.265   6.209  14.257
12174DPPA   C3A 3421  17.955   6.159  13.927
12174DPPA   C4A 3422  17.575   6.139  13.617
12174DPPA   C1B 3423  18.115   6.199  14.917
12174DPPA   C2B 3424  17.755   6.109  14.667
12174DPPA   C3B 3425  17.465   6.069  14.267
12174DPPA   C4B 3426  17.195   6.079  13.877
12175DPPA   PO4 3427  18.845   3.939  15.237
12175DPPA   GL1 3428  18.695   3.861  14.907
12175DPPA   GL2 3429  18.795   3.611  14.827
12175DPPA   C1A 3430  18.415   3.841  14.677
12175DPPA   C2A 3431  18.165   3.721  14.407
12175DPPA   C3A 3432  17.925   3.661  13.987
12175DPPA   C4A 3433  17.645   3.671  13.577
12175DPPA   C1B 3434  18.615   3.421  14.607
12175DPPA   C2B 3435  18.505   3.341  14.237
12175DPPA   C3B 3436  18.275   3.211  13.887
12175DPPA   C4B 3437  18.025   3.201  13.447
12176DPPA   PO4 3438  19.275   3.041  15.037
12176DPPA   GL1 3439  18.875   3.051  14.787
12176DPPA   GL2 3440  19.095   3.261  14.667
12176DPPA   C1A 3441  18.715   2.981  14.497
12176DPPA   C2A 3442  18.385   2.831  14.217
12176DPPA   C3A 3443  18.095   2.761  13.867
12176DPPA   C4A 3444  17.805   2.761  13.477
12176DPPA   C1B 3445  18.955   3.311  14.277
12176DPPA   C2B 3446  18.885   3.251  13.867
12176DPPA   C3B 3447  18.585   3.291  13.457
12176DPPA   C4B 3448  18.275   3.281  13.047
12177DPPA   PO4 3449  18.915   1.411  15.297
12177DPPA   GL1 3450  18.485   1.541  15.167
12177DPPA   GL2 3451  18.455   1.291  14.957
12177DPPA   C1A 3452  18.155   1.691  15.067
12177DPPA   C2A 3453  17.835   1.721  14.767
12177DPPA   C3A 3454  17.535   1.741  14.407
12177DPPA   C4A 3455  17.265   1.711  14.057
12177DPPA   C1B 3456  18.095   1.321  14.767
12177DPPA   C2B 3457  17.915   1.261  14.397
12177DPPA   C3B 3458  17.595   1.291  14.057
12177DPPA   C4B 3459  17.255   1.271  13.697
12178DPPA   PO4 3460   0.097   0.681  13.117
12178DPPA   GL1 3461   0.427   0.751  12.887
12178DPPA   GL2 3462   0.517   1.051  12.957
12178DPPA   C1A 3463   0.627   0.771  12.577
12178DPPA   C2A 3464   0.857   0.651  12.217
12178DPPA   C3A 3465   1.147   0.581  11.797
12178DPPA   C4A 3466   1.397   0.521  11.367
12178DPPA   C1B 3467   0.727   1.191  12.727
12178DPPA   C2B 3468   0.977   1.111  12.377
12178DPPA   C3B 3469   1.257   1.091  12.067
12178DPPA   C4B 3470   1.507   1.011  11.647
12179DPPA   PO4 3471  20.295   5.179  13.647
12179DPPA   GL1 3472  20.275   5.249  13.217
12179DPPA   GL2 3473  20.365   5.029  13.087
12179DPPA   C1A 3474  20.125   5.429  12.957
12179DPPA   C2A 3475  19.965   5.339  12.577
12179DPPA   C3A 3476  19.715   5.259  12.207
12179DPPA   C4A 3477  19.555   5.269  11.747
12179DPPA   C1B 3478  20.255   5.019  12.717
12179DPPA   C2B 3479  20.175   4.999  12.307
12179DPPA   C3B 3480  19.985   4.929  11.867
12179DPPA   C4B 3481  20.255   4.829  11.487
12180DPPA   PO4 3482  18.805   3.301  15.207
12180DPPA   GL1 3483  18.465   3.231  14.937
12180DPPA   GL2 3484  18.365   3.511  14.997
12180DPPA   C1A 3485  18.255   3.191  14.627
12180DPPA   C2A 3486  18.025   3.201  14.307
12180DPPA   C3A 3487  17.685   3.201  13.957
12180DPPA   C4A 3488  17.395   3.201  13.517
12180DPPA   C1B 3489  18.055   3.501  14.817
12180DPPA   C2B 3490  17.705   3.551  14.587
12180DPPA   C3B 3491  17.465   3.501  14.207
12180DPPA   C4B 3492  17.145   3.491  13.817
12181DPPA   PO4 3493  21.035   0.361  12.177
12181DPPA   GL1 3494  21.035   0.271  11.757
12181DPPA   GL2 3495  20.835   0.081  11.837
12181DPPA   C1A 3496  20.935   0.451  11.467
12181DPPA   C2A 3497  20.695   0.541  11.177
12181DPPA   C3A 3498  20.585   0.681  10.737
12181DPPA   C4A 3499  20.485   0.941  10.337
12181DPPA   C1B 3500  20.645   0.121  11.527
12181DPPA   C2B 3501  20.445   0.061  11.177
12181DPPA   C3B 3502  20.195   6.589  10.827
12181DPPA   C4B 3503  20.015   6.489  10.417
12182DPPA   PO4 3504  20.955   1.331  12.377
12182DPPA   GL1 3505   0.087   1.661  12.217
12182DPPA   GL2 3506   0.287   1.541  12.247
12182DPPA   C1A 3507   0.097   1.871  11.887
12182DPPA   C2A 3508   0.287   1.811  11.537
12182DPPA   C3A 3509   0.487   1.741  11.167
12182DPPA   C4A 3510   0.747   1.531  10.707
12182DPPA   C1B 3511   0.387   1.511  11.927
12182DPPA   C2B 3512   0.567   1.381  11.567
12182DPPA   C3B 3513   0.827   1.331  11.177
12182DPPA   C4B 3514   1.207   1.351  10.837
12183DPPA   PO4 3515   1.837   5.059   9.817
12183DPPA   GL1 3516   1.587   4.909  10.157
12183DPPA   GL2 3517   1.337   4.839  10.047
12183DPPA   C1A 3518   1.537   5.029  10.457
12183DPPA   C2A 3519   1.557   5.299  10.767
12183DPPA   C3A 3520   1.657   5.639  11.127
12183DPPA   C4A 3521   1.757   5.959  11.467
12183DPPA   C1B 3522   1.017   4.789  10.287
12183DPPA   C2B 3523   0.747   4.849  10.587
12183DPPA   C3B 3524   0.417   4.779  10.907
12183DPPA   C4B 3525  21.145   4.559  11.097
12184DPPC   NC3 3526  16.645   2.171  10.877
12184DPPC   PO4 3527  16.805   1.901  10.627
12184DPPC   GL1 3528  17.105   1.751  10.837
12184DPPC   GL2 3529  17.305   2.011  10.707
12184DPPC   C1A 3530  17.195   1.581  11.127
12184DPPC   C2A 3531  17.415   1.511  11.467
12184DPPC   C3A 3532  17.645   1.471  11.897
12184DPPC   C4A 3533  17.965   1.491  12.277
12184DPPC   C1B 3534  17.385   2.051  11.107
12184DPPC   C2B 3535  17.625   2.011  11.467
12184DPPC   C3B 3536  17.925   1.981  11.887
12184DPPC   C4B 3537  18.105   1.971  12.247
12185DPPC   NC3 3538  15.965   3.711  11.437
12185DPPC   PO4 3539  15.835   3.431  11.667
12185DPPC   GL1 3540  15.975   3.421  11.987
12185DPPC   GL2 3541  16.235   3.611  11.807
12185DPPC   C1A 3542  16.125   3.281  12.267
12185DPPC   C2A 3543  16.245   3.411  12.657
12185DPPC   C3A 3544  16.525   3.431  13.047
12185DPPC   C4A 3545  16.865   3.551  13.407
12185DPPC   C1B 3546  16.415   3.631  12.067
12185DPPC   C2B 3547  16.665   3.511  12.417
12185DPPC   C3B 3548  16.945   3.561  12.807
12185DPPC   C4B 3549  17.305   3.611  13.147
12186DPPC   NC3 3550  18.585   6.349   9.287
12186DPPC   PO4 3551  18.845   6.149   9.477
12186DPPC   GL1 3552  19.015   6.279   9.857
12186DPPC   GL2 3553  18.825   5.979   9.927
12186DPPC   C1A 3554  19.115   6.299  10.207
12186DPPC   C2A 3555  19.345   6.159  10.487
12186DPPC   C3A 3556  19.555   5.809  10.777
12186DPPC   C4A 3557  19.795   5.369  10.847
12186DPPC   C1B 3558  18.745   5.939  10.277
12186DPPC   C2B 3559  18.595   5.889  10.637
12186DPPC   C3B 3560  18.405   6.289  10.887
12186DPPC   C4B 3561  18.265   6.489  11.227
12187DPPC   NC3 3562  16.355   2.681  10.457
12187DPPC   PO4 3563  16.405   2.581  10.847
12187DPPC   GL1 3564  16.595   2.501  11.187
12187DPPC   GL2 3565  16.705   2.741  11.217
12187DPPC   C1A 3566  16.765   2.181  11.337
12187DPPC   C2A 3567  16.995   1.911  11.477
12187DPPC   C3A 3568  17.345   1.881  11.867
12187DPPC   C4A 3569  17.635   1.861  12.287
12187DPPC   C1B 3570  16.905   2.721  11.497
12187DPPC   C2B 3571  17.085   2.811  11.867
12187DPPC   C3B 3572  17.425   2.771  12.187
12187DPPC   C4B 3573  17.675   2.771  12.577
12188DPPC   NC3 3574  14.165   0.031  12.367
12188DPPC   PO4 3575  14.525   0.091  12.627
12188DPPC   GL1 3576  14.645   0.281  12.957
12188DPPC   GL2 3577  14.565   0.111  13.127
12188DPPC   C1A 3578  15.035   0.431  13.067
12188DPPC   C2A 3579  15.325   0.501  13.327
12188DPPC   C3A 3580  15.685   0.551  13.567
12188DPPC   C4A 3581  16.035   0.551  13.937
12188DPPC   C1B 3582  14.905   0.031  13.227
12188DPPC   C2B 3583  15.275   6.589  13.357
12188DPPC   C3B 3584  15.525   0.011  13.737
12188DPPC   C4B 3585  15.885   0.031  14.047
12189DPPC   NC3 3586  14.885   0.041  12.217
12189DPPC   PO4 3587  15.275   0.061  12.307
12189DPPC   GL1 3588  15.615   0.181  12.267
12189DPPC   GL2 3589  15.725   0.331  12.117
12189DPPC   C1A 3590  15.785   6.479  12.447
12189DPPC   C2A 3591  15.935   6.419  12.817
12189DPPC   C3A 3592  16.235   6.319  13.197
12189DPPC   C4A 3593  16.565   6.389  13.487
12189DPPC   C1B 3594  16.085   0.301  12.267
12189DPPC   C2B 3595  16.085   0.251  12.667
12189DPPC   C3B 3596  16.285   0.221  13.077
12189DPPC   C4B 3597  16.625   0.281  13.457
12190DPPC   NC3 3598   2.047   3.221  10.017
12190DPPC   PO4 3599   2.077   3.531  10.197
12190DPPC   GL1 3600   1.967   3.591  10.597
12190DPPC   GL2 3601   1.777   3.371  10.647
12190DPPC   C1A 3602   1.927   3.899  10.817
12190DPPC   C2A 3603   1.707   4.239  10.897
12190DPPC   C3A 3604   1.337   4.449  11.047
12190DPPC   C4A 3605   1.127   4.519  11.477
12190DPPC   C1B 3606   1.627   3.221  10.877
12190DPPC   C2B 3607   1.627   2.891  11.127
12190DPPC   C3B 3608   1.747   2.421  11.197
12190DPPC   C4B 3609   1.697   1.941  11.217
12191DPPC   NC3 3610  15.855   1.331  11.057
12191DPPC   PO4 3611  16.245   1.401  11.067
12191DPPC   GL1 3612  16.365   1.541  11.357
12191DPPC   GL2 3613  16.275   1.821  11.457
12191DPPC   C1A 3614  16.455   1.351  11.677
12191DPPC   C2A 3615  16.685   1.281  12.027
12191DPPC   C3A 3616  16.835   1.241  12.417
12191DPPC   C4A 3617  17.095   1.331  12.817
12191DPPC   C1B 3618  16.565   2.011  11.657
12191DPPC   C2B 3619  16.795   1.871  11.927
12191DPPC   C3B 3620  17.135   1.771  12.287
12191DPPC   C4B 3621  17.325   1.761  12.697
12192DPPC   NC3 3622   1.067   3.141   9.837
12192DPPC   PO4 3623   0.767   3.041   9.597
12192DPPC   GL1 3624   0.647   2.931  10.017
12192DPPC   GL2 3625   0.667   3.231  10.097
12192DPPC   C1A 3626   0.497   2.701  10.257
12192DPPC   C2A 3627   0.277   2.411  10.517
12192DPPC   C3A 3628   0.257   2.201  10.947
12192DPPC   C4A 3629  21.085   2.171  11.307
12192DPPC   C1B 3630   0.427   3.481  10.287
12192DPPC   C2B 3631   0.357   3.801  10.577
12192DPPC   C3B 3632   0.197   4.209  10.777
12192DPPC   C4B 3633   0.087   4.649  10.597
12193DPPC   NC3 3634  16.815   5.189  10.797
12193DPPC   PO4 3635  16.555   5.309  11.057
12193DPPC   GL1 3636  16.645   5.129  11.377
12193DPPC   GL2 3637  16.925   4.989  11.277
12193DPPC   C1A 3638  16.825   5.169  11.707
12193DPPC   C2A 3639  17.095   5.299  11.997
12193DPPC   C3A 3640  17.455   5.359  12.327
12193DPPC   C4A 3641  17.805   5.389  12.727
12193DPPC   C1B 3642  17.175   4.999  11.517
12193DPPC   C2B 3643  17.465   5.059  11.777
12193DPPC   C3B 3644  17.745   4.929  12.117
12193DPPC   C4B 3645  18.075   4.969  12.567
12194DPPC   NC3 3646  17.185   1.531   9.917
12194DPPC   PO4 3647  17.325   1.871  10.117
12194DPPC   GL1 3648  17.635   1.781  10.407
12194DPPC   GL2 3649  17.425   1.591  10.547
12194DPPC   C1A 3650  17.895   1.741  10.647
12194DPPC   C2A 3651  18.215   1.721  10.927
12194DPPC   C3A 3652  18.515   1.681  11.257
12194DPPC   C4A 3653  18.835   1.731  11.687
12194DPPC   C1B 3654  17.545   1.651  10.947
12194DPPC   C2B 3655  17.885   1.611  11.257
12194DPPC   C3B 3656  18.185   1.591  11.677
12194DPPC   C4B 3657  18.505   1.591  12.067
12195DPPC   NC3 3658  17.895   1.011   9.587
12195DPPC   PO4 3659  17.585   1.231   9.727
12195DPPC   GL1 3660  17.635   1.431  10.167
12195DPPC   GL2 3661  17.715   1.671  10.037
12195DPPC   C1A 3662  17.775   1.341  10.517
12195DPPC   C2A 3663  17.995   1.251  10.877
12195DPPC   C3A 3664  18.255   1.191  11.297
12195DPPC   C4A 3665  18.585   1.241  11.687
12195DPPC   C1B 3666  18.045   1.621  10.207
12195DPPC   C2B 3667  18.275   1.431  10.497
12195DPPC   C3B 3668  18.595   1.281  10.807
12195DPPC   C4B 3669  18.835   1.291  11.247
12196DPPC   NC3 3670  18.795   0.951   9.347
12196DPPC   PO4 3671  19.175   0.881   9.507
12196DPPC   GL1 3672  19.285   0.601   9.877
12196DPPC   GL2 3673  19.165   0.951   9.957
12196DPPC   C1A 3674  19.235   0.341  10.167
12196DPPC   C2A 3675  19.055   0.081  10.457
12196DPPC   C3A 3676  18.905   6.319  10.697
12196DPPC   C4A 3677  18.935   6.079  11.107
12196DPPC   C1B 3678  19.335   1.271  10.057
12196DPPC   C2B 3679  19.515   1.471  10.347
12196DPPC   C3B 3680  19.905   1.671  10.347
12196DPPC   C4B 3681  20.275   1.501  10.587
12197DPPC   NC3 3682   2.247   3.989  10.007
12197DPPC   PO4 3683   1.947   4.249   9.957
12197DPPC   GL1 3684   1.677   4.469  10.267
12197DPPC   GL2 3685   1.447   4.239  10.257
12197DPPC   C1A 3686   1.777   4.609  10.627
12197DPPC   C2A 3687   1.847   4.939  10.797
12197DPPC   C3A 3688   2.047   5.399  10.837
12197DPPC   C4A 3689   2.107   5.859  11.097
12197DPPC   C1B 3690   1.337   4.549  10.467
12197DPPC   C2B 3691   1.297   4.859  10.807
12197DPPC   C3B 3692   1.537   4.939  11.187
12197DPPC   C4B 3693   1.567   4.629  11.587
12198DPPC   NC3 3694   0.027   5.179   9.657
12198DPPC   PO4 3695  20.855   4.899   9.597
12198DPPC   GL1 3696  20.495   4.749   9.927
12198DPPC   GL2 3697  20.605   4.969  10.097
12198DPPC   C1A 3698  20.115   4.709  10.007
12198DPPC   C2A 3699  19.785   4.469  10.157
12198DPPC   C3A 3700  19.645   4.039  10.407
12198DPPC   C4A 3701  19.485   3.571  10.497
12198DPPC   C1B 3702  20.355   4.839  10.327
12198DPPC   C2B 3703  20.065   4.759  10.617
12198DPPC   C3B 3704  19.845   4.889  11.007
12198DPPC   C4B 3705  19.645   4.839  11.437
12199DPPC   NC3 3706   2.877   3.361   9.817
12199DPPC   PO4 3707   3.137   3.371  10.127
12199DPPC   GL1 3708   3.017   3.211  10.497
12199DPPC   GL2 3709   3.157   3.371  10.687
12199DPPC   C1A 3710   2.817   2.951  10.597
12199DPPC   C2A 3711   2.597   2.811  10.917
12199DPPC   C3A 3712   2.297   2.761  11.257
12199DPPC   C4A 3713   1.957   2.831  11.547
12199DPPC   C1B 3714   2.907   3.401  10.997
12199DPPC   C2B 3715   2.537   3.281  11.157
12199DPPC   C3B 3716   2.237   3.191  11.547
12199DPPC   C4B 3717   1.907   3.271  11.907
12200DPPC   NC3 3718  15.805   4.729  11.347
12200DPPC   PO4 3719  15.875   4.739  11.727
12200DPPC   GL1 3720  15.985   4.459  11.977
12200DPPC   GL2 3721  16.225   4.579  11.967
12200DPPC   C1A 3722  15.915   4.289  12.347
12200DPPC   C2A 3723  15.935   4.239  12.737
12200DPPC   C3A 3724  16.335   4.309  13.077
12200DPPC   C4A 3725  16.645   4.299  13.437
12200DPPC   C1B 3726  16.325   4.729  12.277
12200DPPC   C2B 3727  16.655   4.809  12.537
12200DPPC   C3B 3728  16.985   4.839  12.847
12200DPPC   C4B 3729  17.395   4.859  13.217
12201DPPC   NC3 3730  15.255   1.351  11.897
12201DPPC   PO4 3731  15.625   1.311  11.867
12201DPPC   GL1 3732  15.915   1.041  11.917
12201DPPC   GL2 3733  15.865   0.771  12.017
12201DPPC   C1A 3734  16.145   1.191  12.137
12201DPPC   C2A 3735  16.315   1.191  12.497
12201DPPC   C3A 3736  16.645   1.101  12.877
12201DPPC   C4A 3737  16.945   1.181  13.267
12201DPPC   C1B 3738  16.045   0.721  12.327
12201DPPC   C2B 3739  16.295   0.751  12.617
12201DPPC   C3B 3740  16.505   0.661  13.067
12201DPPC   C4B 3741  16.865   0.711  13.457
12202DPPC   NC3 3742  17.855   0.461   9.457
12202DPPC   PO4 3743  18.055   0.221   9.687
12202DPPC   GL1 3744  18.295   0.341  10.027
12202DPPC   GL2 3745  18.535   0.381   9.917
12202DPPC   C1A 3746  18.505   0.251  10.357
12202DPPC   C2A 3747  18.585   0.081  10.707
12202DPPC   C3A 3748  18.725   6.519  11.157
12202DPPC   C4A 3749  18.745   6.529  11.617
12202DPPC   C1B 3750  18.815   0.491  10.107
12202DPPC   C2B 3751  19.035   0.761  10.297
12202DPPC   C3B 3752  19.155   1.181  10.577
12202DPPC   C4B 3753  19.295   1.501  10.937
12203DPPC   NC3 3754  20.125   3.621   9.007
12203DPPC   PO4 3755  20.425   3.701   9.277
12203DPPC   GL1 3756  20.345   3.949   9.567
12203DPPC   GL2 3757  20.085   3.871   9.697
12203DPPC   C1A 3758  20.565   3.959   9.807
12203DPPC   C2A 3759  20.885   4.049  10.027
12203DPPC   C3A 3760   0.157   4.239  10.267
12203DPPC   C4A 3761   0.567   4.389  10.477
12203DPPC   C1B 3762  19.815   4.119   9.807
12203DPPC   C2B 3763  19.465   4.229   9.947
12203DPPC   C3B 3764  19.135   4.349  10.267
12203DPPC   C4B 3765  19.085   4.789  10.507
12204DPPC   NC3 3766  14.685   5.319  12.257
12204DPPC   PO4 3767  14.515   5.369  12.597
12204DPPC   GL1 3768  14.715   5.169  13.027
12204DPPC   GL2 3769  14.885   5.409  13.037
12204DPPC   C1A 3770  14.865   5.069  13.317
12204DPPC   C2A 3771  15.205   4.929  13.567
12204DPPC   C3A 3772  15.555   4.949  13.887
12204DPPC   C4A 3773  15.895   4.939  14.267
12204DPPC   C1B 3774  15.155   5.409  13.327
12204DPPC   C2B 3775  15.425   5.379  13.617
12204DPPC   C3B 3776  15.805   5.389  13.977
12204DPPC   C4B 3777  16.125   5.439  14.297
12205DPPC   NC3 3778  15.685   6.379  10.927
12205DPPC   PO4 3779  15.605   6.489  11.327
12205DPPC   GL1 3780  16.025   6.439  11.527
12205DPPC   GL2 3781  15.805   6.529  11.707
12205DPPC   C1A 3782  16.315   6.449  11.737
12205DPPC   C2A 3783  16.635   6.489  11.987
12205DPPC   C3A 3784  16.885   6.589  12.397
12205DPPC   C4A 3785  17.175   6.589  12.667
12205DPPC   C1B 3786  15.995   6.579  12.037
12205DPPC   C2B 3787  16.315   6.479  12.347
12205DPPC   C3B 3788  16.535   6.529  12.747
12205DPPC   C4B 3789  16.845   6.529  13.137
12206DPPC   NC3 3790  17.545   2.671   9.777
12206DPPC   PO4 3791  17.735   2.331   9.737
12206DPPC   GL1 3792  17.715   2.131  10.027
12206DPPC   GL2 3793  17.555   2.251  10.257
12206DPPC   C1A 3794  17.975   2.031  10.217
12206DPPC   C2A 3795  18.155   2.101  10.577
12206DPPC   C3A 3796  18.495   2.141  10.917
12206DPPC   C4A 3797  18.785   2.101  11.357
12206DPPC   C1B 3798  17.645   2.141  10.637
12206DPPC   C2B 3799  17.815   2.051  10.987
12206DPPC   C3B 3800  18.135   2.061  11.367
12206DPPC   C4B 3801  18.435   2.011  11.787
12207DPPC   NC3 3802  16.335   5.829  11.007
12207DPPC   PO4 3803  16.105   5.559  11.187
12207DPPC   GL1 3804  16.385   5.559  11.507
12207DPPC   GL2 3805  16.335   5.299  11.607
12207DPPC   C1A 3806  16.725   5.619  11.597
12207DPPC   C2A 3807  17.115   5.699  11.717
12207DPPC   C3A 3808  17.425   5.809  12.017
12207DPPC   C4A 3809  17.825   5.849  12.347
12207DPPC   C1B 3810  16.485   5.299  11.917
12207DPPC   C2B 3811  16.705   5.229  12.257
12207DPPC   C3B 3812  17.055   5.249  12.637
12207DPPC   C4B 3813  17.365   5.329  13.037
12208DPPC   NC3 3814  15.345   4.149  12.187
12208DPPC   PO4 3815  15.265   4.539  12.077
12208DPPC   GL1 3816  15.615   4.649  12.347
12208DPPC   GL2 3817  15.505   4.449  12.527
12208DPPC   C1A 3818  15.885   4.649  12.597
12208DPPC   C2A 3819  16.215   4.749  12.807
12208DPPC   C3A 3820  16.595   4.799  13.127
12208DPPC   C4A 3821  16.965   4.799  13.497
12208DPPC   C1B 3822  15.555   4.599  12.887
12208DPPC   C2B 3823  15.905   4.689  13.167
12208DPPC   C3B 3824  16.245   4.639  13.467
12208DPPC   C4B 3825  16.555   4.739  13.807
12209DPPC   NC3 3826  15.315   3.411  12.607
12209DPPC   PO4 3827  15.185   3.711  12.337
12209DPPC   GL1 3828  15.575   3.701  12.297
12209DPPC   GL2 3829  15.705   3.901  12.477
12209DPPC   C1A 3830  15.835   3.461  12.467
12209DPPC   C2A 3831  15.775   3.251  12.827
12209DPPC   C3A 3832  16.045   3.271  13.197
12209DPPC   C4A 3833  16.405   3.351  13.577
12209DPPC   C1B 3834  15.895   3.751  12.777
12209DPPC   C2B 3835  16.155   3.841  13.017
12209DPPC   C3B 3836  16.435   3.881  13.317
12209DPPC   C4B 3837  16.685   3.881  13.747
12210DPPC   NC3 3838  16.605   4.329  10.737
12210DPPC   PO4 3839  16.315   4.069  10.817
12210DPPC   GL1 3840  16.505   4.189  11.247
12210DPPC   GL2 3841  16.395   3.989  11.407
12210DPPC   C1A 3842  16.815   4.339  11.367
12210DPPC   C2A 3843  17.095   4.459  11.607
12210DPPC   C3A 3844  17.425   4.579  11.927
12210DPPC   C4A 3845  17.675   4.469  12.327
12210DPPC   C1B 3846  16.505   3.919  11.787
12210DPPC   C2B 3847  16.695   3.929  12.167
12210DPPC   C3B 3848  16.955   3.979  12.557
12210DPPC   C4B 3849  17.335   4.019  12.837
12211DPPC   NC3 3850  14.225   5.789  12.897
12211DPPC   PO4 3851  14.305   5.429  13.047
12211DPPC   GL1 3852  14.465   5.429  13.337
12211DPPC   GL2 3853  14.495   5.169  13.487
12211DPPC   C1A 3854  14.755   5.559  13.467
12211DPPC   C2A 3855  15.075   5.709  13.737
12211DPPC   C3A 3856  15.445   5.749  14.047
12211DPPC   C4A 3857  15.725   5.809  14.417
12211DPPC   C1B 3858  14.765   5.269  13.757
12211DPPC   C2B 3859  15.115   5.259  13.997
12211DPPC   C3B 3860  15.455   5.299  14.387
12211DPPC   C4B 3861  15.825   5.329  14.687
12212DPPC   NC3 3862  17.055   2.231  10.297
12212DPPC   PO4 3863  17.175   2.611  10.227
12212DPPC   GL1 3864  17.185   2.881  10.557
12212DPPC   GL2 3865  17.515   2.761  10.427
12212DPPC   C1A 3866  17.275   2.841  10.927
12212DPPC   C2A 3867  17.355   2.851  11.347
12212DPPC   C3A 3868  17.635   2.791  11.747
12212DPPC   C4A 3869  17.955   2.831  12.087
12212DPPC   C1B 3870  17.785   2.581  10.637
12212DPPC   C2B 3871  18.105   2.491  10.887
12212DPPC   C3B 3872  18.365   2.461  11.297
12212DPPC   C4B 3873  18.625   2.441  11.717
12213DPPC   NC3 3874  20.205   4.209   9.247
12213DPPC   PO4 3875  19.915   3.959   9.287
12213DPPC   GL1 3876  19.865   3.581   9.397
12213DPPC   GL2 3877  20.085   3.421   9.467
12213DPPC   C1A 3878  19.675   3.481   9.697
12213DPPC   C2A 3879  19.655   3.261  10.097
12213DPPC   C3A 3880  19.845   3.171  10.537
12213DPPC   C4A 3881  19.925   2.821  10.887
12213DPPC   C1B 3882  20.005   3.211   9.757
12213DPPC   C2B 3883  20.045   2.941  10.107
12213DPPC   C3B 3884  20.235   2.731  10.477
12213DPPC   C4B 3885  20.375   2.571  10.897
12214DPPC   NC3 3886  20.045   6.449   9.577
12214DPPC   PO4 3887  19.825   0.181   9.587
12214DPPC   GL1 3888  19.695   0.401   9.937
12214DPPC   GL2 3889  19.925   0.541   9.957
12214DPPC   C1A 3890  19.715   0.331  10.317
12214DPPC   C2A 3891  19.925   0.421  10.677
12214DPPC   C3A 3892  20.155   0.461  11.077
12214DPPC   C4A 3893  20.385   0.421  11.537
12214DPPC   C1B 3894  20.085   0.601  10.297
12214DPPC   C2B 3895  20.365   0.301  10.407
12214DPPC   C3B 3896  20.675   0.131  10.747
12214DPPC   C4B 3897  20.985   0.101  11.137
12215DPPC   NC3 3898  16.765   2.931  10.707
12215DPPC   PO4 3899  16.825   2.561  10.587
12215DPPC   GL1 3900  17.035   2.441  10.747
12215DPPC   GL2 3901  17.315   2.461  10.657
12215DPPC   C1A 3902  17.055   2.321  11.107
12215DPPC   C2A 3903  17.235   2.361  11.517
12215DPPC   C3A 3904  17.565   2.321  11.867
12215DPPC   C4A 3905  17.845   2.401  12.217
12215DPPC   C1B 3906  17.525   2.501  10.937
12215DPPC   C2B 3907  17.725   2.491  11.267
12215DPPC   C3B 3908  17.995   2.441  11.677
12215DPPC   C4B 3909  18.315   2.491  12.057
12216DPPC   NC3 3910   1.327   3.781  10.057
12216DPPC   PO4 3911   0.957   3.641  10.037
12216DPPC   GL1 3912   0.847   3.471  10.417
12216DPPC   GL2 3913   0.857   3.781  10.487
12216DPPC   C1A 3914   0.677   3.471  10.717
12216DPPC   C2A 3915   0.347   3.451  10.937
12216DPPC   C3A 3916  21.005   3.631  10.827
12216DPPC   C4A 3917  20.525   3.771  10.837
12216DPPC   C1B 3918   0.777   3.979  10.797
12216DPPC   C2B 3919   0.547   3.949  11.107
12216DPPC   C3B 3920   0.117   3.851  11.207
12216DPPC   C4B 3921  20.835   3.851  11.407
12217DPPC   NC3 3922  17.045   5.749   9.897
12217DPPC   PO4 3923  17.285   5.509  10.067
12217DPPC   GL1 3924  17.575   5.539  10.377
12217DPPC   GL2 3925  17.445   5.659  10.527
12217DPPC   C1A 3926  17.925   5.519  10.477
12217DPPC   C2A 3927  18.195   5.619  10.757
12217DPPC   C3A 3928  18.455   5.759  11.117
12217DPPC   C4A 3929  18.485   6.079  11.517
12217DPPC   C1B 3930  17.595   5.619  10.857
12217DPPC   C2B 3931  17.925   5.569  11.157
12217DPPC   C3B 3932  18.215   5.579  11.507
12217DPPC   C4B 3933  18.405   5.489  11.967
12218DPPC   NC3 3934  19.275   5.989   9.557
12218DPPC   PO4 3935  19.455   6.339   9.517
12218DPPC   GL1 3936  19.515   6.569   9.867
12218DPPC   GL2 3937  19.285   0.061   9.837
12218DPPC   C1A 3938  19.515   6.509  10.227
12218DPPC   C2A 3939  19.625   6.569  10.657
12218DPPC   C3A 3940  19.745   6.599  11.137
12218DPPC   C4A 3941  20.035   0.031  11.487
12218DPPC   C1B 3942  18.935   0.031  10.047
12218DPPC   C2B 3943  18.675   6.399  10.277
12218DPPC   C3B 3944  18.305   6.139  10.307
12218DPPC   C4B 3945  17.815   6.019  10.517
12219DPPC   NC3 3946  19.395   3.661   9.317
12219DPPC   PO4 3947  19.025   3.501   9.317
12219DPPC   GL1 3948  19.035   3.371   9.657
12219DPPC   GL2 3949  18.845   3.571   9.797
12219DPPC   C1A 3950  19.185   3.231   9.957
12219DPPC   C2A 3951  19.205   3.181  10.387
12219DPPC   C3A 3952  19.415   3.101  10.757
12219DPPC   C4A 3953  19.685   3.181  11.127
12219DPPC   C1B 3954  18.815   3.471  10.177
12219DPPC   C2B 3955  18.895   3.501  10.577
12219DPPC   C3B 3956  19.295   3.531  10.987
12219DPPC   C4B 3957  19.475   3.601  11.427
12220DPPC   NC3 3958  21.075   2.681   9.317
12220DPPC   PO4 3959  20.955   2.831   9.637
12220DPPC   GL1 3960  20.665   2.741   9.897
12220DPPC   GL2 3961  20.585   2.961   9.977
12220DPPC   C1A 3962  20.495   2.471  10.147
12220DPPC   C2A 3963  20.085   2.321  10.217
12220DPPC   C3A 3964  19.595   2.251  10.137
12220DPPC   C4A 3965  19.135   2.411   9.967
12220DPPC   C1B 3966  20.465   3.081  10.297
12220DPPC   C2B 3967  20.305   3.331  10.567
12220DPPC   C3B 3968  20.165   3.241  11.067
12220DPPC   C4B 3969  20.025   3.371  11.507
12221DPPC   NC3 3970  18.545   4.999   9.687
12221DPPC   PO4 3971  18.565   4.619   9.787
12221DPPC   GL1 3972  18.315   4.279   9.907
12221DPPC   GL2 3973  18.235   4.449  10.167
12221DPPC   C1A 3974  18.425   3.969  10.087
12221DPPC   C2A 3975  18.775   3.929  10.307
12221DPPC   C3A 3976  19.155   3.969  10.597
12221DPPC   C4A 3977  19.535   4.009  10.927
12221DPPC   C1B 3978  18.345   4.279  10.437
12221DPPC   C2B 3979  18.685   4.289  10.627
12221DPPC   C3B 3980  19.035   4.309  10.957
12221DPPC   C4B 3981  19.335   4.399  11.277
12222DPPC   NC3 3982  17.245   0.451  10.417
12222DPPC   PO4 3983  17.145   0.731  10.167
12222DPPC   GL1 3984  17.305   1.161  10.277
12222DPPC   GL2 3985  17.535   0.981  10.097
12222DPPC   C1A 3986  17.415   1.161  10.667
12222DPPC   C2A 3987  17.585   1.201  11.047
12222DPPC   C3A 3988  17.795   1.111  11.447
12222DPPC   C4A 3989  18.055   1.121  11.837
12222DPPC   C1B 3990  17.665   0.811  10.377
12222DPPC   C2B 3991  17.785   0.661  10.737
12222DPPC   C3B 3992  17.975   0.811  11.157
12222DPPC   C4B 3993  18.325   0.801  11.577
12223DPPC   NC3 3994  16.615   0.761  10.107
12223DPPC   PO4 3995  16.715   1.051  10.347
12223DPPC   GL1 3996  16.995   1.111  10.717
12223DPPC   GL2 3997  17.125   0.861  10.627
12223DPPC   C1A 3998  16.955   1.211  11.047
12223DPPC   C2A 3999  16.925   1.311  11.437
12223DPPC   C3A 4000  17.115   1.421  11.937
12223DPPC   C4A 4001  17.415   1.361  12.337
12223DPPC   C1B 4002  17.315   0.841  10.947
12223DPPC   C2B 4003  17.495   0.641  11.257
12223DPPC   C3B 4004  17.815   0.601  11.627
12223DPPC   C4B 4005  18.075   0.651  12.077
12224DPPC   NC3 4006   3.257   4.419  10.797
12224DPPC   PO4 4007   3.307   4.099  10.607
12224DPPC   GL1 4008   3.197   4.009  10.987
12224DPPC   GL2 4009   3.127   3.741  10.957
12224DPPC   C1A 4010   2.917   4.189  11.087
12224DPPC   C2A 4011   2.747   4.199  11.487
12224DPPC   C3A 4012   2.437   4.159  11.817
12224DPPC   C4A 4013   2.137   4.209  12.177
12224DPPC   C1B 4014   2.837   3.801  11.227
12224DPPC   C2B 4015   2.487   3.761  11.467
12224DPPC   C3B 4016   2.207   3.751  11.887
12224DPPC   C4B 4017   1.927   3.751  12.287
12225DPPC   NC3 4018  15.585   6.139  11.657
12225DPPC   PO4 4019  15.505   5.819  11.847
12225DPPC   GL1 4020  15.855   5.939  12.057
12225DPPC   GL2 4021  16.025   6.069  11.907
12225DPPC   C1A 4022  16.095   6.019  12.387
12225DPPC   C2A 4023  16.275   6.059  12.717
12225DPPC   C3A 4024  16.625   6.069  13.087
12225DPPC   C4A 4025  16.945   6.049  13.477
12225DPPC   C1B 4026  16.415   6.089  11.987
12225DPPC   C2B 4027  16.645   6.099  12.337
12225DPPC   C3B 4028  16.885   6.119  12.687
12225DPPC   C4B 4029  17.275   6.159  13.017
12226DPPC   NC3 4030  15.945   2.141  11.727
12226DPPC   PO4 4031  15.555   2.171  11.867
12226DPPC   GL1 4032  15.825   2.471  12.067
12226DPPC   GL2 4033  15.755   2.391  12.337
12226DPPC   C1A 4034  16.145   2.331  12.067
12226DPPC   C2A 4035  16.505   2.251  12.107
12226DPPC   C3A 4036  16.815   2.151  12.437
12226DPPC   C4A 4037  17.065   2.241  12.847
12226DPPC   C1B 4038  15.975   2.371  12.627
12226DPPC   C2B 4039  16.225   2.391  12.977
12226DPPC   C3B 4040  16.435   2.491  13.337
12226DPPC   C4B 4041  16.775   2.571  13.737
12227DPPC   NC3 4042   2.227   6.069  10.117
12227DPPC   PO4 4043   2.617   6.259  10.127
12227DPPC   GL1 4044   2.817   6.439  10.497
12227DPPC   GL2 4045   2.837   6.149  10.567
12227DPPC   C1A 4046   2.727   0.081  10.817
12227DPPC   C2A 4047   2.527   0.251  11.097
12227DPPC   C3A 4048   2.347   0.181  11.527
12227DPPC   C4A 4049   2.047   0.221  11.887
12227DPPC   C1B 4050   2.507   6.149  10.687
12227DPPC   C2B 4051   2.097   6.109  10.657
12227DPPC   C3B 4052   1.677   5.929  10.627
12227DPPC   C4B 4053   1.237   5.669  10.627
12228DPPC   NC3 4054  16.925   4.819   9.927
12228DPPC   PO4 4055  17.235   5.029  10.007
12228DPPC   GL1 4056  17.425   4.959  10.347
12228DPPC   GL2 4057  17.625   4.789  10.307
12228DPPC   C1A 4058  17.665   5.169  10.597
12228DPPC   C2A 4059  17.925   5.199  10.847
12228DPPC   C3A 4060  18.235   5.209  11.167
12228DPPC   C4A 4061  18.585   5.129  11.517
12228DPPC   C1B 4062  17.925   4.799  10.467
12228DPPC   C2B 4063  18.285   4.729  10.667
12228DPPC   C3B 4064  18.625   4.639  10.957
12228DPPC   C4B 4065  18.915   4.679  11.407
12229DPPC   NC3 4066  15.035   4.959  11.927
12229DPPC   PO4 4067  14.825   4.839  12.247
12229DPPC   GL1 4068  14.965   4.999  12.497
12229DPPC   GL2 4069  15.285   5.059  12.417
12229DPPC   C1A 4070  15.065   5.029  12.877
12229DPPC   C2A 4071  15.385   5.009  13.137
12229DPPC   C3A 4072  15.765   5.029  13.467
12229DPPC   C4A 4073  16.075   5.009  13.817
12229DPPC   C1B 4074  15.515   5.079  12.687
12229DPPC   C2B 4075  15.875   5.089  12.867
12229DPPC   C3B 4076  16.195   5.109  13.197
12229DPPC   C4B 4077  16.515   5.139  13.567
12230DPPC   NC3 4078  15.785   3.001  11.337
12230DPPC   PO4 4079  15.975   3.311  11.187
12230DPPC   GL1 4080  16.305   3.381  11.457
12230DPPC   GL2 4081  16.165   3.111  11.627
12230DPPC   C1A 4082  16.585   3.561  11.557
12230DPPC   C2A 4083  16.875   3.591  11.877
12230DPPC   C3A 4084  17.215   3.611  12.287
12230DPPC   C4A 4085  17.525   3.631  12.657
12230DPPC   C1B 4086  16.235   3.051  11.957
12230DPPC   C2B 4087  16.475   2.981  12.307
12230DPPC   C3B 4088  16.725   3.071  12.737
12230DPPC   C4B 4089  17.065   3.151  13.117
12231DPPC   NC3 4090  15.185   5.889  12.317
12231DPPC   PO4 4091  15.085   6.219  12.527
12231DPPC   GL1 4092  15.465   6.239  12.537
12231DPPC   GL2 4093  15.625   6.039  12.487
12231DPPC   C1A 4094  15.475   6.319  12.907
12231DPPC   C2A 4095  15.635   6.299  13.267
12231DPPC   C3A 4096  15.925   6.259  13.637
12231DPPC   C4A 4097  16.325   6.259  13.977
12231DPPC   C1B 4098  15.745   5.999  12.847
12231DPPC   C2B 4099  15.955   5.869  13.227
12231DPPC   C3B 4100  16.325   5.909  13.597
12231DPPC   C4B 4101  16.655   5.929  13.987
12232DPPC   NC3 4102  17.045   3.341   9.937
12232DPPC   PO4 4103  17.315   3.061   9.987
12232DPPC   GL1 4104  17.695   3.151  10.307
12232DPPC   GL2 4105  17.415   3.301  10.397
12232DPPC   C1A 4106  17.985   3.021  10.537
12232DPPC   C2A 4107  18.245   2.981  10.887
12232DPPC   C3A 4108  18.525   2.931  11.267
12232DPPC   C4A 4109  18.865   2.961  11.597
12232DPPC   C1B 4110  17.565   3.131  10.727
12232DPPC   C2B 4111  17.765   2.921  11.027
12232DPPC   C3B 4112  17.985   2.891  11.437
12232DPPC   C4B 4113  18.375   2.951  11.717
12233DPPC   NC3 4114  15.435   1.751  11.657
12233DPPC   PO4 4115  15.835   1.661  11.477
12233DPPC   GL1 4116  16.055   1.581  11.847
12233DPPC   GL2 4117  15.935   1.781  12.007
12233DPPC   C1A 4118  16.395   1.671  11.997
12233DPPC   C2A 4119  16.585   1.711  12.377
12233DPPC   C3A 4120  16.765   1.721  12.767
12233DPPC   C4A 4121  17.095   1.741  13.157
12233DPPC   C1B 4122  16.175   1.931  12.267
12233DPPC   C2B 4123  16.305   2.041  12.677
12233DPPC   C3B 4124  16.595   2.111  13.077
12233DPPC   C4B 4125  16.845   2.171  13.437
12234DPPC   NC3 4126  19.695   0.741   9.597
12234DPPC   PO4 4127  19.765   1.101   9.687
12234DPPC   GL1 4128  19.735   1.151  10.097
12234DPPC   GL2 4129  19.595   0.841  10.117
12234DPPC   C1A 4130  19.845   1.171  10.477
12234DPPC   C2A 4131  19.845   1.411  10.847
12234DPPC   C3A 4132  19.725   1.581  11.317
12234DPPC   C4A 4133  19.565   1.751  11.747
12234DPPC   C1B 4134  19.625   0.841  10.437
12234DPPC   C2B 4135  19.495   0.951  10.787
12234DPPC   C3B 4136  19.125   0.951  11.037
12234DPPC   C4B 4137  18.665   0.801  11.027
12235DPPC   NC3 4138   3.447   2.171  10.737
12235DPPC   PO4 4139   3.187   2.091  10.437
12235DPPC   GL1 4140   2.997   2.291  10.797
12235DPPC   GL2 4141   2.787   2.261  10.597
12235DPPC   C1A 4142   2.837   2.341  11.187
12235DPPC   C2A 4143   2.717   2.451  11.517
12235DPPC   C3A 4144   2.567   2.451  12.007
12235DPPC   C4A 4145   2.277   2.511  12.457
12235DPPC   C1B 4146   2.537   2.281  10.907
12235DPPC   C2B 4147   2.327   2.261  11.287
12235DPPC   C3B 4148   2.127   2.421  11.657
12235DPPC   C4B 4149   1.867   2.391  12.047
12236DPPC   NC3 4150   3.337   1.291  10.027
12236DPPC   PO4 4151   3.157   1.001  10.177
12236DPPC   GL1 4152   2.977   0.851  10.587
12236DPPC   GL2 4153   2.837   1.091  10.537
12236DPPC   C1A 4154   2.927   0.631  10.867
12236DPPC   C2A 4155   3.007   0.521  11.287
12236DPPC   C3A 4156   2.927   0.281  11.707
12236DPPC   C4A 4157   2.567   0.241  12.047
12236DPPC   C1B 4158   2.907   1.311  10.807
12236DPPC   C2B 4159   2.797   1.461  11.157
12236DPPC   C3B 4160   2.497   1.521  11.557
12236DPPC   C4B 4161   2.117   1.531  11.847
12237DPPC   NC3 4162  18.015   1.931   9.767
12237DPPC   PO4 4163  17.975   1.541   9.637
12237DPPC   GL1 4164  18.205   1.261   9.867
12237DPPC   GL2 4165  17.985   1.171  10.077
12237DPPC   C1A 4166  18.395   1.151  10.137
12237DPPC   C2A 4167  18.795   1.221  10.247
12237DPPC   C3A 4168  19.055   1.671  10.347
12237DPPC   C4A 4169  19.335   1.901  10.647
12237DPPC   C1B 4170  18.045   1.011  10.377
12237DPPC   C2B 4171  18.225   0.811  10.677
12237DPPC   C3B 4172  18.325   0.441  10.947
12237DPPC   C4B 4173  18.575   0.351  11.347
12238DPPC   NC3 4174   1.397   2.931  10.527
12238DPPC   PO4 4175   1.087   3.021  10.307
12238DPPC   GL1 4176   0.747   3.021  10.517
12238DPPC   GL2 4177   0.897   3.091  10.777
12238DPPC   C1A 4178   0.437   3.131  10.617
12238DPPC   C2A 4179   0.097   3.251  10.477
12238DPPC   C3A 4180  20.825   3.401  10.317
12238DPPC   C4A 4181  20.505   3.811  10.297
12238DPPC   C1B 4182   0.687   3.101  11.077
12238DPPC   C2B 4183   0.397   3.091  11.387
12238DPPC   C3B 4184   0.107   3.171  11.757
12238DPPC   C4B 4185  20.755   3.341  11.817
12239DPPC   NC3 4186  14.425   0.901  12.517
12239DPPC   PO4 4187  14.685   0.581  12.517
12239DPPC   GL1 4188  15.045   0.661  12.677
12239DPPC   GL2 4189  14.955   0.841  12.917
12239DPPC   C1A 4190  15.325   0.441  12.757
12239DPPC   C2A 4191  15.595   0.181  12.937
12239DPPC   C3A 4192  15.855   0.141  13.297
12239DPPC   C4A 4193  16.185   0.091  13.677
12239DPPC   C1B 4194  15.095   0.881  13.237
12239DPPC   C2B 4195  15.375   0.931  13.537
12239DPPC   C3B 4196  15.605   0.921  13.927
12239DPPC   C4B 4197  15.955   0.911  14.277
12240DPPC   NC3 4198  15.135   2.941  11.927
12240DPPC   PO4 4199  15.395   2.751  12.157
12240DPPC   GL1 4200  15.755   2.871  12.367
12240DPPC   GL2 4201  15.645   2.831  12.577
12240DPPC   C1A 4202  16.105   2.701  12.337
12240DPPC   C2A 4203  16.445   2.521  12.547
12240DPPC   C3A 4204  16.685   2.581  12.937
12240DPPC   C4A 4205  16.985   2.601  13.287
12240DPPC   C1B 4206  15.935   2.841  12.767
12240DPPC   C2B 4207  16.305   2.901  12.837
12240DPPC   C3B 4208  16.625   2.971  13.227
12240DPPC   C4B 4209  16.895   3.111  13.617
12241DPPC   NC3 4210  15.265   2.261  12.247
12241DPPC   PO4 4211  15.355   2.401  12.617
12241DPPC   GL1 4212  15.575   2.331  12.967
12241DPPC   GL2 4213  15.575   2.061  12.887
12241DPPC   C1A 4214  15.765   2.401  13.247
12241DPPC   C2A 4215  15.995   2.371  13.527
12241DPPC   C3A 4216  16.295   2.371  13.867
12241DPPC   C4A 4217  16.595   2.421  14.267
12241DPPC   C1B 4218  15.925   1.931  12.867
12241DPPC   C2B 4219  16.125   1.971  13.237
12241DPPC   C3B 4220  16.405   1.951  13.617
12241DPPC   C4B 4221  16.715   1.961  14.027
12242DPPC   NC3 4222   0.447   4.489   9.437
12242DPPC   PO4 4223   0.247   4.699   9.707
12242DPPC   GL1 4224  21.045   4.749   9.997
12242DPPC   GL2 4225   0.047   4.919  10.107
12242DPPC   C1A 4226  20.835   4.559  10.237
12242DPPC   C2A 4227  20.515   4.449  10.457
12242DPPC   C3A 4228  20.075   4.309  10.647
12242DPPC   C4A 4229  19.585   4.449  10.717
12242DPPC   C1B 4230  21.005   5.009  10.417
12242DPPC   C2B 4231  20.815   4.919  10.777
12242DPPC   C3B 4232  20.695   5.109  11.167
12242DPPC   C4B 4233  20.605   5.229  11.567
12243DPPC   NC3 4234  15.065   4.509  12.557
12243DPPC   PO4 4235  15.165   4.119  12.667
12243DPPC   GL1 4236  15.365   4.099  12.967
12243DPPC   GL2 4237  15.205   4.219  13.217
12243DPPC   C1A 4238  15.675   4.169  13.097
12243DPPC   C2A 4239  15.935   4.229  13.427
12243DPPC   C3A 4240  16.265   4.179  13.767
12243DPPC   C4A 4241  16.635   4.239  14.117
12243DPPC   C1B 4242  15.455   4.109  13.477
12243DPPC   C2B 4243  15.705   4.079  13.837
12243DPPC   C3B 4244  16.015   4.009  14.227
12243DPPC   C4B 4245  16.295   4.109  14.597
12244DPPC   NC3 4246   0.107   6.569   9.067
12244DPPC   PO4 4247   0.007   0.061   9.447
12244DPPC   GL1 4248  21.145   6.549   9.837
12244DPPC   GL2 4249  20.905   6.409   9.797
12244DPPC   C1A 4250   0.157   0.181  10.077
12244DPPC   C2A 4251   0.217   0.471  10.307
12244DPPC   C3A 4252   0.297   0.871  10.627
12244DPPC   C4A 4253   0.217   1.311  10.707
12244DPPC   C1B 4254  20.785   6.199  10.127
12244DPPC   C2B 4255  20.955   5.969  10.377
12244DPPC   C3B 4256  21.105   5.489  10.507
12244DPPC   C4B 4257   0.307   5.129  10.567
12245DPPC   NC3 4258   0.577   3.481   9.727
12245DPPC   PO4 4259   0.217   3.641   9.717
12245DPPC   GL1 4260  21.105   3.541  10.017
12245DPPC   GL2 4261  20.905   3.371   9.817
12245DPPC   C1A 4262  21.115   3.781  10.297
12245DPPC   C2A 4263  20.905   4.049  10.527
12245DPPC   C3A 4264  20.715   4.309  10.867
12245DPPC   C4A 4265  20.355   4.719  10.997
12245DPPC   C1B 4266  20.535   3.481   9.897
12245DPPC   C2B 4267  20.105   3.541  10.067
12245DPPC   C3B 4268  19.645   3.741  10.047
12245DPPC   C4B 4269  19.175   3.741  10.157
12246DPPC   NC3 4270   3.127   5.079  10.157
12246DPPC   PO4 4271   2.787   4.869  10.107
12246DPPC   GL1 4272   2.647   4.769  10.457
12246DPPC   GL2 4273   2.757   4.989  10.677
12246DPPC   C1A 4274   2.407   4.569  10.637
12246DPPC   C2A 4275   2.137   4.559  10.897
12246DPPC   C3A 4276   1.917   4.609  11.287
12246DPPC   C4A 4277   1.967   4.239  11.647
12246DPPC   C1B 4278   2.477   5.129  10.917
12246DPPC   C2B 4279   2.167   5.059  11.217
12246DPPC   C3B 4280   1.877   5.039  11.577
12246DPPC   C4B 4281   1.647   5.039  11.897
12247DPPC   NC3 4282  17.235   4.499  10.277
12247DPPC   PO4 4283  16.945   4.259  10.367
12247DPPC   GL1 4284  17.155   4.359  10.707
12247DPPC   GL2 4285  17.095   4.169  10.967
12247DPPC   C1A 4286  17.435   4.529  10.877
12247DPPC   C2A 4287  17.745   4.709  10.967
12247DPPC   C3A 4288  18.145   4.709  11.247
12247DPPC   C4A 4289  18.415   4.699  11.627
12247DPPC   C1B 4290  17.235   4.159  11.277
12247DPPC   C2B 4291  17.475   4.139  11.607
12247DPPC   C3B 4292  17.845   4.069  11.937
12247DPPC   C4B 4293  18.085   4.119  12.287
12248DPPC   NC3 4294  16.435   0.191  11.337
12248DPPC   PO4 4295  16.375   0.501  11.087
12248DPPC   GL1 4296  16.835   0.481  11.227
12248DPPC   GL2 4297  16.805   0.741  11.087
12248DPPC   C1A 4298  17.105   0.511  11.507
12248DPPC   C2A 4299  17.355   0.491  11.817
12248DPPC   C3A 4300  17.575   0.501  12.247
12248DPPC   C4A 4301  17.815   0.601  12.637
12248DPPC   C1B 4302  17.065   0.891  11.287
12248DPPC   C2B 4303  17.315   1.031  11.577
12248DPPC   C3B 4304  17.575   0.951  11.927
12248DPPC   C4B 4305  17.785   1.011  12.307
12249DPPC   NC3 4306   0.607   5.589   9.307
12249DPPC   PO4 4307   0.567   5.329   9.587
12249DPPC   GL1 4308   0.627   5.469  10.017
12249DPPC   GL2 4309   0.607   5.759   9.957
12249DPPC   C1A 4310   0.747   5.379  10.367
12249DPPC   C2A 4311   0.917   5.299  10.747
12249DPPC   C3A 4312   1.187   5.349  11.147
12249DPPC   C4A 4313   1.487   5.359  11.457
12249DPPC   C1B 4314   0.537   5.849  10.337
12249DPPC   C2B 4315   0.297   5.979  10.627
12249DPPC   C3B 4316  21.055   6.159  10.877
12249DPPC   C4B 4317  20.535   6.199  10.867
12250DPPC   NC3 4318  15.855   4.279  10.807
12250DPPC   PO4 4319  16.135   4.559  10.957
12250DPPC   GL1 4320  16.265   4.569  11.397
12250DPPC   GL2 4321  16.285   4.869  11.507
12250DPPC   C1A 4322  16.435   4.379  11.647
12250DPPC   C2A 4323  16.705   4.369  11.947
12250DPPC   C3A 4324  17.075   4.439  12.247
12250DPPC   C4A 4325  17.255   4.479  12.687
12250DPPC   C1B 4326  16.555   4.819  11.717
12250DPPC   C2B 4327  16.895   4.859  12.017
12250DPPC   C3B 4328  17.225   4.869  12.377
12250DPPC   C4B 4329  17.585   4.899  12.677
12251DPPC   NC3 4330  16.505   0.971  10.917
12251DPPC   PO4 4331  16.125   0.941  11.067
12251DPPC   GL1 4332  16.325   0.961  11.357
12251DPPC   GL2 4333  16.585   1.041  11.367
12251DPPC   C1A 4334  16.295   0.971  11.777
12251DPPC   C2A 4335  16.515   0.801  12.067
12251DPPC   C3A 4336  16.785   0.751  12.447
12251DPPC   C4A 4337  17.035   0.781  12.917
12251DPPC   C1B 4338  16.825   0.951  11.647
12251DPPC   C2B 4339  17.045   0.901  12.027
12251DPPC   C3B 4340  17.285   0.851  12.427
12251DPPC   C4B 4341  17.525   0.941  12.837
12252DPPC   NC3 4342  18.255   2.731   9.137
12252DPPC   PO4 4343  18.565   2.701   9.417
12252DPPC   GL1 4344  18.885   2.931   9.627
12252DPPC   GL2 4345  18.705   3.041   9.727
12252DPPC   C1A 4346  19.175   2.761   9.777
12252DPPC   C2A 4347  19.445   2.781  10.077
12252DPPC   C3A 4348  19.705   2.671  10.447
12252DPPC   C4A 4349  19.705   2.331  10.857
12252DPPC   C1B 4350  18.785   3.021  10.087
12252DPPC   C2B 4351  18.935   2.721  10.347
12252DPPC   C3B 4352  19.265   2.601  10.697
12252DPPC   C4B 4353  19.465   2.671  11.197
12253DPPC   NC3 4354  19.955   2.041   9.807
12253DPPC   PO4 4355  20.335   1.901   9.777
12253DPPC   GL1 4356  20.485   1.831  10.127
12253DPPC   GL2 4357  20.255   1.891  10.287
12253DPPC   C1A 4358  20.835   1.831  10.307
12253DPPC   C2A 4359  21.045   2.041  10.577
12253DPPC   C3A 4360  20.915   2.401  10.857
12253DPPC   C4A 4361  20.845   2.741  11.197
12253DPPC   C1B 4362  20.205   1.941  10.637
12253DPPC   C2B 4363  20.135   2.141  10.987
12253DPPC   C3B 4364  19.965   2.461  11.317
12253DPPC   C4B 4365  19.915   2.841  11.667
12254DPPC   NC3 4366  16.215   2.761  11.287
12254DPPC   PO4 4367  16.035   2.641  11.617
12254DPPC   GL1 4368  16.465   2.701  11.697
12254DPPC   GL2 4369  16.495   2.411  11.597
12254DPPC   C1A 4370  16.655   2.681  11.997
12254DPPC   C2A 4371  16.895   2.731  12.367
12254DPPC   C3A 4372  17.145   2.741  12.737
12254DPPC   C4A 4373  17.445   2.781  13.157
12254DPPC   C1B 4374  16.785   2.361  11.737
12254DPPC   C2B 4375  17.035   2.311  12.027
12254DPPC   C3B 4376  17.365   2.281  12.337
12254DPPC   C4B 4377  17.595   2.261  12.737
12255DPPC   NC3 4378   2.107   2.091   9.597
12255DPPC   PO4 4379   2.257   2.211   9.947
12255DPPC   GL1 4380   2.237   1.941  10.337
12255DPPC   GL2 4381   1.967   2.081  10.397
12255DPPC   C1A 4382   2.487   1.851  10.607
12255DPPC   C2A 4383   2.387   1.741  11.017
12255DPPC   C3A 4384   2.147   1.811  11.437
12255DPPC   C4A 4385   1.817   1.941  11.787
12255DPPC   C1B 4386   1.787   2.281  10.627
12255DPPC   C2B 4387   1.507   2.541  10.767
12255DPPC   C3B 4388   1.157   2.711  11.007
12255DPPC   C4B 4389   1.207   3.221  11.117
12256DPPC   NC3 4390  15.715   5.409  11.907
12256DPPC   PO4 4391  15.985   5.649  11.697
12256DPPC   GL1 4392  16.295   5.669  11.957
12256DPPC   GL2 4393  16.135   5.489  12.157
12256DPPC   C1A 4394  16.625   5.719  12.107
12256DPPC   C2A 4395  17.005   5.659  12.297
12256DPPC   C3A 4396  17.285   5.749  12.647
12256DPPC   C4A 4397  17.615   5.789  12.987
12256DPPC   C1B 4398  16.345   5.619  12.427
12256DPPC   C2B 4399  16.625   5.709  12.717
12256DPPC   C3B 4400  17.035   5.679  13.057
12256DPPC   C4B 4401  17.385   5.689  13.437
12257DPPC   NC3 4402  15.345   0.421  11.907
12257DPPC   PO4 4403  15.115   0.561  12.187
12257DPPC   GL1 4404  15.345   0.811  12.417
12257DPPC   GL2 4405  15.555   0.671  12.317
12257DPPC   C1A 4406  15.415   0.901  12.787
12257DPPC   C2A 4407  15.625   0.971  13.117
12257DPPC   C3A 4408  15.865   1.031  13.497
12257DPPC   C4A 4409  16.165   0.991  13.857
12257DPPC   C1B 4410  15.695   0.571  12.607
12257DPPC   C2B 4411  15.945   0.591  13.007
12257DPPC   C3B 4412  16.165   0.581  13.457
12257DPPC   C4B 4413  16.505   0.641  13.827
12258DPPC   NC3 4414  15.005   1.311  12.607
12258DPPC   PO4 4415  15.305   1.271  12.357
12258DPPC   GL1 4416  15.645   1.141  12.327
12258DPPC   GL2 4417  15.745   1.451  12.307
12258DPPC   C1A 4418  15.875   0.981  12.617
12258DPPC   C2A 4419  16.135   1.031  12.957
12258DPPC   C3A 4420  16.395   1.041  13.377
12258DPPC   C4A 4421  16.725   1.101  13.757
12258DPPC   C1B 4422  15.975   1.581  12.577
12258DPPC   C2B 4423  16.245   1.541  12.947
12258DPPC   C3B 4424  16.605   1.561  13.267
12258DPPC   C4B 4425  16.875   1.591  13.627
12259DPPA   PO4 4426   3.237   4.899  10.587
12259DPPA   GL1 4427   3.197   4.909  11.047
12259DPPA   GL2 4428   2.937   4.679  10.967
12259DPPA   C1A 4429   3.217   5.069  11.367
12259DPPA   C2A 4430   3.107   5.169  11.787
12259DPPA   C3A 4431   2.787   5.189  12.067
12259DPPA   C4A 4432   2.487   5.219  12.447
12259DPPA   C1B 4433   2.617   4.739  11.027
12259DPPA   C2B 4434   2.447   4.639  11.397
12259DPPA   C3B 4435   2.147   4.669  11.787
12259DPPA   C4B 4436   1.757   4.589  12.067
12260DPPA   PO4 4437   3.327   2.601  10.457
12260DPPA   GL1 4438   3.427   2.661  10.837
12260DPPA   GL2 4439   3.297   2.901  10.797
12260DPPA   C1A 4440   3.307   2.531  11.167
12260DPPA   C2A 4441   3.347   2.441  11.547
12260DPPA   C3A 4442   3.217   2.541  12.007
12260DPPA   C4A 4443   2.857   2.561  12.417
12260DPPA   C1B 4444   3.077   3.011  11.037
12260DPPA   C2B 4445   2.787   2.881  11.347
12260DPPA   C3B 4446   2.477   2.821  11.707
12260DPPA   C4B 4447   2.157   2.851  12.097
12261DPPA   PO4 4448  16.895   4.819  10.417
12261DPPA   GL1 4449  17.245   4.879  10.727
12261DPPA   GL2 4450  17.045   4.759  10.927
12261DPPA   C1A 4451  17.425   5.009  11.027
12261DPPA   C2A 4452  17.765   5.109  11.327
12261DPPA   C3A 4453  18.065   5.099  11.727
12261DPPA   C4A 4454  18.505   5.029  11.997
12261DPPA   C1B 4455  17.205   4.629  11.217
12261DPPA   C2B 4456  17.545   4.619  11.437
12261DPPA   C3B 4457  17.925   4.599  11.737
12261DPPA   C4B 4458  18.265   4.559  12.107
12262DPPA   PO4 4459  15.145   5.419  12.077
12262DPPA   GL1 4460  15.515   5.419  12.337
12262DPPA   GL2 4461  15.615   5.689  12.307
12262DPPA   C1A 4462  15.825   5.249  12.427
12262DPPA   C2A 4463  16.225   5.139  12.457
12262DPPA   C3A 4464  16.555   5.219  12.827
12262DPPA   C4A 4465  16.885   5.249  13.197
12262DPPA   C1B 4466  15.865   5.649  12.607
12262DPPA   C2B 4467  16.135   5.569  12.877
12262DPPA   C3B 4468  16.435   5.569  13.217
12262DPPA   C4B 4469  16.805   5.589  13.507
12263DPPA   PO4 4470  14.745   5.829  12.627
12263DPPA   GL1 4471  15.065   5.919  12.997
12263DPPA   GL2 4472  15.285   5.809  12.827
12263DPPA   C1A 4473  15.295   5.829  13.327
12263DPPA   C2A 4474  15.595   5.869  13.577
12263DPPA   C3A 4475  15.985   5.879  13.987
12263DPPA   C4A 4476  16.255   5.929  14.347
12263DPPA   C1B 4477  15.465   5.509  12.947
12263DPPA   C2B 4478  15.755   5.449  13.217
12263DPPA   C3B 4479  16.075   5.459  13.557
12263DPPA   C4B 4480  16.465   5.489  13.887
12264DPPA   PO4 4481   3.857   3.321  11.297
12264DPPA   GL1 4482   3.547   3.341  11.597
12264DPPA   GL2 4483   3.707   3.111  11.737
12264DPPA   C1A 4484   3.247   3.461  11.797
12264DPPA   C2A 4485   3.067   3.371  12.087
12264DPPA   C3A 4486   2.757   3.371  12.437
12264DPPA   C4A 4487   2.427   3.381  12.737
12264DPPA   C1B 4488   3.507   3.001  11.997
12264DPPA   C2B 4489   3.217   2.961  12.277
12264DPPA   C3B 4490   2.907   3.041  12.677
12264DPPA   C4B 4491   2.627   3.031  13.067
12265DPPA   PO4 4492  14.875   3.351  12.727
12265DPPA   GL1 4493  15.085   3.141  13.067
12265DPPA   GL2 4494  15.325   3.151  12.977
12265DPPA   C1A 4495  15.185   3.301  13.367
12265DPPA   C2A 4496  15.225   3.181  13.767
12265DPPA   C3A 4497  15.585   3.081  14.077
12265DPPA   C4A 4498  15.845   3.091  14.477
12265DPPA   C1B 4499  15.605   3.141  13.297
12265DPPA   C2B 4500  15.785   3.281  13.617
12265DPPA   C3B 4501  16.075   3.251  13.897
12265DPPA   C4B 4502  16.315   3.161  14.317
12266DPPA   PO4 4503  18.285   0.671   9.537
12266DPPA   GL1 4504  18.175   0.791   9.937
12266DPPA   GL2 4505  17.925   0.731   9.917
12266DPPA   C1A 4506  18.385   0.761  10.267
12266DPPA   C2A 4507  18.655   0.611  10.567
12266DPPA   C3A 4508  18.955   0.431  10.887
12266DPPA   C4A 4509  19.285   0.161  10.957
12266DPPA   C1B 4510  18.005   0.581  10.277
12266DPPA   C2B 4511  18.035   0.241  10.557
12266DPPA   C3B 4512  17.915   6.449  10.827
12266DPPA   C4B 4513  18.065   6.069  11.197
12267DPPA   PO4 4514   1.467   1.131   9.607
12267DPPA   GL1 4515   1.317   1.171   9.977
12267DPPA   GL2 4516   1.167   0.901   9.927
12267DPPA   C1A 4517   1.447   1.021  10.287
12267DPPA   C2A 4518   1.557   1.041  10.707
12267DPPA   C3A 4519   1.727   1.431  10.937
12267DPPA   C4A 4520   1.757   1.441  11.407
12267DPPA   C1B 4521   0.857   0.961  10.137
12267DPPA   C2B 4522   0.647   0.721  10.347
12267DPPA   C3B 4523   0.457   0.421  10.707
12267DPPA   C4B 4524   0.297   0.001  10.897
12268DPPA   PO4 4525  15.595   4.249  11.687
12268DPPA   GL1 4526  15.825   3.959  11.827
12268DPPA   GL2 4527  16.095   4.059  11.737
12268DPPA   C1A 4528  15.965   3.891  12.177
12268DPPA   C2A 4529  16.225   3.871  12.447
12268DPPA   C3A 4530  16.535   3.821  12.767
12268DPPA   C4A 4531  16.915   3.949  13.117
12268DPPA   C1B 4532  16.275   4.149  12.087
12268DPPA   C2B 4533  16.465   4.309  12.397
12268DPPA   C3B 4534  16.745   4.399  12.797
12268DPPA   C4B 4535  17.115   4.419  13.137
12269DPPA   PO4 4536  18.455   1.341   9.437
12269DPPA   GL1 4537  18.455   1.601   9.767
12269DPPA   GL2 4538  18.455   1.831   9.617
12269DPPA   C1A 4539  18.455   1.681  10.137
12269DPPA   C2A 4540  18.565   1.841  10.467
12269DPPA   C3A 4541  18.855   1.781  10.897
12269DPPA   C4A 4542  19.135   1.811  11.327
12269DPPA   C1B 4543  18.485   2.041   9.957
12269DPPA   C2B 4544  18.625   2.291  10.257
12269DPPA   C3B 4545  18.955   2.231  10.587
12269DPPA   C4B 4546  19.135   2.261  11.037
12270DPPA   PO4 4547  16.605   5.609  10.617
12270DPPA   GL1 4548  16.845   5.689  10.987
12270DPPA   GL2 4549  17.075   5.549  10.877
12270DPPA   C1A 4550  16.985   5.869  11.287
12270DPPA   C2A 4551  17.225   6.109  11.507
12270DPPA   C3A 4552  17.475   6.289  11.897
12270DPPA   C4A 4553  17.875   6.399  12.207
12270DPPA   C1B 4554  17.315   5.389  11.107
12270DPPA   C2B 4555  17.515   5.489  11.467
12270DPPA   C3B 4556  17.735   5.479  11.867
12270DPPA   C4B 4557  18.025   5.359  12.267
12271DPPA   PO4 4558  16.285   6.319  11.087
12271DPPA   GL1 4559  16.615   6.219  11.287
12271DPPA   GL2 4560  16.785   6.479  11.227
12271DPPA   C1A 4561  16.785   6.139  11.627
12271DPPA   C2A 4562  16.935   6.069  11.987
12271DPPA   C3A 4563  17.275   6.179  12.327
12271DPPA   C4A 4564  17.605   6.199  12.627
12271DPPA   C1B 4565  16.905   6.579  11.497
12271DPPA   C2B 4566  17.145   0.051  11.847
12271DPPA   C3B 4567  17.435   0.051  12.237
12271DPPA   C4B 4568  17.715   0.111  12.657
12272DPPA   PO4 4569   1.207   6.279   9.977
12272DPPA   GL1 4570   1.327   6.159  10.417
12272DPPA   GL2 4571   0.997   6.199  10.437
12272DPPA   C1A 4572   1.577   6.359  10.617
12272DPPA   C2A 4573   1.597   0.171  10.617
12272DPPA   C3A 4574   1.607   0.581  10.907
12272DPPA   C4A 4575   1.747   0.931  11.197
12272DPPA   C1B 4576   0.767   6.089  10.667
12272DPPA   C2B 4577   0.517   6.119  11.007
12272DPPA   C3B 4578   0.227   6.389  11.337
12272DPPA   C4B 4579  21.055   6.289  11.737
12273DPPA   PO4 4580  17.925   3.491   9.887
12273DPPA   GL1 4581  18.085   3.501  10.207
12273DPPA   GL2 4582  17.835   3.531  10.387
12273DPPA   C1A 4583  18.315   3.461  10.467
12273DPPA   C2A 4584  18.485   3.461  10.837
12273DPPA   C3A 4585  18.765   3.411  11.237
12273DPPA   C4A 4586  19.045   3.421  11.647
12273DPPA   C1B 4587  17.945   3.411  10.707
12273DPPA   C2B 4588  18.035   3.401  11.077
12273DPPA   C3B 4589  18.275   3.391  11.467
12273DPPA   C4B 4590  18.615   3.381  11.797
12274DPPA   PO4 4591  16.505   3.171  11.027
12274DPPA   GL1 4592  16.875   3.111  11.287
12274DPPA   GL2 4593  16.665   3.121  11.497
12274DPPA   C1A 4594  17.065   3.231  11.607
12274DPPA   C2A 4595  17.405   3.201  11.887
12274DPPA   C3A 4596  17.695   3.251  12.287
12274DPPA   C4A 4597  18.015   3.231  12.657
12274DPPA   C1B 4598  16.685   3.191  11.877
12274DPPA   C2B 4599  16.995   3.181  12.187
12274DPPA   C3B 4600  17.235   3.151  12.577
12274DPPA   C4B 4601  17.585   3.241  12.977
12275DPPA   PO4 4602  15.725   0.351  11.537
12275DPPA   GL1 4603  16.135   0.351  11.707
12275DPPA   GL2 4604  16.155   0.631  11.547
12275DPPA   C1A 4605  16.365   0.221  11.947
12275DPPA   C2A 4606  16.545   0.301  12.327
12275DPPA   C3A 4607  16.775   0.341  12.767
12275DPPA   C4A 4608  17.075   0.371  13.167
12275DPPA   C1B 4609  16.515   0.571  11.667
12275DPPA   C2B 4610  16.825   0.431  11.907
12275DPPA   C3B 4611  17.115   0.391  12.287
12275DPPA   C4B 4612  17.365   0.471  12.727
12276DPPA   PO4 4613  19.505   5.609   9.387
12276DPPA   GL1 4614  19.605   5.619   9.797
12276DPPA   GL2 4615  19.295   5.639   9.887
12276DPPA   C1A 4616  19.725   5.359  10.027
12276DPPA   C2A 4617  19.915   5.079  10.247
12276DPPA   C3A 4618  19.565   4.989  10.597
12276DPPA   C4A 4619  19.255   4.769  10.977
12276DPPA   C1B 4620  19.145   5.709  10.247
12276DPPA   C2B 4621  19.085   5.779  10.617
12276DPPA   C3B 4622  18.895   5.589  11.017
12276DPPA   C4B 4623  18.755   5.609  11.457
12277DPPA   PO4 4624  20.405   5.799   9.307
12277DPPA   GL1 4625  20.195   5.849   9.717
12277DPPA   GL2 4626  20.305   5.599   9.787
12277DPPA   C1A 4627  19.995   5.829  10.057
12277DPPA   C2A 4628  19.975   5.919  10.457
12277DPPA   C3A 4629  19.925   6.099  10.867
12277DPPA   C4A 4630  20.245   6.169  11.277
12277DPPA   C1B 4631  20.145   5.419  10.087
12277DPPA   C2B 4632  20.215   5.419  10.507
12277DPPA   C3B 4633  20.315   5.699  10.867
12277DPPA   C4B 4634  19.925   5.719  11.227
12278DPPA   PO4 4635  20.055   4.989   9.397
12278DPPA   GL1 4636  20.165   4.549   9.517
12278DPPA   GL2 4637  19.875   4.429   9.467
12278DPPA   C1A 4638  20.265   4.309   9.817
12278DPPA   C2A 4639  20.125   4.129  10.197
12278DPPA   C3A 4640  20.095   3.771  10.517
12278DPPA   C4A 4641  19.815   3.581  10.877
12278DPPA   C1B 4642  19.655   4.559   9.717
12278DPPA   C2B 4643  19.525   4.829   9.987
12278DPPA   C3B 4644  19.355   5.229  10.177
12278DPPA   C4B 4645  19.605   5.639  10.327
12279DPPA   PO4 4646  14.775   4.159  12.987
12279DPPA   GL1 4647  14.985   3.821  13.097
12279DPPA   GL2 4648  15.085   3.691  12.927
12279DPPA   C1A 4649  15.225   3.731  13.337
12279DPPA   C2A 4650  15.425   3.701  13.647
12279DPPA   C3A 4651  15.725   3.611  14.017
12279DPPA   C4A 4652  15.975   3.561  14.367
12279DPPA   C1B 4653  15.455   3.671  12.947
12279DPPA   C2B 4654  15.725   3.761  13.197
12279DPPA   C3B 4655  16.035   3.721  13.527
12279DPPA   C4B 4656  16.305   3.691  13.947
12280DPPA   PO4 4657  14.825   2.411  12.737
12280DPPA   GL1 4658  15.075   2.401  13.037
12280DPPA   GL2 4659  15.165   2.711  13.017
12280DPPA   C1A 4660  15.275   2.301  13.357
12280DPPA   C2A 4661  15.515   2.261  13.717
12280DPPA   C3A 4662  15.825   2.291  14.067
12280DPPA   C4A 4663  16.055   2.231  14.487
12280DPPA   C1B 4664  15.525   2.771  13.027
12280DPPA   C2B 4665  15.895   2.791  13.257
12280DPPA   C3B 4666  16.235   2.881  13.587
12280DPPA   C4B 4667  16.485   2.941  13.957
12281DPPA   PO4 4668  16.575   3.621  10.547
12281DPPA   GL1 4669  16.715   3.881  10.827
12281DPPA   GL2 4670  16.965   3.891  10.637
12281DPPA   C1A 4671  16.845   3.901  11.167
12281DPPA   C2A 4672  16.935   3.929  11.567
12281DPPA   C3A 4673  17.205   4.009  11.987
12281DPPA   C4A 4674  17.505   4.029  12.297
12281DPPA   C1B 4675  17.185   3.801  10.907
12281DPPA   C2B 4676  17.505   3.761  11.147
12281DPPA   C3B 4677  17.805   3.751  11.517
12281DPPA   C4B 4678  18.165   3.701  11.867
12282DPPA   PO4 4679   0.077   2.301   9.627
12282DPPA   GL1 4680  21.145   2.381  10.097
12282DPPA   GL2 4681   0.007   2.651   9.967
12282DPPA   C1A 4682  20.995   2.521  10.397
12282DPPA   C2A 4683  20.825   2.851  10.537
12282DPPA   C3A 4684  20.605   3.061  10.917
12282DPPA   C4A 4685  20.595   3.401  11.257
12282DPPA   C1B 4686   0.107   2.851  10.277
12282DPPA   C2B 4687   0.107   2.831  10.687
12282DPPA   C3B 4688  21.095   3.161  10.977
12282DPPA   C4B 4689  21.085   3.421  11.347
12283DPPA   PO4 4690   0.277   1.331  13.657
12283DPPA   GL1 4691   0.627   1.301  13.367
12283DPPA   GL2 4692   0.717   1.551  13.337
12283DPPA   C1A 4693   0.867   1.101  13.197
12283DPPA   C2A 4694   1.177   1.121  12.937
12283DPPA   C3A 4695   1.467   1.081  12.577
12283DPPA   C4A 4696   1.727   1.091  12.117
12283DPPA   C1B 4697   0.847   1.481  13.007
12283DPPA   C2B 4698   1.057   1.561  12.677
12283DPPA   C3B 4699   1.317   1.521  12.277
12283DPPA   C4B 4700   1.557   1.511  11.827
24167DPPC   NC3 4701   1.967   4.469  16.327
24167DPPC   PO4 4702   2.317   4.759  16.317
24167DPPC   GL1 4703   2.617   4.829  16.007
24167DPPC   GL2 4704   2.487   4.939  15.807
24167DPPC   C1A 4705   2.967   4.689  15.847
24167DPPC   C2A 4706   3.207   4.609  15.507
24167DPPC   C3A 4707   3.537   4.589  15.177
24167DPPC   C4A 4708   3.897   4.569  14.757
24167DPPC   C1B 4709   2.747   5.039  15.617
24167DPPC   C2B 4710   2.997   5.029  15.297
24167DPPC   C3B 4711   3.317   5.029  14.947
24167DPPC   C4B 4712   3.647   5.049  14.597
24168DPPC   NC3 4713   2.837   3.151  17.187
24168DPPC   PO4 4714   2.887   2.781  17.207
24168DPPC   GL1 4715   2.917   2.871  16.817
24168DPPC   GL2 4716   3.177   2.971  16.857
24168DPPC   C1A 4717   2.967   2.881  16.467
24168DPPC   C2A 4718   3.047   2.921  16.047
24168DPPC   C3A 4719   3.387   2.851  15.677
24168DPPC   C4A 4720   3.737   2.791  15.307
24168DPPC   C1B 4721   3.367   2.961  16.527
24168DPPC   C2B 4722   3.657   3.001  16.217
24168DPPC   C3B 4723   3.947   2.891  15.857
24168DPPC   C4B 4724   4.227   2.921  15.457
24169DPPC   NC3 4725   4.107   4.969  18.587
24169DPPC   PO4 4726   3.797   5.089  18.387
24169DPPC   GL1 4727   4.087   5.119  18.137
24169DPPC   GL2 4728   3.917   5.039  17.897
24169DPPC   C1A 4729   4.407   4.929  18.157
24169DPPC   C2A 4730   4.597   4.979  17.807
24169DPPC   C3A 4731   4.825   4.859  17.377
24169DPPC   C4A 4732   5.195   4.869  17.047
24169DPPC   C1B 4733   4.137   4.989  17.647
24169DPPC   C2B 4734   4.307   4.919  17.277
24169DPPC   C3B 4735   4.607   4.899  16.887
24169DPPC   C4B 4736   4.915   4.869  16.507
24170DPPC   NC3 4737   0.507   6.209  13.777
24170DPPC   PO4 4738   0.337   6.499  13.537
24170DPPC   GL1 4739   0.707   6.499  13.357
24170DPPC   GL2 4740   0.867   6.459  13.527
24170DPPC   C1A 4741   0.867   6.469  13.027
24170DPPC   C2A 4742   1.057   6.469  12.647
24170DPPC   C3A 4743   1.387   6.369  12.307
24170DPPC   C4A 4744   1.727   6.399  11.947
24170DPPC   C1B 4745   1.167   6.429  13.307
24170DPPC   C2B 4746   1.457   6.469  13.007
24170DPPC   C3B 4747   1.767   6.469  12.667
24170DPPC   C4B 4748   2.097   6.429  12.317
24171DPPC   NC3 4749   3.457   6.599  17.767
24171DPPC   PO4 4750   3.467   6.189  17.807
24171DPPC   GL1 4751   3.667   6.139  17.517
24171DPPC   GL2 4752   3.577   6.409  17.367
24171DPPC   C1A 4753   3.907   5.919  17.357
24171DPPC   C2A 4754   4.217   5.829  17.137
24171DPPC   C3A 4755   4.637   5.739  16.837
24171DPPC   C4A 4756   4.995   5.709  16.567
24171DPPC   C1B 4757   3.847   6.549  17.167
24171DPPC   C2B 4758   4.247   6.599  17.027
24171DPPC   C3B 4759   4.577   0.001  16.667
24171DPPC   C4B 4760   4.955   6.569  16.347
24172DPPC   NC3 4761   1.047   5.249  14.767
24172DPPC   PO4 4762   0.727   5.169  14.597
24172DPPC   GL1 4763   0.847   5.369  14.177
24172DPPC   GL2 4764   1.077   5.379  14.287
24172DPPC   C1A 4765   1.017   5.429  13.827
24172DPPC   C2A 4766   1.177   5.629  13.477
24172DPPC   C3A 4767   1.497   5.649  13.087
24172DPPC   C4A 4768   1.857   5.679  12.747
24172DPPC   C1B 4769   1.357   5.219  14.417
24172DPPC   C2B 4770   1.597   5.139  14.087
24172DPPC   C3B 4771   1.917   5.229  13.687
24172DPPC   C4B 4772   2.307   5.239  13.387
24173DPPC   NC3 4773   3.277   3.831  17.247
24173DPPC   PO4 4774   3.437   3.821  17.597
24173DPPC   GL1 4775   3.757   3.999  17.507
24173DPPC   GL2 4776   3.887   3.691  17.527
24173DPPC   C1A 4777   3.937   4.029  17.197
24173DPPC   C2A 4778   4.187   3.989  16.897
24173DPPC   C3A 4779   4.437   3.939  16.527
24173DPPC   C4A 4780   4.735   3.899  16.157
24173DPPC   C1B 4781   4.187   3.691  17.397
24173DPPC   C2B 4782   4.447   3.641  17.087
24173DPPC   C3B 4783   4.705   3.561  16.737
24173DPPC   C4B 4784   5.065   3.551  16.397
24174DPPC   NC3 4785   1.137   1.581  15.667
24174DPPC   PO4 4786   1.527   1.711  15.607
24174DPPC   GL1 4787   1.997   1.721  15.587
24174DPPC   GL2 4788   1.907   1.911  15.387
24174DPPC   C1A 4789   2.267   1.611  15.337
24174DPPC   C2A 4790   2.537   1.451  15.057
24174DPPC   C3A 4791   2.847   1.381  14.727
24174DPPC   C4A 4792   3.167   1.401  14.367
24174DPPC   C1B 4793   2.097   2.001  15.137
24174DPPC   C2B 4794   2.317   1.851  14.807
24174DPPC   C3B 4795   2.647   1.861  14.477
24174DPPC   C4B 4796   2.967   1.791  14.147
24175DPPC   NC3 4797   0.467   4.289  14.547
24175DPPC   PO4 4798   0.617   3.959  14.407
24175DPPC   GL1 4799   1.047   4.019  14.217
24175DPPC   GL2 4800   0.957   3.929  13.957
24175DPPC   C1A 4801   1.347   4.219  14.207
24175DPPC   C2A 4802   1.507   4.289  13.827
24175DPPC   C3A 4803   1.817   4.329  13.437
24175DPPC   C4A 4804   2.157   4.369  13.077
24175DPPC   C1B 4805   1.257   3.891  13.737
24175DPPC   C2B 4806   1.547   3.801  13.447
24175DPPC   C3B 4807   1.817   3.871  13.127
24175DPPC   C4B 4808   2.137   3.959  12.727
24176DPPC   NC3 4809   1.517   4.569  15.077
24176DPPC   PO4 4810   1.427   4.459  14.737
24176DPPC   GL1 4811   1.767   4.459  14.627
24176DPPC   GL2 4812   1.957   4.529  14.747
24176DPPC   C1A 4813   1.747   4.369  14.277
24176DPPC   C2A 4814   1.977   4.349  13.907
24176DPPC   C3A 4815   2.347   4.399  13.527
24176DPPC   C4A 4816   2.697   4.329  13.197
24176DPPC   C1B 4817   2.197   4.459  14.507
24176DPPC   C2B 4818   2.417   4.479  14.177
24176DPPC   C3B 4819   2.757   4.479  13.847
24176DPPC   C4B 4820   3.067   4.469  13.517
24177DPPC   NC3 4821   1.817   2.111  15.847
24177DPPC   PO4 4822   1.977   2.441  16.107
24177DPPC   GL1 4823   2.347   2.611  16.057
24177DPPC   GL2 4824   2.147   2.811  15.897
24177DPPC   C1A 4825   2.707   2.571  16.017
24177DPPC   C2A 4826   3.017   2.451  15.757
24177DPPC   C3A 4827   3.397   2.421  15.427
24177DPPC   C4A 4828   3.697   2.281  15.107
24177DPPC   C1B 4829   2.197   2.971  15.537
24177DPPC   C2B 4830   2.407   2.851  15.157
24177DPPC   C3B 4831   2.817   2.781  14.907
24177DPPC   C4B 4832   3.127   2.731  14.457
24178DPPC   NC3 4833   3.017   2.481  17.887
24178DPPC   PO4 4834   3.327   2.491  18.167
24178DPPC   GL1 4835   3.537   2.351  17.827
24178DPPC   GL2 4836   3.417   2.121  17.677
24178DPPC   C1A 4837   3.807   2.301  17.607
24178DPPC   C2A 4838   4.067   2.201  17.327
24178DPPC   C3A 4839   4.377   2.121  16.967
24178DPPC   C4A 4840   4.755   2.211  16.647
24178DPPC   C1B 4841   3.527   2.131  17.297
24178DPPC   C2B 4842   3.747   2.111  16.967
24178DPPC   C3B 4843   4.047   2.121  16.607
24178DPPC   C4B 4844   4.367   2.131  16.297
24179DPPC   NC3 4845   2.917   5.479  16.877
24179DPPC   PO4 4846   2.777   5.469  16.517
24179DPPC   GL1 4847   2.837   5.639  16.247
24179DPPC   GL2 4848   2.947   5.859  16.377
24179DPPC   C1A 4849   3.187   5.559  16.107
24179DPPC   C2A 4850   3.447   5.519  15.787
24179DPPC   C3A 4851   3.777   5.439  15.347
24179DPPC   C4A 4852   4.067   5.449  14.927
24179DPPC   C1B 4853   3.207   5.959  16.197
24179DPPC   C2B 4854   3.487   6.059  15.967
24179DPPC   C3B 4855   3.847   5.939  15.657
24179DPPC   C4B 4856   4.207   5.919  15.287
24180DPPC   NC3 4857   3.107   4.819  17.557
24180DPPC   PO4 4858   3.117   4.419  17.597
24180DPPC   GL1 4859   3.437   4.289  17.367
24180DPPC   GL2 4860   3.277   4.479  17.167
24180DPPC   C1A 4861   3.527   4.129  17.077
24180DPPC   C2A 4862   3.707   4.019  16.717
24180DPPC   C3A 4863   3.987   3.861  16.327
24180DPPC   C4A 4864   4.167   3.781  15.897
24180DPPC   C1B 4865   3.337   4.629  16.787
24180DPPC   C2B 4866   3.597   4.769  16.507
24180DPPC   C3B 4867   4.007   4.839  16.207
24180DPPC   C4B 4868   4.327   4.719  15.827
24181DPPC   NC3 4869   0.397   1.361  14.167
24181DPPC   PO4 4870   0.637   1.641  14.047
24181DPPC   GL1 4871   0.997   1.591  13.857
24181DPPC   GL2 4872   0.947   1.781  13.707
24181DPPC   C1A 4873   1.337   1.561  13.777
24181DPPC   C2A 4874   1.617   1.671  13.517
24181DPPC   C3A 4875   1.917   1.681  13.157
24181DPPC   C4A 4876   2.197   1.661  12.757
24181DPPC   C1B 4877   1.127   1.681  13.407
24181DPPC   C2B 4878   1.367   1.611  13.087
24181DPPC   C3B 4879   1.617   1.591  12.727
24181DPPC   C4B 4880   1.867   1.651  12.297
24182DPPC   NC3 4881   2.417   4.189  17.137
24182DPPC   PO4 4882   2.837   4.169  17.157
24182DPPC   GL1 4883   3.047   4.239  16.807
24182DPPC   GL2 4884   2.897   4.209  16.587
24182DPPC   C1A 4885   3.377   4.269  16.617
24182DPPC   C2A 4886   3.577   4.299  16.287
24182DPPC   C3A 4887   3.877   4.329  15.947
24182DPPC   C4A 4888   4.147   4.289  15.577
24182DPPC   C1B 4889   3.057   4.059  16.317
24182DPPC   C2B 4890   3.237   4.199  15.937
24182DPPC   C3B 4891   3.547   4.249  15.527
24182DPPC   C4B 4892   3.847   4.219  15.117
24183DPPC   NC3 4893   4.177   1.781  18.757
24183DPPC   PO4 4894   3.867   2.021  18.677
24183DPPC   GL1 4895   4.077   2.311  18.497
24183DPPC   GL2 4896   4.307   2.131  18.457
24183DPPC   C1A 4897   4.137   2.511  18.147
24183DPPC   C2A 4898   4.427   2.801  17.917
24183DPPC   C3A 4899   4.785   2.741  17.567
24183DPPC   C4A 4900   5.135   2.731  17.217
24183DPPC   C1B 4901   4.467   1.971  18.147
24183DPPC   C2B 4902   4.627   1.841  17.837
24183DPPC   C3B 4903   4.965   1.891  17.477
24183DPPC   C4B 4904   5.325   1.791  17.137
24184DPPC   NC3 4905   1.727   2.911  16.137
24184DPPC   PO4 4906   2.047   3.171  16.207
24184DPPC   GL1 4907   2.437   3.251  16.017
24184DPPC   GL2 4908   2.287   3.371  15.817
24184DPPC   C1A 4909   2.577   2.961  15.787
24184DPPC   C2A 4910   2.877   2.871  15.547
24184DPPC   C3A 4911   3.267   2.861  15.177
24184DPPC   C4A 4912   3.507   2.851  14.787
24184DPPC   C1B 4913   2.477   3.271  15.507
24184DPPC   C2B 4914   2.757   3.261  15.227
24184DPPC   C3B 4915   3.027   3.221  14.857
24184DPPC   C4B 4916   3.347   3.231  14.447
24185DPPC   NC3 4917   1.777   0.981  15.227
24185DPPC   PO4 4918   1.467   1.151  15.007
24185DPPC   GL1 4919   1.617   1.371  14.747
24185DPPC   GL2 4920   1.427   1.571  14.627
24185DPPC   C1A 4921   1.987   1.371  14.717
24185DPPC   C2A 4922   2.317   1.451  14.547
24185DPPC   C3A 4923   2.617   1.321  14.247
24185DPPC   C4A 4924   2.937   1.281  13.927
24185DPPC   C1B 4925   1.527   1.721  14.317
24185DPPC   C2B 4926   1.737   1.721  14.027
24185DPPC   C3B 4927   2.057   1.731  13.667
24185DPPC   C4B 4928   2.367   1.681  13.327
24186DPPC   NC3 4929   1.827   5.529  16.587
24186DPPC   PO4 4930   2.037   5.209  16.347
24186DPPC   GL1 4931   2.317   5.299  16.017
24186DPPC   GL2 4932   2.537   5.269  16.157
24186DPPC   C1A 4933   2.387   5.309  15.697
24186DPPC   C2A 4934   2.497   5.399  15.357
24186DPPC   C3A 4935   2.857   5.459  15.017
24186DPPC   C4A 4936   3.147   5.479  14.617
24186DPPC   C1B 4937   2.787   5.329  15.907
24186DPPC   C2B 4938   2.917   5.509  15.557
24186DPPC   C3B 4939   3.297   5.529  15.227
24186DPPC   C4B 4940   3.617   5.449  14.877
24187DPPC   NC3 4941  20.955   4.579  13.867
24187DPPC   PO4 4942  20.595   4.729  13.717
24187DPPC   GL1 4943  20.455   4.579  13.307
24187DPPC   GL2 4944  20.695   4.739  13.207
24187DPPC   C1A 4945  20.285   4.559  13.017
24187DPPC   C2A 4946  20.115   4.579  12.617
24187DPPC   C3A 4947  19.895   4.479  12.207
24187DPPC   C4A 4948  19.665   4.429  11.747
24187DPPC   C1B 4949  20.635   4.779  12.787
24187DPPC   C2B 4950  20.585   4.689  12.377
24187DPPC   C3B 4951  20.615   4.719  11.877
24187DPPC   C4B 4952  20.785   4.679  11.397
24188DPPC   NC3 4953   1.477   4.489  15.587
24188DPPC   PO4 4954   1.647   4.849  15.547
24188DPPC   GL1 4955   1.917   4.809  15.227
24188DPPC   GL2 4956   1.817   4.909  14.997
24188DPPC   C1A 4957   2.247   4.639  15.117
24188DPPC   C2A 4958   2.507   4.539  14.787
24188DPPC   C3A 4959   2.857   4.499  14.467
24188DPPC   C4A 4960   3.217   4.499  14.167
24188DPPC   C1B 4961   2.087   4.969  14.677
24188DPPC   C2B 4962   2.417   4.949  14.457
24188DPPC   C3B 4963   2.727   4.869  14.087
24188DPPC   C4B 4964   3.027   4.919  13.757
24189DPPC   NC3 4965   2.177   6.579  15.617
24189DPPC   PO4 4966   1.987   0.201  15.827
24189DPPC   GL1 4967   2.427   0.251  15.987
24189DPPC   GL2 4968   2.497   0.011  15.967
24189DPPC   C1A 4969   2.747   0.341  15.827
24189DPPC   C2A 4970   3.047   0.251  15.607
24189DPPC   C3A 4971   3.447   0.191  15.347
24189DPPC   C4A 4972   3.737   0.171  14.997
24189DPPC   C1B 4973   2.687   6.569  15.657
24189DPPC   C2B 4974   3.007   6.339  15.467
24189DPPC   C3B 4975   3.267   6.299  15.147
24189DPPC   C4B 4976   3.617   6.309  14.807
24190DPPC   NC3 4977   2.057   0.601  16.067
24190DPPC   PO4 4978   2.177   0.971  15.937
24190DPPC   GL1 4979   2.337   1.161  15.647
24190DPPC   GL2 4980   2.077   1.181  15.457
24190DPPC   C1A 4981   2.567   1.061  15.377
24190DPPC   C2A 4982   2.837   1.011  15.087
24190DPPC   C3A 4983   3.157   0.991  14.747
24190DPPC   C4A 4984   3.477   0.961  14.397
24190DPPC   C1B 4985   2.197   1.141  15.127
24190DPPC   C2B 4986   2.377   0.951  14.797
24190DPPC   C3B 4987   2.677   0.891  14.507
24190DPPC   C4B 4988   2.977   0.881  14.197
24191DPPC   NC3 4989   0.217   2.351  14.517
24191DPPC   PO4 4990   0.597   2.431  14.567
24191DPPC   GL1 4991   0.667   2.671  14.207
24191DPPC   GL2 4992   0.867   2.511  14.197
24191DPPC   C1A 4993   0.757   2.941  13.957
24191DPPC   C2A 4994   0.907   3.011  13.567
24191DPPC   C3A 4995   1.177   2.981  13.227
24191DPPC   C4A 4996   1.517   2.891  12.877
24191DPPC   C1B 4997   1.027   2.571  13.897
24191DPPC   C2B 4998   1.217   2.561  13.587
24191DPPC   C3B 4999   1.587   2.561  13.287
24191DPPC   C4B 5000   1.917   2.491  12.927
24192DPPC   NC3 5001   0.487   3.801  13.947
24192DPPC   PO4 5002   0.297   4.149  14.067
24192DPPC   GL1 5003   0.617   4.409  13.997
24192DPPC   GL2 5004   0.577   4.569  13.837
24192DPPC   C1A 5005   0.997   4.509  13.977
24192DPPC   C2A 5006   1.247   4.669  13.707
24192DPPC   C3A 5007   1.537   4.739  13.307
24192DPPC   C4A 5008   1.817   4.779  12.937
24192DPPC   C1B 5009   0.847   4.579  13.547
24192DPPC   C2B 5010   1.067   4.709  13.217
24192DPPC   C3B 5011   1.297   4.729  12.847
24192DPPC   C4B 5012   1.377   4.779  12.397
24193DPPC   NC3 5013   3.297   1.301  18.387
24193DPPC   PO4 5014   3.597   1.101  18.197
24193DPPC   GL1 5015   4.017   1.201  18.257
24193DPPC   GL2 5016   3.937   1.421  18.037
24193DPPC   C1A 5017   4.347   1.091  18.167
24193DPPC   C2A 5018   4.685   0.971  17.977
24193DPPC   C3A 5019   5.015   1.001  17.617
24193DPPC   C4A 5020   5.195   0.961  17.207
24193DPPC   C1B 5021   4.267   1.411  17.887
24193DPPC   C2B 5022   4.587   1.351  17.667
24193DPPC   C3B 5023   4.835   1.311  17.237
24193DPPC   C4B 5024   5.185   1.391  16.877
24194DPPC   NC3 5025   4.117   2.341  19.457
24194DPPC   PO4 5026   4.247   2.001  19.317
24194DPPC   GL1 5027   4.537   1.891  19.037
24194DPPC   GL2 5028   4.657   1.681  19.167
24194DPPC   C1A 5029   4.705   1.951  18.737
24194DPPC   C2A 5030   4.855   1.911  18.357
24194DPPC   C3A 5031   5.145   1.971  17.957
24194DPPC   C4A 5032   5.515   1.901  17.737
24194DPPC   C1B 5033   5.005   1.611  19.207
24194DPPC   C2B 5034   5.355   1.631  19.027
24194DPPC   C3B 5035   5.695   1.541  18.657
24194DPPC   C4B 5036   6.015   1.541  18.277
24195DPPC   NC3 5037   1.577   0.371  15.587
24195DPPC   PO4 5038   1.817   0.681  15.637
24195DPPC   GL1 5039   2.217   0.741  15.517
24195DPPC   GL2 5040   2.297   0.451  15.647
24195DPPC   C1A 5041   2.407   0.691  15.217
24195DPPC   C2A 5042   2.637   0.491  14.967
24195DPPC   C3A 5043   2.947   0.511  14.647
24195DPPC   C4A 5044   3.247   0.461  14.237
24195DPPC   C1B 5045   2.537   0.321  15.427
24195DPPC   C2B 5046   2.777   0.101  15.177
24195DPPC   C3B 5047   3.157   0.071  14.877
24195DPPC   C4B 5048   3.507   0.071  14.477
24196DPPC   NC3 5049   0.977   2.131  14.837
24196DPPC   PO4 5050   1.257   2.161  14.567
24196DPPC   GL1 5051   1.537   2.501  14.657
24196DPPC   GL2 5052   1.697   2.371  14.847
24196DPPC   C1A 5053   1.797   2.661  14.457
24196DPPC   C2A 5054   2.117   2.591  14.167
24196DPPC   C3A 5055   2.427   2.631  13.767
24196DPPC   C4A 5056   2.647   2.651  13.377
24196DPPC   C1B 5057   2.017   2.271  14.707
24196DPPC   C2B 5058   2.287   2.221  14.417
24196DPPC   C3B 5059   2.607   2.231  14.077
24196DPPC   C4B 5060   2.947   2.201  13.777
24197DPPC   NC3 5061   1.527   5.759  15.507
24197DPPC   PO4 5062   1.567   5.369  15.427
24197DPPC   GL1 5063   1.907   5.239  15.287
24197DPPC   GL2 5064   2.027   5.129  15.587
24197DPPC   C1A 5065   2.037   5.279  14.957
24197DPPC   C2A 5066   2.367   5.409  14.727
24197DPPC   C3A 5067   2.697   5.369  14.367
24197DPPC   C4A 5068   3.097   5.449  14.057
24197DPPC   C1B 5069   2.327   4.989  15.437
24197DPPC   C2B 5070   2.507   5.039  15.037
24197DPPC   C3B 5071   2.807   5.029  14.697
24197DPPC   C4B 5072   3.157   4.989  14.367
24198DPPC   NC3 5073   2.887   4.709  17.087
24198DPPC   PO4 5074   2.617   4.599  16.767
24198DPPC   GL1 5075   2.737   4.549  16.387
24198DPPC   GL2 5076   3.027   4.649  16.507
24198DPPC   C1A 5077   2.837   4.399  16.107
24198DPPC   C2A 5078   2.857   4.279  15.697
24198DPPC   C3A 5079   3.077   4.149  15.297
24198DPPC   C4A 5080   3.397   4.179  14.947
24198DPPC   C1B 5081   3.227   4.569  16.197
24198DPPC   C2B 5082   3.517   4.669  15.897
24198DPPC   C3B 5083   3.857   4.659  15.597
24198DPPC   C4B 5084   4.197   4.649  15.217
24199DPPC   NC3 5085   1.637   3.959  15.777
24199DPPC   PO4 5086   1.867   4.289  15.887
24199DPPC   GL1 5087   1.957   4.539  15.637
24199DPPC   GL2 5088   1.857   4.349  15.397
24199DPPC   C1A 5089   2.287   4.539  15.527
24199DPPC   C2A 5090   2.637   4.549  15.347
24199DPPC   C3A 5091   2.977   4.589  15.017
24199DPPC   C4A 5092   3.387   4.589  14.727
24199DPPC   C1B 5093   2.177   4.249  15.227
24199DPPC   C2B 5094   2.547   4.099  15.047
24199DPPC   C3B 5095   2.957   4.099  14.747
24199DPPC   C4B 5096   3.327   4.079  14.427
24200DPPC   NC3 5097   1.827   3.181  15.697
24200DPPC   PO4 5098   1.887   3.521  15.547
24200DPPC   GL1 5099   1.947   3.771  15.197
24200DPPC   GL2 5100   2.217   3.801  15.187
24200DPPC   C1A 5101   1.927   3.671  14.887
24200DPPC   C2A 5102   2.167   3.551  14.587
24200DPPC   C3A 5103   2.507   3.611  14.217
24200DPPC   C4A 5104   2.897   3.591  13.877
24200DPPC   C1B 5105   2.477   3.651  15.017
24200DPPC   C2B 5106   2.747   3.621  14.657
24200DPPC   C3B 5107   3.077   3.681  14.307
24200DPPC   C4B 5108   3.427   3.521  13.987
24201DPPC   NC3 5109   2.807   0.761  17.057
24201DPPC   PO4 5110   2.707   0.801  16.667
24201DPPC   GL1 5111   2.987   0.831  16.347
24201DPPC   GL2 5112   3.127   0.551  16.477
24201DPPC   C1A 5113   3.077   0.781  15.987
24201DPPC   C2A 5114   3.267   0.711  15.637
24201DPPC   C3A 5115   3.637   0.691  15.317
24201DPPC   C4A 5116   3.957   0.661  14.867
24201DPPC   C1B 5117   3.307   0.411  16.207
24201DPPC   C2B 5118   3.587   0.341  15.927
24201DPPC   C3B 5119   3.887   0.241  15.587
24201DPPC   C4B 5120   4.187   0.151  15.207
24202DPPC   NC3 5121   4.407   1.621  19.567
24202DPPC   PO4 5122   4.307   1.371  19.277
24202DPPC   GL1 5123   4.587   1.311  18.947
24202DPPC   GL2 5124   4.537   1.511  18.767
24202DPPC   C1A 5125   4.895   1.171  18.957
24202DPPC   C2A 5126   5.225   1.141  18.697
24202DPPC   C3A 5127   5.615   1.061  18.407
24202DPPC   C4A 5128   5.915   1.041  18.027
24202DPPC   C1B 5129   4.905   1.601  18.757
24202DPPC   C2B 5130   5.225   1.531  18.467
24202DPPC   C3B 5131   5.485   1.481  18.077
24202DPPC   C4B 5132   5.815   1.451  17.687
24203DPPC   NC3 5133   3.537   5.319  18.017
24203DPPC   PO4 5134   3.337   5.669  17.967
24203DPPC   GL1 5135   3.477   5.759  17.627
24203DPPC   GL2 5136   3.747   5.649  17.567
24203DPPC   C1A 5137   3.477   5.859  17.237
24203DPPC   C2A 5138   3.717   5.749  16.927
24203DPPC   C3A 5139   4.067   5.749  16.637
24203DPPC   C4A 5140   4.427   5.719  16.337
24203DPPC   C1B 5141   3.887   5.439  17.287
24203DPPC   C2B 5142   4.087   5.339  16.947
24203DPPC   C3B 5143   4.407   5.299  16.607
24203DPPC   C4B 5144   4.775   5.279  16.287
24204DPPC   NC3 5145   2.597   3.121  16.407
24204DPPC   PO4 5146   2.657   3.301  16.757
24204DPPC   GL1 5147   3.007   3.321  16.647
24204DPPC   GL2 5148   3.127   3.411  16.937
24204DPPC   C1A 5149   3.197   3.341  16.327
24204DPPC   C2A 5150   3.407   3.351  15.957
24204DPPC   C3A 5151   3.687   3.221  15.637
24204DPPC   C4A 5152   3.997   3.351  15.217
24204DPPC   C1B 5153   3.427   3.411  16.817
24204DPPC   C2B 5154   3.697   3.441  16.527
24204DPPC   C3B 5155   3.897   3.391  16.087
24204DPPC   C4B 5156   4.187   3.351  15.677
24205DPPC   NC3 5157   1.487   3.671  15.097
24205DPPC   PO4 5158   1.477   4.089  15.207
24205DPPC   GL1 5159   1.787   4.099  14.917
24205DPPC   GL2 5160   1.627   3.999  14.757
24205DPPC   C1A 5161   2.127   4.029  14.857
24205DPPC   C2A 5162   2.427   4.049  14.567
24205DPPC   C3A 5163   2.727   4.099  14.217
24205DPPC   C4A 5164   3.097   4.059  13.897
24205DPPC   C1B 5165   1.807   3.919  14.457
24205DPPC   C2B 5166   2.107   3.999  14.227
24205DPPC   C3B 5167   2.487   3.939  13.847
24205DPPC   C4B 5168   2.817   3.949  13.517
24206DPPC   NC3 5169   1.047   0.831  14.837
24206DPPC   PO4 5170   1.197   0.561  14.567
24206DPPC   GL1 5171   1.507   0.521  14.297
24206DPPC   GL2 5172   1.277   0.321  14.157
24206DPPC   C1A 5173   1.747   0.771  14.137
24206DPPC   C2A 5174   1.987   0.821  13.807
24206DPPC   C3A 5175   2.307   0.831  13.437
24206DPPC   C4A 5176   2.607   0.881  13.017
24206DPPC   C1B 5177   1.547   0.321  13.937
24206DPPC   C2B 5178   1.857   0.311  13.657
24206DPPC   C3B 5179   2.167   0.321  13.347
24206DPPC   C4B 5180   2.457   0.371  12.927
24207DPPC   NC3 5181   0.327   5.559  14.277
24207DPPC   PO4 5182   0.277   5.429  13.907
24207DPPC   GL1 5183   0.587   5.289  13.707
24207DPPC   GL2 5184   0.757   5.029  13.747
24207DPPC   C1A 5185   0.767   5.439  13.437
24207DPPC   C2A 5186   0.897   5.529  13.047
24207DPPC   C3A 5187   1.167   5.619  12.687
24207DPPC   C4A 5188   1.507   5.649  12.327
24207DPPC   C1B 5189   0.937   5.089  13.467
24207DPPC   C2B 5190   1.237   5.199  13.127
24207DPPC   C3B 5191   1.557   5.199  12.737
24207DPPC   C4B 5192   1.757   5.109  12.407
24208DPPC   NC3 5193   0.537   6.229  14.577
24208DPPC   PO4 5194   0.577   6.399  14.217
24208DPPC   GL1 5195   0.937   6.219  13.947
24208DPPC   GL2 5196   0.957   6.469  14.027
24208DPPC   C1A 5197   1.227   6.149  13.687
24208DPPC   C2A 5198   1.437   6.059  13.367
24208DPPC   C3A 5199   1.767   6.049  13.077
24208DPPC   C4A 5200   2.117   6.079  12.727
24208DPPC   C1B 5201   1.297   6.529  13.857
24208DPPC   C2B 5202   1.607   6.479  13.537
24208DPPC   C3B 5203   1.947   6.489  13.187
24208DPPC   C4B 5204   2.257   6.559  12.787
24209DPPC   NC3 5205   0.627   3.341  15.047
24209DPPC   PO4 5206   0.737   3.451  14.667
24209DPPC   GL1 5207   0.987   3.611  14.397
24209DPPC   GL2 5208   0.827   3.461  14.157
24209DPPC   C1A 5209   1.357   3.691  14.247
24209DPPC   C2A 5210   1.677   3.891  14.047
24209DPPC   C3A 5211   1.977   3.881  13.697
24209DPPC   C4A 5212   2.297   3.871  13.347
24209DPPC   C1B 5213   1.037   3.401  13.917
24209DPPC   C2B 5214   1.167   3.441  13.567
24209DPPC   C3B 5215   1.467   3.361  13.197
24209DPPC   C4B 5216   1.807   3.311  12.787
24210DPPC   NC3 5217   3.677   3.171  18.157
24210DPPC   PO4 5218   3.807   3.341  18.497
24210DPPC   GL1 5219   4.197   3.451  18.647
24210DPPC   GL2 5220   4.217   3.491  18.287
24210DPPC   C1A 5221   4.447   3.131  18.687
24210DPPC   C2A 5222   4.607   2.961  18.347
24210DPPC   C3A 5223   4.945   2.821  18.067
24210DPPC   C4A 5224   5.305   2.781  17.787
24210DPPC   C1B 5225   4.497   3.411  18.077
24210DPPC   C2B 5226   4.815   3.281  17.907
24210DPPC   C3B 5227   5.135   3.221  17.567
24210DPPC   C4B 5228   5.445   3.211  17.167
24211DPPC   NC3 5229   2.607   3.231  18.007
24211DPPC   PO4 5230   2.777   2.991  17.687
24211DPPC   GL1 5231   3.207   2.811  17.577
24211DPPC   GL2 5232   3.237   3.041  17.427
24211DPPC   C1A 5233   3.427   2.611  17.447
24211DPPC   C2A 5234   3.777   2.581  17.197
24211DPPC   C3A 5235   4.067   2.661  16.887
24211DPPC   C4A 5236   4.387   2.631  16.547
24211DPPC   C1B 5237   3.497   2.991  17.157
24211DPPC   C2B 5238   3.747   3.031  16.877
24211DPPC   C3B 5239   4.077   3.111  16.517
24211DPPC   C4B 5240   4.347   2.951  16.117
24212DPPC   NC3 5241   3.597   0.941  17.707
24212DPPC   PO4 5242   3.557   0.541  17.877
24212DPPC   GL1 5243   3.737   0.561  17.487
24212DPPC   GL2 5244   3.697   0.301  17.457
24212DPPC   C1A 5245   3.927   0.751  17.257
24212DPPC   C2A 5246   4.197   0.811  16.977
24212DPPC   C3A 5247   4.527   0.831  16.607
24212DPPC   C4A 5248   4.825   0.871  16.227
24212DPPC   C1B 5249   4.057   0.271  17.397
24212DPPC   C2B 5250   4.407   0.421  17.277
24212DPPC   C3B 5251   4.685   0.411  16.897
24212DPPC   C4B 5252   4.995   0.431  16.517
24213DPPC   NC3 5253   3.747   4.669  18.117
24213DPPC   PO4 5254   3.507   4.849  17.837
24213DPPC   GL1 5255   3.707   4.829  17.547
24213DPPC   GL2 5256   3.897   4.589  17.647
24213DPPC   C1A 5257   3.697   4.619  17.267
24213DPPC   C2A 5258   3.817   4.479  16.877
24213DPPC   C3A 5259   4.077   4.409  16.517
24213DPPC   C4A 5260   4.327   4.319  16.127
24213DPPC   C1B 5261   4.087   4.419  17.347
24213DPPC   C2B 5262   4.297   4.479  16.997
24213DPPC   C3B 5263   4.667   4.439  16.697
24213DPPC   C4B 5264   5.125   4.459  16.777
24214DPPC   NC3 5265   1.337   6.299  14.947
24214DPPC   PO4 5266   1.437   6.199  15.327
24214DPPC   GL1 5267   1.797   6.389  15.157
24214DPPC   GL2 5268   1.827   6.209  14.917
24214DPPC   C1A 5269   2.137   6.499  15.107
24214DPPC   C2A 5270   2.347   0.021  14.787
24214DPPC   C3A 5271   2.767   0.061  14.517
24214DPPC   C4A 5272   3.107   6.579  14.197
24214DPPC   C1B 5273   2.157   6.189  14.747
24214DPPC   C2B 5274   2.457   6.209  14.547
24214DPPC   C3B 5275   2.707   6.209  14.197
24214DPPC   C4B 5276   3.077   6.229  13.907
24215DPPC   NC3 5277   0.347   0.421  13.797
24215DPPC   PO4 5278   0.617   0.181  13.907
24215DPPC   GL1 5279   0.747   0.251  13.597
24215DPPC   GL2 5280   1.067   0.341  13.777
24215DPPC   C1A 5281   0.967   0.241  13.297
24215DPPC   C2A 5282   1.187   0.241  12.957
24215DPPC   C3A 5283   1.427   0.181  12.607
24215DPPC   C4A 5284   1.787   0.281  12.297
24215DPPC   C1B 5285   1.347   0.221  13.497
24215DPPC   C2B 5286   1.657   0.311  13.207
24215DPPC   C3B 5287   1.937   0.321  12.847
24215DPPC   C4B 5288   2.257   0.341  12.447
24216DPPC   NC3 5289   3.607   4.779  19.307
24216DPPC   PO4 5290   3.877   4.519  19.107
24216DPPC   GL1 5291   4.137   4.499  18.787
24216DPPC   GL2 5292   4.357   4.619  18.777
24216DPPC   C1A 5293   4.077   4.499  18.387
24216DPPC   C2A 5294   4.227   4.589  17.967
24216DPPC   C3A 5295   4.507   4.549  17.567
24216DPPC   C4A 5296   4.815   4.469  17.157
24216DPPC   C1B 5297   4.567   4.579  18.557
24216DPPC   C2B 5298   4.725   4.559  18.197
24216DPPC   C3B 5299   4.985   4.559  17.797
24216DPPC   C4B 5300   5.275   4.519  17.407
24217DPPC   NC3 5301   2.857   0.231  16.737
24217DPPC   PO4 5302   3.097   0.401  16.967
24217DPPC   GL1 5303   3.427   0.371  16.747
24217DPPC   GL2 5304   3.587   0.431  17.057
24217DPPC   C1A 5305   3.687   0.451  16.497
24217DPPC   C2A 5306   3.987   0.371  16.197
24217DPPC   C3A 5307   4.267   0.281  15.867
24217DPPC   C4A 5308   4.577   0.291  15.487
24217DPPC   C1B 5309   3.907   0.331  16.977
24217DPPC   C2B 5310   4.187   0.351  16.717
24217DPPC   C3B 5311   4.527   0.401  16.327
24217DPPC   C4B 5312   4.805   0.311  15.927
24218DPPC   NC3 5313   2.447   4.159  16.587
24218DPPC   PO4 5314   2.147   4.029  16.447
24218DPPC   GL1 5315   2.417   3.861  16.097
24218DPPC   GL2 5316   2.677   4.009  16.197
24218DPPC   C1A 5317   2.527   3.721  15.767
24218DPPC   C2A 5318   2.707   3.771  15.457
24218DPPC   C3A 5319   2.977   3.661  15.087
24218DPPC   C4A 5320   3.297   3.631  14.727
24218DPPC   C1B 5321   2.927   3.891  15.927
24218DPPC   C2B 5322   3.217   3.791  15.637
24218DPPC   C3B 5323   3.407   3.751  15.227
24218DPPC   C4B 5324   3.787   3.711  14.937
24219DPPC   NC3 5325   1.017   3.001  14.407
24219DPPC   PO4 5326   1.087   2.641  14.587
24219DPPC   GL1 5327   1.297   2.611  14.317
24219DPPC   GL2 5328   1.417   2.381  14.237
24219DPPC   C1A 5329   1.337   2.881  14.067
24219DPPC   C2A 5330   1.577   2.971  13.737
24219DPPC   C3A 5331   1.787   2.991  13.297
24219DPPC   C4A 5332   2.107   2.951  12.927
24219DPPC   C1B 5333   1.627   2.541  13.997
24219DPPC   C2B 5334   1.907   2.591  13.717
24219DPPC   C3B 5335   2.187   2.531  13.337
24219DPPC   C4B 5336   2.467   2.601  12.907
24220DPPC   NC3 5337   2.207   2.201  16.417
24220DPPC   PO4 5338   2.507   2.461  16.597
24220DPPC   GL1 5339   2.907   2.491  16.537
24220DPPC   GL2 5340   2.837   2.181  16.487
24220DPPC   C1A 5341   3.237   2.541  16.357
24220DPPC   C2A 5342   3.537   2.501  16.007
24220DPPC   C3A 5343   3.857   2.421  15.677
24220DPPC   C4A 5344   4.147   2.461  15.317
24220DPPC   C1B 5345   3.087   2.131  16.207
24220DPPC   C2B 5346   3.367   2.031  15.887
24220DPPC   C3B 5347   3.667   1.951  15.517
24220DPPC   C4B 5348   3.977   1.871  15.197
24221DPPC   NC3 5349   3.247   1.981  18.057
24221DPPC   PO4 5350   2.967   1.991  17.797
24221DPPC   GL1 5351   3.127   2.011  17.377
24221DPPC   GL2 5352   3.117   2.301  17.347
24221DPPC   C1A 5353   3.347   1.801  17.157
24221DPPC   C2A 5354   3.527   1.621  16.817
24221DPPC   C3A 5355   3.847   1.681  16.527
24221DPPC   C4A 5356   4.207   1.671  16.177
24221DPPC   C1B 5357   3.287   2.401  17.037
24221DPPC   C2B 5358   3.567   2.551  16.767
24221DPPC   C3B 5359   3.897   2.591  16.397
24221DPPC   C4B 5360   4.157   2.501  16.077
24222DPPC   NC3 5361   3.097   6.129  17.467
24222DPPC   PO4 5362   2.897   5.899  17.217
24222DPPC   GL1 5363   3.187   5.889  16.957
24222DPPC   GL2 5364   3.287   6.199  17.047
24222DPPC   C1A 5365   3.337   5.729  16.647
24222DPPC   C2A 5366   3.627   5.659  16.377
24222DPPC   C3A 5367   3.957   5.609  16.027
24222DPPC   C4A 5368   4.307   5.569  15.677
24222DPPC   C1B 5369   3.607   6.189  16.997
24222DPPC   C2B 5370   3.987   6.149  16.847
24222DPPC   C3B 5371   4.377   6.149  16.597
24222DPPC   C4B 5372   4.765   6.119  16.237
24223DPPC   NC3 5373   4.695   2.991  19.637
24223DPPC   PO4 5374   4.547   3.341  19.527
24223DPPC   GL1 5375   4.715   3.541  19.217
24223DPPC   GL2 5376   4.547   3.371  19.017
24223DPPC   C1A 5377   5.035   3.441  19.067
24223DPPC   C2A 5378   5.325   3.271  18.817
24223DPPC   C3A 5379   5.665   3.251  18.477
24223DPPC   C4A 5380   5.945   3.251  18.077
24223DPPC   C1B 5381   4.785   3.401  18.727
24223DPPC   C2B 5382   4.975   3.311  18.357
24223DPPC   C3B 5383   5.335   3.241  18.027
24223DPPC   C4B 5384   5.635   3.201  17.647
24224DPPC   NC3 5385   2.237   1.381  16.207
24224DPPC   PO4 5386   2.097   1.741  16.107
24224DPPC   GL1 5387   2.297   2.061  15.947
24224DPPC   GL2 5388   2.537   2.141  16.067
24224DPPC   C1A 5389   2.337   1.941  15.597
24224DPPC   C2A 5390   2.547   2.051  15.307
24224DPPC   C3A 5391   2.797   1.981  14.907
24224DPPC   C4A 5392   3.157   1.901  14.587
24224DPPC   C1B 5393   2.787   2.051  15.847
24224DPPC   C2B 5394   3.007   1.981  15.497
24224DPPC   C3B 5395   3.317   1.921  15.117
24224DPPC   C4B 5396   3.657   1.831  14.817
24225DPPC   NC3 5397   1.797   5.369  15.877
24225DPPC   PO4 5398   2.017   5.659  16.007
24225DPPC   GL1 5399   2.187   5.619  15.617
24225DPPC   GL2 5400   1.977   5.729  15.447
24225DPPC   C1A 5401   2.457   5.839  15.497
24225DPPC   C2A 5402   2.817   5.919  15.297
24225DPPC   C3A 5403   3.117   5.859  14.927
24225DPPC   C4A 5404   3.517   5.859  14.617
24225DPPC   C1B 5405   1.967   5.689  15.067
24225DPPC   C2B 5406   1.967   5.799  14.637
24225DPPC   C3B 5407   2.267   5.739  14.317
24225DPPC   C4B 5408   2.657   5.739  14.017
24226DPPC   NC3 5409   3.277   3.611  18.037
24226DPPC   PO4 5410   3.577   3.861  18.057
24226DPPC   GL1 5411   4.027   3.811  18.017
24226DPPC   GL2 5412   4.017   4.129  17.947
24226DPPC   C1A 5413   4.317   3.671  17.887
24226DPPC   C2A 5414   4.617   3.641  17.607
24226DPPC   C3A 5415   4.945   3.641  17.327
24226DPPC   C4A 5416   5.205   3.651  16.947
24226DPPC   C1B 5417   4.187   4.059  17.597
24226DPPC   C2B 5418   4.517   4.059  17.347
24226DPPC   C3B 5419   4.725   4.029  16.957
24226DPPC   C4B 5420   5.055   4.009  16.627
24227DPPC   NC3 5421   1.027   5.179  15.387
24227DPPC   PO4 5422   1.307   4.989  15.207
24227DPPC   GL1 5423   1.447   5.039  14.827
24227DPPC   GL2 5424   1.557   5.279  14.957
24227DPPC   C1A 5425   1.647   4.879  14.527
24227DPPC   C2A 5426   1.967   4.779  14.297
24227DPPC   C3A 5427   2.227   4.779  13.837
24227DPPC   C4A 5428   2.617   4.859  13.467
24227DPPC   C1B 5429   1.737   5.429  14.717
24227DPPC   C2B 5430   1.947   5.299  14.407
24227DPPC   C3B 5431   2.357   5.169  14.057
24227DPPC   C4B 5432   2.677   5.319  13.767
24228DPPC   NC3 5433   2.347   1.201  17.487
24228DPPC   PO4 5434   2.707   1.151  17.307
24228DPPC   GL1 5435   3.117   1.151  17.117
24228DPPC   GL2 5436   2.967   1.181  16.847
24228DPPC   C1A 5437   3.477   1.261  17.127
24228DPPC   C2A 5438   3.857   1.191  16.987
24228DPPC   C3A 5439   4.137   1.291  16.647
24228DPPC   C4A 5440   4.507   1.251  16.247
24228DPPC   C1B 5441   3.277   1.241  16.687
24228DPPC   C2B 5442   3.617   1.201  16.467
24228DPPC   C3B 5443   3.927   1.231  16.147
24228DPPC   C4B 5444   4.257   1.171  15.767
24229DPPC   NC3 5445   0.987   4.289  14.577
24229DPPC   PO4 5446   0.787   4.619  14.417
24229DPPC   GL1 5447   1.047   4.939  14.297
24229DPPC   GL2 5448   1.227   4.719  14.407
24229DPPC   C1A 5449   1.187   5.019  13.957
24229DPPC   C2A 5450   1.387   5.209  13.597
24229DPPC   C3A 5451   1.767   5.199  13.207
24229DPPC   C4A 5452   2.097   5.179  12.827
24229DPPC   C1B 5453   1.497   4.699  14.097
24229DPPC   C2B 5454   1.727   4.719  13.777
24229DPPC   C3B 5455   2.047   4.789  13.397
24229DPPC   C4B 5456   2.367   4.829  13.007
24230DPPC   NC3 5457  20.835   5.999  12.917
24230DPPC   PO4 5458   0.027   5.879  13.137
24230DPPC   GL1 5459   0.347   5.699  13.107
24230DPPC   GL2 5460   0.437   5.449  13.097
24230DPPC   C1A 5461   0.577   5.869  12.867
24230DPPC   C2A 5462   0.857   5.969  12.607
24230DPPC   C3A 5463   1.137   5.949  12.257
24230DPPC   C4A 5464   1.487   5.939  11.907
24230DPPC   C1B 5465   0.597   5.349  12.797
24230DPPC   C2B 5466   0.747   5.459  12.407
24230DPPC   C3B 5467   0.727   5.339  11.967
24230DPPC   C4B 5468   0.887   5.359  11.527
24231DPPC   NC3 5469   2.237   0.631  16.567
24231DPPC   PO4 5470   2.237   1.011  16.487
24231DPPC   GL1 5471   2.577   1.031  16.217
24231DPPC   GL2 5472   2.717   1.291  16.437
24231DPPC   C1A 5473   2.717   1.151  15.897
24231DPPC   C2A 5474   2.977   1.131  15.607
24231DPPC   C3A 5475   3.297   1.101  15.247
24231DPPC   C4A 5476   3.667   1.031  14.827
24231DPPC   C1B 5477   3.057   1.371  16.297
24231DPPC   C2B 5478   3.357   1.231  16.027
24231DPPC   C3B 5479   3.677   1.211  15.647
24231DPPC   C4B 5480   3.997   1.101  15.267
24232DPPC   NC3 5481  21.025   4.429  13.387
24232DPPC   PO4 5482   0.177   4.469  13.627
24232DPPC   GL1 5483   0.547   4.269  13.387
24232DPPC   GL2 5484   0.557   4.179  13.667
24232DPPC   C1A 5485   0.837   4.239  13.177
24232DPPC   C2A 5486   1.067   4.229  12.887
24232DPPC   C3A 5487   1.307   4.269  12.457
24232DPPC   C4A 5488   1.597   4.159  12.047
24232DPPC   C1B 5489   0.927   4.199  13.627
24232DPPC   C2B 5490   1.277   4.249  13.387
24232DPPC   C3B 5491   1.527   4.319  12.987
24232DPPC   C4B 5492   1.837   4.409  12.577
24233DPPC   NC3 5493   0.387   2.061  14.107
24233DPPC   PO4 5494   0.457   2.411  13.917
24233DPPC   GL1 5495   0.587   2.281  13.587
24233DPPC   GL2 5496   0.757   2.531  13.587
24233DPPC   C1A 5497   0.767   2.061  13.337
24233DPPC   C2A 5498   1.007   1.951  12.987
24233DPPC   C3A 5499   1.257   2.031  12.627
24233DPPC   C4A 5500   1.527   2.011  12.167
24233DPPC   C1B 5501   0.907   2.491  13.237
24233DPPC   C2B 5502   1.167   2.491  12.937
24233DPPC   C3B 5503   1.477   2.501  12.597
24233DPPC   C4B 5504   1.827   2.791  12.457
24234DPPC   NC3 5505   2.237   6.429  17.087
24234DPPC   PO4 5506   2.397   6.369  16.727
24234DPPC   GL1 5507   2.777   6.349  16.597
24234DPPC   GL2 5508   2.697   6.449  16.347
24234DPPC   C1A 5509   3.127   6.129  16.617
24234DPPC   C2A 5510   3.477   6.179  16.537
24234DPPC   C3A 5511   3.897   6.079  16.317
24234DPPC   C4A 5512   4.267   6.009  15.977
24234DPPC   C1B 5513   2.787   6.239  16.057
24234DPPC   C2B 5514   2.967   5.949  15.807
24234DPPC   C3B 5515   3.317   5.969  15.487
24234DPPC   C4B 5516   3.687   5.889  15.127
24235DPPC   NC3 5517   1.157   0.301  15.007
24235DPPC   PO4 5518   1.457   0.101  15.177
24235DPPC   GL1 5519   1.777   0.261  14.917
24235DPPC   GL2 5520   1.737   6.599  14.777
24235DPPC   C1A 5521   2.087   0.471  14.837
24235DPPC   C2A 5522   2.357   0.511  14.537
24235DPPC   C3A 5523   2.657   0.431  14.177
24235DPPC   C4A 5524   2.987   0.421  13.817
24235DPPC   C1B 5525   1.967   6.519  14.547
24235DPPC   C2B 5526   2.307   0.001  14.247
24235DPPC   C3B 5527   2.657   0.031  13.887
24235DPPC   C4B 5528   2.977   0.051  13.477
24236DPPC   NC3 5529   4.815   6.449  19.637
24236DPPC   PO4 5530   4.647   0.041  19.347
24236DPPC   GL1 5531   4.735   6.599  19.037
24236DPPC   GL2 5532   4.657   0.161  18.827
24236DPPC   C1A 5533   5.015   6.449  18.917
24236DPPC   C2A 5534   5.285   6.409  18.587
24236DPPC   C3A 5535   5.565   6.309  18.317
24236DPPC   C4A 5536   5.765   6.249  17.867
24236DPPC   C1B 5537   4.905   0.271  18.557
24236DPPC   C2B 5538   5.135   0.191  18.237
24236DPPC   C3B 5539   5.475   0.071  17.867
24236DPPC   C4B 5540   5.805   0.001  17.457
24237DPPC   NC3 5541   1.357   2.661  15.507
24237DPPC   PO4 5542   1.677   2.571  15.727
24237DPPC   GL1 5543   2.057   2.391  15.487
24237DPPC   GL2 5544   2.197   2.461  15.647
24237DPPC   C1A 5545   2.157   2.421  15.167
24237DPPC   C2A 5546   2.477   2.391  14.887
24237DPPC   C3A 5547   2.847   2.361  14.557
24237DPPC   C4A 5548   3.237   2.271  14.207
24237DPPC   C1B 5549   2.557   2.451  15.527
24237DPPC   C2B 5550   2.847   2.431  15.257
24237DPPC   C3B 5551   3.167   2.411  14.927
24237DPPC   C4B 5552   3.547   2.301  14.617
24238DPPC   NC3 5553   1.057   1.571  14.327
24238DPPC   PO4 5554   1.087   1.241  14.587
24238DPPC   GL1 5555   1.487   0.971  14.547
24238DPPC   GL2 5556   1.247   0.951  14.347
24238DPPC   C1A 5557   1.717   1.171  14.367
24238DPPC   C2A 5558   2.007   1.321  14.087
24238DPPC   C3A 5559   2.327   1.311  13.767
24238DPPC   C4A 5560   2.677   1.231  13.397
24238DPPC   C1B 5561   1.287   0.791  14.017
24238DPPC   C2B 5562   1.467   0.711  13.657
24238DPPC   C3B 5563   1.837   0.751  13.317
24238DPPC   C4B 5564   2.157   0.761  12.917
24239DPPC   NC3 5565  21.075   6.399  13.257
24239DPPC   PO4 5566   0.247   6.539  13.047
24239DPPC   GL1 5567   0.507   6.509  12.757
24239DPPC   GL2 5568   0.627   0.181  12.907
24239DPPC   C1A 5569   0.627   6.379  12.467
24239DPPC   C2A 5570   0.877   6.339  12.107
24239DPPC   C3A 5571   1.207   6.329  11.787
24239DPPC   C4A 5572   1.477   6.329  11.447
24239DPPC   C1B 5573   0.837   0.241  12.647
24239DPPC   C2B 5574   1.067   0.181  12.297
24239DPPC   C3B 5575   1.387   0.131  11.917
24239DPPC   C4B 5576   1.687   0.171  11.537
24240DPPC   NC3 5577   3.577   2.441  18.657
24240DPPC   PO4 5578   3.637   2.741  18.407
24240DPPC   GL1 5579   3.807   2.731  18.007
24240DPPC   GL2 5580   3.577   2.821  17.897
24240DPPC   C1A 5581   4.037   2.681  17.707
24240DPPC   C2A 5582   4.277   2.731  17.337
24240DPPC   C3A 5583   4.627   2.631  17.007
24240DPPC   C4A 5584   4.995   2.611  16.727
24240DPPC   C1B 5585   3.727   3.001  17.597
24240DPPC   C2B 5586   3.947   3.091  17.327
24240DPPC   C3B 5587   4.277   3.151  16.977
24240DPPC   C4B 5588   4.577   3.111  16.587
24241DPPC   NC3 5589   3.247   0.301  17.487
24241DPPC   PO4 5590   3.187   0.001  17.287
24241DPPC   GL1 5591   3.207   6.559  16.857
24241DPPC   GL2 5592   3.487   6.589  16.917
24241DPPC   C1A 5593   3.187   6.599  16.507
24241DPPC   C2A 5594   3.547   0.011  16.287
24241DPPC   C3A 5595   3.907   6.509  15.967
24241DPPC   C4A 5596   4.187   6.349  15.597
24241DPPC   C1B 5597   3.787   6.549  16.767
24241DPPC   C2B 5598   4.057   6.549  16.477
24241DPPC   C3B 5599   4.377   6.459  16.147
24241DPPC   C4B 5600   4.725   6.389  15.797
24242DPPA   PO4 5601   4.027   0.821  18.547
24242DPPA   GL1 5602   4.027   0.781  18.147
24242DPPA   GL2 5603   4.287   0.601  18.147
24242DPPA   C1A 5604   4.017   1.001  17.817
24242DPPA   C2A 5605   4.087   1.151  17.437
24242DPPA   C3A 5606   4.367   1.311  17.157
24242DPPA   C4A 5607   4.685   1.311  16.787
24242DPPA   C1B 5608   4.487   0.501  17.837
24242DPPA   C2B 5609   4.815   0.491  17.547
24242DPPA   C3B 5610   5.065   0.471  17.177
24242DPPA   C4B 5611   5.455   0.461  16.777
24243DPPA   PO4 5612   2.547   1.721  16.387
24243DPPA   GL1 5613   2.727   1.591  16.037
24243DPPA   GL2 5614   2.497   1.621  15.827
24243DPPA   C1A 5615   3.077   1.621  15.927
24243DPPA   C2A 5616   3.327   1.561  15.577
24243DPPA   C3A 5617   3.647   1.471  15.247
24243DPPA   C4A 5618   4.007   1.451  14.887
24243DPPA   C1B 5619   2.717   1.551  15.557
24243DPPA   C2B 5620   3.007   1.551  15.207
24243DPPA   C3B 5621   3.367   1.421  14.877
24243DPPA   C4B 5622   3.697   1.441  14.497
24244DPPA   PO4 5623   3.317   0.741  17.307
24244DPPA   GL1 5624   3.447   0.901  16.897
24244DPPA   GL2 5625   3.207   0.861  16.757
24244DPPA   C1A 5626   3.737   0.771  16.787
24244DPPA   C2A 5627   4.057   0.851  16.487
24244DPPA   C3A 5628   4.307   0.821  16.137
24244DPPA   C4A 5629   4.527   0.731  15.747
24244DPPA   C1B 5630   3.437   0.791  16.437
24244DPPA   C2B 5631   3.687   0.781  16.097
24244DPPA   C3B 5632   3.967   0.731  15.727
24244DPPA   C4B 5633   4.157   0.631  15.287
24245DPPA   PO4 5634   6.385   1.151  14.577
24245DPPA   GL1 5635   5.965   1.071  14.417
24245DPPA   GL2 5636   5.905   1.171  14.667
24245DPPA   C1A 5637   5.585   1.081  14.427
24245DPPA   C2A 5638   5.225   1.041  14.627
24245DPPA   C3A 5639   4.855   1.061  15.027
24245DPPA   C4A 5640   4.577   1.041  15.377
24245DPPA   C1B 5641   5.645   1.171  14.867
24245DPPA   C2B 5642   5.435   1.161  15.197
24245DPPA   C3B 5643   5.095   1.131  15.537
24245DPPA   C4B 5644   4.825   1.181  15.857
24246DPPA   PO4 5645   0.927   6.019  14.917
24246DPPA   GL1 5646   1.277   5.899  14.707
24246DPPA   GL2 5647   1.257   5.639  14.557
24246DPPA   C1A 5648   1.597   6.039  14.577
24246DPPA   C2A 5649   1.917   6.149  14.317
24246DPPA   C3A 5650   2.267   6.169  13.957
24246DPPA   C4A 5651   2.657   6.049  13.697
24246DPPA   C1B 5652   1.497   5.699  14.277
24246DPPA   C2B 5653   1.867   5.709  14.047
24246DPPA   C3B 5654   2.247   5.669  13.717
24246DPPA   C4B 5655   2.587   5.629  13.337
24247DPPA   PO4 5656   2.367   3.771  16.877
24247DPPA   GL1 5657   2.687   3.741  16.587
24247DPPA   GL2 5658   2.837   3.811  16.767
24247DPPA   C1A 5659   2.837   3.581  16.207
24247DPPA   C2A 5660   2.877   3.421  15.837
24247DPPA   C3A 5661   3.177   3.321  15.467
24247DPPA   C4A 5662   3.527   3.271  15.137
24247DPPA   C1B 5663   3.137   3.741  16.567
24247DPPA   C2B 5664   3.427   3.801  16.267
24247DPPA   C3B 5665   3.657   3.841  15.817
24247DPPA   C4B 5666   3.927   3.851  15.417
24248DPPA   PO4 5667   0.677   5.809  14.087
24248DPPA   GL1 5668   0.787   5.779  13.787
24248DPPA   GL2 5669   1.097   5.819  13.957
24248DPPA   C1A 5670   0.877   5.989  13.487
24248DPPA   C2A 5671   1.017   6.009  13.087
24248DPPA   C3A 5672   1.357   6.059  12.707
24248DPPA   C4A 5673   1.777   6.049  12.357
24248DPPA   C1B 5674   1.427   5.709  13.847
24248DPPA   C2B 5675   1.707   5.669  13.557
24248DPPA   C3B 5676   2.017   5.639  13.217
24248DPPA   C4B 5677   2.337   5.649  12.787
24249DPPA   PO4 5678   2.397   0.151  16.447
24249DPPA   GL1 5679   2.647   0.411  16.377
24249DPPA   GL2 5680   2.597   0.621  16.187
24249DPPA   C1A 5681   2.917   0.221  16.267
24249DPPA   C2A 5682   3.117   6.549  16.027
24249DPPA   C3A 5683   3.437   6.429  15.687
24249DPPA   C4A 5684   3.777   6.389  15.307
24249DPPA   C1B 5685   2.647   0.721  15.807
24249DPPA   C2B 5686   2.787   0.681  15.447
24249DPPA   C3B 5687   3.167   0.561  15.097
24249DPPA   C4B 5688   3.447   0.581  14.697
24250DPPA   PO4 5689   3.677   5.639  18.357
24250DPPA   GL1 5690   3.847   5.679  18.007
24250DPPA   GL2 5691   3.867   5.979  18.007
24250DPPA   C1A 5692   4.027   5.459  17.807
24250DPPA   C2A 5693   4.327   5.369  17.557
24250DPPA   C3A 5694   4.647   5.319  17.227
24250DPPA   C4A 5695   4.885   5.279  16.827
24250DPPA   C1B 5696   4.147   5.979  17.757
24250DPPA   C2B 5697   4.527   5.889  17.607
24250DPPA   C3B 5698   4.855   5.829  17.277
24250DPPA   C4B 5699   5.205   5.729  17.057
24251DPPA   PO4 5700  20.375   3.791  13.747
24251DPPA   GL1 5701  20.325   3.681  13.397
24251DPPA   GL2 5702  20.605   3.681  13.207
24251DPPA   C1A 5703  20.065   3.621  13.177
24251DPPA   C2A 5704  19.975   3.691  12.767
24251DPPA   C3A 5705  19.735   3.571  12.407
24251DPPA   C4A 5706  19.385   3.531  12.047
24251DPPA   C1B 5707  20.515   3.761  12.857
24251DPPA   C2B 5708  20.325   3.801  12.457
24251DPPA   C3B 5709  20.035   3.731  12.047
24251DPPA   C4B 5710  19.845   3.919  11.537
24252DPPA   PO4 5711   1.497   0.631  15.077
24252DPPA   GL1 5712   1.637   0.641  14.707
24252DPPA   GL2 5713   1.857   0.851  14.757
24252DPPA   C1A 5714   1.847   0.461  14.507
24252DPPA   C2A 5715   2.037   0.431  14.147
24252DPPA   C3A 5716   2.367   0.411  13.767
24252DPPA   C4A 5717   2.637   0.451  13.367
24252DPPA   C1B 5718   2.097   0.851  14.447
24252DPPA   C2B 5719   2.337   0.841  14.137
24252DPPA   C3B 5720   2.667   0.801  13.807
24252DPPA   C4B 5721   2.977   0.861  13.417
24253DPPA   PO4 5722   2.697   1.961  17.237
24253DPPA   GL1 5723   2.917   1.911  16.897
24253DPPA   GL2 5724   2.857   1.641  16.777
24253DPPA   C1A 5725   3.207   2.131  16.727
24253DPPA   C2A 5726   3.537   2.151  16.447
24253DPPA   C3A 5727   3.857   2.101  16.137
24253DPPA   C4A 5728   4.177   2.021  15.767
24253DPPA   C1B 5729   3.067   1.771  16.537
24253DPPA   C2B 5730   3.397   1.691  16.287
24253DPPA   C3B 5731   3.717   1.621  16.007
24253DPPA   C4B 5732   3.997   1.601  15.607
24254DPPA   PO4 5733   0.617   0.901  14.377
24254DPPA   GL1 5734   0.817   1.121  14.167
24254DPPA   GL2 5735   0.737   1.111  13.907
24254DPPA   C1A 5736   1.127   1.221  14.007
24254DPPA   C2A 5737   1.567   1.191  13.917
24254DPPA   C3A 5738   1.877   1.251  13.497
24254DPPA   C4A 5739   2.227   1.251  13.147
24254DPPA   C1B 5740   0.987   1.191  13.617
24254DPPA   C2B 5741   1.337   1.141  13.457
24254DPPA   C3B 5742   1.667   1.211  13.067
24254DPPA   C4B 5743   1.987   1.191  12.707
24255DPPA   PO4 5744   1.737   6.149  15.957
24255DPPA   GL1 5745   1.937   6.149  15.577
24255DPPA   GL2 5746   2.207   6.079  15.807
24255DPPA   C1A 5747   2.107   6.079  15.247
24255DPPA   C2A 5748   2.407   5.869  14.967
24255DPPA   C3A 5749   2.737   5.799  14.607
24255DPPA   C4A 5750   3.047   5.889  14.307
24255DPPA   C1B 5751   2.527   6.199  15.687
24255DPPA   C2B 5752   2.517   6.289  15.267
24255DPPA   C3B 5753   2.847   6.299  14.867
24255DPPA   C4B 5754   3.177   6.269  14.557
24256DPPA   PO4 5755   0.737   1.971  14.407
24256DPPA   GL1 5756   0.977   2.071  14.157
24256DPPA   GL2 5757   0.867   2.161  13.917
24256DPPA   C1A 5758   1.327   2.001  14.047
24256DPPA   C2A 5759   1.587   2.111  13.797
24256DPPA   C3A 5760   1.837   2.141  13.387
24256DPPA   C4A 5761   2.217   2.051  13.077
24256DPPA   C1B 5762   1.067   2.151  13.637
24256DPPA   C2B 5763   1.327   2.131  13.307
24256DPPA   C3B 5764   1.607   2.101  12.947
24256DPPA   C4B 5765   1.877   2.191  12.497
24257DPPA   PO4 5766   0.927   6.509  14.747
24257DPPA   GL1 5767   1.237   6.539  14.557
24257DPPA   GL2 5768   1.357   0.111  14.577
24257DPPA   C1A 5769   1.337   6.289  14.287
24257DPPA   C2A 5770   1.587   6.129  13.977
24257DPPA   C3A 5771   1.917   6.119  13.607
24257DPPA   C4A 5772   2.317   6.019  13.277
24257DPPA   C1B 5773   1.587   0.011  14.307
24257DPPA   C2B 5774   1.857   6.559  13.997
24257DPPA   C3B 5775   2.177   6.549  13.667
24257DPPA   C4B 5776   2.487   6.579  13.297
24258DPPA   PO4 5777   1.137   3.331  14.977
24258DPPA   GL1 5778   1.267   3.341  14.627
24258DPPA   GL2 5779   1.517   3.491  14.667
24258DPPA   C1A 5780   1.337   3.271  14.267
24258DPPA   C2A 5781   1.547   3.391  13.967
24258DPPA   C3A 5782   1.857   3.401  13.567
24258DPPA   C4A 5783   2.127   3.441  13.167
24258DPPA   C1B 5784   1.777   3.491  14.397
24258DPPA   C2B 5785   1.997   3.461  14.097
24258DPPA   C3B 5786   2.367   3.501  13.747
24258DPPA   C4B 5787   2.697   3.471  13.367
24259DPPA   PO4 5788   1.487   3.121  15.327
24259DPPA   GL1 5789   1.707   3.191  14.967
24259DPPA   GL2 5790   1.927   3.231  15.207
24259DPPA   C1A 5791   1.987   3.121  14.707
24259DPPA   C2A 5792   2.257   3.121  14.327
24259DPPA   C3A 5793   2.567   3.121  13.957
24259DPPA   C4A 5794   2.827   3.081  13.607
24259DPPA   C1B 5795   2.207   3.301  15.057
24259DPPA   C2B 5796   2.507   3.181  14.757
24259DPPA   C3B 5797   2.797   3.181  14.397
24259DPPA   C4B 5798   3.147   3.101  14.007
24260DPPA   PO4 5799   1.497   1.921  14.947
24260DPPA   GL1 5800   1.827   1.821  14.707
24260DPPA   GL2 5801   1.667   2.061  14.487
24260DPPA   C1A 5802   2.057   1.781  14.377
24260DPPA   C2A 5803   2.357   1.721  14.107
24260DPPA   C3A 5804   2.637   1.681  13.787
24260DPPA   C4A 5805   2.877   1.741  13.407
24260DPPA   C1B 5806   1.867   2.221  14.237
24260DPPA   C2B 5807   2.107   2.161  13.917
24260DPPA   C3B 5808   2.427   2.111  13.587
24260DPPA   C4B 5809   2.687   2.161  13.197
24261DPPA   PO4 5810   3.057   1.461  17.987
24261DPPA   GL1 5811   3.467   1.421  17.927
24261DPPA   GL2 5812   3.547   1.621  18.097
24261DPPA   C1A 5813   3.707   1.441  17.677
24261DPPA   C2A 5814   3.737   1.641  17.307
24261DPPA   C3A 5815   4.067   1.741  16.967
24261DPPA   C4A 5816   4.427   1.731  16.647
24261DPPA   C1B 5817   3.717   1.871  17.897
24261DPPA   C2B 5818   4.097   1.761  17.677
24261DPPA   C3B 5819   4.437   1.791  17.357
24261DPPA   C4B 5820   4.795   1.741  16.987
24262DPPA   PO4 5821   3.237   3.131  17.967
24262DPPA   GL1 5822   3.487   3.331  17.627
24262DPPA   GL2 5823   3.667   3.461  17.797
24262DPPA   C1A 5824   3.507   3.421  17.267
24262DPPA   C2A 5825   3.857   3.551  17.067
24262DPPA   C3A 5826   4.137   3.551  16.687
24262DPPA   C4A 5827   4.397   3.521  16.247
24262DPPA   C1B 5828   3.997   3.311  17.777
24262DPPA   C2B 5829   4.347   3.201  17.627
24262DPPA   C3B 5830   4.685   3.191  17.297
24262DPPA   C4B 5831   4.965   3.151  16.947
24263DPPA   PO4 5832   1.287   2.441  15.037
24263DPPA   GL1 5833   1.567   2.761  15.007
24263DPPA   GL2 5834   1.307   2.961  14.827
24263DPPA   C1A 5835   1.907   2.751  14.867
24263DPPA   C2A 5836   2.277   2.761  14.647
24263DPPA   C3A 5837   2.577   2.741  14.267
24263DPPA   C4A 5838   2.907   2.661  13.917
24263DPPA   C1B 5839   1.527   2.981  14.517
24263DPPA   C2B 5840   1.787   3.031  14.217
24263DPPA   C3B 5841   2.067   3.041  13.867
24263DPPA   C4B 5842   2.287   3.101  13.467
24264DPPA   PO4 5843   2.727   5.089  17.457
24264DPPA   GL1 5844   3.047   5.099  17.127
24264DPPA   GL2 5845   3.027   5.379  17.297
24264DPPA   C1A 5846   3.407   4.939  17.097
24264DPPA   C2A 5847   3.787   5.029  17.067
24264DPPA   C3A 5848   4.087   4.889  16.727
24264DPPA   C4A 5849   4.467   4.819  16.367
24264DPPA   C1B 5850   3.347   5.439  17.087
24264DPPA   C2B 5851   3.567   5.329  16.737
24264DPPA   C3B 5852   3.937   5.269  16.457
24264DPPA   C4B 5853   4.267   5.219  16.057
24265DPPA   PO4 5854   2.607   5.119  16.937
24265DPPA   GL1 5855   2.857   5.039  16.637
24265DPPA   GL2 5856   2.697   4.969  16.427
24265DPPA   C1A 5857   3.197   5.059  16.587
24265DPPA   C2A 5858   3.437   5.179  16.247
24265DPPA   C3A 5859   3.777   5.149  15.847
24265DPPA   C4A 5860   4.167   5.129  15.537
24265DPPA   C1B 5861   2.927   5.009  16.157
24265DPPA   C2B 5862   3.157   5.089  15.787
24265DPPA   C3B 5863   3.487   5.059  15.427
24265DPPA   C4B 5864   3.807   5.049  15.097
24266DPPA   PO4 5865   5.855   0.401  13.407
24266DPPA   GL1 5866   5.855   0.161  13.767
24266DPPA   GL2 5867   5.635   0.031  13.647
24266DPPA   C1A 5868   5.765   0.261  14.107
24266DPPA   C2A 5869   5.535   0.201  14.457
24266DPPA   C3A 5870   5.235   0.291  14.817
24266DPPA   C4A 5871   4.955   0.261  15.177
24266DPPA   C1B 5872   5.285   0.201  13.687
24266DPPA   C2B 5873   4.975   0.471  13.837
24266DPPA   C3B 5874   4.667   0.591  14.177
24266DPPA   C4B 5875   4.347   0.631  14.547
24267DPPC   NC3 5876   4.725   1.551  12.117
24267DPPC   PO4 5877   4.865   1.621  12.477
24267DPPC   GL1 5878   4.597   1.821  12.717
24267DPPC   GL2 5879   4.527   2.101  12.487
24267DPPC   C1A 5880   4.417   1.871  13.017
24267DPPC   C2A 5881   4.157   1.881  13.377
24267DPPC   C3A 5882   3.847   1.891  13.747
24267DPPC   C4A 5883   3.467   1.841  14.087
24267DPPC   C1B 5884   4.477   2.431  12.477
24267DPPC   C2B 5885   4.437   2.851  12.607
24267DPPC   C3B 5886   4.117   3.101  12.897
24267DPPC   C4B 5887   3.847   3.121  13.257
24268DPPC   NC3 5888  20.835   2.001   9.917
24268DPPC   PO4 5889  21.065   1.801   9.647
24268DPPC   GL1 5890  21.075   1.621  10.067
24268DPPC   GL2 5891   0.047   1.461   9.937
24268DPPC   C1A 5892   0.037   1.601  10.407
24268DPPC   C2A 5893   0.337   1.871  10.607
24268DPPC   C3A 5894   0.717   2.121  10.637
24268DPPC   C4A 5895   1.207   2.191  10.767
24268DPPC   C1B 5896   0.407   1.561  10.057
24268DPPC   C2B 5897   0.697   1.731  10.267
24268DPPC   C3B 5898   1.107   1.781  10.537
24268DPPC   C4B 5899   1.537   1.841  10.727
24269DPPC   NC3 5900   7.395   0.791  15.337
24269DPPC   PO4 5901   7.435   0.781  15.697
24269DPPC   GL1 5902   7.195   0.721  15.937
24269DPPC   GL2 5903   7.275   0.771  16.207
24269DPPC   C1A 5904   6.935   0.441  15.897
24269DPPC   C2A 5905   6.645   0.491  16.187
24269DPPC   C3A 5906   6.275   0.561  16.547
24269DPPC   C4A 5907   5.935   0.591  16.847
24269DPPC   C1B 5908   7.035   0.631  16.437
24269DPPC   C2B 5909   6.765   0.601  16.757
24269DPPC   C3B 5910   6.445   0.591  17.137
24269DPPC   C4B 5911   6.105   0.571  17.477
24270DPPC   NC3 5912   4.177   2.741  11.687
24270DPPC   PO4 5913   4.417   2.441  11.717
24270DPPC   GL1 5914   4.347   2.291  12.097
24270DPPC   GL2 5915   4.197   2.591  12.097
24270DPPC   C1A 5916   4.027   2.141  12.197
24270DPPC   C2A 5917   3.797   2.171  12.547
24270DPPC   C3A 5918   3.487   2.201  12.977
24270DPPC   C4A 5919   3.177   2.251  13.327
24270DPPC   C1B 5920   4.047   2.621  12.427
24270DPPC   C2B 5921   3.917   2.681  12.777
24270DPPC   C3B 5922   3.627   2.651  13.217
24270DPPC   C4B 5923   3.227   2.671  13.517
24271DPPC   NC3 5924   2.497   1.521  10.147
24271DPPC   PO4 5925   2.137   1.661  10.017
24271DPPC   GL1 5926   1.787   1.631  10.227
24271DPPC   GL2 5927   1.967   1.551  10.437
24271DPPC   C1A 5928   1.447   1.501  10.347
24271DPPC   C2A 5929   1.037   1.331  10.367
24271DPPC   C3A 5930   0.557   1.241  10.347
24271DPPC   C4A 5931   0.067   1.141  10.277
24271DPPC   C1B 5932   2.107   1.701  10.707
24271DPPC   C2B 5933   2.057   2.111  10.887
24271DPPC   C3B 5934   2.037   2.561  10.827
24271DPPC   C4B 5935   2.057   3.031  10.857
24272DPPC   NC3 5936   4.117   1.881  11.717
24272DPPC   PO4 5937   4.317   1.551  11.567
24272DPPC   GL1 5938   4.117   1.171  11.757
24272DPPC   GL2 5939   3.887   1.241  11.587
24272DPPC   C1A 5940   3.897   1.151  12.067
24272DPPC   C2A 5941   3.567   1.281  12.327
24272DPPC   C3A 5942   3.307   1.301  12.687
24272DPPC   C4A 5943   2.917   1.291  12.957
24272DPPC   C1B 5944   3.577   1.241  11.727
24272DPPC   C2B 5945   3.187   1.271  11.917
24272DPPC   C3B 5946   2.877   1.191  12.297
24272DPPC   C4B 5947   2.557   1.241  12.667
24273DPPC   NC3 5948   6.935   4.329  14.947
24273DPPC   PO4 5949   7.035   4.219  15.327
24273DPPC   GL1 5950   6.775   4.309  15.657
24273DPPC   GL2 5951   6.865   4.519  15.777
24273DPPC   C1A 5952   6.515   4.189  15.857
24273DPPC   C2A 5953   6.155   4.059  15.967
24273DPPC   C3A 5954   5.845   3.999  16.297
24273DPPC   C4A 5955   5.515   3.949  16.697
24273DPPC   C1B 5956   6.575   4.609  15.977
24273DPPC   C2B 5957   6.245   4.499  16.247
24273DPPC   C3B 5958   5.945   4.399  16.637
24273DPPC   C4B 5959   5.575   4.419  16.997
24274DPPC   NC3 5960   4.835   2.331  12.157
24274DPPC   PO4 5961   4.677   1.991  12.027
24274DPPC   GL1 5962   4.287   1.821  12.137
24274DPPC   GL2 5963   4.257   1.541  12.137
24274DPPC   C1A 5964   4.217   1.841  12.477
24274DPPC   C2A 5965   3.997   1.781  12.867
24274DPPC   C3A 5966   3.687   1.741  13.227
24274DPPC   C4A 5967   3.357   1.841  13.537
24274DPPC   C1B 5968   4.087   1.341  12.437
24274DPPC   C2B 5969   3.907   1.191  12.747
24274DPPC   C3B 5970   3.577   1.271  13.127
24274DPPC   C4B 5971   3.227   1.341  13.417
24275DPPC   NC3 5972   6.405   2.211  14.927
24275DPPC   PO4 5973   6.425   2.581  14.817
24275DPPC   GL1 5974   6.085   2.721  14.667
24275DPPC   GL2 5975   6.135   2.881  14.967
24275DPPC   C1A 5976   5.715   2.741  14.727
24275DPPC   C2A 5977   5.405   2.861  14.977
24275DPPC   C3A 5978   5.105   2.921  15.267
24275DPPC   C4A 5979   4.725   2.991  15.687
24275DPPC   C1B 5980   5.815   3.001  15.177
24275DPPC   C2B 5981   5.535   2.961  15.537
24275DPPC   C3B 5982   5.185   2.941  15.827
24275DPPC   C4B 5983   4.945   3.071  16.227
24276DPPC   NC3 5984   6.705   1.471  14.927
24276DPPC   PO4 5985   6.445   1.731  14.817
24276DPPC   GL1 5986   6.105   1.781  14.927
24276DPPC   GL2 5987   5.885   1.591  14.877
24276DPPC   C1A 5988   5.985   2.071  15.167
24276DPPC   C2A 5989   5.725   2.091  15.487
24276DPPC   C3A 5990   5.425   2.061  15.787
24276DPPC   C4A 5991   5.145   2.191  16.137
24276DPPC   C1B 5992   5.685   1.651  15.207
24276DPPC   C2B 5993   5.315   1.591  15.507
24276DPPC   C3B 5994   5.115   1.651  15.927
24276DPPC   C4B 5995   4.755   1.721  16.247
24277DPPC   NC3 5996   5.695   5.429  13.897
24277DPPC   PO4 5997   5.815   5.729  13.667
24277DPPC   GL1 5998   5.485   5.969  13.487
24277DPPC   GL2 5999   5.615   6.189  13.657
24277DPPC   C1A 6000   5.255   5.959  13.777
24277DPPC   C2A 6001   5.195   6.029  14.167
24277DPPC   C3A 6002   4.905   5.939  14.527
24277DPPC   C4A 6003   4.577   5.989  14.957
24277DPPC   C1B 6004   5.415   6.379  13.947
24277DPPC   C2B 6005   5.145   0.051  14.127
24277DPPC   C3B 6006   4.855   0.141  14.487
24277DPPC   C4B 6007   4.537   0.241  14.867
24278DPPC   NC3 6008   5.165   1.291  12.757
24278DPPC   PO4 6009   5.395   1.031  12.627
24278DPPC   GL1 6010   5.005   0.781  12.777
24278DPPC   GL2 6011   5.155   0.771  13.077
24278DPPC   C1A 6012   4.685   0.751  12.957
24278DPPC   C2A 6013   4.417   0.921  13.257
24278DPPC   C3A 6014   4.157   0.971  13.637
24278DPPC   C4A 6015   3.767   0.931  13.987
24278DPPC   C1B 6016   4.935   0.801  13.397
24278DPPC   C2B 6017   4.715   0.951  13.727
24278DPPC   C3B 6018   4.387   1.001  14.097
24278DPPC   C4B 6019   4.037   1.001  14.437
24279DPPC   NC3 6020   4.985   5.869  12.597
24279DPPC   PO4 6021   4.815   5.719  12.247
24279DPPC   GL1 6022   4.457   5.619  12.307
24279DPPC   GL2 6023   4.207   5.729  12.227
24279DPPC   C1A 6024   4.317   5.449  12.627
24279DPPC   C2A 6025   4.047   5.329  12.927
24279DPPC   C3A 6026   3.737   5.339  13.277
24279DPPC   C4A 6027   3.377   5.309  13.627
24279DPPC   C1B 6028   3.977   5.779  12.537
24279DPPC   C2B 6029   3.697   5.719  12.857
24279DPPC   C3B 6030   3.367   5.699  13.237
24279DPPC   C4B 6031   3.017   5.659  13.607
24280DPPC   NC3 6032   5.135   3.701  12.487
24280DPPC   PO4 6033   4.975   4.029  12.337
24280DPPC   GL1 6034   4.627   4.159  12.597
24280DPPC   GL2 6035   4.557   4.429  12.397
24280DPPC   C1A 6036   4.497   4.239  12.907
24280DPPC   C2A 6037   4.337   4.099  13.287
24280DPPC   C3A 6038   4.017   3.979  13.637
24280DPPC   C4A 6039   3.587   4.039  13.977
24280DPPC   C1B 6040   4.277   4.509  12.617
24280DPPC   C2B 6041   4.107   4.499  12.987
24280DPPC   C3B 6042   3.817   4.469  13.417
24280DPPC   C4B 6043   3.537   4.529  13.797
24281DPPC   NC3 6044   5.125   6.469  12.877
24281DPPC   PO4 6045   4.885   6.339  12.637
24281DPPC   GL1 6046   4.685   6.099  12.897
24281DPPC   GL2 6047   4.557   5.999  12.637
24281DPPC   C1A 6048   4.377   6.199  13.097
24281DPPC   C2A 6049   4.067   6.269  13.417
24281DPPC   C3A 6050   3.787   6.309  13.807
24281DPPC   C4A 6051   3.507   6.219  14.187
24281DPPC   C1B 6052   4.327   5.779  12.837
24281DPPC   C2B 6053   4.087   5.799  13.187
24281DPPC   C3B 6054   3.757   5.749  13.557
24281DPPC   C4B 6055   3.447   5.829  13.867
24282DPPC   NC3 6056   6.925   5.089  14.587
24282DPPC   PO4 6057   6.735   5.269  14.877
24282DPPC   GL1 6058   6.415   5.369  15.047
24282DPPC   GL2 6059   6.265   5.189  14.747
24282DPPC   C1A 6060   6.245   5.289  15.377
24282DPPC   C2A 6061   5.975   5.269  15.717
24282DPPC   C3A 6062   5.635   5.239  16.057
24282DPPC   C4A 6063   5.265   5.279  16.447
24282DPPC   C1B 6064   5.975   5.129  14.967
24282DPPC   C2B 6065   5.705   5.199  15.217
24282DPPC   C3B 6066   5.465   5.179  15.567
24282DPPC   C4B 6067   5.165   5.209  15.957
24283DPPC   NC3 6068   3.787   3.791  11.097
24283DPPC   PO4 6069   3.657   4.149  10.967
24283DPPC   GL1 6070   3.357   4.279  11.247
24283DPPC   GL2 6071   3.257   4.549  11.227
24283DPPC   C1A 6072   3.227   4.289  11.567
24283DPPC   C2A 6073   3.017   4.269  11.927
24283DPPC   C3A 6074   2.637   4.249  12.247
24283DPPC   C4A 6075   2.407   4.309  12.667
24283DPPC   C1B 6076   2.967   4.689  11.417
24283DPPC   C2B 6077   2.777   4.759  11.757
24283DPPC   C3B 6078   2.487   4.809  12.087
24283DPPC   C4B 6079   2.197   4.759  12.447
24284DPPC   NC3 6080   3.757   3.021  10.947
24284DPPC   PO4 6081   4.057   2.851  11.197
24284DPPC   GL1 6082   3.747   2.711  11.507
24284DPPC   GL2 6083   3.557   2.841  11.337
24284DPPC   C1A 6084   3.707   2.651  11.877
24284DPPC   C2A 6085   3.597   2.621  12.287
24284DPPC   C3A 6086   3.337   2.601  12.707
24284DPPC   C4A 6087   3.087   2.691  13.027
24284DPPC   C1B 6088   3.307   2.911  11.517
24284DPPC   C2B 6089   2.977   2.931  11.787
24284DPPC   C3B 6090   2.707   2.921  12.147
24284DPPC   C4B 6091   2.467   2.951  12.507
24285DPPC   NC3 6092   5.265   5.109  12.387
24285DPPC   PO4 6093   5.015   5.359  12.497
24285DPPC   GL1 6094   4.685   5.309  12.837
24285DPPC   GL2 6095   4.945   5.119  12.857
24285DPPC   C1A 6096   4.497   5.389  13.147
24285DPPC   C2A 6097   4.197   5.409  13.507
24285DPPC   C3A 6098   3.817   5.399  13.917
24285DPPC   C4A 6099   3.537   5.429  14.227
24285DPPC   C1B 6100   4.805   4.989  13.177
24285DPPC   C2B 6101   4.567   5.049  13.507
24285DPPC   C3B 6102   4.277   5.089  13.887
24285DPPC   C4B 6103   3.967   5.039  14.247
24286DPPC   NC3 6104   6.325   0.641  13.737
24286DPPC   PO4 6105   6.475   0.831  14.057
24286DPPC   GL1 6106   6.245   0.741  14.427
24286DPPC   GL2 6107   6.135   0.511  14.277
24286DPPC   C1A 6108   6.135   0.701  14.807
24286DPPC   C2A 6109   5.805   0.751  15.107
24286DPPC   C3A 6110   5.495   0.751  15.497
24286DPPC   C4A 6111   5.185   0.761  15.907
24286DPPC   C1B 6112   5.925   0.341  14.527
24286DPPC   C2B 6113   5.775   0.281  14.907
24286DPPC   C3B 6114   5.475   0.331  15.257
24286DPPC   C4B 6115   5.205   0.351  15.617
24287DPPC   NC3 6116  20.705   0.621   9.587
24287DPPC   PO4 6117  20.525   0.941   9.607
24287DPPC   GL1 6118  20.825   1.031   9.907
24287DPPC   GL2 6119  20.935   0.771  10.007
24287DPPC   C1A 6120  20.765   1.271  10.167
24287DPPC   C2A 6121  20.795   1.411  10.547
24287DPPC   C3A 6122  20.735   1.371  10.997
24287DPPC   C4A 6123  20.705   1.261  11.487
24287DPPC   C1B 6124  20.885   0.831  10.377
24287DPPC   C2B 6125  20.995   0.921  10.797
24287DPPC   C3B 6126  21.005   0.961  11.287
24287DPPC   C4B 6127  20.765   0.831  11.697
24288DPPC   NC3 6128   3.837   0.381  11.017
24288DPPC   PO4 6129   4.167   0.321  11.217
24288DPPC   GL1 6130   4.097   0.161  11.727
24288DPPC   GL2 6131   3.887   0.091  11.487
24288DPPC   C1A 6132   3.917   0.341  12.007
24288DPPC   C2A 6133   3.657   0.431  12.317
24288DPPC   C3A 6134   3.297   0.391  12.667
24288DPPC   C4A 6135   2.967   0.451  12.987
24288DPPC   C1B 6136   3.557   6.519  11.577
24288DPPC   C2B 6137   3.217   6.499  11.757
24288DPPC   C3B 6138   2.897   6.389  12.057
24288DPPC   C4B 6139   2.557   6.499  12.427
24289DPPC   NC3 6140   5.865   5.239  12.987
24289DPPC   PO4 6141   5.455   5.289  12.837
24289DPPC   GL1 6142   5.115   5.589  12.907
24289DPPC   GL2 6143   5.135   5.439  13.127
24289DPPC   C1A 6144   4.785   5.709  13.047
24289DPPC   C2A 6145   4.537   5.789  13.347
24289DPPC   C3A 6146   4.237   5.869  13.687
24289DPPC   C4A 6147   3.907   5.919  14.137
24289DPPC   C1B 6148   4.935   5.399  13.487
24289DPPC   C2B 6149   4.617   5.439  13.757
24289DPPC   C3B 6150   4.297   5.499  14.127
24289DPPC   C4B 6151   3.947   5.489  14.487
24290DPPC   NC3 6152   4.597   5.839  11.857
24290DPPC   PO4 6153   4.297   5.579  11.807
24290DPPC   GL1 6154   4.097   5.319  11.987
24290DPPC   GL2 6155   3.857   5.309  11.857
24290DPPC   C1A 6156   3.927   5.359  12.317
24290DPPC   C2A 6157   3.597   5.309  12.617
24290DPPC   C3A 6158   3.307   5.269  12.977
24290DPPC   C4A 6159   2.937   5.269  13.307
24290DPPC   C1B 6160   3.567   5.199  12.047
24290DPPC   C2B 6161   3.267   5.239  12.267
24290DPPC   C3B 6162   2.967   5.189  12.587
24290DPPC   C4B 6163   2.647   5.299  12.907
24291DPPC   NC3 6164   3.457   3.661  10.447
24291DPPC   PO4 6165   3.577   3.491  10.777
24291DPPC   GL1 6166   3.447   3.471  11.077
24291DPPC   GL2 6167   3.437   3.221  11.197
24291DPPC   C1A 6168   3.297   3.671  11.357
24291DPPC   C2A 6169   3.077   3.881  11.647
24291DPPC   C3A 6170   2.787   3.821  11.997
24291DPPC   C4A 6171   2.447   3.751  12.357
24291DPPC   C1B 6172   3.127   3.281  11.377
24291DPPC   C2B 6173   2.787   3.371  11.627
24291DPPC   C3B 6174   2.437   3.321  11.967
24291DPPC   C4B 6175   2.097   3.241  12.347
24292DPPC   NC3 6176  17.815   5.279  10.057
24292DPPC   PO4 6177  18.005   5.559   9.937
24292DPPC   GL1 6178  18.445   5.609  10.107
24292DPPC   GL2 6179  18.305   5.329  10.127
24292DPPC   C1A 6180  18.695   5.469  10.377
24292DPPC   C2A 6181  19.015   5.289  10.577
24292DPPC   C3A 6182  19.335   5.259  10.997
24292DPPC   C4A 6183  19.745   5.299  11.317
24292DPPC   C1B 6184  18.245   5.249  10.487
24292DPPC   C2B 6185  18.565   5.259  10.807
24292DPPC   C3B 6186  18.875   5.079  11.057
24292DPPC   C4B 6187  19.125   5.269  11.427
24293DPPC   NC3 6188   2.357   0.071   9.577
24293DPPC   PO4 6189   2.197   6.539   9.907
24293DPPC   GL1 6190   2.197   6.459  10.357
24293DPPC   GL2 6191   2.007   6.559  10.407
24293DPPC   C1A 6192   2.397   0.061  10.527
24293DPPC   C2A 6193   2.577   0.431  10.597
24293DPPC   C3A 6194   2.437   0.881  10.627
24293DPPC   C4A 6195   2.487   1.381  10.587
24293DPPC   C1B 6196   2.067   6.579  10.787
24293DPPC   C2B 6197   2.037   0.231  11.147
24293DPPC   C3B 6198   1.977   0.611  11.467
24293DPPC   C4B 6199   2.087   1.091  11.557
24294DPPC   NC3 6200  18.065   6.559  10.077
24294DPPC   PO4 6201  17.685   6.489  10.117
24294DPPC   GL1 6202  17.475   6.309  10.557
24294DPPC   GL2 6203  17.525   6.559  10.597
24294DPPC   C1A 6204  17.485   6.059  10.817
24294DPPC   C2A 6205  17.565   5.909  11.237
24294DPPC   C3A 6206  17.765   5.949  11.667
24294DPPC   C4A 6207  18.185   5.919  11.937
24294DPPC   C1B 6208  17.415   6.519  10.957
24294DPPC   C2B 6209  17.655   6.389  11.307
24294DPPC   C3B 6210  18.015   6.459  11.667
24294DPPC   C4B 6211  18.445   6.449  11.987
24295DPPC   NC3 6212   6.685   6.559  14.127
24295DPPC   PO4 6213   6.725   6.359  14.477
24295DPPC   GL1 6214   6.575   6.469  14.867
24295DPPC   GL2 6215   6.515   6.199  14.777
24295DPPC   C1A 6216   6.265   6.559  15.047
24295DPPC   C2A 6217   5.925   6.529  15.247
24295DPPC   C3A 6218   5.555   6.569  15.587
24295DPPC   C4A 6219   5.295   6.449  15.987
24295DPPC   C1B 6220   6.165   6.129  14.877
24295DPPC   C2B 6221   5.855   6.069  15.137
24295DPPC   C3B 6222   5.505   6.099  15.457
24295DPPC   C4B 6223   5.075   6.059  15.777
24296DPPC   NC3 6224   5.065   2.861  12.167
24296DPPC   PO4 6225   5.085   2.611  12.537
24296DPPC   GL1 6226   4.895   2.541  12.847
24296DPPC   GL2 6227   4.795   2.811  12.997
24296DPPC   C1A 6228   4.587   2.361  12.927
24296DPPC   C2A 6229   4.167   2.301  13.007
24296DPPC   C3A 6230   3.847   2.231  13.377
24296DPPC   C4A 6231   3.477   2.281  13.757
24296DPPC   C1B 6232   4.457   2.811  13.127
24296DPPC   C2B 6233   4.097   2.701  13.307
24296DPPC   C3B 6234   3.807   2.691  13.677
24296DPPC   C4B 6235   3.517   2.751  14.047
24297DPPC   NC3 6236   4.965   0.101  12.377
24297DPPC   PO4 6237   4.885   0.521  12.317
24297DPPC   GL1 6238   4.657   0.531  12.627
24297DPPC   GL2 6239   4.437   0.691  12.547
24297DPPC   C1A 6240   4.417   0.351  12.837
24297DPPC   C2A 6241   4.197   0.431  13.137
24297DPPC   C3A 6242   3.847   0.541  13.507
24297DPPC   C4A 6243   3.567   0.481  13.857
24297DPPC   C1B 6244   4.227   0.751  12.827
24297DPPC   C2B 6245   3.947   0.851  13.127
24297DPPC   C3B 6246   3.567   0.901  13.437
24297DPPC   C4B 6247   3.257   0.911  13.827
24298DPPC   NC3 6248   4.805   4.419  11.987
24298DPPC   PO4 6249   4.885   4.809  12.087
24298DPPC   GL1 6250   4.467   4.719  11.907
24298DPPC   GL2 6251   4.377   4.899  11.997
24298DPPC   C1A 6252   4.237   4.429  12.087
24298DPPC   C2A 6253   3.937   4.399  12.347
24298DPPC   C3A 6254   3.697   4.439  12.717
24298DPPC   C4A 6255   3.327   4.409  13.057
24298DPPC   C1B 6256   4.177   4.819  12.307
24298DPPC   C2B 6257   4.037   4.909  12.657
24298DPPC   C3B 6258   3.707   4.879  13.027
24298DPPC   C4B 6259   3.397   4.899  13.317
24299DPPC   NC3 6260   6.215   6.279  14.187
24299DPPC   PO4 6261   6.425   5.989  14.327
24299DPPC   GL1 6262   6.185   5.779  14.597
24299DPPC   GL2 6263   5.965   5.939  14.467
24299DPPC   C1A 6264   6.045   5.719  14.887
24299DPPC   C2A 6265   5.955   5.639  15.277
24299DPPC   C3A 6266   5.715   5.709  15.697
24299DPPC   C4A 6267   5.345   5.659  16.077
24299DPPC   C1B 6268   5.655   5.929  14.627
24299DPPC   C2B 6269   5.275   5.939  14.847
24299DPPC   C3B 6270   5.035   5.939  15.227
24299DPPC   C4B 6271   4.657   5.969  15.467
24300DPPC   NC3 6272   7.055   5.219  15.237
24300DPPC   PO4 6273   7.005   4.849  15.047
24300DPPC   GL1 6274   6.755   4.739  15.407
24300DPPC   GL2 6275   6.665   4.979  15.457
24300DPPC   C1A 6276   6.425   4.529  15.407
24300DPPC   C2A 6277   6.145   4.459  15.707
24300DPPC   C3A 6278   5.785   4.379  15.997
24300DPPC   C4A 6279   5.475   4.339  16.387
24300DPPC   C1B 6280   6.375   4.909  15.697
24300DPPC   C2B 6281   6.135   4.849  15.967
24300DPPC   C3B 6282   5.855   4.829  16.317
24300DPPC   C4B 6283   5.495   4.819  16.607
24301DPPC   NC3 6284   5.705   3.601  13.067
24301DPPC   PO4 6285   5.395   3.841  12.907
24301DPPC   GL1 6286   5.305   4.139  13.337
24301DPPC   GL2 6287   5.285   4.379  13.167
24301DPPC   C1A 6288   5.075   3.989  13.577
24301DPPC   C2A 6289   4.795   3.801  13.787
24301DPPC   C3A 6290   4.497   3.741  14.137
24301DPPC   C4A 6291   4.187   3.721  14.517
24301DPPC   C1B 6292   5.135   4.609  13.407
24301DPPC   C2B 6293   4.855   4.599  13.667
24301DPPC   C3B 6294   4.537   4.649  14.017
24301DPPC   C4B 6295   4.237   4.599  14.347
24302DPPC   NC3 6296   6.615   2.921  15.117
24302DPPC   PO4 6297   6.925   2.681  15.197
24302DPPC   GL1 6298   6.715   2.321  15.447
24302DPPC   GL2 6299   6.585   2.471  15.267
24302DPPC   C1A 6300   6.565   2.381  15.767
24302DPPC   C2A 6301   6.535   2.311  16.157
24302DPPC   C3A 6302   6.185   2.321  16.427
24302DPPC   C4A 6303   5.875   2.381  16.807
24302DPPC   C1B 6304   6.185   2.461  15.327
24302DPPC   C2B 6305   5.865   2.581  15.527
24302DPPC   C3B 6306   5.525   2.581  15.887
24302DPPC   C4B 6307   5.255   2.661  16.317
24303DPPC   NC3 6308   4.695   3.681  12.217
24303DPPC   PO4 6309   4.685   3.281  12.257
24303DPPC   GL1 6310   4.527   3.301  12.617
24303DPPC   GL2 6311   4.407   3.581  12.577
24303DPPC   C1A 6312   4.477   3.371  12.987
24303DPPC   C2A 6313   4.347   3.201  13.327
24303DPPC   C3A 6314   4.027   3.121  13.717
24303DPPC   C4A 6315   3.767   3.161  14.117
24303DPPC   C1B 6316   4.357   3.761  12.937
24303DPPC   C2B 6317   4.067   3.601  13.197
24303DPPC   C3B 6318   3.697   3.511  13.487
24303DPPC   C4B 6319   3.507   3.071  13.637
24304DPPC   NC3 6320   5.715   2.981  13.547
24304DPPC   PO4 6321   5.585   3.201  13.247
24304DPPC   GL1 6322   5.175   3.081  13.387
24304DPPC   GL2 6323   5.255   3.231  13.667
24304DPPC   C1A 6324   4.865   2.901  13.457
24304DPPC   C2A 6325   4.477   2.801  13.657
24304DPPC   C3A 6326   4.237   2.751  14.087
24304DPPC   C4A 6327   3.947   2.791  14.477
24304DPPC   C1B 6328   4.875   3.281  13.707
24304DPPC   C2B 6329   4.557   3.221  13.957
24304DPPC   C3B 6330   4.237   3.221  14.317
24304DPPC   C4B 6331   3.887   3.251  14.627
24305DPPC   NC3 6332   5.625   2.211  13.197
24305DPPC   PO4 6333   5.325   2.271  12.967
24305DPPC   GL1 6334   5.055   2.111  13.187
24305DPPC   GL2 6335   5.235   2.051  13.357
24305DPPC   C1A 6336   4.725   2.081  13.317
24305DPPC   C2A 6337   4.407   2.311  13.457
24305DPPC   C3A 6338   4.157   2.361  13.807
24305DPPC   C4A 6339   3.797   2.341  14.147
24305DPPC   C1B 6340   5.155   2.081  13.707
24305DPPC   C2B 6341   5.045   1.991  14.067
24305DPPC   C3B 6342   4.675   1.901  14.327
24305DPPC   C4B 6343   4.417   1.871  14.667
24306DPPC   NC3 6344   5.145   0.891  12.127
24306DPPC   PO4 6345   4.865   1.101  12.267
24306DPPC   GL1 6346   4.705   1.071  12.667
24306DPPC   GL2 6347   4.487   1.231  12.617
24306DPPC   C1A 6348   4.795   1.141  13.057
24306DPPC   C2A 6349   4.685   1.331  13.367
24306DPPC   C3A 6350   4.277   1.471  13.677
24306DPPC   C4A 6351   3.997   1.521  14.077
24306DPPC   C1B 6352   4.307   1.251  12.907
24306DPPC   C2B 6353   4.097   1.361  13.247
24306DPPC   C3B 6354   3.797   1.391  13.627
24306DPPC   C4B 6355   3.507   1.351  14.007
24307DPPC   NC3 6356   6.605   3.531  14.767
24307DPPC   PO4 6357   6.775   3.909  14.687
24307DPPC   GL1 6358   6.525   3.969  15.017
24307DPPC   GL2 6359   6.605   4.169  15.227
24307DPPC   C1A 6360   6.335   3.691  15.127
24307DPPC   C2A 6361   5.975   3.541  15.247
24307DPPC   C3A 6362   5.635   3.461  15.577
24307DPPC   C4A 6363   5.265   3.441  15.937
24307DPPC   C1B 6364   6.295   4.079  15.417
24307DPPC   C2B 6365   5.925   3.969  15.577
24307DPPC   C3B 6366   5.575   3.891  15.837
24307DPPC   C4B 6367   5.345   3.881  16.247
24308DPPC   NC3 6368   3.787   0.061  10.687
24308DPPC   PO4 6369   3.867   6.489  10.997
24308DPPC   GL1 6370   3.597   6.129  11.057
24308DPPC   GL2 6371   3.767   6.159  11.357
24308DPPC   C1A 6372   3.227   6.229  11.037
24308DPPC   C2A 6373   2.807   6.279  10.997
24308DPPC   C3A 6374   2.337   6.309  11.047
24308DPPC   C4A 6375   1.837   6.289  11.107
24308DPPC   C1B 6376   3.637   6.129  11.687
24308DPPC   C2B 6377   3.407   6.029  12.007
24308DPPC   C3B 6378   3.077   6.059  12.377
24308DPPC   C4B 6379   2.697   6.119  12.697
24309DPPC   NC3 6380   4.077   5.989  10.957
24309DPPC   PO4 6381   3.787   5.729  10.877
24309DPPC   GL1 6382   3.367   5.629  10.937
24309DPPC   GL2 6383   3.347   5.439  11.087
24309DPPC   C1A 6384   3.057   5.839  11.067
24309DPPC   C2A 6385   2.757   5.959  11.337
24309DPPC   C3A 6386   2.317   6.089  11.467
24309DPPC   C4A 6387   2.037   6.399  11.557
24309DPPC   C1B 6388   3.067   5.479  11.367
24309DPPC   C2B 6389   2.767   5.519  11.647
24309DPPC   C3B 6390   2.497   5.589  12.027
24309DPPC   C4B 6391   2.127   5.719  12.307
24310DPPC   NC3 6392   5.235   4.739  12.827
24310DPPC   PO4 6393   4.965   4.759  12.547
24310DPPC   GL1 6394   4.617   4.839  12.777
24310DPPC   GL2 6395   4.685   4.619  12.857
24310DPPC   C1A 6396   4.357   4.959  13.007
24310DPPC   C2A 6397   4.097   4.949  13.297
24310DPPC   C3A 6398   3.777   4.969  13.687
24310DPPC   C4A 6399   3.557   4.969  14.057
24310DPPC   C1B 6400   4.537   4.539  13.207
24310DPPC   C2B 6401   4.307   4.549  13.517
24310DPPC   C3B 6402   4.037   4.509  13.887
24310DPPC   C4B 6403   3.737   4.499  14.247
24311DPPC   NC3 6404   6.615   4.299  14.417
24311DPPC   PO4 6405   6.485   4.449  14.747
24311DPPC   GL1 6406   6.135   4.269  14.997
24311DPPC   GL2 6407   6.065   4.269  14.727
24311DPPC   C1A 6408   5.875   4.329  15.267
24311DPPC   C2A 6409   5.565   4.369  15.527
24311DPPC   C3A 6410   5.245   4.299  15.907
24311DPPC   C4A 6411   4.945   4.319  16.267
24311DPPC   C1B 6412   5.695   4.299  14.727
24311DPPC   C2B 6413   5.395   4.319  15.007
24311DPPC   C3B 6414   5.095   4.309  15.377
24311DPPC   C4B 6415   4.735   4.279  15.787
24312DPPC   NC3 6416   1.657   0.821   9.947
24312DPPC   PO4 6417   2.107   0.921  10.017
24312DPPC   GL1 6418   1.987   1.011  10.427
24312DPPC   GL2 6419   1.807   0.731  10.377
24312DPPC   C1A 6420   2.047   1.111  10.777
24312DPPC   C2A 6421   2.357   1.211  11.047
24312DPPC   C3A 6422   2.677   0.971  11.087
24312DPPC   C4A 6423   3.117   0.971  10.997
24312DPPC   C1B 6424   1.457   0.641  10.447
24312DPPC   C2B 6425   1.117   0.861  10.527
24312DPPC   C3B 6426   0.727   0.991  10.797
24312DPPC   C4B 6427   0.337   1.051  11.127
24313DPPC   NC3 6428   4.667   3.781  11.337
24313DPPC   PO4 6429   4.237   3.761  11.347
24313DPPC   GL1 6430   3.897   3.701  11.627
24313DPPC   GL2 6431   3.727   3.909  11.567
24313DPPC   C1A 6432   3.827   3.531  11.937
24313DPPC   C2A 6433   3.537   3.421  12.257
24313DPPC   C3A 6434   3.257   3.531  12.637
24313DPPC   C4A 6435   2.897   3.471  12.967
24313DPPC   C1B 6436   3.497   3.881  11.847
24313DPPC   C2B 6437   3.237   3.821  12.197
24313DPPC   C3B 6438   2.917   3.831  12.467
24313DPPC   C4B 6439   2.597   3.871  12.917
24314DPPC   NC3 6440   3.067   0.291  10.517
24314DPPC   PO4 6441   3.427   0.431  10.667
24314DPPC   GL1 6442   3.407   0.261  11.037
24314DPPC   GL2 6443   3.117   0.231  10.997
24314DPPC   C1A 6444   3.377   0.291  11.467
24314DPPC   C2A 6445   3.387   0.301  11.877
24314DPPC   C3A 6446   3.097   0.351  12.197
24314DPPC   C4A 6447   2.767   0.401  12.527
24314DPPC   C1B 6448   2.987   0.071  11.277
24314DPPC   C2B 6449   2.687   6.509  11.467
24314DPPC   C3B 6450   2.427   6.389  11.837
24314DPPC   C4B 6451   2.117   6.089  11.967
24315DPPC   NC3 6452   5.945   6.529  13.287
24315DPPC   PO4 6453   6.055   6.389  13.647
24315DPPC   GL1 6454   5.805   6.329  14.017
24315DPPC   GL2 6455   5.785   6.009  14.037
24315DPPC   C1A 6456   5.535   6.299  14.317
24315DPPC   C2A 6457   5.245   6.389  14.577
24315DPPC   C3A 6458   4.925   6.449  14.947
24315DPPC   C4A 6459   4.547   6.429  15.267
24315DPPC   C1B 6460   5.575   5.729  14.217
24315DPPC   C2B 6461   5.295   5.589  14.517
24315DPPC   C3B 6462   4.955   5.549  14.887
24315DPPC   C4B 6463   4.657   5.509  15.277
24316DPPC   NC3 6464   3.617   1.801  10.377
24316DPPC   PO4 6465   3.447   1.491  10.507
24316DPPC   GL1 6466   3.217   1.751  10.847
24316DPPC   GL2 6467   2.987   1.761  10.677
24316DPPC   C1A 6468   3.147   1.711  11.157
24316DPPC   C2A 6469   3.027   1.621  11.557
24316DPPC   C3A 6470   2.767   1.611  11.957
24316DPPC   C4A 6471   2.477   1.651  12.337
24316DPPC   C1B 6472   2.847   1.911  10.977
24316DPPC   C2B 6473   2.687   1.951  11.377
24316DPPC   C3B 6474   2.497   2.001  11.797
24316DPPC   C4B 6475   2.217   2.051  12.147
24317DPPC   NC3 6476   6.645   0.661  14.667
24317DPPC   PO4 6477   6.625   0.431  14.327
24317DPPC   GL1 6478   6.445   0.121  14.567
24317DPPC   GL2 6479   6.295   0.341  14.737
24317DPPC   C1A 6480   6.145   6.529  14.597
24317DPPC   C2A 6481   5.775   6.369  14.717
24317DPPC   C3A 6482   5.425   6.389  15.007
24317DPPC   C4A 6483   5.095   6.429  15.457
24317DPPC   C1B 6484   6.155   0.381  15.087
24317DPPC   C2B 6485   5.945   0.411  15.427
24317DPPC   C3B 6486   5.685   0.401  15.767
24317DPPC   C4B 6487   5.355   0.391  16.167
24318DPPC   NC3 6488   5.515   0.111  13.137
24318DPPC   PO4 6489   5.495   6.349  13.157
24318DPPC   GL1 6490   5.115   6.319  13.547
24318DPPC   GL2 6491   5.095   6.569  13.367
24318DPPC   C1A 6492   4.945   6.329  13.867
24318DPPC   C2A 6493   4.805   6.329  14.247
24318DPPC   C3A 6494   4.527   6.379  14.657
24318DPPC   C4A 6495   4.087   6.359  14.927
24318DPPC   C1B 6496   4.835   0.111  13.607
24318DPPC   C2B 6497   4.627   0.071  13.977
24318DPPC   C3B 6498   4.387   0.121  14.357
24318DPPC   C4B 6499   4.097   0.211  14.687
24319DPPC   NC3 6500   7.095   2.241  15.237
24319DPPC   PO4 6501   6.835   1.991  15.057
24319DPPC   GL1 6502   6.475   1.871  15.337
24319DPPC   GL2 6503   6.335   1.641  15.257
24319DPPC   C1A 6504   6.255   2.091  15.557
24319DPPC   C2A 6505   6.065   2.221  15.917
24319DPPC   C3A 6506   5.725   2.251  16.337
24319DPPC   C4A 6507   5.335   2.271  16.677
24319DPPC   C1B 6508   6.055   1.671  15.477
24319DPPC   C2B 6509   5.835   1.811  15.837
24319DPPC   C3B 6510   5.485   1.751  16.207
24319DPPC   C4B 6511   5.165   1.771  16.567
24320DPPC   NC3 6512   6.135   5.039  13.857
24320DPPC   PO4 6513   5.985   5.069  14.267
24320DPPC   GL1 6514   5.835   5.409  14.567
24320DPPC   GL2 6515   5.605   5.269  14.377
24320DPPC   C1A 6516   5.645   5.529  14.857
24320DPPC   C2A 6517   5.435   5.609  15.247
24320DPPC   C3A 6518   5.155   5.609  15.587
24320DPPC   C4A 6519   4.745   5.719  15.937
24320DPPC   C1B 6520   5.515   5.119  14.707
24320DPPC   C2B 6521   5.255   5.139  15.037
24320DPPC   C3B 6522   4.955   5.139  15.387
24320DPPC   C4B 6523   4.637   5.189  15.747
24321DPPC   NC3 6524   6.175   3.751  13.907
24321DPPC   PO4 6525   5.985   4.059  13.767
24321DPPC   GL1 6526   5.525   3.929  13.627
24321DPPC   GL2 6527   5.525   4.219  13.667
24321DPPC   C1A 6528   5.215   3.741  13.877
24321DPPC   C2A 6529   4.985   3.441  14.107
24321DPPC   C3A 6530   4.715   3.371  14.477
24321DPPC   C4A 6531   4.427   3.261  14.757
24321DPPC   C1B 6532   5.205   4.329  13.837
24321DPPC   C2B 6533   4.895   4.239  14.067
24321DPPC   C3B 6534   4.557   4.229  14.397
24321DPPC   C4B 6535   4.227   4.199  14.787
24322DPPC   NC3 6536  18.545   3.441   9.437
24322DPPC   PO4 6537  18.205   3.221   9.547
24322DPPC   GL1 6538  18.165   3.081   9.917
24322DPPC   GL2 6539  17.865   2.981   9.967
24322DPPC   C1A 6540  18.285   3.031  10.217
24322DPPC   C2A 6541  18.565   3.101  10.517
24322DPPC   C3A 6542  18.905   3.031  10.857
24322DPPC   C4A 6543  19.195   3.121  11.277
24322DPPC   C1B 6544  17.925   2.721  10.207
24322DPPC   C2B 6545  18.275   2.681  10.467
24322DPPC   C3B 6546  18.635   2.601  10.807
24322DPPC   C4B 6547  18.915   2.641  11.217
24323DPPC   NC3 6548   1.217   0.001   9.617
24323DPPC   PO4 6549   1.297   0.381   9.707
24323DPPC   GL1 6550   1.397   0.421  10.057
24323DPPC   GL2 6551   1.677   0.351  10.097
24323DPPC   C1A 6552   1.127   0.441  10.277
24323DPPC   C2A 6553   0.867   0.131  10.387
24323DPPC   C3A 6554   0.377   6.549  10.397
24323DPPC   C4A 6555  21.025   6.459  10.447
24323DPPC   C1B 6556   1.917   0.351  10.357
24323DPPC   C2B 6557   2.097   0.511  10.697
24323DPPC   C3B 6558   2.287   0.711  11.137
24323DPPC   C4B 6559   2.587   0.671  11.567
24324DPPC   NC3 6560  17.935   4.009   9.847
24324DPPC   PO4 6561  17.805   4.349  10.027
24324DPPC   GL1 6562  17.645   4.249  10.377
24324DPPC   GL2 6563  17.735   3.929  10.277
24324DPPC   C1A 6564  17.855   4.359  10.637
24324DPPC   C2A 6565  18.195   4.339  10.917
24324DPPC   C3A 6566  18.525   4.319  11.297
24324DPPC   C4A 6567  18.875   4.199  11.587
24324DPPC   C1B 6568  18.095   3.939  10.307
24324DPPC   C2B 6569  18.365   3.881  10.587
24324DPPC   C3B 6570  18.745   3.881  10.887
24324DPPC   C4B 6571  19.015   3.821  11.317
24325DPPC   NC3 6572   5.275   2.801  12.957
24325DPPC   PO4 6573   5.465   2.691  13.257
24325DPPC   GL1 6574   5.265   2.521  13.577
24325DPPC   GL2 6575   5.305   2.791  13.687
24325DPPC   C1A 6576   4.945   2.491  13.757
24325DPPC   C2A 6577   4.667   2.401  14.057
24325DPPC   C3A 6578   4.287   2.341  14.397
24325DPPC   C4A 6579   3.997   2.261  14.717
24325DPPC   C1B 6580   5.085   2.891  13.927
24325DPPC   C2B 6581   4.805   2.841  14.227
24325DPPC   C3B 6582   4.447   2.831  14.527
24325DPPC   C4B 6583   4.167   2.731  14.927
24326DPPC   NC3 6584   3.537   5.279  10.727
24326DPPC   PO4 6585   3.277   5.449  10.497
24326DPPC   GL1 6586   3.017   5.309  10.717
24326DPPC   GL2 6587   2.917   5.539  10.707
24326DPPC   C1A 6588   2.877   5.219  11.057
24326DPPC   C2A 6589   2.727   5.079  11.387
24326DPPC   C3A 6590   2.427   5.109  11.677
24326DPPC   C4A 6591   2.137   5.159  12.047
24326DPPC   C1B 6592   2.617   5.629  10.817
24326DPPC   C2B 6593   2.477   5.529  11.197
24326DPPC   C3B 6594   2.167   5.479  11.577
24326DPPC   C4B 6595   1.817   5.509  11.937
24327DPPC   NC3 6596   5.755   4.519  13.317
24327DPPC   PO4 6597   5.655   4.849  13.167
24327DPPC   GL1 6598   5.425   5.139  13.357
24327DPPC   GL2 6599   5.215   4.969  13.267
24327DPPC   C1A 6600   5.325   5.349  13.617
24327DPPC   C2A 6601   5.115   5.549  13.927
24327DPPC   C3A 6602   4.805   5.459  14.257
24327DPPC   C4A 6603   4.467   5.459  14.647
24327DPPC   C1B 6604   5.015   4.989  13.617
24327DPPC   C2B 6605   4.835   5.079  13.977
24327DPPC   C3B 6606   4.547   5.069  14.377
24327DPPC   C4B 6607   4.207   5.019  14.697
24328DPPC   NC3 6608   5.415   0.541  12.397
24328DPPC   PO4 6609   5.245   0.301  12.727
24328DPPC   GL1 6610   4.815   0.251  12.907
24328DPPC   GL2 6611   4.925   0.361  13.137
24328DPPC   C1A 6612   4.617   6.599  13.007
24328DPPC   C2A 6613   4.427   0.001  13.377
24328DPPC   C3A 6614   4.087   0.081  13.647
24328DPPC   C4A 6615   3.887   0.191  14.107
24328DPPC   C1B 6616   4.567   0.461  13.337
24328DPPC   C2B 6617   4.437   0.521  13.727
24328DPPC   C3B 6618   4.187   0.551  14.077
24328DPPC   C4B 6619   3.767   0.581  14.377
24329DPPC   NC3 6620   6.465   2.831  14.377
24329DPPC   PO4 6621   6.405   3.091  14.687
24329DPPC   GL1 6622   6.155   3.431  14.707
24329DPPC   GL2 6623   5.925   3.241  14.717
24329DPPC   C1A 6624   6.045   3.801  14.817
24329DPPC   C2A 6625   5.765   3.939  15.077
24329DPPC   C3A 6626   5.405   3.861  15.337
24329DPPC   C4A 6627   5.095   3.841  15.687
24329DPPC   C1B 6628   5.615   3.371  14.877
24329DPPC   C2B 6629   5.365   3.351  15.187
24329DPPC   C3B 6630   5.005   3.371  15.517
24329DPPC   C4B 6631   4.735   3.521  15.827
24330DPPC   NC3 6632   5.985   4.249  14.247
24330DPPC   PO4 6633   6.115   4.609  14.347
24330DPPC   GL1 6634   6.105   4.749  14.737
24330DPPC   GL2 6635   5.835   4.869  14.707
24330DPPC   C1A 6636   6.085   4.709  15.137
24330DPPC   C2A 6637   5.925   4.829  15.447
24330DPPC   C3A 6638   5.635   4.809  15.827
24330DPPC   C4A 6639   5.285   4.769  16.157
24330DPPC   C1B 6640   5.685   4.709  14.997
24330DPPC   C2B 6641   5.395   4.729  15.247
24330DPPC   C3B 6642   5.175   4.749  15.647
24330DPPC   C4B 6643   4.805   4.769  16.017
24331DPPC   NC3 6644   4.547   0.241  11.567
24331DPPC   PO4 6645   4.675   0.251  11.907
24331DPPC   GL1 6646   4.457   0.351  12.237
24331DPPC   GL2 6647   4.487   0.111  12.437
24331DPPC   C1A 6648   4.167   0.361  12.427
24331DPPC   C2A 6649   3.867   0.401  12.737
24331DPPC   C3A 6650   3.577   0.501  13.127
24331DPPC   C4A 6651   3.297   0.461  13.437
24331DPPC   C1B 6652   4.297   6.569  12.747
24331DPPC   C2B 6653   4.017   0.001  13.037
24331DPPC   C3B 6654   3.637   0.031  13.387
24331DPPC   C4B 6655   3.377   0.041  13.777
24332DPPC   NC3 6656   6.605   5.729  14.787
24332DPPC   PO4 6657   6.855   5.979  14.937
24332DPPC   GL1 6658   6.465   6.009  15.177
24332DPPC   GL2 6659   6.355   5.749  15.157
24332DPPC   C1A 6660   6.225   6.159  15.377
24332DPPC   C2A 6661   5.925   6.139  15.657
24332DPPC   C3A 6662   5.595   6.109  15.987
24332DPPC   C4A 6663   5.265   6.149  16.337
24332DPPC   C1B 6664   6.425   5.769  15.547
24332DPPC   C2B 6665   6.195   5.699  15.927
24332DPPC   C3B 6666   5.865   5.759  16.227
24332DPPC   C4B 6667   5.505   5.679  16.577
24333DPPC   NC3 6668   4.067   4.509  10.947
24333DPPC   PO4 6669   4.267   4.669  11.267
24333DPPC   GL1 6670   4.017   4.679  11.557
24333DPPC   GL2 6671   3.987   4.909  11.727
24333DPPC   C1A 6672   3.797   4.379  11.767
24333DPPC   C2A 6673   3.537   4.249  12.037
24333DPPC   C3A 6674   3.237   4.359  12.337
24333DPPC   C4A 6675   2.957   4.279  12.687
24333DPPC   C1B 6676   3.817   4.819  12.027
24333DPPC   C2B 6677   3.647   4.819  12.387
24333DPPC   C3B 6678   3.317   4.829  12.767
24333DPPC   C4B 6679   2.927   4.729  13.067
24334DPPC   NC3 6680   4.237   1.191  11.217
24334DPPC   PO4 6681   3.977   1.451  11.157
24334DPPC   GL1 6682   3.787   1.631  11.497
24334DPPC   GL2 6683   3.467   1.581  11.437
24334DPPC   C1A 6684   3.837   1.571  11.907
24334DPPC   C2A 6685   3.787   1.731  12.287
24334DPPC   C3A 6686   3.517   1.761  12.717
24334DPPC   C4A 6687   3.207   1.741  13.067
24334DPPC   C1B 6688   3.397   1.621  11.787
24334DPPC   C2B 6689   3.257   1.701  12.157
24334DPPC   C3B 6690   2.947   1.681  12.537
24334DPPC   C4B 6691   2.647   1.741  12.927
24335DPPC   NC3 6692   5.025   6.509  11.747
24335DPPC   PO4 6693   4.915   6.219  12.037
24335DPPC   GL1 6694   4.577   6.319  12.277
24335DPPC   GL2 6695   4.607   6.479  12.117
24335DPPC   C1A 6696   4.277   6.209  12.457
24335DPPC   C2A 6697   4.027   6.179  12.787
24335DPPC   C3A 6698   3.697   6.209  13.117
24335DPPC   C4A 6699   3.307   6.139  13.517
24335DPPC   C1B 6700   4.237   6.569  12.127
24335DPPC   C2B 6701   3.957   6.549  12.377
24335DPPC   C3B 6702   3.627   6.599  12.707
24335DPPC   C4B 6703   3.277   6.599  13.017
24336DPPC   NC3 6704   7.065   6.409  14.817
24336DPPC   PO4 6705   6.905   0.191  14.807
24336DPPC   GL1 6706   6.565   0.261  15.127
24336DPPC   GL2 6707   6.515   0.511  15.107
24336DPPC   C1A 6708   6.365   0.121  15.417
24336DPPC   C2A 6709   6.135   6.589  15.727
24336DPPC   C3A 6710   5.805   0.001  16.087
24336DPPC   C4A 6711   5.495   0.021  16.467
24336DPPC   C1B 6712   6.305   0.741  15.377
24336DPPC   C2B 6713   6.075   0.831  15.647
24336DPPC   C3B 6714   5.745   0.851  15.987
24336DPPC   C4B 6715   5.455   0.841  16.387
24337DPPC   NC3 6716   4.567   3.471  11.737
24337DPPC   PO4 6717   4.597   3.091  11.797
24337DPPC   GL1 6718   4.277   3.081  12.097
24337DPPC   GL2 6719   4.237   3.361  12.107
24337DPPC   C1A 6720   3.947   3.021  12.127
24337DPPC   C2A 6721   3.817   3.121  12.497
24337DPPC   C3A 6722   3.467   3.091  12.837
24337DPPC   C4A 6723   3.177   3.121  13.237
24337DPPC   C1B 6724   4.067   3.531  12.357
24337DPPC   C2B 6725   3.867   3.611  12.757
24337DPPC   C3B 6726   3.567   3.611  13.037
24337DPPC   C4B 6727   3.207   3.631  13.447
24338DPPC   NC3 6728   6.175   1.921  14.427
24338DPPC   PO4 6729   6.045   1.521  14.447
24338DPPC   GL1 6730   5.685   1.501  14.407
24338DPPC   GL2 6731   5.615   1.571  14.217
24338DPPC   C1A 6732   5.475   1.551  14.727
24338DPPC   C2A 6733   5.135   1.491  14.987
24338DPPC   C3A 6734   4.845   1.551  15.367
24338DPPC   C4A 6735   4.517   1.571  15.737
24338DPPC   C1B 6736   5.285   1.491  14.297
24338DPPC   C2B 6737   4.935   1.481  14.557
24338DPPC   C3B 6738   4.617   1.491  14.897
24338DPPC   C4B 6739   4.387   1.471  15.277
24339DPPC   NC3 6740   4.387   5.069  11.567
24339DPPC   PO4 6741   4.097   5.289  11.457
24339DPPC   GL1 6742   3.867   5.709  11.637
24339DPPC   GL2 6743   3.817   5.629  11.377
24339DPPC   C1A 6744   3.717   5.749  11.967
24339DPPC   C2A 6745   3.547   5.689  12.297
24339DPPC   C3A 6746   3.277   5.669  12.677
24339DPPC   C4A 6747   2.917   5.759  13.027
24339DPPC   C1B 6748   3.517   5.809  11.377
24339DPPC   C2B 6749   3.197   6.079  11.537
24339DPPC   C3B 6750   2.807   5.959  11.867
24339DPPC   C4B 6751   2.537   6.049  12.227
24340DPPC   NC3 6752   1.257   2.211   9.557
24340DPPC   PO4 6753   1.407   2.391   9.887
24340DPPC   GL1 6754   1.427   2.261  10.347
24340DPPC   GL2 6755   1.287   2.521  10.427
24340DPPC   C1A 6756   1.367   1.931  10.227
24340DPPC   C2A 6757   1.127   1.661  10.007
24340DPPC   C3A 6758   0.767   1.371   9.887
24340DPPC   C4A 6759   0.497   0.971   9.927
24340DPPC   C1B 6760   0.927   2.541  10.477
24340DPPC   C2B 6761   0.687   2.671  10.797
24340DPPC   C3B 6762   0.307   2.701  11.117
24340DPPC   C4B 6763   0.087   2.701  11.507
24341DPPC   NC3 6764   3.837   1.281  10.697
24341DPPC   PO4 6765   3.807   0.971  10.957
24341DPPC   GL1 6766   3.647   0.861  11.347
24341DPPC   GL2 6767   3.597   1.101  11.307
24341DPPC   C1A 6768   3.357   0.851  11.597
24341DPPC   C2A 6769   3.087   0.761  11.877
24341DPPC   C3A 6770   2.737   0.681  12.127
24341DPPC   C4A 6771   2.397   0.801  12.497
24341DPPC   C1B 6772   3.257   1.191  11.397
24341DPPC   C2B 6773   2.907   1.081  11.547
24341DPPC   C3B 6774   2.457   1.081  11.847
24341DPPC   C4B 6775   2.247   1.211  12.257
24342DPPA   PO4 6776   6.085   2.171  13.917
24342DPPA   GL1 6777   5.685   2.091  14.077
24342DPPA   GL2 6778   5.695   2.361  14.197
24342DPPA   C1A 6779   5.475   1.941  14.317
24342DPPA   C2A 6780   5.205   1.911  14.587
24342DPPA   C3A 6781   4.865   1.921  14.977
24342DPPA   C4A 6782   4.517   2.031  15.317
24342DPPA   C1B 6783   5.525   2.381  14.537
24342DPPA   C2B 6784   5.285   2.431  14.877
24342DPPA   C3B 6785   4.875   2.441  15.217
24342DPPA   C4B 6786   4.567   2.461  15.637
24343DPPA   PO4 6787   6.305   3.451  14.297
24343DPPA   GL1 6788   5.815   3.381  14.297
24343DPPA   GL2 6789   5.855   3.691  14.437
24343DPPA   C1A 6790   5.615   3.081  14.447
24343DPPA   C2A 6791   5.285   2.911  14.457
24343DPPA   C3A 6792   4.925   2.981  14.767
24343DPPA   C4A 6793   4.587   2.841  15.127
24343DPPA   C1B 6794   5.575   3.909  14.647
24343DPPA   C2B 6795   5.205   3.811  14.897
24343DPPA   C3B 6796   4.895   3.801  15.227
24343DPPA   C4B 6797   4.477   3.781  15.497
24344DPPA   PO4 6798   4.805   3.909  11.807
24344DPPA   GL1 6799   4.477   4.069  12.047
24344DPPA   GL2 6800   4.357   3.831  11.867
24344DPPA   C1A 6801   4.287   4.009  12.337
24344DPPA   C2A 6802   4.107   4.089  12.707
24344DPPA   C3A 6803   3.837   4.079  13.087
24344DPPA   C4A 6804   3.567   4.059  13.497
24344DPPA   C1B 6805   3.987   3.959  11.957
24344DPPA   C2B 6806   3.787   3.929  12.317
24344DPPA   C3B 6807   3.487   3.949  12.727
24344DPPA   C4B 6808   3.167   3.909  13.067
24345DPPA   PO4 6809   3.607   4.709  10.947
24345DPPA   GL1 6810   3.737   4.809  11.287
24345DPPA   GL2 6811   3.607   5.069  11.207
24345DPPA   C1A 6812   3.507   4.799  11.557
24345DPPA   C2A 6813   3.307   4.729  11.937
24345DPPA   C3A 6814   2.987   4.789  12.247
24345DPPA   C4A 6815   2.667   4.719  12.637
24345DPPA   C1B 6816   3.527   5.389  11.497
24345DPPA   C2B 6817   3.307   5.629  11.727
24345DPPA   C3B 6818   3.037   5.659  12.117
24345DPPA   C4B 6819   2.737   5.689  12.527
24346DPPA   PO4 6820  16.945   6.499  10.497
24346DPPA   GL1 6821  17.135   0.181  10.757
24346DPPA   GL2 6822  17.055   0.131  11.017
24346DPPA   C1A 6823  17.435   0.301  10.827
24346DPPA   C2A 6824  17.825   0.291  11.037
24346DPPA   C3A 6825  18.105   0.291  11.387
24346DPPA   C4A 6826  18.335   0.331  11.847
24346DPPA   C1B 6827  17.275   0.081  11.307
24346DPPA   C2B 6828  17.555   0.141  11.587
24346DPPA   C3B 6829  17.845   0.201  11.927
24346DPPA   C4B 6830  18.095   0.251  12.337
24347DPPA   PO4 6831   5.935   5.219  13.487
24347DPPA   GL1 6832   5.675   4.849  13.617
24347DPPA   GL2 6833   5.695   4.999  13.867
24347DPPA   C1A 6834   5.385   4.709  13.767
24347DPPA   C2A 6835   5.135   4.659  14.107
24347DPPA   C3A 6836   4.785   4.669  14.427
24347DPPA   C4A 6837   4.477   4.589  14.757
24347DPPA   C1B 6838   5.405   5.089  14.047
24347DPPA   C2B 6839   5.135   5.149  14.357
24347DPPA   C3B 6840   4.905   5.089  14.707
24347DPPA   C4B 6841   4.547   5.059  15.047
24348DPPA   PO4 6842  20.565   0.071   9.697
24348DPPA   GL1 6843  20.635   0.131  10.077
24348DPPA   GL2 6844  20.915   0.291   9.977
24348DPPA   C1A 6845  20.565   6.539  10.357
24348DPPA   C2A 6846  20.475   6.139  10.407
24348DPPA   C3A 6847  20.475   5.699  10.257
24348DPPA   C4A 6848  20.645   5.249  10.417
24348DPPA   C1B 6849  20.905   0.301  10.317
24348DPPA   C2B 6850  21.085   0.401  10.687
24348DPPA   C3B 6851   0.037   0.511  11.087
24348DPPA   C4B 6852   0.187   0.691  11.527
24349DPPA   PO4 6853   5.845   0.961  13.497
24349DPPA   GL1 6854   5.765   1.061  13.857
24349DPPA   GL2 6855   5.885   0.731  13.907
24349DPPA   C1A 6856   5.385   1.231  13.977
24349DPPA   C2A 6857   5.015   1.111  14.147
24349DPPA   C3A 6858   4.685   1.041  14.537
24349DPPA   C4A 6859   4.367   0.981  14.907
24349DPPA   C1B 6860   5.765   0.691  14.267
24349DPPA   C2B 6861   5.595   0.701  14.637
24349DPPA   C3B 6862   5.265   0.711  15.047
24349DPPA   C4B 6863   4.905   0.701  15.427
24350DPPA   PO4 6864   5.395   5.929  12.897
24350DPPA   GL1 6865   5.065   6.119  13.137
24350DPPA   GL2 6866   5.085   5.909  13.327
24350DPPA   C1A 6867   4.775   6.239  13.277
24350DPPA   C2A 6868   4.557   6.239  13.637
24350DPPA   C3A 6869   4.247   6.279  13.977
24350DPPA   C4A 6870   3.957   6.379  14.407
24350DPPA   C1B 6871   4.875   5.939  13.637
24350DPPA   C2B 6872   4.647   5.899  13.987
24350DPPA   C3B 6873   4.377   5.889  14.407
24350DPPA   C4B 6874   3.997   5.929  14.717
24351DPPA   PO4 6875   1.517   3.331  10.197
24351DPPA   GL1 6876   1.297   3.481  10.417
24351DPPA   GL2 6877   1.277   3.391  10.677
24351DPPA   C1A 6878   1.467   3.781  10.587
24351DPPA   C2A 6879   1.287   4.149  10.687
24351DPPA   C3A 6880   0.887   4.429  10.817
24351DPPA   C4A 6881   0.587   4.469  11.257
24351DPPA   C1B 6882   1.067   3.591  10.847
24351DPPA   C2B 6883   0.807   3.551  11.127
24351DPPA   C3B 6884   0.427   3.571  11.417
24351DPPA   C4B 6885   0.027   3.751  11.747
24352DPPA   PO4 6886   6.165   2.381  14.367
24352DPPA   GL1 6887   5.895   2.151  14.667
24352DPPA   GL2 6888   5.925   2.361  14.857
24352DPPA   C1A 6889   5.615   1.981  14.837
24352DPPA   C2A 6890   5.395   1.991  15.107
24352DPPA   C3A 6891   5.005   1.991  15.447
24352DPPA   C4A 6892   4.715   2.021  15.827
24352DPPA   C1B 6893   5.645   2.381  15.117
24352DPPA   C2B 6894   5.355   2.491  15.367
24352DPPA   C3B 6895   5.055   2.461  15.707
24352DPPA   C4B 6896   4.745   2.511  16.127
24353DPPA   PO4 6897   5.815   3.571  13.587
24353DPPA   GL1 6898   5.705   3.611  13.947
24353DPPA   GL2 6899   5.645   3.909  14.017
24353DPPA   C1A 6900   5.445   3.551  14.247
24353DPPA   C2A 6901   5.235   3.441  14.597
24353DPPA   C3A 6902   4.885   3.391  15.027
24353DPPA   C4A 6903   4.547   3.291  15.327
24353DPPA   C1B 6904   5.355   3.949  14.227
24353DPPA   C2B 6905   4.945   3.841  14.367
24353DPPA   C3B 6906   4.685   3.811  14.707
24353DPPA   C4B 6907   4.307   3.681  15.017
24354DPPA   PO4 6908   4.237   5.979  11.417
24354DPPA   GL1 6909   4.127   6.089  11.937
24354DPPA   GL2 6910   4.007   6.339  11.737
24354DPPA   C1A 6911   3.817   6.099  12.187
24354DPPA   C2A 6912   3.577   6.159  12.527
24354DPPA   C3A 6913   3.187   6.139  12.857
24354DPPA   C4A 6914   2.887   6.219  13.247
24354DPPA   C1B 6915   3.807   6.539  11.957
24354DPPA   C2B 6916   3.457   6.529  12.177
24354DPPA   C3B 6917   3.137   6.559  12.517
24354DPPA   C4B 6918   2.787   6.599  12.877
24355DPPA   PO4 6919   6.625   1.011  15.077
24355DPPA   GL1 6920   6.395   1.211  15.187
24355DPPA   GL2 6921   6.225   1.341  14.987
24355DPPA   C1A 6922   6.255   1.241  15.467
24355DPPA   C2A 6923   6.185   1.341  15.807
24355DPPA   C3A 6924   5.835   1.321  16.157
24355DPPA   C4A 6925   5.495   1.351  16.497
24355DPPA   C1B 6926   5.905   1.291  15.227
24355DPPA   C2B 6927   5.715   1.281  15.607
24355DPPA   C3B 6928   5.365   1.271  16.007
24355DPPA   C4B 6929   4.995   1.311  16.377
24356DPPA   PO4 6930   7.085   1.191  15.217
24356DPPA   GL1 6931   6.815   1.351  15.457
24356DPPA   GL2 6932   6.675   1.131  15.537
24356DPPA   C1A 6933   6.685   1.461  15.797
24356DPPA   C2A 6934   6.555   1.441  16.197
24356DPPA   C3A 6935   6.235   1.391  16.497
24356DPPA   C4A 6936   5.895   1.361  16.827
24356DPPA   C1B 6937   6.565   0.901  15.837
24356DPPA   C2B 6938   6.285   0.911  16.127
24356DPPA   C3B 6939   5.945   0.951  16.517
24356DPPA   C4B 6940   5.575   1.011  16.857
24357DPPA   PO4 6941   3.807   2.401  10.997
24357DPPA   GL1 6942   3.667   2.081  11.227
24357DPPA   GL2 6943   3.377   2.081  11.197
24357DPPA   C1A 6944   3.597   2.051  11.567
24357DPPA   C2A 6945   3.567   2.171  11.967
24357DPPA   C3A 6946   3.277   2.191  12.397
24357DPPA   C4A 6947   3.017   2.211  12.837
24357DPPA   C1B 6948   3.107   2.071  11.427
24357DPPA   C2B 6949   3.037   2.101  11.837
24357DPPA   C3B 6950   2.747   2.061  12.217
24357DPPA   C4B 6951   2.427   2.061  12.597
24358DPPA   PO4 6952   4.597   0.671  11.317
24358DPPA   GL1 6953   4.227   0.791  11.457
24358DPPA   GL2 6954   4.317   0.711  11.737
24358DPPA   C1A 6955   3.927   0.601  11.617
24358DPPA   C2A 6956   3.647   0.701  11.937
24358DPPA   C3A 6957   3.397   0.851  12.257
24358DPPA   C4A 6958   2.997   0.821  12.587
24358DPPA   C1B 6959   4.097   0.711  12.037
24358DPPA   C2B 6960   3.937   0.821  12.417
24358DPPA   C3B 6961   3.567   0.811  12.717
24358DPPA   C4B 6962   3.277   0.911  12.997
24359DPPA   PO4 6963   5.955   2.431  13.497
24359DPPA   GL1 6964   5.635   2.291  13.737
24359DPPA   GL2 6965   5.615   1.971  13.637
24359DPPA   C1A 6966   5.385   2.411  13.947
24359DPPA   C2A 6967   5.145   2.471  14.297
24359DPPA   C3A 6968   4.755   2.401  14.597
24359DPPA   C4A 6969   4.457   2.291  14.927
24359DPPA   C1B 6970   5.365   1.731  13.817
24359DPPA   C2B 6971   5.025   1.511  13.857
24359DPPA   C3B 6972   4.617   1.431  14.027
24359DPPA   C4B 6973   4.297   1.441  14.447
24360DPPA   PO4 6974   5.055   4.239  12.817
24360DPPA   GL1 6975   4.785   4.189  13.207
24360DPPA   GL2 6976   4.925   3.949  13.217
24360DPPA   C1A 6977   4.667   4.269  13.527
24360DPPA   C2A 6978   4.447   4.149  13.847
24360DPPA   C3A 6979   4.077   4.089  14.167
24360DPPA   C4A 6980   3.817   4.129  14.557
24360DPPA   C1B 6981   4.627   3.721  13.357
24360DPPA   C2B 6982   4.337   3.581  13.667
24360DPPA   C3B 6983   3.967   3.561  13.967
24360DPPA   C4B 6984   3.667   3.661  14.417
24361DPPA   PO4 6985   6.085   4.539  13.767
24361DPPA   GL1 6986   5.715   4.659  14.127
24361DPPA   GL2 6987   5.615   4.419  14.017
24361DPPA   C1A 6988   5.495   4.829  14.397
24361DPPA   C2A 6989   5.225   4.719  14.737
24361DPPA   C3A 6990   4.945   4.709  15.067
24361DPPA   C4A 6991   4.657   4.719  15.437
24361DPPA   C1B 6992   5.425   4.389  14.317
24361DPPA   C2B 6993   5.155   4.239  14.557
24361DPPA   C3B 6994   4.865   4.209  14.917
24361DPPA   C4B 6995   4.547   4.259  15.217
24362DPPA   PO4 6996   2.757   4.099  10.197
24362DPPA   GL1 6997   2.837   4.129  10.657
24362DPPA   GL2 6998   2.777   4.359  10.717
24362DPPA   C1A 6999   2.657   3.851  10.807
24362DPPA   C2A 7000   2.337   3.701  10.967
24362DPPA   C3A 7001   1.967   3.461  11.117
24362DPPA   C4A 7002   1.717   3.271  11.427
24362DPPA   C1B 7003   2.517   4.249  10.937
24362DPPA   C2B 7004   2.207   4.189  11.197
24362DPPA   C3B 7005   1.887   3.881  11.337
24362DPPA   C4B 7006   1.507   3.651  11.067
24363DPPA   PO4 7007  17.325   4.069  10.077
24363DPPA   GL1 7008  17.305   3.979  10.437
24363DPPA   GL2 7009  17.265   3.691  10.437
24363DPPA   C1A 7010  17.495   4.069  10.757
24363DPPA   C2A 7011  17.665   4.219  11.137
24363DPPA   C3A 7012  18.015   4.229  11.427
24363DPPA   C4A 7013  18.285   4.169  11.787
24363DPPA   C1B 7014  17.555   3.681  10.677
24363DPPA   C2B 7015  17.925   3.861  10.757
24363DPPA   C3B 7016  18.305   3.861  11.097
24363DPPA   C4B 7017  18.595   3.821  11.547
24364DPPA   PO4 7018   7.385   0.271  15.157
24364DPPA   GL1 7019   6.985   0.181  15.257
24364DPPA   GL2 7020   6.895   6.569  15.197
24364DPPA   C1A 7021   6.755   0.221  15.517
24364DPPA   C2A 7022   6.445   0.451  15.697
24364DPPA   C3A 7023   6.085   0.461  16.057
24364DPPA   C4A 7024   5.785   0.491  16.387
24364DPPA   C1B 7025   6.625   6.369  15.387
24364DPPA   C2B 7026   6.515   6.229  15.777
24364DPPA   C3B 7027   6.175   6.249  16.157
24364DPPA   C4B 7028   5.805   6.199  16.457
24365DPPA   PO4 7029   5.585   1.721  13.137
24365DPPA   GL1 7030   5.265   1.631  13.357
24365DPPA   GL2 7031   5.165   1.341  13.387
24365DPPA   C1A 7032   4.935   1.751  13.497
24365DPPA   C2A 7033   4.647   1.941  13.757
24365DPPA   C3A 7034   4.277   1.971  14.057
24365DPPA   C4A 7035   3.897   1.881  14.367
24365DPPA   C1B 7036   5.195   1.061  13.627
24365DPPA   C2B 7037   5.355   0.811  13.937
24365DPPA   C3B 7038   5.225   0.601  14.327
24365DPPA   C4B 7039   4.865   0.551  14.687
24366DPPA   PO4 7040   3.567   0.151  18.247
24366DPPA   GL1 7041   3.857   0.131  17.957
24366DPPA   GL2 7042   4.007   0.371  17.887
24366DPPA   C1A 7043   3.977   6.539  17.697
24366DPPA   C2A 7044   4.207   6.309  17.407
24366DPPA   C3A 7045   4.557   6.209  17.087
24366DPPA   C4A 7046   4.895   6.159  16.737
24366DPPA   C1B 7047   4.167   0.641  17.617
24366DPPA   C2B 7048   4.457   0.871  17.507
24366DPPA   C3B 7049   4.675   0.871  17.097
24366DPPA   C4B 7050   5.055   0.921  16.697
36250DPPC   NC3 7051   9.115   1.111  21.637
36250DPPC   PO4 7052   8.845   1.391  21.577
36250DPPC   GL1 7053   8.515   1.041  21.547
36250DPPC   GL2 7054   8.715   0.821  21.507
36250DPPC   C1A 7055   8.305   1.191  21.307
36250DPPC   C2A 7056   8.165   1.321  20.967
36250DPPC   C3A 7057   7.855   1.291  20.607
36250DPPC   C4A 7058   7.685   1.031  20.237
36250DPPC   C1B 7059   8.915   0.871  21.197
36250DPPC   C2B 7060   9.155   1.011  20.877
36250DPPC   C3B 7061   9.475   0.981  20.507
36250DPPC   C4B 7062   9.715   1.091  20.007
36251DPPC   NC3 7063  10.125   3.381  22.147
36251DPPC   PO4 7064   9.765   3.261  22.307
36251DPPC   GL1 7065   9.785   3.141  21.857
36251DPPC   GL2 7066   9.775   3.451  21.787
36251DPPC   C1A 7067   9.805   3.051  21.497
36251DPPC   C2A 7068   9.925   2.921  21.157
36251DPPC   C3A 7069  10.185   2.831  20.737
36251DPPC   C4A 7070  10.395   2.791  20.277
36251DPPC   C1B 7071   9.815   3.561  21.457
36251DPPC   C2B 7072   9.855   3.741  21.087
36251DPPC   C3B 7073  10.115   3.741  20.717
36251DPPC   C4B 7074  10.315   3.731  20.257
36252DPPC   NC3 7075  14.665   5.139  20.937
36252DPPC   PO4 7076  14.315   5.059  21.127
36252DPPC   GL1 7077  14.135   4.919  20.807
36252DPPC   GL2 7078  13.905   4.819  20.977
36252DPPC   C1A 7079  13.985   4.799  20.477
36252DPPC   C2A 7080  13.665   4.749  20.247
36252DPPC   C3A 7081  13.325   4.669  19.917
36252DPPC   C4A 7082  12.955   4.639  19.627
36252DPPC   C1B 7083  13.655   4.579  20.877
36252DPPC   C2B 7084  13.315   4.609  20.627
36252DPPC   C3B 7085  12.995   4.659  20.277
36252DPPC   C4B 7086  12.635   4.639  19.997
36253DPPC   NC3 7087   3.417   6.079  18.247
36253DPPC   PO4 7088   3.717   6.299  18.367
36253DPPC   GL1 7089   4.127   6.539  18.177
36253DPPC   GL2 7090   4.207   6.299  18.137
36253DPPC   C1A 7091   4.317   0.131  18.017
36253DPPC   C2A 7092   4.487   0.071  17.617
36253DPPC   C3A 7093   4.755   0.031  17.217
36253DPPC   C4A 7094   5.125   0.081  16.917
36253DPPC   C1B 7095   4.487   6.289  17.917
36253DPPC   C2B 7096   4.785   6.269  17.557
36253DPPC   C3B 7097   5.115   6.259  17.187
36253DPPC   C4B 7098   5.435   6.129  16.827
36254DPPC   NC3 7099  11.225   3.521  22.327
36254DPPC   PO4 7100  10.895   3.711  22.457
36254DPPC   GL1 7101  10.675   3.711  22.147
36254DPPC   GL2 7102  10.845   3.949  21.987
36254DPPC   C1A 7103  10.585   3.411  21.887
36254DPPC   C2A 7104  10.705   3.391  21.487
36254DPPC   C3A 7105  11.135   3.231  21.437
36254DPPC   C4A 7106  11.635   3.021  21.237
36254DPPC   C1B 7107  10.635   3.909  21.657
36254DPPC   C2B 7108  10.415   3.841  21.277
36254DPPC   C3B 7109  10.685   3.691  20.907
36254DPPC   C4B 7110  10.875   3.391  20.577
36255DPPC   NC3 7111   4.795   4.499  19.927
36255DPPC   PO4 7112   5.155   4.439  20.077
36255DPPC   GL1 7113   5.485   4.439  19.837
36255DPPC   GL2 7114   5.735   4.369  20.027
36255DPPC   C1A 7115   5.485   4.329  19.487
36255DPPC   C2A 7116   5.625   4.279  19.137
36255DPPC   C3A 7117   5.925   4.159  18.777
36255DPPC   C4A 7118   6.245   4.119  18.347
36255DPPC   C1B 7119   6.115   4.389  19.987
36255DPPC   C2B 7120   6.395   4.289  19.677
36255DPPC   C3B 7121   6.705   4.239  19.327
36255DPPC   C4B 7122   7.045   4.209  18.967
36256DPPC   NC3 7123   7.715   0.081  22.127
36256DPPC   PO4 7124   7.455   0.111  21.827
36256DPPC   GL1 7125   7.685   0.211  21.497
36256DPPC   GL2 7126   7.695   6.569  21.377
36256DPPC   C1A 7127   7.505   0.441  21.227
36256DPPC   C2A 7128   7.205   0.511  20.937
36256DPPC   C3A 7129   6.975   0.601  20.527
36256DPPC   C4A 7130   7.185   0.821  20.097
36256DPPC   C1B 7131   7.555   6.519  21.067
36256DPPC   C2B 7132   7.355   0.041  20.717
36256DPPC   C3B 7133   7.155   0.161  20.307
36256DPPC   C4B 7134   6.835   0.361  20.047
36257DPPC   NC3 7135  11.945   6.009  22.247
36257DPPC   PO4 7136  11.945   6.359  22.237
36257DPPC   GL1 7137  11.835   6.389  21.887
36257DPPC   GL2 7138  11.735   6.119  21.867
36257DPPC   C1A 7139  11.865   6.569  21.577
36257DPPC   C2A 7140  11.825   0.301  21.367
36257DPPC   C3A 7141  12.005   0.771  21.147
36257DPPC   C4A 7142  12.155   1.271  21.047
36257DPPC   C1B 7143  11.785   6.129  21.557
36257DPPC   C2B 7144  12.045   6.149  21.237
36257DPPC   C3B 7145  12.475   6.179  20.997
36257DPPC   C4B 7146  12.915   6.269  20.727
36258DPPC   NC3 7147   4.855   2.811  20.067
36258DPPC   PO4 7148   4.985   3.151  20.157
36258DPPC   GL1 7149   5.235   3.381  19.877
36258DPPC   GL2 7150   4.995   3.411  19.727
36258DPPC   C1A 7151   5.435   3.441  19.597
36258DPPC   C2A 7152   5.555   3.411  19.257
36258DPPC   C3A 7153   5.925   3.331  18.907
36258DPPC   C4A 7154   6.265   3.231  18.547
36258DPPC   C1B 7155   5.125   3.191  19.447
36258DPPC   C2B 7156   5.285   2.901  19.157
36258DPPC   C3B 7157   5.605   2.841  18.787
36258DPPC   C4B 7158   5.955   2.851  18.467
36259DPPC   NC3 7159   9.585   0.511  22.347
36259DPPC   PO4 7160   9.945   0.311  22.387
36259DPPC   GL1 7161   9.805   6.589  22.087
36259DPPC   GL2 7162   9.645   0.091  22.027
36259DPPC   C1A 7163   9.835   6.489  21.697
36259DPPC   C2A 7164   9.945   6.399  21.317
36259DPPC   C3A 7165  10.185   6.359  20.927
36259DPPC   C4A 7166  10.535   6.419  20.587
36259DPPC   C1B 7167   9.555   0.271  21.727
36259DPPC   C2B 7168   9.505   0.201  21.357
36259DPPC   C3B 7169   9.735   0.131  20.947
36259DPPC   C4B 7170  10.055   0.071  20.537
36260DPPC   NC3 7171  12.385   5.409  21.827
36260DPPC   PO4 7172  12.005   5.469  22.007
36260DPPC   GL1 7173  11.945   5.749  21.767
36260DPPC   GL2 7174  11.755   5.689  21.617
36260DPPC   C1A 7175  12.255   5.779  21.627
36260DPPC   C2A 7176  12.545   6.049  21.477
36260DPPC   C3A 7177  12.895   6.239  21.247
36260DPPC   C4A 7178  13.295   6.409  21.007
36260DPPC   C1B 7179  11.395   5.839  21.627
36260DPPC   C2B 7180  11.285   6.219  21.597
36260DPPC   C3B 7181  11.355   0.111  21.727
36260DPPC   C4B 7182  11.785   0.331  21.887
36261DPPC   NC3 7183  10.875   0.441  22.537
36261DPPC   PO4 7184  10.745   0.241  22.207
36261DPPC   GL1 7185  10.825   0.031  21.837
36261DPPC   GL2 7186  11.045   6.489  21.967
36261DPPC   C1A 7187  10.765   6.549  21.527
36261DPPC   C2A 7188  10.555   0.011  21.197
36261DPPC   C3A 7189  10.375   0.241  20.877
36261DPPC   C4A 7190  10.235   0.551  20.497
36261DPPC   C1B 7191  11.005   6.119  22.017
36261DPPC   C2B 7192  11.035   5.739  21.917
36261DPPC   C3B 7193  11.365   5.389  21.767
36261DPPC   C4B 7194  11.435   4.929  21.677
36262DPPC   NC3 7195  10.855   1.161  22.767
36262DPPC   PO4 7196  10.695   0.901  22.567
36262DPPC   GL1 7197  10.765   0.961  22.127
36262DPPC   GL2 7198  10.915   0.671  22.127
36262DPPC   C1A 7199  10.575   0.891  21.837
36262DPPC   C2A 7200  10.225   0.831  21.597
36262DPPC   C3A 7201   9.805   0.961  21.647
36262DPPC   C4A 7202   9.475   1.051  21.247
36262DPPC   C1B 7203  10.995   0.651  21.767
36262DPPC   C2B 7204  10.805   0.961  21.447
36262DPPC   C3B 7205  10.865   1.071  20.987
36262DPPC   C4B 7206  11.245   1.101  20.607
36263DPPC   NC3 7207   5.885   2.091  21.687
36263DPPC   PO4 7208   5.775   1.921  21.347
36263DPPC   GL1 7209   6.065   2.091  20.997
36263DPPC   GL2 7210   6.055   1.811  20.897
36263DPPC   C1A 7211   6.385   2.171  20.857
36263DPPC   C2A 7212   6.725   2.391  20.987
36263DPPC   C3A 7213   7.155   2.551  21.147
36263DPPC   C4A 7214   7.515   2.311  21.347
36263DPPC   C1B 7215   5.965   1.641  20.547
36263DPPC   C2B 7216   6.255   1.621  20.247
36263DPPC   C3B 7217   6.575   1.661  19.917
36263DPPC   C4B 7218   6.895   1.751  19.567
36264DPPC   NC3 7219   5.505   0.511  20.287
36264DPPC   PO4 7220   5.225   0.431  19.987
36264DPPC   GL1 7221   5.335   0.141  19.707
36264DPPC   GL2 7222   5.075   0.231  19.557
36264DPPC   C1A 7223   5.525   0.191  19.397
36264DPPC   C2A 7224   5.765   0.241  19.067
36264DPPC   C3A 7225   6.095   0.181  18.697
36264DPPC   C4A 7226   6.425   0.191  18.287
36264DPPC   C1B 7227   5.115   0.321  19.207
36264DPPC   C2B 7228   5.275   0.251  18.847
36264DPPC   C3B 7229   5.615   0.241  18.487
36264DPPC   C4B 7230   5.945   0.121  18.257
36265DPPC   NC3 7231   7.735   4.929  21.757
36265DPPC   PO4 7232   8.015   4.689  21.637
36265DPPC   GL1 7233   8.125   4.729  21.247
36265DPPC   GL2 7234   7.925   4.539  21.167
36265DPPC   C1A 7235   8.245   4.999  21.017
36265DPPC   C2A 7236   8.025   5.199  20.737
36265DPPC   C3A 7237   7.715   5.299  20.337
36265DPPC   C4A 7238   7.515   5.609  20.027
36265DPPC   C1B 7239   7.745   4.299  21.047
36265DPPC   C2B 7240   7.715   3.909  20.887
36265DPPC   C3B 7241   7.765   3.541  20.587
36265DPPC   C4B 7242   7.595   3.081  20.477
36266DPPC   NC3 7243  13.355   5.679  22.057
36266DPPC   PO4 7244  12.985   5.609  22.117
36266DPPC   GL1 7245  12.785   5.749  21.767
36266DPPC   GL2 7246  13.015   5.839  21.597
36266DPPC   C1A 7247  12.625   5.559  21.427
36266DPPC   C2A 7248  12.355   5.709  21.177
36266DPPC   C3A 7249  12.105   5.729  20.827
36266DPPC   C4A 7250  12.095   6.099  20.527
36266DPPC   C1B 7251  13.045   5.749  21.227
36266DPPC   C2B 7252  12.845   5.789  20.917
36266DPPC   C3B 7253  12.555   5.949  20.557
36266DPPC   C4B 7254  12.465   6.329  20.257
36267DPPC   NC3 7255  13.365   6.039  21.427
36267DPPC   PO4 7256  13.305   6.259  21.767
36267DPPC   GL1 7257  12.985   6.519  21.667
36267DPPC   GL2 7258  13.095   0.051  21.397
36267DPPC   C1A 7259  12.625   6.519  21.487
36267DPPC   C2A 7260  12.225   0.011  21.287
36267DPPC   C3A 7261  11.865   6.579  20.917
36267DPPC   C4A 7262  11.715   0.101  20.457
36267DPPC   C1B 7263  12.855   0.061  21.097
36267DPPC   C2B 7264  12.575   0.011  20.827
36267DPPC   C3B 7265  12.215   0.061  20.517
36267DPPC   C4B 7266  12.005   0.101  20.067
36268DPPC   NC3 7267   6.945   4.629  21.737
36268DPPC   PO4 7268   7.225   4.909  21.747
36268DPPC   GL1 7269   7.465   4.959  21.417
36268DPPC   GL2 7270   7.635   5.149  21.367
36268DPPC   C1A 7271   7.475   4.639  21.247
36268DPPC   C2A 7272   7.305   4.409  20.977
36268DPPC   C3A 7273   7.185   4.019  20.787
36268DPPC   C4A 7274   7.275   3.621  20.567
36268DPPC   C1B 7275   7.785   4.919  21.087
36268DPPC   C2B 7276   7.735   4.649  20.767
36268DPPC   C3B 7277   7.655   4.229  20.507
36268DPPC   C4B 7278   7.715   3.861  20.147
36269DPPC   NC3 7279   6.975   0.021  21.807
36269DPPC   PO4 7280   6.665   6.429  21.627
36269DPPC   GL1 7281   6.705   0.161  21.317
36269DPPC   GL2 7282   6.645   6.529  21.087
36269DPPC   C1A 7283   6.835   0.461  21.227
36269DPPC   C2A 7284   6.845   0.861  21.097
36269DPPC   C3A 7285   6.795   1.161  20.727
36269DPPC   C4A 7286   6.795   1.581  20.477
36269DPPC   C1B 7287   6.815   6.199  21.057
36269DPPC   C2B 7288   6.865   5.789  20.967
36269DPPC   C3B 7289   7.135   5.469  20.797
36269DPPC   C4B 7290   7.465   5.089  20.877
36270DPPC   NC3 7291   4.047   3.101  18.907
36270DPPC   PO4 7292   4.057   2.701  18.827
36270DPPC   GL1 7293   4.417   2.571  18.537
36270DPPC   GL2 7294   4.577   2.661  18.777
36270DPPC   C1A 7295   4.607   2.521  18.217
36270DPPC   C2A 7296   4.795   2.351  17.867
36270DPPC   C3A 7297   5.185   2.331  17.557
36270DPPC   C4A 7298   5.515   2.231  17.177
36270DPPC   C1B 7299   4.795   2.381  18.797
36270DPPC   C2B 7300   5.075   2.381  18.437
36270DPPC   C3B 7301   5.425   2.361  18.107
36270DPPC   C4B 7302   5.715   2.351  17.727
36271DPPC   NC3 7303   8.415   5.189  22.267
36271DPPC   PO4 7304   8.625   5.009  21.967
36271DPPC   GL1 7305   8.655   5.229  21.697
36271DPPC   GL2 7306   8.945   5.319  21.737
36271DPPC   C1A 7307   8.745   5.289  21.337
36271DPPC   C2A 7308   8.935   5.319  20.987
36271DPPC   C3A 7309   9.195   5.379  20.607
36271DPPC   C4A 7310   9.555   5.389  20.297
36271DPPC   C1B 7311   9.145   5.469  21.417
36271DPPC   C2B 7312   9.195   5.779  21.117
36271DPPC   C3B 7313   9.405   5.849  20.677
36271DPPC   C4B 7314   9.725   5.849  20.297
36272DPPC   NC3 7315  10.865   2.381  22.307
36272DPPC   PO4 7316  11.045   2.721  22.397
36272DPPC   GL1 7317  11.025   2.961  22.047
36272DPPC   GL2 7318  10.935   3.201  22.167
36272DPPC   C1A 7319  11.075   2.781  21.697
36272DPPC   C2A 7320  11.235   2.681  21.317
36272DPPC   C3A 7321  11.245   2.801  20.857
36272DPPC   C4A 7322  11.235   3.011  20.457
36272DPPC   C1B 7323  10.995   3.521  21.937
36272DPPC   C2B 7324  11.085   3.731  21.607
36272DPPC   C3B 7325  10.985   3.969  21.217
36272DPPC   C4B 7326  10.875   4.249  20.807
36273DPPC   NC3 7327   6.315   0.541  21.227
36273DPPC   PO4 7328   5.945   0.551  21.027
36273DPPC   GL1 7329   6.285   0.641  20.787
36273DPPC   GL2 7330   6.215   0.881  20.697
36273DPPC   C1A 7331   6.645   0.521  20.827
36273DPPC   C2A 7332   6.895   0.141  20.727
36273DPPC   C3A 7333   7.045   6.279  20.597
36273DPPC   C4A 7334   7.335   5.999  20.877
36273DPPC   C1B 7335   6.075   0.841  20.357
36273DPPC   C2B 7336   6.095   0.751  19.987
36273DPPC   C3B 7337   6.335   0.731  19.557
36273DPPC   C4B 7338   6.685   0.591  19.197
36274DPPC   NC3 7339   5.105   2.101  19.857
36274DPPC   PO4 7340   4.785   2.031  19.647
36274DPPC   GL1 7341   4.935   2.101  19.177
36274DPPC   GL2 7342   5.155   2.261  19.347
36274DPPC   C1A 7343   5.155   2.011  18.857
36274DPPC   C2A 7344   5.425   2.011  18.517
36274DPPC   C3A 7345   5.725   1.961  18.147
36274DPPC   C4A 7346   6.055   2.001  17.767
36274DPPC   C1B 7347   5.445   2.021  19.237
36274DPPC   C2B 7348   5.735   2.061  18.887
36274DPPC   C3B 7349   6.045   1.941  18.527
36274DPPC   C4B 7350   6.335   1.951  18.177
36275DPPC   NC3 7351   4.587   3.821  19.537
36275DPPC   PO4 7352   4.507   4.199  19.587
36275DPPC   GL1 7353   4.865   4.179  19.347
36275DPPC   GL2 7354   5.035   4.359  19.517
36275DPPC   C1A 7355   5.115   4.199  19.037
36275DPPC   C2A 7356   5.435   4.179  18.697
36275DPPC   C3A 7357   5.705   4.109  18.257
36275DPPC   C4A 7358   6.065   4.119  17.887
36275DPPC   C1B 7359   5.145   4.679  19.297
36275DPPC   C2B 7360   5.395   4.709  18.967
36275DPPC   C3B 7361   5.665   4.619  18.567
36275DPPC   C4B 7362   5.975   4.529  18.237
36276DPPC   NC3 7363  13.145   0.701  22.387
36276DPPC   PO4 7364  13.315   0.971  22.197
36276DPPC   GL1 7365  13.055   0.801  21.807
36276DPPC   GL2 7366  13.065   1.031  21.677
36276DPPC   C1A 7367  12.765   0.561  21.587
36276DPPC   C2A 7368  12.505   0.461  21.297
36276DPPC   C3A 7369  12.195   0.351  20.917
36276DPPC   C4A 7370  11.695   0.401  20.887
36276DPPC   C1B 7371  12.965   1.001  21.337
36276DPPC   C2B 7372  12.895   1.041  20.897
36276DPPC   C3B 7373  12.725   1.071  20.437
36276DPPC   C4B 7374  12.465   1.011  20.037
36277DPPC   NC3 7375  13.835   3.231  21.847
36277DPPC   PO4 7376  14.085   3.501  21.737
36277DPPC   GL1 7377  13.915   3.761  21.477
36277DPPC   GL2 7378  13.705   3.511  21.447
36277DPPC   C1A 7379  13.775   3.851  21.107
36277DPPC   C2A 7380  13.625   3.831  20.727
36277DPPC   C3A 7381  13.315   3.771  20.427
36277DPPC   C4A 7382  12.985   3.741  20.107
36277DPPC   C1B 7383  13.515   3.551  21.207
36277DPPC   C2B 7384  13.195   3.641  20.977
36277DPPC   C3B 7385  12.855   3.611  20.717
36277DPPC   C4B 7386  12.575   3.721  20.337
36278DPPC   NC3 7387  12.825   2.741  22.457
36278DPPC   PO4 7388  13.035   2.731  22.087
36278DPPC   GL1 7389  13.005   2.701  21.647
36278DPPC   GL2 7390  13.185   2.831  21.557
36278DPPC   C1A 7391  12.865   2.591  21.297
36278DPPC   C2A 7392  12.605   2.701  21.017
36278DPPC   C3A 7393  12.395   2.791  20.607
36278DPPC   C4A 7394  12.105   2.691  20.237
36278DPPC   C1B 7395  12.905   3.021  21.337
36278DPPC   C2B 7396  12.705   3.211  21.007
36278DPPC   C3B 7397  12.475   3.321  20.587
36278DPPC   C4B 7398  12.255   3.191  20.147
36279DPPC   NC3 7399   5.135   1.671  20.667
36279DPPC   PO4 7400   5.395   1.971  20.537
36279DPPC   GL1 7401   5.785   2.001  20.407
36279DPPC   GL2 7402   5.895   2.171  20.647
36279DPPC   C1A 7403   6.055   2.091  20.157
36279DPPC   C2A 7404   6.295   2.011  19.847
36279DPPC   C3A 7405   6.515   2.071  19.417
36279DPPC   C4A 7406   6.935   2.071  19.117
36279DPPC   C1B 7407   6.195   2.371  20.447
36279DPPC   C2B 7408   6.575   2.551  20.367
36279DPPC   C3B 7409   7.005   2.591  20.107
36279DPPC   C4B 7410   7.285   2.581  19.707
36280DPPC   NC3 7411   5.765   4.269  20.517
36280DPPC   PO4 7412   5.605   4.089  20.797
36280DPPC   GL1 7413   5.925   3.811  20.727
36280DPPC   GL2 7414   5.725   3.801  20.477
36280DPPC   C1A 7415   6.205   3.721  20.607
36280DPPC   C2A 7416   6.425   3.771  20.287
36280DPPC   C3A 7417   6.685   3.831  19.917
36280DPPC   C4A 7418   7.025   3.881  19.547
36280DPPC   C1B 7419   5.895   3.891  20.197
36280DPPC   C2B 7420   6.115   3.851  19.897
36280DPPC   C3B 7421   6.375   3.821  19.517
36280DPPC   C4B 7422   6.725   3.771  19.167
36281DPPC   NC3 7423   9.525   4.119  22.267
36281DPPC   PO4 7424   9.855   4.309  22.317
36281DPPC   GL1 7425  10.025   4.239  21.957
36281DPPC   GL2 7426   9.815   4.099  21.807
36281DPPC   C1A 7427  10.245   4.319  21.737
36281DPPC   C2A 7428  10.525   4.349  21.397
36281DPPC   C3A 7429  10.555   4.579  21.017
36281DPPC   C4A 7430  10.665   4.989  20.827
36281DPPC   C1B 7431   9.895   4.099  21.457
36281DPPC   C2B 7432  10.015   4.299  21.137
36281DPPC   C3B 7433  10.355   4.209  20.727
36281DPPC   C4B 7434  10.495   4.229  20.297
36282DPPC   NC3 7435   9.295   2.811  22.077
36282DPPC   PO4 7436   9.135   2.451  22.047
36282DPPC   GL1 7437   8.985   2.421  21.627
36282DPPC   GL2 7438   9.315   2.571  21.597
36282DPPC   C1A 7439   8.795   2.171  21.407
36282DPPC   C2A 7440   8.405   2.051  21.337
36282DPPC   C3A 7441   8.065   1.751  21.327
36282DPPC   C4A 7442   7.865   1.371  21.507
36282DPPC   C1B 7443   9.555   2.561  21.317
36282DPPC   C2B 7444   9.815   2.391  21.027
36282DPPC   C3B 7445   9.995   2.351  20.587
36282DPPC   C4B 7446  10.255   2.351  20.127
36283DPPC   NC3 7447   4.895   0.961  20.257
36283DPPC   PO4 7448   5.255   1.001  20.377
36283DPPC   GL1 7449   5.545   0.951  20.157
36283DPPC   GL2 7450   5.535   0.831  19.907
36283DPPC   C1A 7451   5.845   1.111  19.997
36283DPPC   C2A 7452   6.225   1.211  19.887
36283DPPC   C3A 7453   6.665   1.251  19.597
36283DPPC   C4A 7454   6.975   1.141  19.287
36283DPPC   C1B 7455   5.705   0.521  19.817
36283DPPC   C2B 7456   6.025   0.351  19.567
36283DPPC   C3B 7457   6.305   0.291  19.187
36283DPPC   C4B 7458   6.615   0.261  18.757
36284DPPC   NC3 7459   5.465   5.979  20.007
36284DPPC   PO4 7460   5.585   6.219  20.297
36284DPPC   GL1 7461   5.995   6.419  20.217
36284DPPC   GL2 7462   5.965   6.469  20.497
36284DPPC   C1A 7463   6.165   6.459  19.967
36284DPPC   C2A 7464   6.405   6.439  19.627
36284DPPC   C3A 7465   6.675   6.409  19.247
36284DPPC   C4A 7466   7.055   6.429  18.857
36284DPPC   C1B 7467   6.265   0.141  20.417
36284DPPC   C2B 7468   6.455   0.531  20.367
36284DPPC   C3B 7469   6.625   0.771  20.007
36284DPPC   C4B 7470   6.955   0.711  19.647
36285DPPC   NC3 7471  12.885   6.509  22.277
36285DPPC   PO4 7472  13.015   0.241  22.447
36285DPPC   GL1 7473  12.735   0.531  22.367
36285DPPC   GL2 7474  12.545   0.331  22.197
36285DPPC   C1A 7475  12.685   0.711  22.047
36285DPPC   C2A 7476  12.575   0.931  21.667
36285DPPC   C3A 7477  12.455   0.931  21.217
36285DPPC   C4A 7478  12.395   0.951  20.777
36285DPPC   C1B 7479  12.355   0.421  21.897
36285DPPC   C2B 7480  12.115   0.621  21.607
36285DPPC   C3B 7481  12.065   1.081  21.517
36285DPPC   C4B 7482  11.835   1.521  21.327
36286DPPC   NC3 7483   9.215   1.971  21.927
36286DPPC   PO4 7484   9.145   1.581  21.907
36286DPPC   GL1 7485   9.315   1.601  21.547
36286DPPC   GL2 7486   9.605   1.761  21.627
36286DPPC   C1A 7487   9.385   1.561  21.167
36286DPPC   C2A 7488   9.495   1.431  20.777
36286DPPC   C3A 7489   9.775   1.431  20.407
36286DPPC   C4A 7490   9.885   1.551  19.917
36286DPPC   C1B 7491   9.865   1.641  21.437
36286DPPC   C2B 7492  10.065   1.301  21.377
36286DPPC   C3B 7493  10.355   1.091  21.007
36286DPPC   C4B 7494  10.515   1.001  20.587
36287DPPC   NC3 7495   8.515   2.901  21.957
36287DPPC   PO4 7496   8.875   2.831  21.837
36287DPPC   GL1 7497   9.075   2.891  21.447
36287DPPC   GL2 7498   8.865   2.711  21.377
36287DPPC   C1A 7499   9.335   2.911  21.167
36287DPPC   C2A 7500   9.605   2.831  20.827
36287DPPC   C3A 7501   9.815   2.781  20.367
36287DPPC   C4A 7502   9.915   2.881  19.957
36287DPPC   C1B 7503   9.105   2.571  21.177
36287DPPC   C2B 7504   9.275   2.361  20.897
36287DPPC   C3B 7505   9.505   2.291  20.487
36287DPPC   C4B 7506   9.765   2.371  20.087
36288DPPC   NC3 7507  10.975   4.849  22.477
36288DPPC   PO4 7508  11.245   4.539  22.517
36288DPPC   GL1 7509  11.185   4.429  22.097
36288DPPC   GL2 7510  11.145   4.719  22.067
36288DPPC   C1A 7511  11.345   4.199  21.847
36288DPPC   C2A 7512  11.535   4.039  21.537
36288DPPC   C3A 7513  11.945   4.319  21.277
36288DPPC   C4A 7514  12.395   4.519  21.137
36288DPPC   C1B 7515  10.975   4.819  21.717
36288DPPC   C2B 7516  10.665   4.819  21.457
36288DPPC   C3B 7517  10.185   4.739  21.377
36288DPPC   C4B 7518   9.845   4.579  21.617
36289DPPC   NC3 7519   5.605   5.279  20.467
36289DPPC   PO4 7520   5.605   5.649  20.327
36289DPPC   GL1 7521   5.855   5.699  20.097
36289DPPC   GL2 7522   5.925   6.009  20.047
36289DPPC   C1A 7523   6.165   5.679  19.897
36289DPPC   C2A 7524   6.485   5.609  19.717
36289DPPC   C3A 7525   6.785   5.539  19.357
36289DPPC   C4A 7526   7.065   5.599  18.987
36289DPPC   C1B 7527   6.075   6.059  19.697
36289DPPC   C2B 7528   6.365   5.969  19.377
36289DPPC   C3B 7529   6.665   5.929  18.987
36289DPPC   C4B 7530   6.955   5.949  18.597
36290DPPC   NC3 7531   4.177   5.659  19.537
36290DPPC   PO4 7532   4.147   5.389  19.207
36290DPPC   GL1 7533   4.447   5.079  19.097
36290DPPC   GL2 7534   4.705   5.139  19.217
36290DPPC   C1A 7535   4.577   5.009  18.757
36290DPPC   C2A 7536   4.845   4.999  18.437
36290DPPC   C3A 7537   5.055   4.989  18.037
36290DPPC   C4A 7538   5.275   4.939  17.607
36290DPPC   C1B 7539   4.875   5.329  18.977
36290DPPC   C2B 7540   4.875   5.469  18.587
36290DPPC   C3B 7541   5.055   5.539  18.177
36290DPPC   C4B 7542   5.325   5.409  17.817
36291DPPC   NC3 7543   4.975   5.409  19.817
36291DPPC   PO4 7544   5.255   5.379  20.117
36291DPPC   GL1 7545   5.425   5.549  19.867
36291DPPC   GL2 7546   5.415   5.339  19.657
36291DPPC   C1A 7547   5.735   5.709  19.707
36291DPPC   C2A 7548   6.025   5.579  19.447
36291DPPC   C3A 7549   6.335   5.559  19.087
36291DPPC   C4A 7550   6.615   5.499  18.737
36291DPPC   C1B 7551   5.745   5.229  19.517
36291DPPC   C2B 7552   5.975   5.119  19.237
36291DPPC   C3B 7553   6.275   5.119  18.837
36291DPPC   C4B 7554   6.575   4.999  18.477
36292DPPC   NC3 7555   5.115   2.341  20.667
36292DPPC   PO4 7556   5.165   2.401  20.267
36292DPPC   GL1 7557   5.525   2.261  20.127
36292DPPC   GL2 7558   5.505   1.991  20.097
36292DPPC   C1A 7559   5.765   2.471  19.947
36292DPPC   C2A 7560   6.025   2.491  19.657
36292DPPC   C3A 7561   6.285   2.551  19.337
36292DPPC   C4A 7562   6.595   2.461  18.967
36292DPPC   C1B 7563   5.715   2.041  19.787
36292DPPC   C2B 7564   5.895   2.061  19.397
36292DPPC   C3B 7565   6.215   2.071  18.987
36292DPPC   C4B 7566   6.595   2.021  18.627
36293DPPC   NC3 7567  10.505   3.311  22.817
36293DPPC   PO4 7568  10.605   3.301  22.447
36293DPPC   GL1 7569  10.555   3.021  22.107
36293DPPC   GL2 7570  10.635   2.781  22.197
36293DPPC   C1A 7571  10.545   2.991  21.707
36293DPPC   C2A 7572  10.405   2.961  21.317
36293DPPC   C3A 7573  10.755   3.221  20.997
36293DPPC   C4A 7574  11.245   3.311  20.927
36293DPPC   C1B 7575  10.735   2.551  21.877
36293DPPC   C2B 7576  10.715   2.351  21.467
36293DPPC   C3B 7577  10.755   2.231  21.017
36293DPPC   C4B 7578  11.025   1.911  20.777
36294DPPC   NC3 7579   7.945   5.419  22.017
36294DPPC   PO4 7580   8.205   5.299  21.787
36294DPPC   GL1 7581   8.055   5.289  21.307
36294DPPC   GL2 7582   8.315   5.379  21.217
36294DPPC   C1A 7583   7.845   5.459  21.057
36294DPPC   C2A 7584   7.595   5.599  20.697
36294DPPC   C3A 7585   7.175   5.769  20.407
36294DPPC   C4A 7586   6.685   5.939  20.577
36294DPPC   C1B 7587   8.435   5.389  20.857
36294DPPC   C2B 7588   8.715   5.319  20.517
36294DPPC   C3B 7589   8.965   5.319  20.187
36294DPPC   C4B 7590   9.275   5.399  19.847
36295DPPC   NC3 7591   5.885   2.951  21.637
36295DPPC   PO4 7592   6.305   2.961  21.577
36295DPPC   GL1 7593   6.515   2.931  21.147
36295DPPC   GL2 7594   6.625   3.201  21.247
36295DPPC   C1A 7595   6.785   2.841  20.877
36295DPPC   C2A 7596   7.045   2.621  20.627
36295DPPC   C3A 7597   7.225   2.231  20.357
36295DPPC   C4A 7598   7.455   2.051  19.997
36295DPPC   C1B 7599   6.705   3.301  20.927
36295DPPC   C2B 7600   6.735   3.371  20.517
36295DPPC   C3B 7601   6.905   3.401  20.057
36295DPPC   C4B 7602   7.245   3.411  19.657
36296DPPC   NC3 7603   9.655   4.929  22.067
36296DPPC   PO4 7604   9.545   5.249  22.217
36296DPPC   GL1 7605   9.335   5.159  21.827
36296DPPC   GL2 7606   9.395   5.429  21.777
36296DPPC   C1A 7607   9.595   5.039  21.597
36296DPPC   C2A 7608   9.925   5.149  21.367
36296DPPC   C3A 7609  10.195   5.049  20.967
36296DPPC   C4A 7610  10.325   5.089  20.487
36296DPPC   C1B 7611   9.505   5.659  21.497
36296DPPC   C2B 7612   9.705   5.919  21.347
36296DPPC   C3B 7613   9.995   5.909  20.937
36296DPPC   C4B 7614  10.405   5.969  20.777
36297DPPC   NC3 7615   9.365   4.919  22.537
36297DPPC   PO4 7616   9.375   4.579  22.287
36297DPPC   GL1 7617   9.565   4.469  21.927
36297DPPC   GL2 7618   9.315   4.619  21.847
36297DPPC   C1A 7619   9.465   4.249  21.647
36297DPPC   C2A 7620   9.515   4.149  21.247
36297DPPC   C3A 7621   9.695   4.159  20.807
36297DPPC   C4A 7622   9.945   4.159  20.357
36297DPPC   C1B 7623   9.405   4.679  21.477
36297DPPC   C2B 7624   9.675   4.679  21.157
36297DPPC   C3B 7625  10.005   4.609  20.787
36297DPPC   C4B 7626  10.225   4.599  20.397
36298DPPC   NC3 7627   3.977   6.369  18.957
36298DPPC   PO4 7628   4.377   6.339  19.067
36298DPPC   GL1 7629   4.637   6.209  18.867
36298DPPC   GL2 7630   4.805   6.069  19.147
36298DPPC   C1A 7631   4.925   6.129  18.637
36298DPPC   C2A 7632   5.145   5.939  18.377
36298DPPC   C3A 7633   5.455   5.829  18.027
36298DPPC   C4A 7634   5.775   5.779  17.667
36298DPPC   C1B 7635   4.995   5.799  18.957
36298DPPC   C2B 7636   5.325   5.629  18.747
36298DPPC   C3B 7637   5.535   5.539  18.377
36298DPPC   C4B 7638   5.795   5.379  17.987
36299DPPC   NC3 7639   9.125   5.849  21.837
36299DPPC   PO4 7640   9.415   5.819  22.087
36299DPPC   GL1 7641   9.725   6.089  21.937
36299DPPC   GL2 7642   9.865   5.799  21.997
36299DPPC   C1A 7643  10.045   6.129  21.717
36299DPPC   C2A 7644  10.335   6.109  21.357
36299DPPC   C3A 7645  10.635   5.829  21.147
36299DPPC   C4A 7646  10.865   5.439  20.917
36299DPPC   C1B 7647  10.005   5.729  21.647
36299DPPC   C2B 7648  10.145   5.649  21.267
36299DPPC   C3B 7649  10.305   5.489  20.837
36299DPPC   C4B 7650  10.655   5.559  20.527
36300DPPC   NC3 7651   5.015   0.131  20.627
36300DPPC   PO4 7652   5.315   0.071  20.377
36300DPPC   GL1 7653   5.675   0.141  20.157
36300DPPC   GL2 7654   5.585   6.559  19.987
36300DPPC   C1A 7655   5.965   0.261  20.057
36300DPPC   C2A 7656   6.385   0.311  19.937
36300DPPC   C3A 7657   6.645   0.261  19.577
36300DPPC   C4A 7658   6.985   0.231  19.277
36300DPPC   C1B 7659   5.775   6.509  19.697
36300DPPC   C2B 7660   5.985   6.509  19.357
36300DPPC   C3B 7661   6.245   6.429  18.997
36300DPPC   C4B 7662   6.635   6.409  18.667
36301DPPC   NC3 7663  10.975   5.309  22.627
36301DPPC   PO4 7664  10.625   5.299  22.407
36301DPPC   GL1 7665  10.655   5.389  21.967
36301DPPC   GL2 7666  10.435   5.559  22.027
36301DPPC   C1A 7667  10.905   5.369  21.687
36301DPPC   C2A 7668  11.005   5.639  21.407
36301DPPC   C3A 7669  11.275   5.889  21.137
36301DPPC   C4A 7670  11.655   6.069  20.887
36301DPPC   C1B 7671  10.615   5.899  22.047
36301DPPC   C2B 7672  10.465   6.249  21.917
36301DPPC   C3B 7673  10.305   6.569  21.667
36301DPPC   C4B 7674  10.055   0.261  21.407
36302DPPC   NC3 7675   4.637   2.411  19.317
36302DPPC   PO4 7676   4.895   2.561  19.597
36302DPPC   GL1 7677   5.265   2.851  19.707
36302DPPC   GL2 7678   5.275   2.571  19.837
36302DPPC   C1A 7679   5.555   2.861  19.487
36302DPPC   C2A 7680   5.845   2.911  19.237
36302DPPC   C3A 7681   6.225   2.911  18.937
36302DPPC   C4A 7682   6.595   2.861  18.557
36302DPPC   C1B 7683   5.455   2.421  19.607
36302DPPC   C2B 7684   5.655   2.421  19.237
36302DPPC   C3B 7685   5.965   2.471  18.897
36302DPPC   C4B 7686   6.255   2.351  18.577
36303DPPC   NC3 7687   6.425   3.591  21.587
36303DPPC   PO4 7688   6.335   3.899  21.377
36303DPPC   GL1 7689   6.335   3.871  20.977
36303DPPC   GL2 7690   6.205   4.079  20.937
36303DPPC   C1A 7691   6.605   3.821  20.747
36303DPPC   C2A 7692   6.855   3.909  20.397
36303DPPC   C3A 7693   7.145   3.821  20.097
36303DPPC   C4A 7694   7.485   3.461  20.157
36303DPPC   C1B 7695   6.395   4.159  20.577
36303DPPC   C2B 7696   6.575   4.319  20.237
36303DPPC   C3B 7697   6.905   4.279  19.827
36303DPPC   C4B 7698   7.245   4.279  19.427
36304DPPC   NC3 7699   8.245   4.379  21.947
36304DPPC   PO4 7700   8.615   4.479  21.937
36304DPPC   GL1 7701   8.955   4.389  21.697
36304DPPC   GL2 7702   8.935   4.729  21.697
36304DPPC   C1A 7703   9.015   4.449  21.337
36304DPPC   C2A 7704   9.235   4.489  21.007
36304DPPC   C3A 7705   9.455   4.559  20.557
36304DPPC   C4A 7706   9.675   4.589  20.167
36304DPPC   C1B 7707   9.085   4.979  21.497
36304DPPC   C2B 7708   9.305   5.039  21.197
36304DPPC   C3B 7709   9.515   4.999  20.787
36304DPPC   C4B 7710   9.855   4.999  20.407
36305DPPC   NC3 7711   5.785   1.171  21.067
36305DPPC   PO4 7712   6.025   1.471  21.217
36305DPPC   GL1 7713   6.455   1.571  21.087
36305DPPC   GL2 7714   6.365   1.531  20.757
36305DPPC   C1A 7715   6.745   1.791  21.127
36305DPPC   C2A 7716   7.135   1.771  21.227
36305DPPC   C3A 7717   7.595   1.721  21.037
36305DPPC   C4A 7718   7.985   1.771  20.777
36305DPPC   C1B 7719   6.435   1.871  20.557
36305DPPC   C2B 7720   6.655   2.061  20.257
36305DPPC   C3B 7721   6.965   2.121  19.907
36305DPPC   C4B 7722   7.255   2.121  19.497
36306DPPC   NC3 7723   8.395   0.551  21.767
36306DPPC   PO4 7724   8.555   0.161  21.757
36306DPPC   GL1 7725   8.755   0.131  21.387
36306DPPC   GL2 7726   8.735   0.431  21.387
36306DPPC   C1A 7727   9.105   6.499  21.297
36306DPPC   C2A 7728   9.435   6.309  21.097
36306DPPC   C3A 7729   9.765   6.289  20.647
36306DPPC   C4A 7730  10.115   6.179  20.337
36306DPPC   C1B 7731   8.495   0.541  21.097
36306DPPC   C2B 7732   8.185   0.821  21.067
36306DPPC   C3B 7733   7.765   1.081  21.117
36306DPPC   C4B 7734   7.395   1.321  21.227
36307DPPC   NC3 7735  13.105   1.801  21.997
36307DPPC   PO4 7736  12.995   2.171  21.887
36307DPPC   GL1 7737  12.865   2.031  21.527
36307DPPC   GL2 7738  12.585   1.901  21.727
36307DPPC   C1A 7739  12.945   2.181  21.197
36307DPPC   C2A 7740  12.975   2.321  20.857
36307DPPC   C3A 7741  12.685   2.361  20.457
36307DPPC   C4A 7742  12.415   2.351  20.087
36307DPPC   C1B 7743  12.205   1.801  21.737
36307DPPC   C2B 7744  11.795   1.721  21.787
36307DPPC   C3B 7745  11.385   1.661  21.787
36307DPPC   C4B 7746  10.905   1.581  21.807
36308DPPC   NC3 7747   5.305   4.519  20.567
36308DPPC   PO4 7748   5.615   4.749  20.507
36308DPPC   GL1 7749   5.605   4.759  20.067
36308DPPC   GL2 7750   5.505   4.989  20.057
36308DPPC   C1A 7751   5.855   4.829  19.847
36308DPPC   C2A 7752   6.135   4.709  19.517
36308DPPC   C3A 7753   6.455   4.659  19.177
36308DPPC   C4A 7754   6.795   4.599  18.797
36308DPPC   C1B 7755   5.775   5.259  19.987
36308DPPC   C2B 7756   6.145   5.209  19.797
36308DPPC   C3B 7757   6.465   5.189  19.457
36308DPPC   C4B 7758   6.715   5.069  19.067
36309DPPC   NC3 7759  12.035   4.629  22.117
36309DPPC   PO4 7760  12.085   4.319  22.357
36309DPPC   GL1 7761  11.815   4.079  22.147
36309DPPC   GL2 7762  11.635   4.339  22.177
36309DPPC   C1A 7763  11.565   3.851  21.967
36309DPPC   C2A 7764  11.495   3.451  21.867
36309DPPC   C3A 7765  11.505   3.001  21.697
36309DPPC   C4A 7766  11.655   2.551  21.727
36309DPPC   C1B 7767  11.645   4.549  21.877
36309DPPC   C2B 7768  11.855   4.699  21.587
36309DPPC   C3B 7769  11.995   4.889  21.147
36309DPPC   C4B 7770  12.325   4.959  20.807
36310DPPC   NC3 7771  12.585   2.391  22.057
36310DPPC   PO4 7772  12.385   2.081  22.237
36310DPPC   GL1 7773  12.015   2.141  21.977
36310DPPC   GL2 7774  12.125   2.431  22.017
36310DPPC   C1A 7775  11.895   2.161  21.657
36310DPPC   C2A 7776  12.025   2.031  21.267
36310DPPC   C3A 7777  12.165   1.841  20.867
36310DPPC   C4A 7778  12.225   2.141  20.537
36310DPPC   C1B 7779  12.125   2.601  21.687
36310DPPC   C2B 7780  12.085   2.791  21.317
36310DPPC   C3B 7781  12.165   3.101  21.027
36310DPPC   C4B 7782  12.175   3.571  20.867
36311DPPC   NC3 7783   7.695   6.299  21.737
36311DPPC   PO4 7784   8.015   6.129  21.517
36311DPPC   GL1 7785   7.965   5.929  21.147
36311DPPC   GL2 7786   7.945   6.249  21.027
36311DPPC   C1A 7787   8.085   5.779  20.857
36311DPPC   C2A 7788   8.335   5.759  20.537
36311DPPC   C3A 7789   8.705   5.729  20.237
36311DPPC   C4A 7790   8.885   5.739  19.757
36311DPPC   C1B 7791   7.815   6.179  20.727
36311DPPC   C2B 7792   7.525   6.119  20.457
36311DPPC   C3B 7793   7.155   6.209  20.107
36311DPPC   C4B 7794   7.285   6.039  19.697
36312DPPC   NC3 7795   5.015   3.711  20.117
36312DPPC   PO4 7796   5.015   4.019  19.887
36312DPPC   GL1 7797   5.195   3.929  19.557
36312DPPC   GL2 7798   5.065   3.731  19.407
36312DPPC   C1A 7799   5.565   3.891  19.467
36312DPPC   C2A 7800   5.905   3.841  19.267
36312DPPC   C3A 7801   6.255   3.761  18.957
36312DPPC   C4A 7802   6.515   3.671  18.547
36312DPPC   C1B 7803   5.315   3.771  19.127
36312DPPC   C2B 7804   5.625   3.751  18.817
36312DPPC   C3B 7805   5.945   3.691  18.447
36312DPPC   C4B 7806   6.265   3.711  18.037
36313DPPC   NC3 7807   3.857   3.811  18.517
36313DPPC   PO4 7808   4.057   3.989  18.827
36313DPPC   GL1 7809   4.347   4.069  18.547
36313DPPC   GL2 7810   4.577   4.159  18.767
36313DPPC   C1A 7811   4.417   4.099  18.197
36313DPPC   C2A 7812   4.617   4.139  17.877
36313DPPC   C3A 7813   4.915   4.169  17.567
36313DPPC   C4A 7814   5.225   4.089  17.197
36313DPPC   C1B 7815   4.865   4.089  18.547
36313DPPC   C2B 7816   5.155   4.069  18.217
36313DPPC   C3B 7817   5.455   4.099  17.797
36313DPPC   C4B 7818   5.805   3.979  17.477
36314DPPC   NC3 7819   6.185   5.139  21.117
36314DPPC   PO4 7820   5.925   5.299  20.857
36314DPPC   GL1 7821   6.055   5.519  20.457
36314DPPC   GL2 7822   6.105   5.329  20.257
36314DPPC   C1A 7823   6.345   5.649  20.307
36314DPPC   C2A 7824   6.725   5.629  20.167
36314DPPC   C3A 7825   7.035   5.639  19.817
36314DPPC   C4A 7826   7.335   5.529  19.397
36314DPPC   C1B 7827   6.425   5.229  20.177
36314DPPC   C2B 7828   6.755   5.169  19.937
36314DPPC   C3B 7829   7.005   5.089  19.527
36314DPPC   C4B 7830   7.235   5.129  19.087
36315DPPC   NC3 7831   4.127   3.999  19.357
36315DPPC   PO4 7832   4.197   3.651  19.237
36315DPPC   GL1 7833   4.407   3.771  18.907
36315DPPC   GL2 7834   4.507   3.909  19.127
36315DPPC   C1A 7835   4.567   3.711  18.517
36315DPPC   C2A 7836   4.815   3.721  18.187
36315DPPC   C3A 7837   5.145   3.681  17.817
36315DPPC   C4A 7838   5.435   3.621  17.457
36315DPPC   C1B 7839   4.875   3.811  18.977
36315DPPC   C2B 7840   5.125   3.731  18.647
36315DPPC   C3B 7841   5.445   3.651  18.267
36315DPPC   C4B 7842   5.705   3.621  17.877
36316DPPC   NC3 7843   4.067   1.301  18.707
36316DPPC   PO4 7844   3.807   1.511  18.487
36316DPPC   GL1 7845   4.067   1.771  18.267
36316DPPC   GL2 7846   4.317   1.521  18.327
36316DPPC   C1A 7847   4.097   2.061  18.027
36316DPPC   C2A 7848   4.307   2.281  17.767
36316DPPC   C3A 7849   4.637   2.301  17.387
36316DPPC   C4A 7850   4.995   2.231  17.107
36316DPPC   C1B 7851   4.637   1.511  18.157
36316DPPC   C2B 7852   5.005   1.511  17.947
36316DPPC   C3B 7853   5.255   1.461  17.577
36316DPPC   C4B 7854   5.635   1.381  17.257
36317DPPC   NC3 7855  12.775   3.939  22.777
36317DPPC   PO4 7856  12.685   3.919  22.387
36317DPPC   GL1 7857  12.745   4.069  21.937
36317DPPC   GL2 7858  12.475   3.979  21.897
36317DPPC   C1A 7859  12.875   4.009  21.607
36317DPPC   C2A 7860  12.965   4.119  21.187
36317DPPC   C3A 7861  12.825   4.479  20.857
36317DPPC   C4A 7862  12.445   4.509  20.507
36317DPPC   C1B 7863  12.595   3.701  21.697
36317DPPC   C2B 7864  12.625   3.291  21.587
36317DPPC   C3B 7865  12.545   2.821  21.557
36317DPPC   C4B 7866  12.465   2.341  21.467
36318DPPC   NC3 7867   4.965   0.051  20.047
36318DPPC   PO4 7868   5.175   6.349  19.927
36318DPPC   GL1 7869   5.475   6.279  19.657
36318DPPC   GL2 7870   5.295   6.409  19.417
36318DPPC   C1A 7871   5.645   6.049  19.457
36318DPPC   C2A 7872   5.895   5.989  19.177
36318DPPC   C3A 7873   6.155   5.899  18.787
36318DPPC   C4A 7874   6.485   5.909  18.397
36318DPPC   C1B 7875   5.435   6.459  19.077
36318DPPC   C2B 7876   5.775   6.379  18.847
36318DPPC   C3B 7877   6.035   6.289  18.507
36318DPPC   C4B 7878   6.245   6.309  18.097
36319DPPC   NC3 7879  10.185   1.511  22.457
36319DPPC   PO4 7880   9.895   1.341  22.347
36319DPPC   GL1 7881  10.045   1.281  21.947
36319DPPC   GL2 7882   9.955   1.511  21.827
36319DPPC   C1A 7883  10.395   1.251  21.737
36319DPPC   C2A 7884  10.595   1.401  21.417
36319DPPC   C3A 7885  10.605   1.651  20.997
36319DPPC   C4A 7886  10.815   1.471  20.607
36319DPPC   C1B 7887  10.205   1.661  21.677
36319DPPC   C2B 7888  10.515   1.861  21.487
36319DPPC   C3B 7889  10.965   1.821  21.347
36319DPPC   C4B 7890  11.475   1.871  21.187
36320DPPC   NC3 7891   6.245   3.401  21.117
36320DPPC   PO4 7892   5.885   3.391  20.957
36320DPPC   GL1 7893   6.035   3.351  20.507
36320DPPC   GL2 7894   6.295   3.291  20.667
36320DPPC   C1A 7895   6.105   3.391  20.147
36320DPPC   C2A 7896   6.385   3.401  19.857
36320DPPC   C3A 7897   6.735   3.401  19.477
36320DPPC   C4A 7898   7.085   3.331  19.167
36320DPPC   C1B 7899   6.485   3.031  20.497
36320DPPC   C2B 7900   6.625   2.961  20.107
36320DPPC   C3B 7901   6.925   2.931  19.737
36320DPPC   C4B 7902   7.255   2.921  19.357
36321DPPC   NC3 7903   3.967   0.351  18.447
36321DPPC   PO4 7904   4.137   0.061  18.647
36321DPPC   GL1 7905   4.417   0.051  18.507
36321DPPC   GL2 7906   4.467   0.301  18.407
36321DPPC   C1A 7907   4.705   6.419  18.387
36321DPPC   C2A 7908   5.005   6.309  18.107
36321DPPC   C3A 7909   5.295   6.249  17.717
36321DPPC   C4A 7910   5.665   6.179  17.377
36321DPPC   C1B 7911   4.705   0.151  18.147
36321DPPC   C2B 7912   4.955   0.101  17.807
36321DPPC   C3B 7913   5.245   0.071  17.407
36321DPPC   C4B 7914   5.595   0.011  17.007
36322DPPC   NC3 7915   3.807   5.909  18.707
36322DPPC   PO4 7916   4.077   5.859  19.007
36322DPPC   GL1 7917   4.497   5.709  18.907
36322DPPC   GL2 7918   4.447   5.419  18.847
36322DPPC   C1A 7919   4.567   5.819  18.617
36322DPPC   C2A 7920   4.705   5.939  18.237
36322DPPC   C3A 7921   4.955   5.849  17.797
36322DPPC   C4A 7922   5.315   5.789  17.487
36322DPPC   C1B 7923   4.477   5.349  18.467
36322DPPC   C2B 7924   4.607   5.479  18.097
36322DPPC   C3B 7925   4.865   5.389  17.717
36322DPPC   C4B 7926   5.135   5.349  17.337
36323DPPC   NC3 7927  13.905   5.639  22.007
36323DPPC   PO4 7928  13.765   5.759  21.657
36323DPPC   GL1 7929  13.625   5.679  21.277
36323DPPC   GL2 7930  13.685   5.779  21.057
36323DPPC   C1A 7931  13.405   5.459  21.047
36323DPPC   C2A 7932  13.165   5.409  20.737
36323DPPC   C3A 7933  12.825   5.469  20.407
36323DPPC   C4A 7934  12.585   5.309  19.987
36323DPPC   C1B 7935  13.405   5.929  20.817
36323DPPC   C2B 7936  13.195   5.919  20.497
36323DPPC   C3B 7937  12.935   5.879  20.117
36323DPPC   C4B 7938  12.615   5.879  19.697
36324DPPC   NC3 7939  13.515   0.841  21.787
36324DPPC   PO4 7940  13.435   0.461  21.707
36324DPPC   GL1 7941  13.215   0.611  21.407
36324DPPC   GL2 7942  13.375   0.861  21.337
36324DPPC   C1A 7943  12.935   0.501  21.207
36324DPPC   C2A 7944  12.725   0.581  20.817
36324DPPC   C3A 7945  12.445   0.551  20.417
36324DPPC   C4A 7946  12.135   0.561  19.987
36324DPPC   C1B 7947  13.335   1.031  21.027
36324DPPC   C2B 7948  13.365   1.121  20.577
36324DPPC   C3B 7949  13.185   1.111  20.137
36324DPPC   C4B 7950  12.905   1.101  19.707
36325DPPA   PO4 7951   5.915   6.349  20.957
36325DPPA   GL1 7952   6.335   6.259  20.807
36325DPPA   GL2 7953   6.265   6.089  20.657
36325DPPA   C1A 7954   6.585   6.439  20.647
36325DPPA   C2A 7955   6.685   6.509  20.237
36325DPPA   C3A 7956   6.945   6.539  19.817
36325DPPA   C4A 7957   7.255   6.459  19.447
36325DPPA   C1B 7958   6.265   6.109  20.317
36325DPPA   C2B 7959   6.505   6.059  20.007
36325DPPA   C3B 7960   6.805   6.009  19.607
36325DPPA   C4B 7961   7.125   6.039  19.187
36326DPPA   PO4 7962   7.205   3.011  21.687
36326DPPA   GL1 7963   7.465   2.781  21.387
36326DPPA   GL2 7964   7.655   3.041  21.427
36326DPPA   C1A 7965   7.575   2.681  21.047
36326DPPA   C2A 7966   7.505   2.571  20.657
36326DPPA   C3A 7967   7.545   2.601  20.227
36326DPPA   C4A 7968   7.795   2.501  19.907
36326DPPA   C1B 7969   7.465   3.091  21.097
36326DPPA   C2B 7970   7.205   3.031  20.767
36326DPPA   C3B 7971   7.105   3.011  20.307
36326DPPA   C4B 7972   7.405   3.001  19.967
36327DPPA   PO4 7973   9.275   0.711  21.957
36327DPPA   GL1 7974   9.355   0.671  21.537
36327DPPA   GL2 7975   9.145   0.471  21.427
36327DPPA   C1A 7976   9.685   0.611  21.327
36327DPPA   C2A 7977  10.035   0.601  21.077
36327DPPA   C3A 7978  10.485   0.651  21.207
36327DPPA   C4A 7979  10.915   0.361  21.387
36327DPPA   C1B 7980   9.225   0.581  21.087
36327DPPA   C2B 7981   9.465   0.551  20.817
36327DPPA   C3B 7982   9.745   0.581  20.437
36327DPPA   C4B 7983   9.985   0.631  20.027
36328DPPA   PO4 7984  10.315   5.709  18.967
36328DPPA   GL1 7985  10.475   5.659  19.337
36328DPPA   GL2 7986  10.285   5.589  19.537
36328DPPA   C1A 7987  10.665   5.649  19.647
36328DPPA   C2A 7988  10.825   5.619  20.027
36328DPPA   C3A 7989  11.145   5.629  20.367
36328DPPA   C4A 7990  11.375   5.579  20.757
36328DPPA   C1B 7991  10.315   5.629  19.927
36328DPPA   C2B 7992  10.145   5.559  20.297
36328DPPA   C3B 7993   9.855   5.499  20.687
36328DPPA   C4B 7994   9.665   5.459  21.137
36329DPPA   PO4 7995   5.835   2.931  20.627
36329DPPA   GL1 7996   5.995   2.961  20.267
36329DPPA   GL2 7997   5.985   2.651  20.267
36329DPPA   C1A 7998   6.165   2.981  19.937
36329DPPA   C2A 7999   6.455   2.921  19.637
36329DPPA   C3A 8000   6.665   2.971  19.227
36329DPPA   C4A 8001   6.935   2.911  18.867
36329DPPA   C1B 8002   6.245   2.561  20.047
36329DPPA   C2B 8003   6.595   2.451  19.767
36329DPPA   C3B 8004   6.875   2.561  19.427
36329DPPA   C4B 8005   7.205   2.491  19.067
36330DPPA   PO4 8006  10.515   1.991  22.347
36330DPPA   GL1 8007  10.475   2.071  21.927
36330DPPA   GL2 8008  10.775   2.141  21.907
36330DPPA   C1A 8009  10.285   2.441  21.867
36330DPPA   C2A 8010  10.175   2.821  21.847
36330DPPA   C3A 8011  10.205   3.291  21.687
36330DPPA   C4A 8012  10.145   3.801  21.717
36330DPPA   C1B 8013  11.055   2.101  21.727
36330DPPA   C2B 8014  11.355   2.241  21.507
36330DPPA   C3B 8015  11.705   2.431  21.187
36330DPPA   C4B 8016  12.005   2.541  20.817
36331DPPA   PO4 8017   4.577   4.709  19.427
36331DPPA   GL1 8018   4.695   4.739  19.077
36331DPPA   GL2 8019   4.785   4.479  19.017
36331DPPA   C1A 8020   4.995   4.909  18.917
36331DPPA   C2A 8021   5.255   5.099  18.677
36331DPPA   C3A 8022   5.575   5.049  18.287
36331DPPA   C4A 8023   5.795   4.949  17.837
36331DPPA   C1B 8024   5.005   4.509  18.727
36331DPPA   C2B 8025   5.235   4.659  18.367
36331DPPA   C3B 8026   5.515   4.569  18.027
36331DPPA   C4B 8027   5.745   4.429  17.647
36332DPPA   PO4 8028   9.885   2.261  22.277
36332DPPA   GL1 8029   9.615   2.371  21.907
36332DPPA   GL2 8030   9.705   2.081  21.837
36332DPPA   C1A 8031   9.775   2.581  21.707
36332DPPA   C2A 8032  10.125   2.521  21.467
36332DPPA   C3A 8033  10.315   2.471  21.077
36332DPPA   C4A 8034  10.535   2.461  20.627
36332DPPA   C1B 8035   9.965   2.071  21.667
36332DPPA   C2B 8036  10.035   2.041  21.277
36332DPPA   C3B 8037  10.285   2.021  20.887
36332DPPA   C4B 8038  10.505   1.941  20.487
36333DPPA   PO4 8039  13.705   5.159  22.017
36333DPPA   GL1 8040  13.485   5.329  21.677
36333DPPA   GL2 8041  13.695   5.199  21.487
36333DPPA   C1A 8042  13.245   5.459  21.427
36333DPPA   C2A 8043  12.925   5.319  21.237
36333DPPA   C3A 8044  12.595   5.369  20.937
36333DPPA   C4A 8045  12.325   5.409  20.527
36333DPPA   C1B 8046  13.615   5.089  21.117
36333DPPA   C2B 8047  13.585   5.019  20.717
36333DPPA   C3B 8048  13.285   5.079  20.287
36333DPPA   C4B 8049  13.055   5.119  19.907
36334DPPA   PO4 8050   4.387   2.841  19.297
36334DPPA   GL1 8051   4.785   2.821  19.197
36334DPPA   GL2 8052   4.865   3.031  19.067
36334DPPA   C1A 8053   5.015   2.591  19.067
36334DPPA   C2A 8054   5.315   2.411  18.867
36334DPPA   C3A 8055   5.655   2.441  18.507
36334DPPA   C4A 8056   5.945   2.401  18.177
36334DPPA   C1B 8057   4.905   2.991  18.717
36334DPPA   C2B 8058   5.245   2.881  18.427
36334DPPA   C3B 8059   5.635   2.841  18.117
36334DPPA   C4B 8060   5.955   2.801  17.717
36335DPPA   PO4 8061   5.005   5.909  19.737
36335DPPA   GL1 8062   5.275   5.699  19.457
36335DPPA   GL2 8063   5.225   5.969  19.307
36335DPPA   C1A 8064   5.575   5.639  19.267
36335DPPA   C2A 8065   5.785   5.559  18.937
36335DPPA   C3A 8066   6.115   5.489  18.587
36335DPPA   C4A 8067   6.445   5.419  18.217
36335DPPA   C1B 8068   5.445   5.989  18.997
36335DPPA   C2B 8069   5.685   5.959  18.657
36335DPPA   C3B 8070   5.925   5.879  18.217
36335DPPA   C4B 8071   6.285   5.879  17.817
36336DPPA   PO4 8072   9.905   4.769  22.537
36336DPPA   GL1 8073  10.205   4.599  22.217
36336DPPA   GL2 8074  10.025   4.689  22.017
36336DPPA   C1A 8075  10.515   4.509  22.057
36336DPPA   C2A 8076  10.835   4.399  21.807
36336DPPA   C3A 8077  11.135   4.459  21.467
36336DPPA   C4A 8078  11.485   4.719  21.207
36336DPPA   C1B 8079  10.145   4.909  21.787
36336DPPA   C2B 8080  10.305   5.269  21.707
36336DPPA   C3B 8081  10.555   5.669  21.617
36336DPPA   C4B 8082  10.815   6.119  21.577
36337DPPA   PO4 8083   4.955   0.921  19.777
36337DPPA   GL1 8084   5.265   0.931  19.567
36337DPPA   GL2 8085   5.315   0.651  19.537
36337DPPA   C1A 8086   5.315   1.181  19.277
36337DPPA   C2A 8087   5.635   1.171  19.067
36337DPPA   C3A 8088   6.005   1.061  18.767
36337DPPA   C4A 8089   6.305   1.121  18.357
36337DPPA   C1B 8090   5.655   0.641  19.407
36337DPPA   C2B 8091   5.975   0.671  19.177
36337DPPA   C3B 8092   6.305   0.681  18.817
36337DPPA   C4B 8093   6.585   0.661  18.407
36338DPPA   PO4 8094   6.875   3.771  21.617
36338DPPA   GL1 8095   6.915   3.909  21.237
36338DPPA   GL2 8096   6.785   3.651  21.127
36338DPPA   C1A 8097   6.805   4.139  20.987
36338DPPA   C2A 8098   6.805   4.389  20.647
36338DPPA   C3A 8099   7.195   4.329  20.367
36338DPPA   C4A 8100   7.545   4.279  19.987
36338DPPA   C1B 8101   7.145   3.551  20.977
36338DPPA   C2B 8102   7.575   3.481  21.027
36338DPPA   C3B 8103   7.855   3.111  20.917
36338DPPA   C4B 8104   8.085   2.691  20.767
36339DPPA   PO4 8105   4.277   0.471  19.387
36339DPPA   GL1 8106   4.685   0.611  19.117
36339DPPA   GL2 8107   4.815   0.711  19.367
36339DPPA   C1A 8108   4.905   0.651  18.797
36339DPPA   C2A 8109   5.195   0.641  18.457
36339DPPA   C3A 8110   5.565   0.621  18.157
36339DPPA   C4A 8111   5.875   0.451  17.877
36339DPPA   C1B 8112   5.055   0.811  19.167
36339DPPA   C2B 8113   5.395   0.701  18.987
36339DPPA   C3B 8114   5.735   0.651  18.687
36339DPPA   C4B 8115   6.075   0.611  18.357
36340DPPA   PO4 8116   4.695   5.049  20.067
36340DPPA   GL1 8117   4.875   4.959  19.677
36340DPPA   GL2 8118   5.095   4.959  19.897
36340DPPA   C1A 8119   5.125   5.109  19.377
36340DPPA   C2A 8120   5.455   5.199  19.107
36340DPPA   C3A 8121   5.755   5.039  18.757
36340DPPA   C4A 8122   6.055   5.039  18.327
36340DPPA   C1B 8123   5.385   4.869  19.687
36340DPPA   C2B 8124   5.665   4.739  19.437
36340DPPA   C3B 8125   5.965   4.659  19.087
36340DPPA   C4B 8126   6.185   4.639  18.667
36341DPPA   PO4 8127   7.075   0.871  21.897
36341DPPA   GL1 8128   7.095   0.981  21.487
36341DPPA   GL2 8129   6.965   1.221  21.457
36341DPPA   C1A 8130   7.365   0.901  21.187
36341DPPA   C2A 8131   7.295   1.031  20.807
36341DPPA   C3A 8132   7.255   1.261  20.357
36341DPPA   C4A 8133   7.055   1.651  20.077
36341DPPA   C1B 8134   6.935   1.381  21.097
36341DPPA   C2B 8135   7.165   1.521  20.767
36341DPPA   C3B 8136   7.425   1.741  20.537
36341DPPA   C4B 8137   7.745   2.051  20.397
36342DPPA   PO4 8138   5.245   3.771  20.537
36342DPPA   GL1 8139   5.435   3.681  20.137
36342DPPA   GL2 8140   5.455   3.999  20.197
36342DPPA   C1A 8141   5.715   3.501  19.917
36342DPPA   C2A 8142   5.965   3.481  19.597
36342DPPA   C3A 8143   6.285   3.341  19.227
36342DPPA   C4A 8144   6.655   3.371  18.927
36342DPPA   C1B 8145   5.585   4.009  19.847
36342DPPA   C2B 8146   5.905   4.179  19.597
36342DPPA   C3B 8147   6.205   4.239  19.197
36342DPPA   C4B 8148   6.485   4.199  18.797
36343DPPA   PO4 8149   4.347   0.921  19.007
36343DPPA   GL1 8150   4.457   0.781  18.557
36343DPPA   GL2 8151   4.447   1.121  18.587
36343DPPA   C1A 8152   4.715   0.691  18.307
36343DPPA   C2A 8153   4.965   0.591  17.987
36343DPPA   C3A 8154   5.365   0.551  17.697
36343DPPA   C4A 8155   5.665   0.551  17.277
36343DPPA   C1B 8156   4.765   1.171  18.427
36343DPPA   C2B 8157   5.085   1.051  18.197
36343DPPA   C3B 8158   5.415   1.031  17.937
36343DPPA   C4B 8159   5.645   0.961  17.507
36344DPPA   PO4 8160   5.345   1.271  20.857
36344DPPA   GL1 8161   5.665   1.321  20.647
36344DPPA   GL2 8162   5.505   1.491  20.457
36344DPPA   C1A 8163   5.995   1.241  20.427
36344DPPA   C2A 8164   6.415   1.161  20.357
36344DPPA   C3A 8165   6.825   1.201  20.137
36344DPPA   C4A 8166   7.245   1.231  19.777
36344DPPA   C1B 8167   5.755   1.541  20.167
36344DPPA   C2B 8168   5.965   1.641  19.837
36344DPPA   C3B 8169   6.305   1.611  19.517
36344DPPA   C4B 8170   6.665   1.571  19.167
36345DPPA   PO4 8171  13.675   4.249  21.787
36345DPPA   GL1 8172  13.735   4.529  21.397
36345DPPA   GL2 8173  13.705   4.229  21.287
36345DPPA   C1A 8174  13.415   4.649  21.237
36345DPPA   C2A 8175  13.125   4.859  21.037
36345DPPA   C3A 8176  12.845   4.999  20.727
36345DPPA   C4A 8177  12.555   4.999  20.317
36345DPPA   C1B 8178  13.435   4.249  21.017
36345DPPA   C2B 8179  13.155   4.099  20.757
36345DPPA   C3B 8180  12.775   4.159  20.437
36345DPPA   C4B 8181  12.565   4.159  19.987
36346DPPA   PO4 8182   4.875   1.431  20.287
36346DPPA   GL1 8183   5.235   1.671  20.067
36346DPPA   GL2 8184   5.255   1.341  19.977
36346DPPA   C1A 8185   5.405   1.671  19.777
36346DPPA   C2A 8186   5.605   1.621  19.477
36346DPPA   C3A 8187   5.955   1.591  19.107
36346DPPA   C4A 8188   6.305   1.601  18.747
36346DPPA   C1B 8189   5.545   1.231  19.747
36346DPPA   C2B 8190   5.875   1.081  19.557
36346DPPA   C3B 8191   6.305   1.081  19.267
36346DPPA   C4B 8192   6.595   1.161  18.857
36347DPPA   PO4 8193   7.885   0.531  21.827
36347DPPA   GL1 8194   8.135   0.491  21.397
36347DPPA   GL2 8195   7.855   0.601  21.347
36347DPPA   C1A 8196   8.125   0.311  21.107
36347DPPA   C2A 8197   7.905   0.071  20.837
36347DPPA   C3A 8198   7.735   6.589  20.387
36347DPPA   C4A 8199   7.515   6.509  19.987
36347DPPA   C1B 8200   7.775   0.611  20.977
36347DPPA   C2B 8201   7.735   0.621  20.607
36347DPPA   C3B 8202   7.635   0.441  20.157
36347DPPA   C4B 8203   7.275   0.321  19.797
36348DPPA   PO4 8204   8.105   2.691  21.507
36348DPPA   GL1 8205   8.355   2.591  21.227
36348DPPA   GL2 8206   8.285   2.851  21.137
36348DPPA   C1A 8207   8.265   2.321  21.027
36348DPPA   C2A 8208   7.865   2.191  20.947
36348DPPA   C3A 8209   7.395   2.141  20.827
36348DPPA   C4A 8210   6.965   1.981  20.707
36348DPPA   C1B 8211   8.485   2.861  20.807
36348DPPA   C2B 8212   8.665   2.701  20.537
36348DPPA   C3B 8213   8.845   2.711  20.067
36348DPPA   C4B 8214   9.075   2.681  19.617
36349DPPA   PO4 8215   9.335   6.499  18.557
36349DPPA   GL1 8216   9.235   0.061  18.997
36349DPPA   GL2 8217   9.215   0.331  18.927
36349DPPA   C1A 8218   8.985   0.091  19.267
36349DPPA   C2A 8219   8.845   0.151  19.637
36349DPPA   C3A 8220   8.585   0.061  20.037
36349DPPA   C4A 8221   8.305   6.599  20.427
36349DPPA   C1B 8222   8.905   0.471  19.047
36349DPPA   C2B 8223   8.665   0.511  19.397
36349DPPA   C3B 8224   8.405   0.511  19.827
36349DPPA   C4B 8225   8.135   0.401  20.167
36350DPPC   NC3 8226   9.325   0.901  18.677
36350DPPC   PO4 8227   9.105   1.091  18.457
36350DPPC   GL1 8228   8.765   1.211  18.397
36350DPPC   GL2 8229   8.595   0.931  18.277
36350DPPC   C1A 8230   8.505   1.251  18.657
36350DPPC   C2A 8231   8.235   1.261  19.007
36350DPPC   C3A 8232   7.945   1.241  19.367
36350DPPC   C4A 8233   7.725   1.241  19.767
36350DPPC   C1B 8234   8.365   0.791  18.577
36350DPPC   C2B 8235   8.085   0.851  18.927
36350DPPC   C3B 8236   7.805   0.721  19.297
36350DPPC   C4B 8237   7.515   0.751  19.647
36351DPPC   NC3 8238   7.585   2.441  15.917
36351DPPC   PO4 8239   7.905   2.411  16.217
36351DPPC   GL1 8240   7.575   2.301  16.467
36351DPPC   GL2 8241   7.385   2.471  16.337
36351DPPC   C1A 8242   7.495   2.221  16.787
36351DPPC   C2A 8243   7.285   2.021  17.097
36351DPPC   C3A 8244   6.925   1.981  17.417
36351DPPC   C4A 8245   6.585   2.021  17.697
36351DPPC   C1B 8246   7.165   2.431  16.637
36351DPPC   C2B 8247   6.945   2.401  16.997
36351DPPC   C3B 8248   6.625   2.391  17.347
36351DPPC   C4B 8249   6.315   2.411  17.687
36352DPPC   NC3 8250  10.685   0.741  18.487
36352DPPC   PO4 8251  10.645   0.691  18.077
36352DPPC   GL1 8252  10.985   0.861  18.107
36352DPPC   GL2 8253  10.945   1.121  18.227
36352DPPC   C1A 8254  11.305   0.711  18.287
36352DPPC   C2A 8255  11.585   0.601  18.567
36352DPPC   C3A 8256  11.935   0.591  18.897
36352DPPC   C4A 8257  12.255   0.661  19.307
36352DPPC   C1B 8258  11.155   1.021  18.567
36352DPPC   C2B 8259  11.425   0.991  18.907
36352DPPC   C3B 8260  11.755   0.961  19.307
36352DPPC   C4B 8261  12.115   0.991  19.637
36353DPPC   NC3 8262   8.185   0.721  16.927
36353DPPC   PO4 8263   8.455   0.871  17.187
36353DPPC   GL1 8264   8.265   1.111  17.477
36353DPPC   GL2 8265   8.145   1.151  17.187
36353DPPC   C1A 8266   8.045   1.161  17.757
36353DPPC   C2A 8267   7.815   1.281  18.077
36353DPPC   C3A 8268   7.525   1.221  18.437
36353DPPC   C4A 8269   7.205   1.171  18.817
36353DPPC   C1B 8270   7.835   1.101  17.367
36353DPPC   C2B 8271   7.565   1.211  17.667
36353DPPC   C3B 8272   7.235   1.181  18.017
36353DPPC   C4B 8273   6.915   1.141  18.377
36354DPPC   NC3 8274   7.195   5.779  15.257
36354DPPC   PO4 8275   7.425   5.939  15.537
36354DPPC   GL1 8276   7.225   5.869  15.877
36354DPPC   GL2 8277   7.305   5.739  16.047
36354DPPC   C1A 8278   6.995   6.139  16.057
36354DPPC   C2A 8279   6.685   6.239  16.267
36354DPPC   C3A 8280   6.405   6.299  16.627
36354DPPC   C4A 8281   6.015   6.239  16.967
36354DPPC   C1B 8282   7.045   5.709  16.327
36354DPPC   C2B 8283   6.785   5.839  16.657
36354DPPC   C3B 8284   6.465   5.839  17.007
36354DPPC   C4B 8285   6.145   5.749  17.347
36355DPPC   NC3 8286   8.545   5.939  16.417
36355DPPC   PO4 8287   8.265   6.159  16.557
36355DPPC   GL1 8288   8.005   5.989  16.867
36355DPPC   GL2 8289   8.065   6.179  17.067
36355DPPC   C1A 8290   7.715   5.779  16.907
36355DPPC   C2A 8291   7.395   5.559  17.047
36355DPPC   C3A 8292   7.075   5.479  17.377
36355DPPC   C4A 8293   6.805   5.439  17.817
36355DPPC   C1B 8294   7.765   6.149  17.207
36355DPPC   C2B 8295   7.405   5.979  17.297
36355DPPC   C3B 8296   7.055   6.029  17.637
36355DPPC   C4B 8297   6.845   5.969  18.027
36356DPPC   NC3 8298  10.445   3.771  18.297
36356DPPC   PO4 8299  10.755   3.989  18.177
36356DPPC   GL1 8300  10.985   4.019  18.497
36356DPPC   GL2 8301  10.845   4.099  18.727
36356DPPC   C1A 8302  11.315   4.139  18.667
36356DPPC   C2A 8303  11.575   4.059  18.927
36356DPPC   C3A 8304  11.895   4.109  19.267
36356DPPC   C4A 8305  12.215   4.219  19.607
36356DPPC   C1B 8306  11.025   4.269  18.977
36356DPPC   C2B 8307  11.105   4.369  19.407
36356DPPC   C3B 8308  11.355   4.429  19.827
36356DPPC   C4B 8309  11.665   4.459  20.227
36357DPPC   NC3 8310   8.585   0.521  17.517
36357DPPC   PO4 8311   8.495   0.361  17.197
36357DPPC   GL1 8312   8.125   0.461  17.307
36357DPPC   GL2 8313   8.075   0.711  17.427
36357DPPC   C1A 8314   7.835   0.341  17.487
36357DPPC   C2A 8315   7.535   0.241  17.707
36357DPPC   C3A 8316   7.295   0.311  18.037
36357DPPC   C4A 8317   6.955   0.341  18.397
36357DPPC   C1B 8318   7.865   0.751  17.757
36357DPPC   C2B 8319   7.565   0.781  18.017
36357DPPC   C3B 8320   7.285   0.771  18.377
36357DPPC   C4B 8321   6.925   0.721  18.767
36358DPPC   NC3 8322  10.545   3.161  18.787
36358DPPC   PO4 8323  10.395   2.811  18.927
36358DPPC   GL1 8324  10.675   2.881  19.297
36358DPPC   GL2 8325  10.815   3.141  19.177
36358DPPC   C1A 8326  10.875   2.671  19.517
36358DPPC   C2A 8327  11.095   2.471  19.727
36358DPPC   C3A 8328  11.395   2.531  20.107
36358DPPC   C4A 8329  11.625   2.561  20.517
36358DPPC   C1B 8330  11.115   3.031  19.387
36358DPPC   C2B 8331  11.285   3.071  19.797
36358DPPC   C3B 8332  11.585   3.001  20.147
36358DPPC   C4B 8333  11.745   3.051  20.697
36359DPPC   NC3 8334   9.895   2.071  18.887
36359DPPC   PO4 8335   9.775   2.211  19.227
36359DPPC   GL1 8336   9.395   2.021  19.427
36359DPPC   GL2 8337   9.745   1.941  19.477
36359DPPC   C1A 8338   9.205   1.921  19.717
36359DPPC   C2A 8339   8.985   1.811  20.057
36359DPPC   C3A 8340   8.715   1.831  20.427
36359DPPC   C4A 8341   8.455   1.841  20.837
36359DPPC   C1B 8342   9.655   1.941  19.867
36359DPPC   C2B 8343   9.555   1.871  20.227
36359DPPC   C3B 8344   9.225   1.881  20.627
36359DPPC   C4B 8345   9.005   1.881  21.057
36360DPPC   NC3 8346   9.495   5.559  18.517
36360DPPC   PO4 8347   9.225   5.469  18.257
36360DPPC   GL1 8348   9.025   5.389  18.547
36360DPPC   GL2 8349   9.105   5.529  18.737
36360DPPC   C1A 8350   8.775   5.279  18.697
36360DPPC   C2A 8351   8.575   5.239  19.047
36360DPPC   C3A 8352   8.325   5.229  19.447
36360DPPC   C4A 8353   8.015   5.179  19.857
36360DPPC   C1B 8354   8.965   5.439  19.097
36360DPPC   C2B 8355   8.825   5.269  19.517
36360DPPC   C3B 8356   8.545   5.269  19.907
36360DPPC   C4B 8357   8.295   5.169  20.277
36361DPPC   NC3 8358   9.625   0.291  18.787
36361DPPC   PO4 8359   9.415   0.471  18.527
36361DPPC   GL1 8360   8.965   0.451  18.587
36361DPPC   GL2 8361   8.975   0.161  18.577
36361DPPC   C1A 8362   8.785   0.701  18.687
36361DPPC   C2A 8363   8.595   0.881  18.987
36361DPPC   C3A 8364   8.355   0.941  19.337
36361DPPC   C4A 8365   8.095   0.891  19.777
36361DPPC   C1B 8366   8.785   0.021  18.837
36361DPPC   C2B 8367   8.565   0.021  19.207
36361DPPC   C3B 8368   8.325   0.101  19.607
36361DPPC   C4B 8369   8.055   6.549  19.987
36362DPPC   NC3 8370   8.985   5.109  17.467
36362DPPC   PO4 8371   8.825   4.699  17.447
36362DPPC   GL1 8372   8.615   4.519  17.727
36362DPPC   GL2 8373   8.445   4.639  17.577
36362DPPC   C1A 8374   8.575   4.319  18.027
36362DPPC   C2A 8375   8.285   4.289  18.307
36362DPPC   C3A 8376   7.865   4.259  18.597
36362DPPC   C4A 8377   7.525   4.349  18.977
36362DPPC   C1B 8378   8.225   4.589  17.857
36362DPPC   C2B 8379   7.915   4.619  18.137
36362DPPC   C3B 8380   7.605   4.649  18.447
36362DPPC   C4B 8381   7.265   4.749  18.767
36363DPPC   NC3 8382   9.205   2.861  17.717
36363DPPC   PO4 8383   9.185   3.111  18.017
36363DPPC   GL1 8384   8.785   3.141  18.277
36363DPPC   GL2 8385   8.755   3.301  18.057
36363DPPC   C1A 8386   8.485   3.061  18.447
36363DPPC   C2A 8387   8.235   3.031  18.777
36363DPPC   C3A 8388   7.995   3.051  19.077
36363DPPC   C4A 8389   7.705   3.001  19.507
36363DPPC   C1B 8390   8.395   3.371  18.097
36363DPPC   C2B 8391   8.165   3.401  18.387
36363DPPC   C3B 8392   7.835   3.421  18.797
36363DPPC   C4B 8393   7.595   3.401  19.237
36364DPPC   NC3 8394   9.825   4.679  18.207
36364DPPC   PO4 8395   9.465   4.549  18.057
36364DPPC   GL1 8396   9.085   4.609  18.127
36364DPPC   GL2 8397   8.985   4.789  17.857
36364DPPC   C1A 8398   8.885   4.769  18.437
36364DPPC   C2A 8399   8.605   4.839  18.717
36364DPPC   C3A 8400   8.325   4.809  19.097
36364DPPC   C4A 8401   8.015   4.839  19.457
36364DPPC   C1B 8402   8.655   4.789  18.047
36364DPPC   C2B 8403   8.375   4.749  18.327
36364DPPC   C3B 8404   8.055   4.789  18.657
36364DPPC   C4B 8405   7.755   4.799  19.017
36365DPPC   NC3 8406  10.565   3.979  19.077
36365DPPC   PO4 8407  10.445   4.339  19.197
36365DPPC   GL1 8408  10.365   4.279  19.637
36365DPPC   GL2 8409  10.515   3.999  19.647
36365DPPC   C1A 8410  10.675   4.319  19.817
36365DPPC   C2A 8411  10.975   4.299  20.117
36365DPPC   C3A 8412  11.255   4.359  20.497
36365DPPC   C4A 8413  11.605   4.339  20.887
36365DPPC   C1B 8414  10.675   3.919  19.997
36365DPPC   C2B 8415  10.855   3.851  20.357
36365DPPC   C3B 8416  11.185   3.821  20.697
36365DPPC   C4B 8417  11.495   3.899  21.057
36366DPPC   NC3 8418   7.605   3.541  15.817
36366DPPC   PO4 8419   7.545   3.371  16.157
36366DPPC   GL1 8420   7.335   3.501  16.497
36366DPPC   GL2 8421   7.585   3.481  16.657
36366DPPC   C1A 8422   7.005   3.381  16.637
36366DPPC   C2A 8423   6.795   3.311  16.977
36366DPPC   C3A 8424   6.545   3.231  17.337
36366DPPC   C4A 8425   6.305   3.231  17.727
36366DPPC   C1B 8426   7.475   3.561  17.027
36366DPPC   C2B 8427   7.455   3.681  17.417
36366DPPC   C3B 8428   7.155   3.711  17.777
36366DPPC   C4B 8429   6.805   3.711  18.147
36367DPPC   NC3 8430   8.655   0.581  16.787
36367DPPC   PO4 8431   8.455   0.281  16.667
36367DPPC   GL1 8432   8.115   0.281  16.927
36367DPPC   GL2 8433   8.115   6.559  16.807
36367DPPC   C1A 8434   7.725   0.341  17.037
36367DPPC   C2A 8435   7.365   0.321  17.197
36367DPPC   C3A 8436   7.065   0.281  17.557
36367DPPC   C4A 8437   6.745   0.301  17.877
36367DPPC   C1B 8438   7.735   6.489  16.867
36367DPPC   C2B 8439   7.395   6.409  17.077
36367DPPC   C3B 8440   7.005   6.399  17.267
36367DPPC   C4B 8441   6.735   6.459  17.697
36368DPPC   NC3 8442   9.005   4.319  17.767
36368DPPC   PO4 8443   9.175   4.119  18.027
36368DPPC   GL1 8444   8.965   4.259  18.347
36368DPPC   GL2 8445   8.995   3.881  18.387
36368DPPC   C1A 8446   8.665   4.349  18.517
36368DPPC   C2A 8447   8.355   4.359  18.797
36368DPPC   C3A 8448   8.055   4.369  19.207
36368DPPC   C4A 8449   7.715   4.399  19.557
36368DPPC   C1B 8450   8.845   3.979  18.717
36368DPPC   C2B 8451   8.565   3.929  19.007
36368DPPC   C3B 8452   8.245   3.929  19.357
36368DPPC   C4B 8453   8.015   3.969  19.747
36369DPPC   NC3 8454   9.845   1.141  19.117
36369DPPC   PO4 8455  10.015   1.001  19.477
36369DPPC   GL1 8456  10.115   0.641  19.567
36369DPPC   GL2 8457   9.955   0.401  19.487
36369DPPC   C1A 8458  10.375   0.561  19.827
36369DPPC   C2A 8459  10.605   0.671  20.147
36369DPPC   C3A 8460  10.925   0.721  20.537
36369DPPC   C4A 8461  11.225   0.731  20.947
36369DPPC   C1B 8462   9.785   0.241  19.767
36369DPPC   C2B 8463   9.665   0.071  20.127
36369DPPC   C3B 8464   9.445   0.061  20.527
36369DPPC   C4B 8465   9.125   0.151  20.887
36370DPPC   NC3 8466   7.195   4.669  15.547
36370DPPC   PO4 8467   7.025   4.939  15.717
36370DPPC   GL1 8468   6.825   5.089  16.037
36370DPPC   GL2 8469   6.945   5.329  16.177
36370DPPC   C1A 8470   6.545   4.959  16.237
36370DPPC   C2A 8471   6.305   4.899  16.547
36370DPPC   C3A 8472   5.925   4.879  16.877
36370DPPC   C4A 8473   5.685   4.779  17.347
36370DPPC   C1B 8474   6.685   5.479  16.427
36370DPPC   C2B 8475   6.385   5.429  16.707
36370DPPC   C3B 8476   6.045   5.359  17.007
36370DPPC   C4B 8477   5.675   5.329  17.467
36371DPPC   NC3 8478   8.045   4.989  16.667
36371DPPC   PO4 8479   8.365   5.269  16.707
36371DPPC   GL1 8480   8.355   5.409  17.097
36371DPPC   GL2 8481   8.095   5.569  16.977
36371DPPC   C1A 8482   8.225   5.369  17.397
36371DPPC   C2A 8483   8.065   5.499  17.737
36371DPPC   C3A 8484   7.735   5.559  18.077
36371DPPC   C4A 8485   7.415   5.649  18.437
36371DPPC   C1B 8486   7.815   5.519  17.247
36371DPPC   C2B 8487   7.575   5.569  17.567
36371DPPC   C3B 8488   7.275   5.609  17.927
36371DPPC   C4B 8489   6.955   5.529  18.347
36372DPPC   NC3 8490   9.285   4.919  18.357
36372DPPC   PO4 8491   9.505   4.699  18.587
36372DPPC   GL1 8492   9.085   4.539  18.737
36372DPPC   GL2 8493   9.225   4.369  18.857
36372DPPC   C1A 8494   8.825   4.559  18.997
36372DPPC   C2A 8495   8.565   4.369  19.297
36372DPPC   C3A 8496   8.285   4.369  19.707
36372DPPC   C4A 8497   8.005   4.369  20.147
36372DPPC   C1B 8498   9.205   4.399  19.217
36372DPPC   C2B 8499   9.005   4.499  19.547
36372DPPC   C3B 8500   8.755   4.419  19.877
36372DPPC   C4B 8501   8.505   4.409  20.297
36373DPPC   NC3 8502   8.605   3.711  17.127
36373DPPC   PO4 8503   8.375   3.969  16.977
36373DPPC   GL1 8504   8.115   4.169  17.087
36373DPPC   GL2 8505   7.865   4.199  17.017
36373DPPC   C1A 8506   8.035   4.149  17.457
36373DPPC   C2A 8507   7.955   4.119  17.817
36373DPPC   C3A 8508   7.625   4.159  18.187
36373DPPC   C4A 8509   7.325   4.219  18.487
36373DPPC   C1B 8510   7.645   4.209  17.277
36373DPPC   C2B 8511   7.405   4.179  17.667
36373DPPC   C3B 8512   7.075   4.179  18.007
36373DPPC   C4B 8513   6.795   4.159  18.397
36374DPPC   NC3 8514   7.895   4.369  15.897
36374DPPC   PO4 8515   7.795   4.009  15.907
36374DPPC   GL1 8516   7.555   3.821  16.297
36374DPPC   GL2 8517   7.305   3.811  16.157
36374DPPC   C1A 8518   7.375   3.891  16.647
36374DPPC   C2A 8519   7.095   3.741  16.887
36374DPPC   C3A 8520   6.945   3.711  17.297
36374DPPC   C4A 8521   6.635   3.641  17.627
36374DPPC   C1B 8522   6.965   3.711  16.387
36374DPPC   C2B 8523   6.645   3.751  16.667
36374DPPC   C3B 8524   6.495   3.661  17.077
36374DPPC   C4B 8525   6.155   3.601  17.457
36375DPPC   NC3 8526   7.775   3.321  15.387
36375DPPC   PO4 8527   7.655   3.071  15.657
36375DPPC   GL1 8528   7.355   2.981  15.907
36375DPPC   GL2 8529   7.175   3.191  15.907
36375DPPC   C1A 8530   7.255   2.841  16.207
36375DPPC   C2A 8531   7.005   2.881  16.607
36375DPPC   C3A 8532   6.605   2.801  16.927
36375DPPC   C4A 8533   6.285   2.781  17.367
36375DPPC   C1B 8534   6.955   3.251  16.187
36375DPPC   C2B 8535   6.615   3.291  16.477
36375DPPC   C3B 8536   6.335   3.211  16.897
36375DPPC   C4B 8537   5.995   3.191  17.247
36376DPPC   NC3 8538   8.855   3.191  16.867
36376DPPC   PO4 8539   8.705   2.821  17.007
36376DPPC   GL1 8540   8.415   2.771  17.227
36376DPPC   GL2 8541   8.165   2.871  17.127
36376DPPC   C1A 8542   8.415   2.641  17.607
36376DPPC   C2A 8543   8.195   2.531  17.937
36376DPPC   C3A 8544   7.795   2.481  18.207
36376DPPC   C4A 8545   7.475   2.511  18.587
36376DPPC   C1B 8546   7.855   2.811  17.277
36376DPPC   C2B 8547   7.465   2.881  17.417
36376DPPC   C3B 8548   7.215   2.851  17.777
36376DPPC   C4B 8549   6.865   2.901  18.157
36377DPPC   NC3 8550   7.425   5.279  15.897
36377DPPC   PO4 8551   7.145   5.489  15.637
36377DPPC   GL1 8552   6.805   5.639  15.847
36377DPPC   GL2 8553   6.685   5.359  15.677
36377DPPC   C1A 8554   6.615   5.749  16.097
36377DPPC   C2A 8555   6.345   5.829  16.367
36377DPPC   C3A 8556   6.055   5.819  16.727
36377DPPC   C4A 8557   5.735   5.719  17.067
36377DPPC   C1B 8558   6.395   5.319  15.917
36377DPPC   C2B 8559   6.135   5.299  16.237
36377DPPC   C3B 8560   5.785   5.279  16.577
36377DPPC   C4B 8561   5.455   5.289  16.957
36378DPPC   NC3 8562   9.335   6.449  19.457
36378DPPC   PO4 8563   9.695   6.219  19.527
36378DPPC   GL1 8564   9.895   6.129  19.877
36378DPPC   GL2 8565  10.155   6.089  19.727
36378DPPC   C1A 8566   9.675   6.259  20.077
36378DPPC   C2A 8567   9.365   6.209  20.327
36378DPPC   C3A 8568   9.145   6.279  20.707
36378DPPC   C4A 8569   8.835   6.289  21.047
36378DPPC   C1B 8570  10.455   6.029  19.937
36378DPPC   C2B 8571  10.665   5.999  20.267
36378DPPC   C3B 8572  10.935   5.929  20.667
36378DPPC   C4B 8573  10.875   6.229  21.027
36379DPPC   NC3 8574   8.595   1.601  18.157
36379DPPC   PO4 8575   8.915   1.691  18.387
36379DPPC   GL1 8576   8.695   1.711  18.677
36379DPPC   GL2 8577   8.715   1.861  18.917
36379DPPC   C1A 8578   8.335   1.671  18.697
36379DPPC   C2A 8579   8.005   1.671  18.947
36379DPPC   C3A 8580   7.695   1.671  19.267
36379DPPC   C4A 8581   7.455   1.671  19.647
36379DPPC   C1B 8582   8.485   1.751  19.107
36379DPPC   C2B 8583   8.195   1.681  19.377
36379DPPC   C3B 8584   8.005   1.691  19.797
36379DPPC   C4B 8585   7.655   1.641  20.117
36380DPPC   NC3 8586   9.035   0.661  18.187
36380DPPC   PO4 8587   9.015   0.501  17.817
36380DPPC   GL1 8588   8.725   0.211  17.977
36380DPPC   GL2 8589   8.775   0.301  18.227
36380DPPC   C1A 8590   8.445   0.061  17.987
36380DPPC   C2A 8591   8.135   6.569  18.267
36380DPPC   C3A 8592   7.835   6.539  18.647
36380DPPC   C4A 8593   7.575   6.449  19.057
36380DPPC   C1B 8594   8.555   0.371  18.547
36380DPPC   C2B 8595   8.465   0.401  18.917
36380DPPC   C3B 8596   8.195   0.431  19.317
36380DPPC   C4B 8597   7.865   0.391  19.707
36381DPPC   NC3 8598   8.545   4.389  17.187
36381DPPC   PO4 8599   8.705   4.109  17.447
36381DPPC   GL1 8600   8.365   3.831  17.537
36381DPPC   GL2 8601   8.365   3.949  17.787
36381DPPC   C1A 8602   8.275   3.511  17.627
36381DPPC   C2A 8603   7.975   3.331  17.897
36381DPPC   C3A 8604   7.675   3.361  18.237
36381DPPC   C4A 8605   7.335   3.341  18.587
36381DPPC   C1B 8606   8.195   3.781  18.027
36381DPPC   C2B 8607   7.905   3.781  18.347
36381DPPC   C3B 8608   7.595   3.851  18.717
36381DPPC   C4B 8609   7.295   3.801  19.137
36382DPPC   NC3 8610   9.905   5.349  19.457
36382DPPC   PO4 8611  10.195   5.279  19.197
36382DPPC   GL1 8612  10.275   5.079  19.607
36382DPPC   GL2 8613  10.575   5.219  19.477
36382DPPC   C1A 8614  10.415   5.119  19.937
36382DPPC   C2A 8615  10.745   5.109  20.207
36382DPPC   C3A 8616  11.075   5.189  20.527
36382DPPC   C4A 8617  11.375   5.089  20.897
36382DPPC   C1B 8618  10.855   5.239  19.727
36382DPPC   C2B 8619  11.205   5.299  19.947
36382DPPC   C3B 8620  11.505   5.299  20.317
36382DPPC   C4B 8621  11.805   5.309  20.787
36383DPPC   NC3 8622  10.465   1.651  19.327
36383DPPC   PO4 8623  10.205   1.921  19.467
36383DPPC   GL1 8624  10.405   1.941  19.867
36383DPPC   GL2 8625  10.125   1.961  19.927
36383DPPC   C1A 8626  10.765   1.951  20.027
36383DPPC   C2A 8627  11.135   2.071  20.137
36383DPPC   C3A 8628  11.515   2.111  20.357
36383DPPC   C4A 8629  11.755   2.051  20.787
36383DPPC   C1B 8630  10.035   1.891  20.277
36383DPPC   C2B 8631   9.835   1.841  20.627
36383DPPC   C3B 8632   9.505   1.941  21.007
36383DPPC   C4B 8633   9.355   2.101  21.397
36384DPPC   NC3 8634   9.235   3.651  18.717
36384DPPC   PO4 8635   9.135   3.421  18.417
36384DPPC   GL1 8636   8.925   3.141  18.697
36384DPPC   GL2 8637   8.995   3.331  18.927
36384DPPC   C1A 8638   8.665   3.071  18.927
36384DPPC   C2A 8639   8.465   3.071  19.267
36384DPPC   C3A 8640   8.215   3.081  19.667
36384DPPC   C4A 8641   7.895   2.991  20.007
36384DPPC   C1B 8642   8.765   3.551  19.107
36384DPPC   C2B 8643   8.645   3.571  19.467
36384DPPC   C3B 8644   8.345   3.531  19.767
36384DPPC   C4B 8645   8.115   3.441  20.187
36385DPPC   NC3 8646  10.605   2.261  18.077
36385DPPC   PO4 8647  10.385   2.351  18.377
36385DPPC   GL1 8648  10.725   2.291  18.677
36385DPPC   GL2 8649  10.685   2.441  18.927
36385DPPC   C1A 8650  11.115   2.361  18.697
36385DPPC   C2A 8651  11.445   2.311  18.877
36385DPPC   C3A 8652  11.735   2.301  19.287
36385DPPC   C4A 8653  12.105   2.341  19.647
36385DPPC   C1B 8654  10.775   2.291  19.277
36385DPPC   C2B 8655  10.825   2.021  19.607
36385DPPC   C3B 8656  10.765   1.571  19.777
36385DPPC   C4B 8657  10.865   1.191  20.137
36386DPPC   NC3 8658   9.425   1.941  17.727
36386DPPC   PO4 8659   9.115   1.791  17.927
36386DPPC   GL1 8660   8.865   2.021  18.037
36386DPPC   GL2 8661   8.925   2.231  18.247
36386DPPC   C1A 8662   8.515   2.031  18.117
36386DPPC   C2A 8663   8.165   2.021  18.327
36386DPPC   C3A 8664   7.805   2.131  18.607
36386DPPC   C4A 8665   7.575   2.131  19.077
36386DPPC   C1B 8666   8.665   2.181  18.537
36386DPPC   C2B 8667   8.345   2.101  18.817
36386DPPC   C3B 8668   8.075   2.111  19.197
36386DPPC   C4B 8669   7.775   2.091  19.587
36387DPPC   NC3 8670   9.375   1.521  18.347
36387DPPC   PO4 8671   9.495   1.791  18.587
36387DPPC   GL1 8672   9.175   1.671  18.877
36387DPPC   GL2 8673   9.115   1.451  18.777
36387DPPC   C1A 8674   8.995   1.741  19.217
36387DPPC   C2A 8675   8.735   1.841  19.547
36387DPPC   C3A 8676   8.465   1.761  19.987
36387DPPC   C4A 8677   8.185   1.771  20.327
36387DPPC   C1B 8678   8.875   1.301  18.947
36387DPPC   C2B 8679   8.695   1.351  19.287
36387DPPC   C3B 8680   8.365   1.341  19.697
36387DPPC   C4B 8681   8.125   1.321  20.107
36388DPPC   NC3 8682   8.665   2.081  17.637
36388DPPC   PO4 8683   8.655   1.691  17.667
36388DPPC   GL1 8684   8.465   1.351  17.807
36388DPPC   GL2 8685   8.215   1.551  17.707
36388DPPC   C1A 8686   8.265   1.271  18.127
36388DPPC   C2A 8687   8.085   1.251  18.507
36388DPPC   C3A 8688   7.735   1.241  18.897
36388DPPC   C4A 8689   7.465   1.181  19.257
36388DPPC   C1B 8690   8.075   1.681  18.027
36388DPPC   C2B 8691   7.835   1.681  18.357
36388DPPC   C3B 8692   7.595   1.651  18.717
36388DPPC   C4B 8693   7.285   1.731  19.057
36389DPPC   NC3 8694   8.815   1.151  17.397
36389DPPC   PO4 8695   8.715   0.961  17.747
36389DPPC   GL1 8696   8.345   0.881  17.827
36389DPPC   GL2 8697   8.495   0.601  17.997
36389DPPC   C1A 8698   8.125   0.861  18.147
36389DPPC   C2A 8699   7.865   0.781  18.437
36389DPPC   C3A 8700   7.585   0.791  18.847
36389DPPC   C4A 8701   7.205   0.691  19.157
36389DPPC   C1B 8702   8.255   0.431  18.187
36389DPPC   C2B 8703   8.095   0.381  18.567
36389DPPC   C3B 8704   7.835   0.381  18.937
36389DPPC   C4B 8705   7.535   0.311  19.267
36390DPPC   NC3 8706  10.925   3.551  18.367
36390DPPC   PO4 8707  10.705   3.611  18.687
36390DPPC   GL1 8708  10.975   3.541  18.997
36390DPPC   GL2 8709  11.005   3.781  19.017
36390DPPC   C1A 8710  11.165   3.461  19.327
36390DPPC   C2A 8711  11.425   3.581  19.647
36390DPPC   C3A 8712  11.745   3.591  20.027
36390DPPC   C4A 8713  12.015   3.581  20.367
36390DPPC   C1B 8714  11.205   3.939  19.217
36390DPPC   C2B 8715  11.485   4.029  19.537
36390DPPC   C3B 8716  11.855   4.049  19.867
36390DPPC   C4B 8717  12.195   4.039  20.267
36391DPPC   NC3 8718   8.875   5.099  16.887
36391DPPC   PO4 8719   8.605   4.809  16.967
36391DPPC   GL1 8720   8.315   5.029  17.127
36391DPPC   GL2 8721   8.375   4.979  17.357
36391DPPC   C1A 8722   7.935   5.109  17.167
36391DPPC   C2A 8723   7.575   5.089  17.427
36391DPPC   C3A 8724   7.235   5.129  17.787
36391DPPC   C4A 8725   6.865   5.039  18.117
36391DPPC   C1B 8726   8.005   4.999  17.557
36391DPPC   C2B 8727   7.745   5.039  17.867
36391DPPC   C3B 8728   7.415   5.089  18.257
36391DPPC   C4B 8729   7.045   5.109  18.567
36392DPPC   NC3 8730   7.985   2.191  16.637
36392DPPC   PO4 8731   7.925   1.751  16.617
36392DPPC   GL1 8732   7.615   1.461  16.617
36392DPPC   GL2 8733   7.545   1.451  16.347
36392DPPC   C1A 8734   7.485   1.241  16.907
36392DPPC   C2A 8735   7.275   1.161  17.217
36392DPPC   C3A 8736   6.955   1.181  17.547
36392DPPC   C4A 8737   6.665   1.121  17.947
36392DPPC   C1B 8738   7.165   1.451  16.307
36392DPPC   C2B 8739   6.875   1.521  16.597
36392DPPC   C3B 8740   6.475   1.521  16.927
36392DPPC   C4B 8741   6.145   1.501  17.287
36393DPPC   NC3 8742   9.125   3.661  17.967
36393DPPC   PO4 8743   8.765   3.801  18.007
36393DPPC   GL1 8744   8.575   3.959  18.367
36393DPPC   GL2 8745   8.605   3.611  18.357
36393DPPC   C1A 8746   8.335   3.949  18.567
36393DPPC   C2A 8747   8.055   3.919  18.877
36393DPPC   C3A 8748   7.765   3.909  19.277
36393DPPC   C4A 8749   7.505   3.831  19.717
36393DPPC   C1B 8750   8.575   3.431  18.657
36393DPPC   C2B 8751   8.345   3.461  18.997
36393DPPC   C3B 8752   8.075   3.451  19.377
36393DPPC   C4B 8753   7.815   3.491  19.757
36394DPPC   NC3 8754  10.655   4.599  18.847
36394DPPC   PO4 8755  10.525   4.839  19.087
36394DPPC   GL1 8756  10.575   4.689  19.407
36394DPPC   GL2 8757  10.795   4.849  19.447
36394DPPC   C1A 8758  10.505   4.719  19.767
36394DPPC   C2A 8759  10.605   4.679  20.107
36394DPPC   C3A 8760  10.815   4.629  20.507
36394DPPC   C4A 8761  11.065   4.679  20.947
36394DPPC   C1B 8762  10.925   4.789  19.787
36394DPPC   C2B 8763  11.115   4.789  20.187
36394DPPC   C3B 8764  11.445   4.799  20.497
36394DPPC   C4B 8765  11.895   4.649  20.627
36395DPPC   NC3 8766   7.375   3.939  15.547
36395DPPC   PO4 8767   7.515   4.309  15.627
36395DPPC   GL1 8768   7.305   4.159  15.897
36395DPPC   GL2 8769   7.465   4.229  16.127
36395DPPC   C1A 8770   6.925   4.139  16.027
36395DPPC   C2A 8771   6.635   4.089  16.297
36395DPPC   C3A 8772   6.335   4.149  16.647
36395DPPC   C4A 8773   5.965   4.079  17.007
36395DPPC   C1B 8774   7.225   4.189  16.387
36395DPPC   C2B 8775   6.955   4.189  16.657
36395DPPC   C3B 8776   6.675   4.159  17.067
36395DPPC   C4B 8777   6.395   4.069  17.427
36396DPPC   NC3 8778   8.785   2.381  16.927
36396DPPC   PO4 8779   8.495   2.321  17.157
36396DPPC   GL1 8780   8.125   2.461  17.357
36396DPPC   GL2 8781   7.965   2.441  17.107
36396DPPC   C1A 8782   7.885   2.401  17.567
36396DPPC   C2A 8783   7.505   2.491  17.747
36396DPPC   C3A 8784   7.215   2.451  18.207
36396DPPC   C4A 8785   6.895   2.481  18.547
36396DPPC   C1B 8786   7.595   2.371  17.197
36396DPPC   C2B 8787   7.205   2.381  17.397
36396DPPC   C3B 8788   6.945   2.481  17.737
36396DPPC   C4B 8789   6.585   2.471  18.097
36397DPPC   NC3 8790   7.745   5.919  15.967
36397DPPC   PO4 8791   7.705   5.599  16.207
36397DPPC   GL1 8792   7.415   5.579  16.547
36397DPPC   GL2 8793   7.715   5.399  16.637
36397DPPC   C1A 8794   7.095   5.469  16.687
36397DPPC   C2A 8795   6.805   5.459  16.957
36397DPPC   C3A 8796   6.525   5.399  17.317
36397DPPC   C4A 8797   6.255   5.409  17.687
36397DPPC   C1B 8798   7.595   5.169  16.887
36397DPPC   C2B 8799   7.245   5.029  17.057
36397DPPC   C3B 8800   6.865   5.039  17.317
36397DPPC   C4B 8801   6.525   5.009  17.717
36398DPPC   NC3 8802  10.105   4.669  19.527
36398DPPC   PO4 8803   9.915   4.329  19.447
36398DPPC   GL1 8804   9.715   4.219  19.807
36398DPPC   GL2 8805  10.035   4.109  19.857
36398DPPC   C1A 8806   9.525   4.139  20.107
36398DPPC   C2A 8807   9.305   4.079  20.467
36398DPPC   C3A 8808   9.085   4.059  20.957
36398DPPC   C4A 8809   8.835   4.009  21.387
36398DPPC   C1B 8810  10.185   4.419  19.967
36398DPPC   C2B 8811  10.085   4.829  20.017
36398DPPC   C3B 8812   9.925   5.269  19.947
36398DPPC   C4B 8813   9.865   5.709  19.837
36399DPPC   NC3 8814   8.265   1.431  16.447
36399DPPC   PO4 8815   8.075   1.151  16.227
36399DPPC   GL1 8816   7.825   0.851  16.517
36399DPPC   GL2 8817   7.635   1.021  16.387
36399DPPC   C1A 8818   7.715   0.821  16.897
36399DPPC   C2A 8819   7.565   0.771  17.237
36399DPPC   C3A 8820   7.275   0.821  17.617
36399DPPC   C4A 8821   6.975   0.731  18.017
36399DPPC   C1B 8822   7.295   1.111  16.517
36399DPPC   C2B 8823   7.015   1.071  16.817
36399DPPC   C3B 8824   6.675   1.091  17.117
36399DPPC   C4B 8825   6.405   1.021  17.517
36400DPPC   NC3 8826   9.905   0.611  19.077
36400DPPC   PO4 8827   9.535   0.711  19.087
36400DPPC   GL1 8828   9.535   0.841  19.447
36400DPPC   GL2 8829   9.565   1.111  19.497
36400DPPC   C1A 8830   9.605   0.681  19.737
36400DPPC   C2A 8831   9.405   0.651  20.007
36400DPPC   C3A 8832   9.165   0.571  20.397
36400DPPC   C4A 8833   8.855   0.551  20.807
36400DPPC   C1B 8834   9.275   1.081  19.757
36400DPPC   C2B 8835   9.055   1.041  20.127
36400DPPC   C3B 8836   8.845   0.961  20.507
36400DPPC   C4B 8837   8.585   1.021  20.847
36401DPPC   NC3 8838  10.425   1.551  18.797
36401DPPC   PO4 8839  10.065   1.611  18.987
36401DPPC   GL1 8840  10.075   1.431  19.407
36401DPPC   GL2 8841   9.765   1.491  19.407
36401DPPC   C1A 8842  10.305   1.451  19.737
36401DPPC   C2A 8843  10.385   1.581  20.157
36401DPPC   C3A 8844  10.265   1.461  20.587
36401DPPC   C4A 8845  10.045   1.601  20.967
36401DPPC   C1B 8846   9.465   1.551  19.647
36401DPPC   C2B 8847   9.365   1.471  20.047
36401DPPC   C3B 8848   9.125   1.421  20.447
36401DPPC   C4B 8849   8.825   1.421  20.757
36402DPPC   NC3 8850  10.305   2.371  19.157
36402DPPC   PO4 8851  10.385   2.031  18.907
36402DPPC   GL1 8852  10.695   1.931  18.917
36402DPPC   GL2 8853  10.835   1.671  18.997
36402DPPC   C1A 8854  11.065   2.041  18.987
36402DPPC   C2A 8855  11.275   2.121  19.317
36402DPPC   C3A 8856  11.545   2.201  19.727
36402DPPC   C4A 8857  11.935   2.211  20.107
36402DPPC   C1B 8858  11.035   1.681  19.307
36402DPPC   C2B 8859  11.265   1.681  19.667
36402DPPC   C3B 8860  11.555   1.741  20.047
36402DPPC   C4B 8861  11.855   1.751  20.407
36403DPPC   NC3 8862  10.315   3.171  19.257
36403DPPC   PO4 8863  10.275   3.541  19.097
36403DPPC   GL1 8864  10.675   3.531  19.367
36403DPPC   GL2 8865  10.645   3.261  19.547
36403DPPC   C1A 8866  10.865   3.801  19.517
36403DPPC   C2A 8867  11.095   3.909  19.867
36403DPPC   C3A 8868  11.415   3.989  20.127
36403DPPC   C4A 8869  11.715   4.019  20.487
36403DPPC   C1B 8870  10.825   3.041  19.747
36403DPPC   C2B 8871  10.885   2.901  20.097
36403DPPC   C3B 8872  10.785   2.871  20.617
36403DPPC   C4B 8873  10.805   2.691  21.067
36404DPPC   NC3 8874   9.655   2.661  18.977
36404DPPC   PO4 8875   9.485   2.511  18.647
36404DPPC   GL1 8876   9.065   2.501  18.737
36404DPPC   GL2 8877   9.135   2.781  18.887
36404DPPC   C1A 8878   8.795   2.321  18.927
36404DPPC   C2A 8879   8.595   2.201  19.217
36404DPPC   C3A 8880   8.305   2.111  19.597
36404DPPC   C4A 8881   8.085   2.121  20.027
36404DPPC   C1B 8882   8.825   2.711  19.167
36404DPPC   C2B 8883   8.595   2.681  19.517
36404DPPC   C3B 8884   8.295   2.581  19.897
36404DPPC   C4B 8885   8.065   2.521  20.317
36405DPPC   NC3 8886   7.595   6.549  15.607
36405DPPC   PO4 8887   7.755   6.439  15.927
36405DPPC   GL1 8888   7.425   6.209  16.027
36405DPPC   GL2 8889   7.255   6.299  15.777
36405DPPC   C1A 8890   7.385   6.049  16.327
36405DPPC   C2A 8891   7.265   5.989  16.767
36405DPPC   C3A 8892   6.935   5.939  17.117
36405DPPC   C4A 8893   6.595   5.959  17.467
36405DPPC   C1B 8894   6.975   6.529  15.857
36405DPPC   C2B 8895   6.595   0.061  15.957
36405DPPC   C3B 8896   6.285   0.121  16.297
36405DPPC   C4B 8897   5.935   0.111  16.617
36406DPPC   NC3 8898   7.525   1.721  15.817
36406DPPC   PO4 8899   7.585   1.961  16.177
36406DPPC   GL1 8900   7.395   1.861  16.517
36406DPPC   GL2 8901   7.225   2.031  16.417
36406DPPC   C1A 8902   7.275   1.611  16.767
36406DPPC   C2A 8903   6.985   1.591  17.087
36406DPPC   C3A 8904   6.635   1.591  17.407
36406DPPC   C4A 8905   6.345   1.551  17.767
36406DPPC   C1B 8906   6.925   2.001  16.677
36406DPPC   C2B 8907   6.645   1.991  16.967
36406DPPC   C3B 8908   6.285   1.991  17.257
36406DPPC   C4B 8909   5.855   1.871  17.307
36407DPPC   NC3 8910   7.535   1.271  15.057
36407DPPC   PO4 8911   7.575   1.241  15.497
36407DPPC   GL1 8912   7.235   1.341  15.677
36407DPPC   GL2 8913   7.095   1.091  15.697
36407DPPC   C1A 8914   7.075   1.601  15.887
36407DPPC   C2A 8915   6.865   1.811  16.187
36407DPPC   C3A 8916   6.525   1.941  16.467
36407DPPC   C4A 8917   6.165   1.931  16.777
36407DPPC   C1B 8918   6.925   1.051  16.047
36407DPPC   C2B 8919   6.745   1.011  16.387
36407DPPC   C3B 8920   6.375   0.981  16.767
36407DPPC   C4B 8921   6.045   1.011  17.117
36408DPPC   NC3 8922   9.105   2.061  18.687
36408DPPC   PO4 8923   9.365   2.141  18.947
36408DPPC   GL1 8924   9.195   2.401  19.187
36408DPPC   GL2 8925   9.425   2.481  19.357
36408DPPC   C1A 8926   8.995   2.251  19.457
36408DPPC   C2A 8927   8.725   2.301  19.807
36408DPPC   C3A 8928   8.555   2.251  20.167
36408DPPC   C4A 8929   8.305   2.221  20.587
36408DPPC   C1B 8930   9.415   2.331  19.707
36408DPPC   C2B 8931   9.215   2.261  20.077
36408DPPC   C3B 8932   8.935   2.301  20.487
36408DPPC   C4B 8933   8.715   2.371  20.967
36409DPPC   NC3 8934   7.075   3.041  15.497
36409DPPC   PO4 8935   7.195   3.431  15.537
36409DPPC   GL1 8936   7.025   3.621  15.897
36409DPPC   GL2 8937   6.955   3.909  15.717
36409DPPC   C1A 8938   6.645   3.601  16.057
36409DPPC   C2A 8939   6.335   3.671  16.297
36409DPPC   C3A 8940   6.095   3.671  16.757
36409DPPC   C4A 8941   5.765   3.631  17.067
36409DPPC   C1B 8942   6.615   3.841  15.517
36409DPPC   C2B 8943   6.315   3.581  15.667
36409DPPC   C3B 8944   5.935   3.521  15.967
36409DPPC   C4B 8945   5.755   3.581  16.417
36410DPPC   NC3 8946   9.465   4.199  18.457
36410DPPC   PO4 8947   9.525   4.019  18.777
36410DPPC   GL1 8948   9.355   4.039  19.097
36410DPPC   GL2 8949   9.145   3.871  19.087
36410DPPC   C1A 8950   9.355   4.089  19.427
36410DPPC   C2A 8951   9.145   4.059  19.787
36410DPPC   C3A 8952   8.895   4.039  20.197
36410DPPC   C4A 8953   8.595   4.069  20.637
36410DPPC   C1B 8954   8.905   4.049  19.297
36410DPPC   C2B 8955   8.655   4.039  19.657
36410DPPC   C3B 8956   8.415   3.929  20.097
36410DPPC   C4B 8957   8.065   3.949  20.497
36411DPPC   NC3 8958   8.915   6.029  17.577
36411DPPC   PO4 8959   9.015   6.319  17.817
36411DPPC   GL1 8960   8.885   6.349  18.217
36411DPPC   GL2 8961   8.935   6.259  18.407
36411DPPC   C1A 8962   8.605   6.529  18.367
36411DPPC   C2A 8963   8.325   6.569  18.727
36411DPPC   C3A 8964   8.055   6.519  19.177
36411DPPC   C4A 8965   7.755   6.499  19.537
36411DPPC   C1B 8966   8.655   6.159  18.637
36411DPPC   C2B 8967   8.455   6.169  19.027
36411DPPC   C3B 8968   8.155   6.099  19.397
36411DPPC   C4B 8969   7.845   6.109  19.797
36412DPPC   NC3 8970   9.745   3.899  19.307
36412DPPC   PO4 8971  10.125   3.861  19.467
36412DPPC   GL1 8972  10.395   3.601  19.737
36412DPPC   GL2 8973  10.185   3.421  19.817
36412DPPC   C1A 8974  10.735   3.531  19.807
36412DPPC   C2A 8975  11.035   3.471  20.077
36412DPPC   C3A 8976  11.355   3.511  20.337
36412DPPC   C4A 8977  11.685   3.521  20.687
36412DPPC   C1B 8978   9.945   3.601  20.037
36412DPPC   C2B 8979   9.685   3.681  20.377
36412DPPC   C3B 8980   9.395   3.671  20.787
36412DPPC   C4B 8981   9.355   3.721  21.267
36413DPPC   NC3 8982   9.305   2.981  18.497
36413DPPC   PO4 8983   9.405   3.121  18.867
36413DPPC   GL1 8984   9.265   3.031  19.277
36413DPPC   GL2 8985   9.485   2.981  19.367
36413DPPC   C1A 8986   8.965   3.051  19.427
36413DPPC   C2A 8987   8.735   3.191  19.767
36413DPPC   C3A 8988   8.475   3.041  20.177
36413DPPC   C4A 8989   8.085   3.071  20.487
36413DPPC   C1B 8990   9.465   2.921  19.677
36413DPPC   C2B 8991   9.395   2.781  20.067
36413DPPC   C3B 8992   9.225   2.741  20.547
36413DPPC   C4B 8993   8.925   2.891  20.907
36414DPPC   NC3 8994   9.415   6.279  18.127
36414DPPC   PO4 8995   9.275   5.909  17.947
36414DPPC   GL1 8996   8.805   5.909  18.067
36414DPPC   GL2 8997   8.895   5.789  18.337
36414DPPC   C1A 8998   8.465   6.009  18.217
36414DPPC   C2A 8999   8.235   6.069  18.547
36414DPPC   C3A 9000   7.905   6.119  18.937
36414DPPC   C4A 9001   7.615   6.039  19.327
36414DPPC   C1B 9002   8.685   5.639  18.517
36414DPPC   C2B 9003   8.385   5.669  18.777
36414DPPC   C3B 9004   8.045   5.669  19.177
36414DPPC   C4B 9005   7.865   5.579  19.597
36415DPPC   NC3 9006  10.635   5.829  18.547
36415DPPC   PO4 9007  10.915   5.549  18.587
36415DPPC   GL1 9008  11.135   5.749  18.927
36415DPPC   GL2 9009  10.795   5.769  19.027
36415DPPC   C1A 9010  11.445   5.779  19.137
36415DPPC   C2A 9011  11.695   5.819  19.377
36415DPPC   C3A 9012  12.035   5.759  19.767
36415DPPC   C4A 9013  12.365   5.819  20.097
36415DPPC   C1B 9014  10.935   5.769  19.367
36415DPPC   C2B 9015  11.185   5.719  19.657
36415DPPC   C3B 9016  11.505   5.709  20.027
36415DPPC   C4B 9017  11.805   5.719  20.427
36416DPPC   NC3 9018   7.935   3.741  16.727
36416DPPC   PO4 9019   8.215   3.501  16.807
36416DPPC   GL1 9020   7.995   3.481  17.187
36416DPPC   GL2 9021   8.005   3.771  17.217
36416DPPC   C1A 9022   7.765   3.301  17.417
36416DPPC   C2A 9023   7.505   3.271  17.727
36416DPPC   C3A 9024   7.195   3.241  18.147
36416DPPC   C4A 9025   6.845   3.291  18.487
36416DPPC   C1B 9026   7.905   3.731  17.557
36416DPPC   C2B 9027   7.645   3.711  17.887
36416DPPC   C3B 9028   7.325   3.751  18.227
36416DPPC   C4B 9029   7.005   3.801  18.607
36417DPPC   NC3 9030   8.735   6.359  16.787
36417DPPC   PO4 9031   8.495   6.479  17.067
36417DPPC   GL1 9032   8.145   0.041  17.297
36417DPPC   GL2 9033   8.275   0.161  17.567
36417DPPC   C1A 9034   7.795   6.549  17.277
36417DPPC   C2A 9035   7.495   6.409  17.557
36417DPPC   C3A 9036   7.175   6.499  17.857
36417DPPC   C4A 9037   6.815   6.469  18.217
36417DPPC   C1B 9038   8.085   0.331  17.797
36417DPPC   C2B 9039   7.835   0.351  18.127
36417DPPC   C3B 9040   7.585   0.391  18.507
36417DPPC   C4B 9041   7.215   0.311  18.837
36418DPPC   NC3 9042   9.575   5.429  17.907
36418DPPC   PO4 9043   9.325   5.129  17.897
36418DPPC   GL1 9044   8.945   5.169  18.017
36418DPPC   GL2 9045   8.935   5.429  17.917
36418DPPC   C1A 9046   8.645   5.139  18.267
36418DPPC   C2A 9047   8.365   5.239  18.537
36418DPPC   C3A 9048   8.045   5.259  18.887
36418DPPC   C4A 9049   7.715   5.229  19.267
36418DPPC   C1B 9050   8.575   5.499  17.987
36418DPPC   C2B 9051   8.225   5.609  18.217
36418DPPC   C3B 9052   7.905   5.659  18.587
36418DPPC   C4B 9053   7.625   5.619  18.927
36419DPPC   NC3 9054   9.755   5.909  18.757
36419DPPC   PO4 9055   9.445   5.779  18.987
36419DPPC   GL1 9056   9.265   6.009  19.397
36419DPPC   GL2 9057   9.465   5.809  19.537
36419DPPC   C1A 9058   9.135   6.139  19.677
36419DPPC   C2A 9059   8.885   6.169  20.097
36419DPPC   C3A 9060   8.615   6.159  20.427
36419DPPC   C4A 9061   8.315   6.229  20.777
36419DPPC   C1B 9062   9.405   5.889  19.867
36419DPPC   C2B 9063   9.205   5.789  20.247
36419DPPC   C3B 9064   8.935   5.799  20.657
36419DPPC   C4B 9065   8.665   5.789  20.987
36420DPPC   NC3 9066   8.465   1.451  17.267
36420DPPC   PO4 9067   8.295   1.551  16.937
36420DPPC   GL1 9068   7.885   1.601  17.077
36420DPPC   GL2 9069   7.935   1.551  17.387
36420DPPC   C1A 9070   7.545   1.621  17.197
36420DPPC   C2A 9071   7.245   1.601  17.497
36420DPPC   C3A 9072   6.875   1.631  17.837
36420DPPC   C4A 9073   6.605   1.591  18.317
36420DPPC   C1B 9074   7.785   1.591  17.717
36420DPPC   C2B 9075   7.465   1.641  17.967
36420DPPC   C3B 9076   7.135   1.591  18.297
36420DPPC   C4B 9077   6.915   1.581  18.727
36421DPPC   NC3 9078  10.225   6.549  18.977
36421DPPC   PO4 9079  10.005   6.279  19.087
36421DPPC   GL1 9080  10.085   6.499  19.527
36421DPPC   GL2 9081  10.285   6.439  19.427
36421DPPC   C1A 9082  10.135   6.519  19.907
36421DPPC   C2A 9083  10.365   0.201  20.147
36421DPPC   C3A 9084  10.685   0.281  20.427
36421DPPC   C4A 9085  10.915   0.161  20.887
36421DPPC   C1B 9086  10.485   6.399  19.717
36421DPPC   C2B 9087  10.675   6.449  20.087
36421DPPC   C3B 9088  11.005   6.479  20.447
36421DPPC   C4B 9089  11.355   6.409  20.757
36422DPPC   NC3 9090   8.565   4.339  16.587
36422DPPC   PO4 9091   8.215   4.419  16.737
36422DPPC   GL1 9092   8.165   4.619  17.037
36422DPPC   GL2 9093   7.825   4.699  16.937
36422DPPC   C1A 9094   8.075   4.619  17.347
36422DPPC   C2A 9095   7.735   4.619  17.557
36422DPPC   C3A 9096   7.425   4.619  17.997
36422DPPC   C4A 9097   7.095   4.669  18.307
36422DPPC   C1B 9098   7.505   4.609  17.207
36422DPPC   C2B 9099   7.235   4.609  17.547
36422DPPC   C3B 9100   6.915   4.609  17.837
36422DPPC   C4B 9101   6.565   4.579  18.217
36423DPPC   NC3 9102   7.735   0.691  16.097
36423DPPC   PO4 9103   7.695   0.321  15.977
36423DPPC   GL1 9104   7.325   0.141  16.067
36423DPPC   GL2 9105   7.485   6.589  16.277
36423DPPC   C1A 9106   7.035   0.251  16.247
36423DPPC   C2A 9107   6.745   0.091  16.517
36423DPPC   C3A 9108   6.375   0.141  16.817
36423DPPC   C4A 9109   6.075   0.141  17.107
36423DPPC   C1B 9110   7.175   6.509  16.527
36423DPPC   C2B 9111   6.885   6.309  16.787
36423DPPC   C3B 9112   6.485   6.369  17.137
36423DPPC   C4B 9113   6.225   6.299  17.507
36424DPPC   NC3 9114   7.955   6.549  16.397
36424DPPC   PO4 9115   7.865   0.341  16.477
36424DPPC   GL1 9116   7.415   0.401  16.497
36424DPPC   GL2 9117   7.435   0.701  16.597
36424DPPC   C1A 9118   7.085   0.281  16.697
36424DPPC   C2A 9119   6.845   0.211  17.027
36424DPPC   C3A 9120   6.555   0.191  17.357
36424DPPC   C4A 9121   6.285   0.101  17.747
36424DPPC   C1B 9122   7.245   0.721  16.857
36424DPPC   C2B 9123   7.035   0.691  17.197
36424DPPC   C3B 9124   6.745   0.671  17.557
36424DPPC   C4B 9125   6.375   0.641  17.907
36425DPPA   PO4 9126   9.555   1.311  18.777
36425DPPA   GL1 9127   9.335   1.161  19.097
36425DPPA   GL2 9128   9.125   0.941  19.077
36425DPPA   C1A 9129   9.135   1.291  19.417
36425DPPA   C2A 9130   8.945   1.431  19.747
36425DPPA   C3A 9131   8.665   1.361  20.157
36425DPPA   C4A 9132   8.395   1.331  20.537
36425DPPA   C1B 9133   8.855   0.901  19.347
36425DPPA   C2B 9134   8.715   0.931  19.707
36425DPPA   C3B 9135   8.485   0.951  20.117
36425DPPA   C4B 9136   8.145   0.931  20.477
36426DPPA   PO4 9137  10.265   0.791  18.777
36426DPPA   GL1 9138  10.325   0.681  19.157
36426DPPA   GL2 9139  10.315   0.361  19.167
36426DPPA   C1A 9140  10.535   0.781  19.467
36426DPPA   C2A 9141  10.845   0.721  19.657
36426DPPA   C3A 9142  11.125   0.821  19.977
36426DPPA   C4A 9143  11.505   0.841  20.317
36426DPPA   C1B 9144  10.435   0.241  19.487
36426DPPA   C2B 9145  10.785   0.201  19.797
36426DPPA   C3B 9146  11.055   0.241  20.157
36426DPPA   C4B 9147  11.295   0.391  20.557
36427DPPA   PO4 9148   8.925   3.091  17.367
36427DPPA   GL1 9149   8.755   3.021  17.757
36427DPPA   GL2 9150   8.535   3.111  17.577
36427DPPA   C1A 9151   8.485   2.971  17.987
36427DPPA   C2A 9152   8.095   2.911  18.197
36427DPPA   C3A 9153   7.825   2.891  18.557
36427DPPA   C4A 9154   7.485   2.931  18.907
36427DPPA   C1B 9155   8.185   3.011  17.607
36427DPPA   C2B 9156   7.835   2.871  17.757
36427DPPA   C3B 9157   7.565   2.911  18.097
36427DPPA   C4B 9158   7.245   2.881  18.457
36428DPPA   PO4 9159   7.905   4.149  16.377
36428DPPA   GL1 9160   7.705   4.359  16.647
36428DPPA   GL2 9161   7.525   4.539  16.477
36428DPPA   C1A 9162   7.455   4.219  16.907
36428DPPA   C2A 9163   7.165   4.169  17.197
36428DPPA   C3A 9164   6.845   4.199  17.507
36428DPPA   C4A 9165   6.575   4.089  17.907
36428DPPA   C1B 9166   7.205   4.549  16.677
36428DPPA   C2B 9167   6.975   4.599  17.007
36428DPPA   C3B 9168   6.635   4.569  17.327
36428DPPA   C4B 9169   6.285   4.519  17.727
36429DPPA   PO4 9170   7.585   4.759  15.947
36429DPPA   GL1 9171   7.305   4.829  16.147
36429DPPA   GL2 9172   7.165   4.539  16.047
36429DPPA   C1A 9173   7.085   5.009  16.337
36429DPPA   C2A 9174   6.815   5.069  16.627
36429DPPA   C3A 9175   6.455   5.029  16.967
36429DPPA   C4A 9176   6.185   4.959  17.377
36429DPPA   C1B 9177   6.915   4.529  16.297
36429DPPA   C2B 9178   6.695   4.619  16.607
36429DPPA   C3B 9179   6.395   4.549  16.927
36429DPPA   C4B 9180   6.085   4.519  17.247
36430DPPA   PO4 9181   9.435   3.521  19.157
36430DPPA   GL1 9182   9.265   3.411  19.467
36430DPPA   GL2 9183   9.125   3.641  19.557
36430DPPA   C1A 9184   9.225   3.241  19.817
36430DPPA   C2A 9185   9.025   3.141  20.157
36430DPPA   C3A 9186   8.715   3.191  20.557
36430DPPA   C4A 9187   8.485   3.311  20.997
36430DPPA   C1B 9188   8.885   3.631  19.827
36430DPPA   C2B 9189   8.675   3.531  20.157
36430DPPA   C3B 9190   8.425   3.601  20.607
36430DPPA   C4B 9191   8.125   3.621  20.957
36431DPPA   PO4 9192   7.115   2.571  15.727
36431DPPA   GL1 9193   6.715   2.801  15.697
36431DPPA   GL2 9194   6.865   2.881  15.947
36431DPPA   C1A 9195   6.375   2.791  15.787
36431DPPA   C2A 9196   6.065   2.731  16.097
36431DPPA   C3A 9197   5.795   2.751  16.457
36431DPPA   C4A 9198   5.515   2.771  16.837
36431DPPA   C1B 9199   6.625   2.791  16.187
36431DPPA   C2B 9200   6.345   2.781  16.537
36431DPPA   C3B 9201   6.045   2.821  16.887
36431DPPA   C4B 9202   5.735   2.771  17.267
36432DPPA   PO4 9203   9.795   4.929  19.257
36432DPPA   GL1 9204   9.695   4.969  19.657
36432DPPA   GL2 9205   9.645   4.619  19.647
36432DPPA   C1A 9206   9.535   4.989  19.987
36432DPPA   C2A 9207   9.265   4.969  20.297
36432DPPA   C3A 9208   9.025   4.869  20.747
36432DPPA   C4A 9209   8.845   4.839  21.177
36432DPPA   C1B 9210   9.375   4.519  19.817
36432DPPA   C2B 9211   9.195   4.419  20.137
36432DPPA   C3B 9212   8.925   4.419  20.547
36432DPPA   C4B 9213   8.615   4.439  20.987
36433DPPA   PO4 9214   9.405   5.169  18.777
36433DPPA   GL1 9215   9.015   4.979  18.837
36433DPPA   GL2 9216   9.235   4.919  19.077
36433DPPA   C1A 9217   8.825   4.899  19.227
36433DPPA   C2A 9218   8.545   4.789  19.557
36433DPPA   C3A 9219   8.325   4.769  19.997
36433DPPA   C4A 9220   8.005   4.809  20.397
36433DPPA   C1B 9221   9.155   4.929  19.467
36433DPPA   C2B 9222   9.005   4.879  19.877
36433DPPA   C3B 9223   8.725   4.849  20.257
36433DPPA   C4B 9224   8.465   4.849  20.637
36434DPPA   PO4 9225   7.865   2.741  16.677
36434DPPA   GL1 9226   7.435   2.801  16.737
36434DPPA   GL2 9227   7.505   3.061  16.577
36434DPPA   C1A 9228   7.245   2.781  17.027
36434DPPA   C2A 9229   6.945   2.861  17.287
36434DPPA   C3A 9230   6.635   2.881  17.677
36434DPPA   C4A 9231   6.285   2.811  18.067
36434DPPA   C1B 9232   7.285   3.191  16.877
36434DPPA   C2B 9233   7.225   3.291  17.277
36434DPPA   C3B 9234   6.925   3.251  17.687
36434DPPA   C4B 9235   6.555   3.281  18.107
36435DPPA   PO4 9236  10.375   1.191  19.147
36435DPPA   GL1 9237  10.625   1.231  19.457
36435DPPA   GL2 9238  10.845   1.301  19.377
36435DPPA   C1A 9239  10.555   1.081  19.827
36435DPPA   C2A 9240  10.285   1.081  20.087
36435DPPA   C3A 9241  10.025   1.001  20.437
36435DPPA   C4A 9242   9.825   1.081  20.887
36435DPPA   C1B 9243  11.065   1.201  19.677
36435DPPA   C2B 9244  11.355   1.261  19.997
36435DPPA   C3B 9245  11.645   1.321  20.377
36435DPPA   C4B 9246  11.755   1.541  20.847
36436DPPA   PO4 9247  10.035   2.761  19.267
36436DPPA   GL1 9248  10.285   2.851  19.607
36436DPPA   GL2 9249  10.415   2.601  19.527
36436DPPA   C1A 9250  10.395   3.061  19.887
36436DPPA   C2A 9251  10.555   3.291  20.187
36436DPPA   C3A 9252  10.385   3.331  20.637
36436DPPA   C4A 9253  10.215   3.391  21.117
36436DPPA   C1B 9254  10.615   2.461  19.797
36436DPPA   C2B 9255  10.755   2.401  20.177
36436DPPA   C3B 9256  11.055   2.421  20.507
36436DPPA   C4B 9257  11.335   2.281  20.867
36437DPPA   PO4 9258   8.815   5.529  17.147
36437DPPA   GL1 9259   8.635   5.449  17.527
36437DPPA   GL2 9260   8.565   5.759  17.517
36437DPPA   C1A 9261   8.515   5.169  17.717
36437DPPA   C2A 9262   8.235   5.119  17.987
36437DPPA   C3A 9263   7.895   5.179  18.367
36437DPPA   C4A 9264   7.595   5.179  18.727
36437DPPA   C1B 9265   8.295   5.929  17.757
36437DPPA   C2B 9266   8.035   6.109  18.007
36437DPPA   C3B 9267   7.765   6.079  18.387
36437DPPA   C4B 9268   7.405   6.059  18.767
36438DPPA   PO4 9269  10.135   0.351  18.657
36438DPPA   GL1 9270  10.545   0.321  18.717
36438DPPA   GL2 9271  10.585   0.061  18.697
36438DPPA   C1A 9272  10.745   0.401  18.957
36438DPPA   C2A 9273  10.935   0.341  19.347
36438DPPA   C3A 9274  11.295   0.381  19.667
36438DPPA   C4A 9275  11.555   0.381  20.087
36438DPPA   C1B 9276  10.675   0.001  19.037
36438DPPA   C2B 9277  10.775   6.509  19.397
36438DPPA   C3B 9278  11.155   6.459  19.677
36438DPPA   C4B 9279  11.455   6.469  20.077
36439DPPA   PO4 9280  10.555   1.421  18.287
36439DPPA   GL1 9281  10.605   1.161  18.667
36439DPPA   GL2 9282  10.885   1.381  18.667
36439DPPA   C1A 9283  10.775   0.931  18.867
36439DPPA   C2A 9284  10.975   0.821  19.217
36439DPPA   C3A 9285  11.335   0.881  19.537
36439DPPA   C4A 9286  11.705   0.901  19.897
36439DPPA   C1B 9287  11.135   1.311  19.037
36439DPPA   C2B 9288  11.385   1.341  19.327
36439DPPA   C3B 9289  11.745   1.361  19.677
36439DPPA   C4B 9290  12.085   1.401  20.027
36440DPPA   PO4 9291   8.665   1.851  17.127
36440DPPA   GL1 9292   8.335   1.871  17.347
36440DPPA   GL2 9293   8.155   1.931  17.077
36440DPPA   C1A 9294   8.075   1.941  17.667
36440DPPA   C2A 9295   7.825   2.081  17.897
36440DPPA   C3A 9296   7.525   2.041  18.257
36440DPPA   C4A 9297   7.225   2.051  18.627
36440DPPA   C1B 9298   7.865   2.021  17.287
36440DPPA   C2B 9299   7.545   1.991  17.537
36440DPPA   C3B 9300   7.205   2.091  17.797
36440DPPA   C4B 9301   6.855   2.031  18.197
36441DPPA   PO4 9302   8.985   6.309  17.187
36441DPPA   GL1 9303   8.565   6.089  17.247
36441DPPA   GL2 9304   8.495   6.209  17.497
36441DPPA   C1A 9305   8.245   5.909  17.307
36441DPPA   C2A 9306   7.905   5.949  17.537
36441DPPA   C3A 9307   7.595   6.009  17.837
36441DPPA   C4A 9308   7.275   6.059  18.187
36441DPPA   C1B 9309   8.215   6.359  17.637
36441DPPA   C2B 9310   7.915   6.519  17.787
36441DPPA   C3B 9311   7.625   6.469  18.107
36441DPPA   C4B 9312   7.385   6.529  18.467
36442DPPA   PO4 9313   9.745   0.071  19.247
36442DPPA   GL1 9314   9.475   0.291  19.497
36442DPPA   GL2 9315   9.305   0.391  19.377
36442DPPA   C1A 9316   9.315   0.121  19.777
36442DPPA   C2A 9317   9.125   6.599  20.117
36442DPPA   C3A 9318   8.805   0.051  20.487
36442DPPA   C4A 9319   8.565   0.141  20.937
36442DPPA   C1B 9320   9.085   0.601  19.637
36442DPPA   C2B 9321   8.875   0.531  19.957
36442DPPA   C3B 9322   8.595   0.491  20.367
36442DPPA   C4B 9323   8.195   0.481  20.677
36443DPPA   PO4 9324   9.135   2.381  17.797
36443DPPA   GL1 9325   8.825   2.591  17.957
36443DPPA   GL2 9326   8.615   2.451  17.937
36443DPPA   C1A 9327   8.785   2.741  18.267
36443DPPA   C2A 9328   8.655   2.701  18.667
36443DPPA   C3A 9329   8.385   2.611  19.047
36443DPPA   C4A 9330   8.095   2.611  19.447
36443DPPA   C1B 9331   8.445   2.471  18.287
36443DPPA   C2B 9332   8.125   2.511  18.517
36443DPPA   C3B 9333   7.865   2.531  18.947
36443DPPA   C4B 9334   7.595   2.521  19.357
36444DPPA   PO4 9335   9.855   3.281  19.307
36444DPPA   GL1 9336   9.785   3.271  19.747
36444DPPA   GL2 9337   9.645   3.551  19.667
36444DPPA   C1A 9338   9.625   3.251  19.997
36444DPPA   C2A 9339   9.495   3.201  20.377
36444DPPA   C3A 9340   9.205   3.251  20.687
36444DPPA   C4A 9341   9.005   3.321  21.127
36444DPPA   C1B 9342   9.485   3.731  19.907
36444DPPA   C2B 9343   9.195   3.641  20.217
36444DPPA   C3B 9344   8.925   3.671  20.567
36444DPPA   C4B 9345   8.715   3.751  21.007
36445DPPA   PO4 9346   6.995   3.291  15.017
36445DPPA   GL1 9347   6.605   3.381  15.217
36445DPPA   GL2 9348   6.775   3.381  15.517
36445DPPA   C1A 9349   6.335   3.181  15.377
36445DPPA   C2A 9350   6.025   3.091  15.707
36445DPPA   C3A 9351   5.725   3.071  16.047
36445DPPA   C4A 9352   5.415   3.161  16.437
36445DPPA   C1B 9353   6.575   3.231  15.787
36445DPPA   C2B 9354   6.365   3.131  16.107
36445DPPA   C3B 9355   6.085   3.211  16.437
36445DPPA   C4B 9356   5.755   3.211  16.777
36446DPPA   PO4 9357   7.455   2.141  15.547
36446DPPA   GL1 9358   7.105   2.011  15.797
36446DPPA   GL2 9359   7.225   2.201  15.997
36446DPPA   C1A 9360   6.735   1.981  15.797
36446DPPA   C2A 9361   6.385   1.831  15.957
36446DPPA   C3A 9362   6.025   1.841  16.307
36446DPPA   C4A 9363   5.695   1.841  16.697
36446DPPA   C1B 9364   6.975   2.311  16.267
36446DPPA   C2B 9365   6.705   2.451  16.547
36446DPPA   C3B 9366   6.385   2.381  16.907
36446DPPA   C4B 9367   6.015   2.381  17.257
36447DPPA   PO4 9368  10.255   6.119  18.647
36447DPPA   GL1 9369  10.525   6.139  18.937
36447DPPA   GL2 9370  10.775   6.209  18.767
36447DPPA   C1A 9371  10.625   6.109  19.277
36447DPPA   C2A 9372  10.835   6.089  19.637
36447DPPA   C3A 9373  11.085   6.039  20.017
36447DPPA   C4A 9374  11.425   6.089  20.357
36447DPPA   C1B 9375  11.035   6.159  19.017
36447DPPA   C2B 9376  11.265   6.139  19.367
36447DPPA   C3B 9377  11.585   6.159  19.697
36447DPPA   C4B 9378  11.905   6.139  20.067
36448DPPA   PO4 9379   9.265   5.969  18.507
36448DPPA   GL1 9380   9.025   5.989  18.757
36448DPPA   GL2 9381   9.135   6.219  18.927
36448DPPA   C1A 9382   8.835   5.859  18.997
36448DPPA   C2A 9383   8.555   5.709  19.277
36448DPPA   C3A 9384   8.345   5.709  19.717
36448DPPA   C4A 9385   8.095   5.569  20.097
36448DPPA   C1B 9386   8.895   6.219  19.237
36448DPPA   C2B 9387   8.655   6.169  19.577
36448DPPA   C3B 9388   8.395   6.089  19.997
36448DPPA   C4B 9389   8.055   6.099  20.317
36449DPPA   PO4 9390   8.765   3.361  22.077
36449DPPA   GL1 9391   8.835   3.291  21.687
36449DPPA   GL2 9392   9.125   3.411  21.717
36449DPPA   C1A 9393   8.655   3.461  21.417
36449DPPA   C2A 9394   8.355   3.781  21.387
36449DPPA   C3A 9395   8.185   4.089  21.057
36449DPPA   C4A 9396   8.145   4.409  20.747
36449DPPA   C1B 9397   9.355   3.261  21.467
36449DPPA   C2B 9398   9.555   3.311  21.117
36449DPPA   C3B 9399   9.815   3.321  20.747
36449DPPA   C4B 9400  10.065   3.241  20.287
  21.14753   6.60785  45.12512
