INSANE! Membrane UpperLeaflet>M3.DPPC:M3.DPPA=75.0:25.0 LowerLeaflet>M3.DPPC:M3.DPPA=75.0:25.0
56932
    1DPPC   NC3    1   1.573   5.335  24.239 -0.0549 -0.0808 -0.1440
    1DPPC   PO4    2   1.569   5.242  24.647 -0.1032  0.0467  0.0836
    1DPPC   GL1    3   1.205   5.189  24.810 -0.1076 -0.1850  0.1102
    1DPPC   GL2    4   1.172   5.374  25.026 -0.1520 -0.0940  0.0161
    1DPPC   C1A    5   0.858   5.093  24.690  0.0565 -0.0719 -0.0849
    1DPPC   C2A    6   0.540   5.034  24.379  0.2018  0.2788 -0.0210
    1DPPC   C3A    7   0.250   4.964  23.979 -0.0973 -0.3355 -0.0864
    1DPPC   C4A    8  -0.062   4.992  23.614 -0.3225 -0.1246 -0.0632
    1DPPC   C1B    9   0.810   5.473  25.008 -0.2755 -0.0812 -0.0176
    1DPPC   C2B   10   0.515   5.438  24.786 -0.2353  0.3149  0.0848
    1DPPC   C3B   11   0.231   5.398  24.406 -0.0126  0.1016 -0.1964
    1DPPC   C4B   12  -0.128   5.332  24.010  0.1943 -0.0733 -0.0711
    2DPPC   NC3   13   1.613   2.617  24.726  0.1129  0.0982  0.0636
    2DPPC   PO4   14   1.814   2.650  24.423  0.0813  0.1705  0.2281
    2DPPC   GL1   15   1.465   2.477  24.218 -0.3148  0.1861 -0.4402
    2DPPC   GL2   16   1.633   2.383  24.001 -0.0206  0.0934  0.0342
    2DPPC   C1A   17   1.148   2.267  24.212 -0.1359  0.0618  0.1561
    2DPPC   C2A   18   0.888   2.298  23.883  0.3027 -0.0139 -0.0809
    2DPPC   C3A   19   0.553   2.360  23.566 -0.0773 -0.0449  0.0886
    2DPPC   C4A   20   0.206   2.317  23.200 -0.0986 -0.1926 -0.0902
    2DPPC   C1B   21   1.428   2.556  23.703  0.0936 -0.1606 -0.0695
    2DPPC   C2B   22   1.130   2.504  23.427  0.0957 -0.1018  0.1297
    2DPPC   C3B   23   0.783   2.490  23.150  0.1991  0.2924  0.2387
    2DPPC   C4B   24   0.501   2.485  22.734 -0.2022 -0.1210 -0.0955
    3DPPC   NC3   25   2.364   4.581  23.860 -0.0155 -0.0477  0.0422
    3DPPC   PO4   26   2.613   4.487  23.539  0.0368 -0.0980 -0.1495
    3DPPC   GL1   27   2.538   4.597  23.174  0.0430 -0.1997  0.0045
    3DPPC   GL2   28   2.412   4.880  23.215 -0.2208 -0.1755 -0.3406
    3DPPC   C1A   29   2.288   4.446  22.959 -0.0319  0.0009  0.1353
    3DPPC   C2A   30   1.975   4.346  22.692 -0.1570 -0.4738  0.1005
    3DPPC   C3A   31   1.653   4.351  22.320  0.1293  0.1307  0.0572
    3DPPC   C4A   32   1.310   4.426  21.952 -0.0414 -0.0792 -0.2713
    3DPPC   C1B   33   2.153   5.029  22.949 -0.0944 -0.0511 -0.1854
    3DPPC   C2B   34   1.895   5.297  22.758 -0.1632  0.0786 -0.2003
    3DPPC   C3B   35   1.508   5.280  22.414  0.1800  0.1908 -0.2935
    3DPPC   C4B   36   1.247   5.266  22.021  0.1137  0.3484 -0.0950
    4DPPC   NC3   37  15.011   4.888  28.855  0.1999 -0.1925 -0.3444
    4DPPC   PO4   38  15.385   4.961  28.677  0.2535  0.0098  0.0080
    4DPPC   GL1   39  15.250   4.757  28.294 -0.0873 -0.1231 -0.0949
    4DPPC   GL2   40  15.375   4.501  28.365 -0.0437  0.4016  0.2357
    4DPPC   C1A   41  14.903   4.688  28.351  0.3300 -0.1126 -0.2484
    4DPPC   C2A   42  14.513   4.546  28.372 -0.1973  0.2121 -0.1765
    4DPPC   C3A   43  14.159   4.328  28.124 -0.0350  0.1848 -0.2485
    4DPPC   C4A   44  13.894   4.253  27.649 -0.2030  0.0258 -0.2933
    4DPPC   C1B   45  15.626   4.289  28.186  0.0868 -0.6238 -0.0230
    4DPPC   C2B   46  15.900   4.250  27.879 -0.3012  0.0521  0.1993
    4DPPC   C3B   47  16.133   4.313  27.427  0.2840 -0.3177  0.0185
    4DPPC   C4B   48  16.358   4.113  27.064 -0.1106  0.1591  0.1074
    5DPPC   NC3   49   2.099   6.277  24.438  0.4016  0.0659  0.2352
    5DPPC   PO4   50   2.311   6.401  24.094 -0.2339 -0.0016 -0.0250
    5DPPC   GL1   51   2.102   6.482  23.765  0.2104  0.3571 -0.1362
    5DPPC   GL2   52   1.906   6.617  23.729 -0.0556 -0.1338 -0.0903
    5DPPC   C1A   53   2.008   6.233  23.455  0.1528 -0.1439 -0.2198
    5DPPC   C2A   54   1.801   6.194  23.088  0.1806 -0.1355  0.0628
    5DPPC   C3A   55   1.560   6.160  22.644 -0.0336  0.2628  0.0583
    5DPPC   C4A   56   1.218   6.153  22.287  0.0108 -0.1670 -0.0977
    5DPPC   C1B   57   1.659   6.599  23.462  0.1126  0.0662 -0.1145
    5DPPC   C2B   58   1.453   6.524  23.098 -0.2914 -0.1176  0.0487
    5DPPC   C3B   59   1.180   6.515  22.746 -0.2237 -0.0946  0.3006
    5DPPC   C4B   60   0.830   6.559  22.392 -0.1522  0.0317 -0.0453
    6DPPC   NC3   61   0.166   5.106  26.587  0.2009 -0.1532  0.1826
    6DPPC   PO4   62   0.081   4.812  26.834  0.1835  0.2841 -0.3968
    6DPPC   GL1   63  -0.319   4.904  26.572 -0.0727  0.0746  0.0418
    6DPPC   GL2   64  -0.301   4.597  26.485 -0.0983  0.4695 -0.0204
    6DPPC   C1A   65  -0.626   4.943  26.410 -0.0237  0.3887 -0.1616
    6DPPC   C2A   66  -0.965   4.974  26.125 -0.2304  0.0885  0.0664
    6DPPC   C3A   67  -1.232   5.003  25.731 -0.0764  0.2626 -0.1453
    6DPPC   C4A   68  -1.593   5.022  25.362 -0.2463  0.0583 -0.2081
    6DPPC   C1B   69  -0.359   4.561  26.098 -0.0891 -0.0709  0.0492
    6DPPC   C2B   70  -0.674   4.569  25.844 -0.1282 -0.3684  0.0972
    6DPPC   C3B   71  -1.114   4.520  25.616  0.1790 -0.0672  0.0718
    6DPPC   C4B   72  -1.298   4.559  25.176 -0.3901 -0.2296 -0.0855
    7DPPC   NC3   73   1.833   4.418  24.171  0.1302  0.4490 -0.0042
    7DPPC   PO4   74   1.978   4.265  23.841 -0.0691 -0.0747 -0.0864
    7DPPC   GL1   75   1.937   4.271  23.417 -0.0591 -0.0092  0.0525
    7DPPC   GL2   76   2.153   4.527  23.424 -0.2629 -0.0922 -0.0720
    7DPPC   C1A   77   1.681   4.341  23.125  0.1486 -0.1998 -0.1624
    7DPPC   C2A   78   1.449   4.346  22.830  0.3285 -0.2935 -0.0113
    7DPPC   C3A   79   1.090   4.313  22.489  0.1893 -0.1312 -0.0204
    7DPPC   C4A   80   0.791   4.293  22.125  0.0153 -0.3048 -0.0539
    7DPPC   C1B   81   1.984   4.644  23.140 -0.1409 -0.1236 -0.1616
    7DPPC   C2B   82   1.716   4.758  22.846 -0.2123  0.0546 -0.0203
    7DPPC   C3B   83   1.320   4.775  22.490 -0.3014  0.0574 -0.0150
    7DPPC   C4B   84   1.011   4.789  22.118  0.0311  0.1253  0.2530
    8DPPC   NC3   85   0.655   1.695  26.319  0.1823 -0.2568 -0.0284
    8DPPC   PO4   86   0.275   1.682  26.318  0.3368  0.0791  0.0595
    8DPPC   GL1   87   0.060   1.406  26.190  0.2554 -0.0403 -0.3881
    8DPPC   GL2   88  -0.175   1.562  26.219 -0.0840 -0.1179  0.3358
    8DPPC   C1A   89  -0.056   1.281  25.887  0.0698  0.0567  0.3969
    8DPPC   C2A   90  -0.190   1.255  25.478 -0.1862 -0.1997 -0.0105
    8DPPC   C3A   91  -0.456   1.226  25.113 -0.1022  0.0725  0.1338
    8DPPC   C4A   92  -0.818   1.199  24.819 -0.2035  0.0892 -0.1080
    8DPPC   C1B   93  -0.310   1.600  25.863  0.0453 -0.0487 -0.0505
    8DPPC   C2B   94  -0.570   1.567  25.575 -0.0939 -0.2740  0.4550
    8DPPC   C3B   95  -0.857   1.524  25.204  0.0017 -0.0879  0.2218
    8DPPC   C4B   96  -1.201   1.523  24.818  0.0786 -0.1892 -0.1034
    9DPPC   NC3   97  21.013   4.114  27.852 -0.1846 -0.0420  0.2483
    9DPPC   PO4   98  20.763   3.913  27.624 -0.2519  0.0422  0.0236
    9DPPC   GL1   99  20.342   3.924  27.386  0.0432 -0.2277  0.1921
    9DPPC   GL2  100  20.378   3.651  27.371  0.1255 -0.1191 -0.3759
    9DPPC   C1A  101  20.355   3.998  26.981 -0.0106  0.1203  0.0202
    9DPPC   C2A  102  20.255   4.070  26.610 -0.1860 -0.0834 -0.0137
    9DPPC   C3A  103  19.890   4.070  26.346  0.1628  0.1407 -0.0105
    9DPPC   C4A  104  19.577   4.072  26.020  0.0155 -0.0513  0.2548
    9DPPC   C1B  105  20.310   3.544  27.027 -0.3601 -0.1185  0.0120
    9DPPC   C2B  106  20.017   3.580  26.792 -0.0960  0.2093  0.4140
    9DPPC   C3B  107  19.675   3.513  26.468  0.1949 -0.1548 -0.3855
    9DPPC   C4B  108  19.442   3.589  25.998  0.0714  0.0836 -0.0361
   10DPPC   NC3  109  20.832   3.946  27.118 -0.1425 -0.1338 -0.0018
   10DPPC   PO4  110  21.191   3.828  26.947  0.0632 -0.2529  0.1381
   10DPPC   GL1  111  21.130   3.986  26.530  0.3427 -0.1728 -0.1240
   10DPPC   GL2  112  20.986   3.767  26.480  0.0658 -0.0866  0.2235
   10DPPC   C1A  113  20.865   4.158  26.365 -0.0755 -0.2100  0.1895
   10DPPC   C2A  114  20.517   4.182  26.162  0.0689 -0.0423 -0.1445
   10DPPC   C3A  115  20.188   4.121  25.868  0.0055  0.1130 -0.0723
   10DPPC   C4A  116  19.824   4.061  25.531 -0.3920  0.1051 -0.0831
   10DPPC   C1B  117  20.819   3.793  26.189  0.2399  0.1869  0.0976
   10DPPC   C2B  118  20.621   3.838  25.838 -0.2642  0.1638  0.3187
   10DPPC   C3B  119  20.351   3.804  25.528  0.0410  0.2216  0.0823
   10DPPC   C4B  120  20.033   3.718  25.120  0.0444 -0.0456 -0.0079
   11DPPC   NC3  121   0.749   3.005  25.709 -0.0163 -0.4131 -0.1130
   11DPPC   PO4  122   0.833   2.701  25.446 -0.1807  0.1211 -0.0466
   11DPPC   GL1  123   0.572   2.431  25.368 -0.2479 -0.0408  0.3581
   11DPPC   GL2  124   0.418   2.555  25.542 -0.2726 -0.1397 -0.1293
   11DPPC   C1A  125   0.384   2.250  25.102 -0.3997  0.1057 -0.4243
   11DPPC   C2A  126   0.269   2.156  24.744  0.0121 -0.2324  0.0850
   11DPPC   C3A  127   0.024   2.093  24.395 -0.1767  0.2141 -0.0850
   11DPPC   C4A  128  -0.333   2.127  24.007  0.0089  0.0894  0.0385
   11DPPC   C1B  129   0.175   2.590  25.268 -0.0434 -0.0536  0.0594
   11DPPC   C2B  130   0.017   2.544  24.906 -0.2266  0.1732 -0.0280
   11DPPC   C3B  131  -0.302   2.610  24.550 -0.2877 -0.0168 -0.1045
   11DPPC   C4B  132  -0.662   2.556  24.238  0.0823 -0.0019 -0.0648
   12DPPC   NC3  133   2.550   2.292  23.257 -0.0336 -0.0934 -0.2757
   12DPPC   PO4  134   2.331   2.134  23.564  0.0033  0.3703 -0.0376
   12DPPC   GL1  135   2.048   2.023  23.295  0.2938  0.1049 -0.2122
   12DPPC   GL2  136   1.937   1.852  23.593 -0.1332  0.1246  0.0471
   12DPPC   C1A  137   1.849   2.084  22.990  0.0968  0.1072 -0.0895
   12DPPC   C2A  138   1.533   2.167  22.769 -0.0524 -0.0828  0.2502
   12DPPC   C3A  139   1.174   2.150  22.395  0.1439  0.0107 -0.0452
   12DPPC   C4A  140   0.842   2.130  22.033  0.2247  0.1933  0.0840
   12DPPC   C1B  141   1.608   1.720  23.506 -0.0677 -0.0643 -0.2133
   12DPPC   C2B  142   1.243   1.640  23.302 -0.2570  0.1251  0.2707
   12DPPC   C3B  143   0.901   1.621  23.022 -0.0353  0.2373  0.2173
   12DPPC   C4B  144   0.605   1.561  22.639  0.1514 -0.0299 -0.0982
   13DPPC   NC3  145   1.957   6.216  25.216 -0.0371  0.2143  0.0662
   13DPPC   PO4  146   1.874   6.395  24.870  0.2684  0.2975 -0.0320
   13DPPC   GL1  147   1.648   6.225  24.591  0.0731 -0.4690 -0.1844
   13DPPC   GL2  148   1.501   6.517  24.459  0.1339  0.1648 -0.1983
   13DPPC   C1A  149   1.438   6.099  24.262  0.1291  0.3318 -0.0390
   13DPPC   C2A  150   1.186   6.013  23.928 -0.0163 -0.0228 -0.1632
   13DPPC   C3A  151   0.931   5.951  23.523  0.0962 -0.1561  0.2564
   13DPPC   C4A  152   0.596   5.922  23.134  0.0145 -0.0690 -0.0302
   13DPPC   C1B  153   1.174   6.466  24.335  0.2916  0.0740 -0.1934
   13DPPC   C2B  154   0.858   6.379  24.053 -0.0272 -0.3503 -0.1240
   13DPPC   C3B  155   0.579   6.352  23.633 -0.0289  0.0797  0.1281
   13DPPC   C4B  156   0.287   6.317  23.262  0.0009  0.3329 -0.2122
   14DPPC   NC3  157   1.423   4.794  24.929 -0.1709  0.3507 -0.1324
   14DPPC   PO4  158   1.274   4.954  25.257 -0.0995  0.0181 -0.0111
   14DPPC   GL1  159   0.826   4.687  25.186  0.0479 -0.0361 -0.2397
   14DPPC   GL2  160   0.916   4.770  24.942  0.4548  0.3167  0.2763
   14DPPC   C1A  161   0.556   4.479  25.066  0.1630 -0.0901  0.0343
   14DPPC   C2A  162   0.186   4.440  24.864 -0.2724  0.3593  0.0355
   14DPPC   C3A  163  -0.178   4.367  24.541 -0.3105  0.1137  0.1188
   14DPPC   C4A  164  -0.460   4.385  24.182  0.4588 -0.2120 -0.0247
   14DPPC   C1B  165   0.698   4.649  24.674 -0.2051 -0.1267  0.1029
   14DPPC   C2B  166   0.431   4.515  24.401  0.0187  0.0363  0.0429
   14DPPC   C3B  167   0.064   4.451  24.091  0.1535 -0.0301  0.2107
   14DPPC   C4B  168  -0.257   4.462  23.734 -0.0565 -0.0079  0.2069
   15DPPC   NC3  169  20.623   1.454  27.965  0.3629  0.2507  0.3663
   15DPPC   PO4  170  20.511   1.745  27.754  0.0444  0.1807 -0.4172
   15DPPC   GL1  171  20.295   1.743  27.369 -0.1321  0.1144  0.0678
   15DPPC   GL2  172  20.462   1.487  27.304 -0.1381  0.1367 -0.0771
   15DPPC   C1A  173  19.958   1.784  27.246  0.2165 -0.3770  0.0878
   15DPPC   C2A  174  19.549   1.653  27.041  0.0768 -0.0749 -0.1878
   15DPPC   C3A  175  19.167   1.619  26.670  0.0037  0.0693  0.0099
   15DPPC   C4A  176  18.865   1.551  26.336 -0.0565  0.1536  0.0558
   15DPPC   C1B  177  20.343   1.437  27.009 -0.0089  0.1403  0.0869
   15DPPC   C2B  178  20.243   1.424  26.621 -0.0064  0.1996  0.0404
   15DPPC   C3B  179  19.944   1.363  26.250 -0.0136 -0.0059  0.0734
   15DPPC   C4B  180  19.591   1.364  25.929 -0.0539 -0.0295 -0.2057
   16DPPC   NC3  181   1.442   3.925  24.961  0.0010  0.0437  0.0717
   16DPPC   PO4  182   1.524   4.207  24.658 -0.0659  0.0284 -0.1284
   16DPPC   GL1  183   1.408   4.399  24.269  0.1426 -0.1246  0.1032
   16DPPC   GL2  184   1.142   4.517  24.470 -0.2904  0.3478 -0.0674
   16DPPC   C1A  185   1.416   4.414  23.906  0.1023 -0.2358 -0.1734
   16DPPC   C2A  186   1.400   4.223  23.550  0.0618  0.0041 -0.0786
   16DPPC   C3A  187   1.131   4.172  23.183 -0.3899 -0.1898 -0.0045
   16DPPC   C4A  188   0.778   4.218  22.813 -0.1059 -0.1028  0.0083
   16DPPC   C1B  189   0.862   4.591  24.238 -0.3011  0.0962 -0.1328
   16DPPC   C2B  190   0.606   4.607  23.923 -0.0265  0.0101  0.0623
   16DPPC   C3B  191   0.233   4.569  23.592 -0.2602  0.1606  0.2155
   16DPPC   C4B  192  -0.069   4.427  23.239  0.1634 -0.5249  0.1023
   17DPPC   NC3  193   2.276   2.747  24.229  0.0525  0.1359  0.0839
   17DPPC   PO4  194   2.041   2.780  23.935  0.0299 -0.1788  0.2654
   17DPPC   GL1  195   2.039   2.470  23.644 -0.1463 -0.1138 -0.1817
   17DPPC   GL2  196   1.921   2.682  23.517  0.2071 -0.1200  0.0335
   17DPPC   C1A  197   1.724   2.290  23.548  0.1004 -0.0805  0.2968
   17DPPC   C2A  198   1.387   2.121  23.268 -0.0033  0.1345  0.1965
   17DPPC   C3A  199   1.068   2.168  22.888 -0.2086 -0.0556 -0.1063
   17DPPC   C4A  200   0.722   2.070  22.602 -0.1372  0.0664  0.4279
   17DPPC   C1B  201   1.651   2.654  23.304 -0.0232  0.0355  0.3475
   17DPPC   C2B  202   1.363   2.586  23.018 -0.0717  0.0005  0.1200
   17DPPC   C3B  203   1.017   2.558  22.616 -0.0471 -0.2411  0.1206
   17DPPC   C4B  204   0.681   2.553  22.302 -0.1026 -0.4762  0.0935
   18DPPC   NC3  205   1.001   2.271  25.156 -0.0695  0.2339 -0.0678
   18DPPC   PO4  206   1.238   2.601  25.074  0.0349  0.4417 -0.1390
   18DPPC   GL1  207   0.907   2.945  25.017  0.4131 -0.2309  0.3465
   18DPPC   GL2  208   0.771   2.600  24.901 -0.4474  0.0506 -0.1891
   18DPPC   C1A  209   0.705   3.183  24.802  0.0559 -0.0387 -0.0181
   18DPPC   C2A  210   0.463   3.123  24.468  0.2090  0.0786  0.0014
   18DPPC   C3A  211   0.156   3.106  24.084 -0.2085 -0.4423 -0.2268
   18DPPC   C4A  212  -0.187   3.096  23.751 -0.3922  0.0464 -0.2070
   18DPPC   C1B  213   0.507   2.656  24.671  0.2638  0.1974 -0.5049
   18DPPC   C2B  214   0.195   2.603  24.401 -0.0487  0.4618 -0.0725
   18DPPC   C3B  215  -0.126   2.616  24.035  0.2769  0.0021 -0.1574
   18DPPC   C4B  216  -0.379   2.576  23.617  0.0167 -0.0422  0.0788
   19DPPC   NC3  217   0.172   1.247  27.046  0.1150  0.1675  0.1382
   19DPPC   PO4  218   0.108   0.991  26.740 -0.1362 -0.0230  0.2297
   19DPPC   GL1  219  -0.204   1.100  26.442 -0.0900  0.4055  0.1819
   19DPPC   GL2  220  -0.356   1.114  26.656 -0.0592  0.2609 -0.0662
   19DPPC   C1A  221  -0.375   1.100  26.106 -0.0217  0.0374 -0.0925
   19DPPC   C2A  222  -0.614   1.113  25.739  0.1825  0.3137  0.3775
   19DPPC   C3A  223  -0.980   1.053  25.392  0.0379  0.1818 -0.2969
   19DPPC   C4A  224  -1.241   0.968  24.993  0.1643  0.3444  0.1668
   19DPPC   C1B  225  -0.670   1.033  26.542  0.1794  0.2556 -0.0561
   19DPPC   C2B  226  -0.891   0.984  26.208  0.2852 -0.0820  0.0017
   19DPPC   C3B  227  -1.206   0.971  25.871 -0.0137  0.0628 -0.0984
   19DPPC   C4B  228  -1.494   0.909  25.512  0.1602  0.0160  0.0410
   20DPPC   NC3  229   1.237   5.827  25.633 -0.2562  0.2558  0.2234
   20DPPC   PO4  230   1.182   5.471  25.505 -0.1235  0.1969 -0.0863
   20DPPC   GL1  231   0.822   5.294  25.384 -0.0202 -0.0873  0.0035
   20DPPC   GL2  232   0.752   5.611  25.434  0.0924 -0.3407  0.1967
   20DPPC   C1A  233   0.555   5.129  25.143  0.1882 -0.0144 -0.2863
   20DPPC   C2A  234   0.342   4.900  24.841 -0.0482  0.1345  0.1194
   20DPPC   C3A  235   0.045   4.824  24.462  0.3419  0.2438  0.1023
   20DPPC   C4A  236  -0.268   4.885  24.066 -0.1933  0.0016 -0.2027
   20DPPC   C1B  237   0.503   5.725  25.198  0.1268 -0.1176  0.0221
   20DPPC   C2B  238   0.191   5.793  24.927 -0.2281 -0.1460 -0.2720
   20DPPC   C3B  239  -0.100   5.750  24.555 -0.1746 -0.2803 -0.0088
   20DPPC   C4B  240  -0.431   5.745  24.207 -0.1200  0.0018  0.1353
   21DPPC   NC3  241  12.302   4.846  27.532  0.0281 -0.0789 -0.1381
   21DPPC   PO4  242  12.472   5.164  27.791 -0.2504  0.1077  0.0054
   21DPPC   GL1  243  12.882   5.291  27.733  0.4392 -0.0505 -0.2358
   21DPPC   GL2  244  12.828   5.573  27.705 -0.0457 -0.2413  0.3668
   21DPPC   C1A  245  13.130   5.208  27.500  0.0837  0.4291 -0.0700
   21DPPC   C2A  246  13.421   5.181  27.234 -0.0338 -0.2007 -0.1362
   21DPPC   C3A  247  13.668   5.276  26.784  0.1442  0.0481 -0.0877
   21DPPC   C4A  248  13.897   5.237  26.380  0.4031 -0.0535 -0.2051
   21DPPC   C1B  249  12.870   5.532  27.328  0.3613  0.2100 -0.1946
   21DPPC   C2B  250  13.095   5.589  26.979 -0.0516  0.1243 -0.3205
   21DPPC   C3B  251  13.374   5.631  26.560  0.0309  0.0328  0.2834
   21DPPC   C4B  252  13.786   5.707  26.314  0.1786  0.4033  0.1489
   22DPPC   NC3  253   0.943   4.031  25.935  0.1273  0.1361  0.1309
   22DPPC   PO4  254   0.764   4.104  26.271  0.2219  0.1007 -0.1420
   22DPPC   GL1  255   0.322   3.920  26.292  0.1554  0.2763 -0.1513
   22DPPC   GL2  256   0.265   4.201  26.283 -0.4141 -0.0764  0.1933
   22DPPC   C1A  257   0.063   3.730  26.084  0.0794 -0.0798  0.0232
   22DPPC   C2A  258  -0.009   3.734  25.693 -0.0983 -0.0526 -0.2267
   22DPPC   C3A  259  -0.261   3.818  25.334  0.1521 -0.1916 -0.1403
   22DPPC   C4A  260  -0.568   3.946  25.012  0.0131 -0.0687  0.2314
   22DPPC   C1B  261  -0.003   4.212  26.036  0.0431  0.4861  0.2991
   22DPPC   C2B  262  -0.269   4.266  25.750  0.3995  0.1364  0.0156
   22DPPC   C3B  263  -0.610   4.290  25.418 -0.0927  0.1239 -0.2032
   22DPPC   C4B  264  -0.980   4.175  25.086  0.0922 -0.2505 -0.1254
   23DPPC   NC3  265   1.709   5.886  24.930  0.0707  0.3986 -0.3025
   23DPPC   PO4  266   1.465   5.808  25.214 -0.0945  0.2610  0.2008
   23DPPC   GL1  267   1.026   5.907  25.064  0.0332  0.2718 -0.2111
   23DPPC   GL2  268   0.976   6.123  25.147  0.2413 -0.0247  0.3248
   23DPPC   C1A  269   0.741   5.872  24.780  0.2834  0.0223  0.2510
   23DPPC   C2A  270   0.422   5.839  24.446  0.0458 -0.4032 -0.0228
   23DPPC   C3A  271   0.104   5.794  24.076 -0.2999  0.0915 -0.1869
   23DPPC   C4A  272  -0.201   5.819  23.734  0.0280 -0.2072  0.0966
   23DPPC   C1B  273   0.853   6.349  24.888 -0.4058  0.2095  0.0309
   23DPPC   C2B  274   0.608   6.374  24.566  0.0166 -0.0331  0.0114
   23DPPC   C3B  275   0.341   6.330  24.143  0.0314 -0.3146 -0.0589
   23DPPC   C4B  276   0.021   6.330  23.760 -0.0180  0.3808  0.3009
   24DPPC   NC3  277   0.420   0.147  26.704  0.1048 -0.0780 -0.1857
   24DPPC   PO4  278   0.465   0.534  26.710 -0.0626  0.0844 -0.0202
   24DPPC   GL1  279   0.244   0.633  26.317  0.1403 -0.0019  0.0364
   24DPPC   GL2  280   0.163   0.305  26.388  0.2077 -0.1080 -0.0411
   24DPPC   C1A  281  -0.035   0.818  26.119  0.0922  0.2050  0.0031
   24DPPC   C2A  282  -0.265   0.759  25.764  0.0845  0.0413 -0.1816
   24DPPC   C3A  283  -0.571   0.738  25.374 -0.0261  0.1059 -0.1041
   24DPPC   C4A  284  -0.829   0.718  24.995 -0.1090 -0.0794 -0.1542
   24DPPC   C1B  285  -0.122   0.289  26.170 -0.0898 -0.4308 -0.0377
   24DPPC   C2B  286  -0.404   0.320  25.884 -0.0861  0.3324  0.1590
   24DPPC   C3B  287  -0.757   0.231  25.483  0.1026 -0.0692 -0.2683
   24DPPC   C4B  288  -1.003   0.211  25.139 -0.2453  0.0061  0.2038
   25DPPC   NC3  289  21.105   2.643  27.688 -0.1219 -0.1588 -0.3187
   25DPPC   PO4  290  20.854   2.721  27.406 -0.0511 -0.0095  0.3324
   25DPPC   GL1  291  20.578   2.547  27.194  0.3579  0.1364  0.0878
   25DPPC   GL2  292  20.513   2.846  27.040 -0.0069 -0.2793 -0.2288
   25DPPC   C1A  293  20.393   2.402  26.984 -0.1002 -0.1700  0.0238
   25DPPC   C2A  294  20.132   2.320  26.684  0.0186  0.3733  0.0161
   25DPPC   C3A  295  19.813   2.174  26.370 -0.0361 -0.0461  0.0075
   25DPPC   C4A  296  19.502   2.233  26.048  0.0006  0.1934  0.2797
   25DPPC   C1B  297  20.283   2.824  26.784  0.0856  0.0884  0.3264
   25DPPC   C2B  298  20.076   2.753  26.440 -0.0296  0.0827 -0.1499
   25DPPC   C3B  299  19.796   2.597  26.117 -0.0241 -0.1191 -0.1083
   25DPPC   C4B  300  19.438   2.668  25.772 -0.2528  0.2713  0.2603
   26DPPC   NC3  301  17.729   3.076  29.342  0.1044 -0.2827 -0.1084
   26DPPC   PO4  302  17.930   2.709  29.263 -0.0328 -0.1348  0.1045
   26DPPC   GL1  303  17.767   2.626  28.880  0.0611 -0.0041  0.0845
   26DPPC   GL2  304  17.637   2.868  28.960  0.2222  0.2786  0.2473
   26DPPC   C1A  305  17.534   2.399  28.771 -0.3715 -0.0358  0.2112
   26DPPC   C2A  306  17.147   2.261  28.655 -0.0367  0.2566 -0.1091
   26DPPC   C3A  307  16.806   1.997  28.501 -0.1350  0.0949  0.0879
   26DPPC   C4A  308  16.482   1.607  28.570 -0.2737 -0.1422 -0.0143
   26DPPC   C1B  309  17.620   3.191  28.771  0.1972  0.2663 -0.1962
   26DPPC   C2B  310  17.696   3.295  28.425  0.1134  0.2164 -0.1519
   26DPPC   C3B  311  17.517   3.517  27.986  0.2194  0.0492  0.3205
   26DPPC   C4B  312  17.542   3.989  27.811 -0.1919  0.2496  0.0450
   27DPPC   NC3  313   1.683   0.982  24.470  0.1316  0.1697 -0.1747
   27DPPC   PO4  314   1.983   1.161  24.277  0.0755 -0.1443 -0.3166
   27DPPC   GL1  315   1.921   1.145  23.860  0.3047  0.5661 -0.1676
   27DPPC   GL2  316   1.821   0.906  23.910  0.3752  0.3487  0.3370
   27DPPC   C1A  317   1.743   1.312  23.643  0.2897  0.4060  0.1304
   27DPPC   C2A  318   1.609   1.256  23.271 -0.1804 -0.0901  0.1064
   27DPPC   C3A  319   1.330   1.280  22.859 -0.1247  0.0690  0.0812
   27DPPC   C4A  320   0.941   1.175  22.548 -0.1729  0.1006 -0.4649
   27DPPC   C1B  321   1.615   0.867  23.618  0.1451  0.0712 -0.3786
   27DPPC   C2B  322   1.336   0.822  23.281  0.0282 -0.1153  0.2532
   27DPPC   C3B  323   1.078   0.793  22.889 -0.1298 -0.0673 -0.1886
   27DPPC   C4B  324   0.844   0.644  22.461 -0.3576 -0.1305 -0.1170
   28DPPC   NC3  325   3.313   2.451  22.632 -0.1354 -0.1626  0.1685
   28DPPC   PO4  326   2.989   2.726  22.761 -0.2211  0.2997 -0.2225
   28DPPC   GL1  327   2.893   2.493  22.414 -0.3652  0.1219 -0.2373
   28DPPC   GL2  328   2.960   2.740  22.250  0.1860 -0.0245  0.2556
   28DPPC   C1A  329   2.591   2.369  22.258  0.5949  0.0360  0.1452
   28DPPC   C2A  330   2.212   2.316  22.091 -0.2365 -0.0179 -0.5069
   28DPPC   C3A  331   1.937   2.259  21.746  0.1189  0.0813  0.0491
   28DPPC   C4A  332   1.596   2.314  21.385  0.2241 -0.0881 -0.1212
   28DPPC   C1B  333   2.642   2.795  22.047  0.2143  0.0907 -0.1744
   28DPPC   C2B  334   2.304   2.772  21.828  0.0473 -0.0454 -0.1238
   28DPPC   C3B  335   1.886   2.836  21.494 -0.1284 -0.3343  0.0833
   28DPPC   C4B  336   1.624   2.744  21.118  0.1200 -0.2519 -0.0812
   29DPPC   NC3  337   1.418   0.617  25.015  0.2416 -0.3390  0.2783
   29DPPC   PO4  338   1.524   1.007  24.925  0.1217  0.0525 -0.1652
   29DPPC   GL1  339   1.165   1.046  24.677  0.3721  0.0626  0.0069
   29DPPC   GL2  340   1.338   0.768  24.597  0.2810 -0.0531  0.1176
   29DPPC   C1A  341   0.798   0.975  24.542  0.1606  0.2267  0.5110
   29DPPC   C2A  342   0.493   1.010  24.225 -0.0481 -0.2987 -0.2886
   29DPPC   C3A  343   0.182   1.024  23.847  0.1592  0.2234 -0.3312
   29DPPC   C4A  344  -0.206   0.888  23.506  0.0818 -0.1705 -0.1522
   29DPPC   C1B  345   1.056   0.625  24.389  0.1475  0.2804 -0.3581
   29DPPC   C2B  346   0.752   0.627  24.074  0.1669 -0.0275  0.0553
   29DPPC   C3B  347   0.438   0.600  23.701 -0.0549  0.2335 -0.0112
   29DPPC   C4B  348   0.115   0.444  23.358 -0.1455 -0.1402  0.0091
   30DPPC   NC3  349   0.104   2.625  26.992 -0.0983  0.0530  0.0677
   30DPPC   PO4  350   0.017   2.474  26.615  0.2424  0.2576 -0.0539
   30DPPC   GL1  351  -0.180   2.160  26.457  0.0015  0.0669  0.4159
   30DPPC   GL2  352  -0.124   1.996  26.248  0.0482  0.2094  0.1585
   30DPPC   C1A  353  -0.541   2.084  26.505  0.0625 -0.3292 -0.2696
   30DPPC   C2A  354  -0.927   1.872  26.425 -0.1860 -0.0396  0.0365
   30DPPC   C3A  355  -1.225   1.807  26.049  0.3349 -0.1878  0.0674
   30DPPC   C4A  356  -1.540   1.772  25.626  0.1901 -0.3437  0.2292
   30DPPC   C1B  357  -0.448   1.942  26.101 -0.1248 -0.0413  0.0304
   30DPPC   C2B  358  -0.721   1.984  25.828  0.0902 -0.0321 -0.2537
   30DPPC   C3B  359  -1.049   1.916  25.506 -0.3852  0.0365  0.1540
   30DPPC   C4B  360  -1.424   1.845  25.113  0.1991 -0.3212  0.2338
   31DPPC   NC3  361   1.155   5.619  26.221 -0.0582  0.1786  0.1889
   31DPPC   PO4  362   1.065   5.282  26.118 -0.2022  0.4841  0.1665
   31DPPC   GL1  363   0.618   5.070  26.062  0.4776 -0.1148 -0.2882
   31DPPC   GL2  364   0.601   5.272  25.834 -0.5129 -0.0872  0.3245
   31DPPC   C1A  365   0.355   4.915  25.879 -0.0420  0.2191 -0.1005
   31DPPC   C2A  366  -0.042   4.802  25.774  0.1080  0.0796 -0.1973
   31DPPC   C3A  367  -0.385   4.723  25.436 -0.1067  0.3473  0.0530
   31DPPC   C4A  368  -0.726   4.672  25.099  0.2028  0.1283 -0.0631
   31DPPC   C1B  369   0.383   5.360  25.546 -0.0542  0.4588 -0.0685
   31DPPC   C2B  370   0.162   5.346  25.222  0.0523 -0.3726  0.0695
   31DPPC   C3B  371  -0.070   5.308  24.756 -0.2193  0.0122 -0.1447
   31DPPC   C4B  372  -0.415   5.242  24.428 -0.1001 -0.1617 -0.0507
   32DPPC   NC3  373   1.336   4.553  25.530 -0.1616  0.1817 -0.2819
   32DPPC   PO4  374   1.257   4.180  25.378 -0.3843  0.2453  0.1029
   32DPPC   GL1  375   1.047   4.089  25.064 -0.3151  0.3548  0.0057
   32DPPC   GL2  376   1.134   4.316  24.917  0.0621  0.2935  0.5745
   32DPPC   C1A  377   0.686   4.009  25.105 -0.0359  0.0867  0.1399
   32DPPC   C2A  378   0.460   3.949  24.769  0.0468 -0.0741 -0.0530
   32DPPC   C3A  379   0.157   3.965  24.409  0.2486  0.4157  0.4053
   32DPPC   C4A  380  -0.188   4.003  24.035 -0.1411  0.0601 -0.1552
   32DPPC   C1B  381   0.854   4.213  24.664  0.3474  0.0536 -0.1231
   32DPPC   C2B  382   0.686   4.115  24.303  0.0862 -0.0558  0.1630
   32DPPC   C3B  383   0.354   4.084  23.890  0.1297 -0.1387  0.2368
   32DPPC   C4B  384   0.026   4.047  23.514 -0.2183  0.1530 -0.0363
   33DPPC   NC3  385   0.754   4.563  26.132  0.1741 -0.0772  0.0948
   33DPPC   PO4  386   1.116   4.504  25.947  0.0962  0.0748 -0.2301
   33DPPC   GL1  387   0.822   4.500  25.668  0.0469  0.2756  0.0006
   33DPPC   GL2  388   0.612   4.317  25.758  0.0388  0.2184  0.0349
   33DPPC   C1A  389   0.590   4.752  25.509 -0.2587 -0.0747 -0.0859
   33DPPC   C2A  390   0.208   4.866  25.324 -0.2321  0.2648 -0.2205
   33DPPC   C3A  391  -0.139   4.847  24.987 -0.0233  0.1308 -0.0675
   33DPPC   C4A  392  -0.474   4.797  24.609  0.0261 -0.0472  0.0285
   33DPPC   C1B  393   0.479   4.150  25.486  0.3618  0.0103 -0.1432
   33DPPC   C2B  394   0.204   3.964  25.218  0.0999 -0.1221  0.0995
   33DPPC   C3B  395  -0.079   3.944  24.864 -0.0438 -0.1507  0.1030
   33DPPC   C4B  396  -0.472   3.893  24.521 -0.1569 -0.1961 -0.1550
   34DPPC   NC3  397   1.158   3.654  25.617 -0.0246  0.2809 -0.0631
   34DPPC   PO4  398   0.842   3.468  25.806 -0.0753  0.5596  0.1713
   34DPPC   GL1  399   0.645   3.473  25.526  0.0089 -0.3350  0.1494
   34DPPC   GL2  400   0.740   3.637  25.295 -0.4874 -0.0772  0.2736
   34DPPC   C1A  401   0.549   3.189  25.299 -0.0981  0.0602  0.0643
   34DPPC   C2A  402   0.337   2.988  25.002 -0.2800 -0.2241 -0.1582
   34DPPC   C3A  403  -0.037   3.040  24.671 -0.3388 -0.2813  0.2442
   34DPPC   C4A  404  -0.354   3.020  24.290  0.0086 -0.0711  0.2367
   34DPPC   C1B  405   0.548   3.581  25.025  0.3209 -0.4835  0.0745
   34DPPC   C2B  406   0.242   3.518  24.736 -0.1409 -0.2211  0.4024
   34DPPC   C3B  407  -0.114   3.450  24.405  0.1441 -0.1024 -0.1292
   34DPPC   C4B  408  -0.412   3.472  23.986 -0.3195 -0.1410  0.3191
   35DPPC   NC3  409   2.125   0.906  24.772  0.1955  0.3879  0.3090
   35DPPC   PO4  410   1.836   0.596  24.754  0.1346  0.2694 -0.0056
   35DPPC   GL1  411   1.621   0.399  24.460 -0.1520  0.0270  0.1793
   35DPPC   GL2  412   1.629   0.549  24.279 -0.1181  0.2422 -0.2031
   35DPPC   C1A  413   1.291   0.281  24.408 -0.1772 -0.0694 -0.0067
   35DPPC   C2A  414   1.046   0.238  24.102 -0.1542  0.2017 -0.1368
   35DPPC   C3A  415   0.747   0.255  23.689 -0.0776 -0.0615 -0.0088
   35DPPC   C4A  416   0.543   0.173  23.264  0.0946  0.2825  0.0342
   35DPPC   C1B  417   1.357   0.660  24.061  0.1486  0.0009  0.1831
   35DPPC   C2B  418   1.119   0.659  23.687  0.2698 -0.1096 -0.2077
   35DPPC   C3B  419   0.789   0.679  23.347 -0.4154 -0.2777 -0.2058
   35DPPC   C4B  420   0.465   0.607  23.017  0.0063  0.0084 -0.3833
   36DPPC   NC3  421   2.947   0.871  23.201  0.0372  0.3513  0.0544
   36DPPC   PO4  422   3.094   1.128  22.972 -0.1413 -0.2038  0.1127
   36DPPC   GL1  423   2.810   1.283  22.642  0.1316 -0.1443  0.1312
   36DPPC   GL2  424   2.928   1.557  22.529 -0.0302  0.2710 -0.0477
   36DPPC   C1A  425   2.444   1.206  22.532  0.1763  0.1468 -0.1799
   36DPPC   C2A  426   2.127   1.283  22.329  0.0056 -0.0841 -0.2663
   36DPPC   C3A  427   1.812   1.381  22.005  0.1587  0.0527  0.1440
   36DPPC   C4A  428   1.414   1.347  21.650  0.1718  0.2349 -0.2063
   36DPPC   C1B  429   2.737   1.589  22.294  0.1682  0.1948  0.1013
   36DPPC   C2B  430   2.460   1.498  21.955 -0.2696 -0.0907  0.0821
   36DPPC   C3B  431   2.095   1.482  21.590 -0.5170  0.2106 -0.4171
   36DPPC   C4B  432   1.706   1.438  21.242 -0.0897  0.0568 -0.1460
   37DPPC   NC3  433   2.843   5.207  23.843 -0.0961 -0.1485  0.0800
   37DPPC   PO4  434   2.484   5.035  23.731 -0.0488 -0.2311  0.2142
   37DPPC   GL1  435   2.119   5.296  23.660 -0.2661  0.2479  0.2792
   37DPPC   GL2  436   2.155   5.293  23.332  0.1328 -0.0727 -0.0365
   37DPPC   C1A  437   1.700   5.244  23.700 -0.2437 -0.1014  0.1898
   37DPPC   C2A  438   1.305   5.166  23.694 -0.2747 -0.1489  0.2708
   37DPPC   C3A  439   1.017   5.083  23.329 -0.3408 -0.1098  0.2103
   37DPPC   C4A  440   0.666   5.098  23.025  0.0118 -0.4496 -0.1776
   37DPPC   C1B  441   1.902   5.525  23.229  0.1207  0.0314 -0.1322
   37DPPC   C2B  442   1.642   5.716  22.947 -0.1664 -0.1108 -0.2815
   37DPPC   C3B  443   1.336   5.711  22.572  0.0274  0.3005 -0.2115
   37DPPC   C4B  444   0.951   5.653  22.227 -0.2906  0.1491 -0.1817
   38DPPC   NC3  445   2.638   3.568  23.810  0.0629  0.1518  0.3267
   38DPPC   PO4  446   2.246   3.484  23.750 -0.1993 -0.1595  0.0680
   38DPPC   GL1  447   1.847   3.353  23.644  0.2055 -0.0541  0.0113
   38DPPC   GL2  448   1.995   3.085  23.603 -0.3515 -0.2068 -0.1645
   38DPPC   C1A  449   1.541   3.441  23.445  0.0351 -0.1167 -0.1074
   38DPPC   C2A  450   1.275   3.346  23.086 -0.1466 -0.1478 -0.1386
   38DPPC   C3A  451   0.854   3.417  22.730 -0.1858 -0.1665 -0.0519
   38DPPC   C4A  452   0.490   3.457  22.397  0.0199  0.0095 -0.1618
   38DPPC   C1B  453   1.801   3.137  23.303 -0.1029 -0.0314  0.2621
   38DPPC   C2B  454   1.576   3.002  22.961 -0.2283 -0.0860 -0.0942
   38DPPC   C3B  455   1.216   3.017  22.627 -0.0474  0.2211 -0.2884
   38DPPC   C4B  456   0.842   3.077  22.319  0.0479  0.2582  0.0106
   39DPPC   NC3  457   0.324   2.712  26.354 -0.1541  0.0688 -0.0859
   39DPPC   PO4  458   0.563   3.021  26.246  0.0091  0.2608  0.2002
   39DPPC   GL1  459   0.453   3.281  25.930  0.4248 -0.3827  0.1354
   39DPPC   GL2  460   0.224   3.113  26.144  0.4479 -0.1019  0.0719
   39DPPC   C1A  461   0.266   3.405  25.622  0.0871  0.1953 -0.0201
   39DPPC   C2A  462   0.124   3.492  25.232  0.0095  0.1342  0.0869
   39DPPC   C3A  463  -0.254   3.494  24.905  0.1368 -0.1293  0.1773
   39DPPC   C4A  464  -0.645   3.400  24.562  0.0645  0.1256  0.1342
   39DPPC   C1B  465  -0.072   3.173  25.943  0.1195  0.2527  0.0597
   39DPPC   C2B  466  -0.338   3.391  25.636  0.1478 -0.0737 -0.0602
   39DPPC   C3B  467  -0.625   3.371  25.193  0.0154  0.1067  0.3440
   39DPPC   C4B  468  -1.005   3.306  24.884 -0.2274  0.0927 -0.0939
   40DPPC   NC3  469   0.277   0.301  27.314  0.1756  0.0807 -0.1510
   40DPPC   PO4  470  -0.083   0.171  27.436  0.4034 -0.0066 -0.0159
   40DPPC   GL1  471  -0.380   0.387  27.195  0.0822  0.0084  0.4623
   40DPPC   GL2  472  -0.372   0.105  27.064 -0.3083  0.1120 -0.1831
   40DPPC   C1A  473  -0.644   0.514  27.015 -0.1543 -0.2251 -0.1714
   40DPPC   C2A  474  -0.857   0.566  26.635  0.1325 -0.1212 -0.0000
   40DPPC   C3A  475  -1.130   0.511  26.223 -0.1214 -0.2517  0.3395
   40DPPC   C4A  476  -1.476   0.483  25.880  0.1894 -0.0630 -0.0509
   40DPPC   C1B  477  -0.603   0.035  26.798  0.0410 -0.1050 -0.1698
   40DPPC   C2B  478  -0.995   0.067  26.666 -0.2439  0.1106  0.1887
   40DPPC   C3B  479  -1.281   0.070  26.272 -0.2289 -0.1171  0.1163
   40DPPC   C4B  480  -1.561  -0.013  25.950 -0.0853  0.2682 -0.3044
   41DPPC   NC3  481   0.010   5.688  27.556  0.0954 -0.0722  0.3107
   41DPPC   PO4  482  -0.326   5.846  27.489 -0.1127 -0.0559  0.1912
   41DPPC   GL1  483  -0.503   5.791  27.168  0.1121  0.4765 -0.1100
   41DPPC   GL2  484  -0.514   5.539  27.084  0.0309 -0.0386 -0.0174
   41DPPC   C1A  485  -0.840   5.811  27.062  0.1530 -0.2360  0.1301
   41DPPC   C2A  486  -1.186   5.662  26.820  0.0431  0.1679 -0.3633
   41DPPC   C3A  487  -1.552   5.627  26.506 -0.4352 -0.3006 -0.0881
   41DPPC   C4A  488  -1.794   5.668  26.129 -0.0376  0.0445 -0.1302
   41DPPC   C1B  489  -0.676   5.440  26.751 -0.0056  0.2897 -0.1436
   41DPPC   C2B  490  -0.975   5.285  26.471  0.0596 -0.3827  0.2215
   41DPPC   C3B  491  -1.347   5.233  26.205  0.0160  0.0496 -0.1352
   41DPPC   C4B  492  -1.638   5.222  25.803  0.0435  0.1435  0.4549
   42DPPC   NC3  493  20.797   6.352  27.352  0.2774 -0.1207 -0.0425
   42DPPC   PO4  494  20.532   6.607  27.504  0.0903  0.1390  0.2134
   42DPPC   GL1  495  20.324   6.578  27.190  0.1054 -0.2976 -0.0621
   42DPPC   GL2  496  20.392   6.332  27.036 -0.1266 -0.1153 -0.0080
   42DPPC   C1A  497  19.984   6.557  27.069 -0.1259  0.1588  0.1669
   42DPPC   C2A  498  19.667   6.528  26.783  0.1441  0.1938  0.4176
   42DPPC   C3A  499  19.306   6.499  26.380  0.2619  0.0530  0.2182
   42DPPC   C4A  500  18.994   6.475  25.992 -0.0075 -0.0287  0.1539
   42DPPC   C1B  501  20.170   6.138  26.851  0.2245 -0.0140  0.1275
   42DPPC   C2B  502  19.877   6.127  26.565  0.0326  0.2456 -0.0599
   42DPPC   C3B  503  19.548   6.097  26.180 -0.0691  0.0773 -0.4917
   42DPPC   C4B  504  19.293   6.059  25.767 -0.2927  0.0791  0.0249
   43DPPC   NC3  505  20.989   3.177  27.508 -0.1849  0.1413 -0.3633
   43DPPC   PO4  506  20.883   3.510  27.312 -0.3448  0.0329  0.0371
   43DPPC   GL1  507  20.704   3.496  26.956  0.0112  0.0362  0.3573
   43DPPC   GL2  508  20.715   3.329  26.794  0.0923  0.0035  0.0222
   43DPPC   C1A  509  20.574   3.712  26.606 -0.2384 -0.1000 -0.1464
   43DPPC   C2A  510  20.337   3.709  26.253  0.0093 -0.0048 -0.0709
   43DPPC   C3A  511  19.948   3.678  25.947 -0.2505 -0.0233  0.0450
   43DPPC   C4A  512  19.672   3.607  25.532 -0.1071  0.1866  0.0133
   43DPPC   C1B  513  20.432   3.273  26.546 -0.2056  0.3647  0.0148
   43DPPC   C2B  514  20.085   3.192  26.289 -0.0439  0.0117 -0.1870
   43DPPC   C3B  515  19.791   3.148  25.884  0.1734 -0.0822 -0.0499
   43DPPC   C4B  516  19.478   3.153  25.501 -0.0472  0.1130 -0.1824
   44DPPC   NC3  517   3.008   3.905  22.699 -0.0329 -0.2277  0.1656
   44DPPC   PO4  518   2.843   3.700  23.006  0.1440  0.0724 -0.1140
   44DPPC   GL1  519   2.572   3.464  22.729 -0.1300 -0.0148  0.2942
   44DPPC   GL2  520   2.346   3.547  22.823  0.2031 -0.1780  0.2717
   44DPPC   C1A  521   2.564   3.606  22.452  0.0764 -0.1083  0.3598
   44DPPC   C2A  522   2.286   3.595  22.127  0.0495  0.1392  0.0495
   44DPPC   C3A  523   2.018   3.627  21.780  0.3143 -0.1764 -0.0553
   44DPPC   C4A  524   1.726   3.677  21.400 -0.0699 -0.2000  0.1235
   44DPPC   C1B  525   2.082   3.603  22.554 -0.2308 -0.1369  0.6488
   44DPPC   C2B  526   1.778   3.525  22.257 -0.0973  0.2251 -0.1186
   44DPPC   C3B  527   1.418   3.605  21.960 -0.0983 -0.1545  0.0427
   44DPPC   C4B  528   1.164   3.591  21.532 -0.3583 -0.4798 -0.0652
   45DPPC   NC3  529   1.843   3.394  24.095 -0.0485 -0.0588 -0.1329
   45DPPC   PO4  530   1.965   3.123  24.324  0.0238 -0.2605  0.0544
   45DPPC   GL1  531   1.680   2.967  24.182  0.3299  0.3325  0.1689
   45DPPC   GL2  532   1.482   2.946  24.410 -0.2302  0.1301 -0.1143
   45DPPC   C1A  533   1.560   2.996  23.838  0.1399  0.0800  0.4302
   45DPPC   C2A  534   1.408   3.033  23.450 -0.0763 -0.0155  0.0459
   45DPPC   C3A  535   1.005   2.916  23.093  0.1524  0.0787 -0.0958
   45DPPC   C4A  536   0.661   2.931  22.798 -0.1839 -0.1633  0.0689
   45DPPC   C1B  537   1.181   2.882  24.196 -0.1245 -0.1010 -0.2865
   45DPPC   C2B  538   1.011   2.783  23.869 -0.2391 -0.1127  0.0606
   45DPPC   C3B  539   0.734   2.836  23.509  0.0191 -0.0196  0.0879
   45DPPC   C4B  540   0.361   2.814  23.186 -0.1566  0.0592  0.0928
   46DPPC   NC3  541   2.221   0.391  23.888 -0.2383 -0.0133  0.1550
   46DPPC   PO4  542   2.232   0.743  23.674  0.0146  0.1878 -0.0631
   46DPPC   GL1  543   1.946   0.629  23.418 -0.1323 -0.2831  0.1312
   46DPPC   GL2  544   1.861   0.385  23.476  0.1303  0.0186 -0.1894
   46DPPC   C1A  545   1.809   0.770  23.122 -0.2245  0.4199 -0.1799
   46DPPC   C2A  546   1.588   0.780  22.806  0.5179 -0.0453  0.1775
   46DPPC   C3A  547   1.336   0.822  22.388 -0.4391 -0.2907 -0.0450
   46DPPC   C4A  548   0.996   0.772  22.006 -0.1134  0.1187  0.3685
   46DPPC   C1B  549   1.600   0.354  23.157  0.1830 -0.1934  0.2562
   46DPPC   C2B  550   1.500   0.299  22.774  0.2258 -0.0685  0.2043
   46DPPC   C3B  551   1.180   0.317  22.414 -0.0218  0.2344  0.1074
   46DPPC   C4B  552   0.895   0.297  22.079 -0.2366 -0.0754 -0.4103
   47DPPC   NC3  553   1.984   5.131  24.434 -0.2581 -0.3539  0.0796
   47DPPC   PO4  554   2.095   4.919  24.099 -0.2039  0.2248 -0.1272
   47DPPC   GL1  555   2.059   4.830  23.690  0.3794  0.1027 -0.0533
   47DPPC   GL2  556   1.799   4.713  23.831  0.3229 -0.3736 -0.6104
   47DPPC   C1A  557   1.847   4.958  23.430 -0.2882 -0.1118  0.2556
   47DPPC   C2A  558   1.606   5.198  23.157 -0.4076 -0.0482 -0.0436
   47DPPC   C3A  559   1.257   5.096  22.875  0.2617  0.0217  0.0645
   47DPPC   C4A  560   0.876   5.151  22.515 -0.2046 -0.0579  0.2046
   47DPPC   C1B  561   1.565   4.634  23.557  0.0298 -0.0034 -0.3851
   47DPPC   C2B  562   1.367   4.667  23.235 -0.1183 -0.1439  0.0050
   47DPPC   C3B  563   1.021   4.669  22.922  0.1120 -0.1621 -0.0771
   47DPPC   C4B  564   0.719   4.606  22.490  0.0687  0.2989 -0.0079
   48DPPC   NC3  565   0.834   0.610  25.440 -0.2211 -0.2138  0.3417
   48DPPC   PO4  566   0.763   0.304  25.722 -0.1520 -0.0595 -0.2285
   48DPPC   GL1  567   0.483   0.056  25.589  0.0748 -0.3198  0.0178
   48DPPC   GL2  568   0.525  -0.187  25.719  0.0377  0.1774  0.1187
   48DPPC   C1A  569   0.225   0.095  25.347  0.1881 -0.0462 -0.3083
   48DPPC   C2A  570   0.007  -0.025  25.002 -0.0089 -0.0108  0.0399
   48DPPC   C3A  571  -0.276  -0.128  24.607  0.1333 -0.1353  0.0835
   48DPPC   C4A  572  -0.639  -0.103  24.332  0.2613  0.0219  0.1241
   48DPPC   C1B  573   0.211  -0.348  25.656  0.2291 -0.1682  0.2024
   48DPPC   C2B  574  -0.026  -0.403  25.286  0.0531 -0.4048 -0.3045
   48DPPC   C3B  575  -0.357  -0.557  24.920  0.1615  0.1205  0.0990
   48DPPC   C4B  576  -0.618  -0.568  24.534 -0.1286  0.1998 -0.1439
   49DPPC   NC3  577  20.748   0.413  27.741 -0.2816 -0.1911 -0.1988
   49DPPC   PO4  578  20.370   0.480  27.835  0.0883 -0.1113  0.2134
   49DPPC   GL1  579  20.023   0.369  27.655 -0.1737  0.1098  0.2345
   49DPPC   GL2  580  20.277   0.371  27.409  0.3053 -0.1566 -0.1824
   49DPPC   C1A  581  19.776   0.421  27.405 -0.1351 -0.2744 -0.2550
   49DPPC   C2A  582  19.486   0.349  27.154 -0.0860 -0.0309 -0.0390
   49DPPC   C3A  583  19.218   0.264  26.772  0.0429 -0.1179 -0.0442
   49DPPC   C4A  584  18.849   0.291  26.409  0.0852 -0.4002  0.1252
   49DPPC   C1B  585  20.107   0.369  27.119 -0.4422 -0.2101 -0.3539
   49DPPC   C2B  586  19.820   0.396  26.810 -0.2275 -0.1981  0.0994
   49DPPC   C3B  587  19.590   0.423  26.422  0.0178  0.0449 -0.0407
   49DPPC   C4B  588  19.270   0.395  26.162 -0.1348 -0.0176  0.0310
   50DPPC   NC3  589   2.833   5.586  22.884 -0.0413 -0.0878 -0.2262
   50DPPC   PO4  590   2.679   5.227  22.840 -0.1315 -0.1964  0.0385
   50DPPC   GL1  591   2.615   4.876  22.623  0.0597 -0.0894  0.2147
   50DPPC   GL2  592   2.715   5.000  22.390  0.1534 -0.2918 -0.1068
   50DPPC   C1A  593   2.265   4.821  22.571  0.1748 -0.1679  0.4924
   50DPPC   C2A  594   1.907   4.913  22.380  0.0023 -0.0557 -0.2566
   50DPPC   C3A  595   1.596   4.898  22.018  0.0150 -0.1606 -0.1774
   50DPPC   C4A  596   1.211   4.909  21.659 -0.1248 -0.2164  0.1283
   50DPPC   C1B  597   2.403   5.011  22.193 -0.1808  0.1387 -0.1477
   50DPPC   C2B  598   2.148   5.011  21.914  0.2489 -0.0436 -0.0676
   50DPPC   C3B  599   1.826   4.999  21.570  0.0660  0.2490  0.0503
   50DPPC   C4B  600   1.575   4.941  21.185 -0.2056 -0.0837  0.3291
   51DPPC   NC3  601   1.705   1.634  24.514 -0.2269 -0.1936  0.0632
   51DPPC   PO4  602   1.391   1.409  24.489 -0.1229  0.2323 -0.1662
   51DPPC   GL1  603   1.284   1.135  24.228  0.0768 -0.0856 -0.3744
   51DPPC   GL2  604   1.482   1.112  24.040 -0.0601  0.0731  0.0263
   51DPPC   C1A  605   0.965   1.033  24.049 -0.3507 -0.3933 -0.1523
   51DPPC   C2A  606   0.678   1.048  23.738  0.1804 -0.1750 -0.0702
   51DPPC   C3A  607   0.313   0.925  23.375 -0.0872  0.1494  0.2617
   51DPPC   C4A  608   0.063   0.955  23.001 -0.1996 -0.0002  0.1227
   51DPPC   C1B  609   1.314   1.150  23.710  0.1058  0.0677 -0.0917
   51DPPC   C2B  610   1.022   1.133  23.398 -0.0811 -0.2090 -0.1838
   51DPPC   C3B  611   0.684   1.087  23.036 -0.0278  0.0623  0.1782
   51DPPC   C4B  612   0.486   0.976  22.599  0.1759 -0.0821  0.0122
   52DPPC   NC3  613   1.146   3.193  25.294 -0.0414  0.1736 -0.1479
   52DPPC   PO4  614   1.139   3.560  25.083  0.1362 -0.1489  0.1518
   52DPPC   GL1  615   0.863   3.745  24.765 -0.0022 -0.3125  0.0286
   52DPPC   GL2  616   1.058   3.870  24.653  0.1470 -0.0172  0.3274
   52DPPC   C1A  617   0.611   3.625  24.461 -0.2923  0.0707  0.0230
   52DPPC   C2A  618   0.395   3.554  24.157  0.0148 -0.0860  0.1420
   52DPPC   C3A  619   0.033   3.581  23.856  0.0481 -0.3517  0.0258
   52DPPC   C4A  620  -0.235   3.491  23.445 -0.0647  0.0035 -0.1584
   52DPPC   C1B  621   1.148   4.051  24.331 -0.0018 -0.3050 -0.2272
   52DPPC   C2B  622   1.043   4.067  23.945 -0.1564 -0.0119  0.2024
   52DPPC   C3B  623   0.783   4.216  23.590  0.0019 -0.0157  0.1143
   52DPPC   C4B  624   0.446   4.161  23.213 -0.4248 -0.0413  0.0806
   53DPPC   NC3  625  21.137   3.326  26.935  0.2367  0.0213  0.1256
   53DPPC   PO4  626  20.925   2.955  26.967 -0.1264  0.1816 -0.0557
   53DPPC   GL1  627  20.756   2.636  26.688 -0.2819 -0.0977  0.0910
   53DPPC   GL2  628  20.666   2.900  26.619  0.0004 -0.4400 -0.1621
   53DPPC   C1A  629  20.591   2.497  26.435  0.2031  0.0393 -0.1039
   53DPPC   C2A  630  20.276   2.332  26.194 -0.2282 -0.2543  0.2014
   53DPPC   C3A  631  20.001   2.243  25.841 -0.2317  0.2695  0.3138
   53DPPC   C4A  632  19.721   2.243  25.426 -0.0699  0.0324 -0.1153
   53DPPC   C1B  633  20.457   2.891  26.299 -0.2675  0.2721  0.1662
   53DPPC   C2B  634  20.231   2.816  25.974 -0.0661  0.0047  0.0050
   53DPPC   C3B  635  19.896   2.706  25.605 -0.1639  0.0843 -0.0043
   53DPPC   C4B  636  19.620   2.743  25.214 -0.0911 -0.1421  0.0700
   54DPPC   NC3  637   1.811   3.066  24.787  0.1853  0.0383  0.1306
   54DPPC   PO4  638   1.423   3.097  24.852 -0.1166  0.2273 -0.1430
   54DPPC   GL1  639   1.069   3.140  24.610 -0.5972 -0.2113 -0.3618
   54DPPC   GL2  640   1.075   2.843  24.626  0.1660 -0.1471  0.3029
   54DPPC   C1A  641   0.906   3.206  24.294  0.1616  0.1413  0.1534
   54DPPC   C2A  642   0.701   3.183  23.967  0.3537 -0.5657 -0.0384
   54DPPC   C3A  643   0.384   3.251  23.648 -0.2239 -0.1647  0.2014
   54DPPC   C4A  644   0.073   3.176  23.301 -0.0247 -0.1258 -0.0893
   54DPPC   C1B  645   0.791   2.762  24.375  0.1093  0.2973 -0.1298
   54DPPC   C2B  646   0.518   2.725  24.023 -0.2791 -0.0910 -0.3856
   54DPPC   C3B  647   0.169   2.793  23.616  0.0494  0.0106 -0.1770
   54DPPC   C4B  648  -0.132   2.722  23.203  0.1382  0.0752  0.0070
   55DPPC   NC3  649   1.109   1.483  24.983  0.0773 -0.0056  0.1450
   55DPPC   PO4  650   1.235   1.811  24.814 -0.0337 -0.0237  0.0100
   55DPPC   GL1  651   0.901   1.809  24.532  0.0686 -0.0079  0.1125
   55DPPC   GL2  652   0.914   1.520  24.531 -0.0702 -0.2522 -0.2029
   55DPPC   C1A  653   0.861   1.952  24.181  0.3654 -0.0766  0.0608
   55DPPC   C2A  654   0.671   1.869  23.782  0.1075 -0.1621  0.2543
   55DPPC   C3A  655   0.274   1.910  23.462  0.0997  0.2870 -0.3804
   55DPPC   C4A  656  -0.040   1.853  23.106  0.2775 -0.3549  0.2674
   55DPPC   C1B  657   0.721   1.479  24.195 -0.1936  0.2659  0.0039
   55DPPC   C2B  658   0.420   1.458  23.913 -0.0004 -0.1204 -0.1343
   55DPPC   C3B  659   0.094   1.391  23.520 -0.1669 -0.0488  0.1208
   55DPPC   C4B  660  -0.213   1.387  23.090  0.0656  0.0412 -0.2831
   56DPPC   NC3  661   2.298   5.656  24.385 -0.1340  0.0959 -0.3337
   56DPPC   PO4  662   2.201   5.923  24.114 -0.1568 -0.0571  0.1389
   56DPPC   GL1  663   1.836   6.017  24.141  0.1288  0.2463  0.0015
   56DPPC   GL2  664   1.818   6.238  23.995 -0.0618 -0.0594  0.1623
   56DPPC   C1A  665   1.629   5.757  23.973 -0.1439  0.0338  0.0355
   56DPPC   C2A  666   1.498   5.680  23.614  0.2464 -0.3216  0.0524
   56DPPC   C3A  667   1.213   5.544  23.211  0.1161  0.0985 -0.0913
   56DPPC   C4A  668   0.891   5.618  22.890 -0.2808 -0.2577 -0.1431
   56DPPC   C1B  669   1.606   6.210  23.679 -0.0066 -0.2307  0.1580
   56DPPC   C2B  670   1.394   6.109  23.377  0.2123 -0.2390 -0.0695
   56DPPC   C3B  671   1.186   6.012  22.980  0.2612 -0.0982  0.0845
   56DPPC   C4B  672   0.863   6.053  22.588  0.0284  0.0004 -0.0086
   57DPPC   NC3  673   3.488   3.377  22.357  0.3172  0.4010 -0.0814
   57DPPC   PO4  674   3.403   3.595  22.658 -0.1673  0.0263 -0.0780
   57DPPC   GL1  675   3.258   3.839  22.271 -0.0968 -0.1307  0.3024
   57DPPC   GL2  676   3.061   3.675  22.292  0.2078  0.3819 -0.0731
   57DPPC   C1A  677   3.166   4.054  21.994  0.2023  0.1121 -0.0541
   57DPPC   C2A  678   2.816   4.204  21.818 -0.0825  0.0429  0.0685
   57DPPC   C3A  679   2.511   4.278  21.403 -0.0834  0.0277  0.4295
   57DPPC   C4A  680   2.187   4.180  20.967 -0.1465  0.1575  0.1039
   57DPPC   C1B  681   2.797   3.758  22.008 -0.2295 -0.0447 -0.2783
   57DPPC   C2B  682   2.537   3.742  21.710  0.0948  0.0248 -0.1470
   57DPPC   C3B  683   2.258   3.769  21.345 -0.0385 -0.0926 -0.2203
   57DPPC   C4B  684   1.943   3.750  20.987  0.2660  0.3896 -0.0072
   58DPPC   NC3  685   0.592   2.155  25.770  0.0796 -0.0650 -0.3102
   58DPPC   PO4  686   0.687   1.992  25.462  0.0655 -0.0890 -0.1337
   58DPPC   GL1  687   0.573   1.829  25.141  0.1657  0.2767 -0.2473
   58DPPC   GL2  688   0.817   1.893  25.060  0.4144 -0.1547  0.3065
   58DPPC   C1A  689   0.255   1.763  24.972  0.1760  0.1203 -0.0560
   58DPPC   C2A  690  -0.056   1.672  24.734 -0.2830  0.2446 -0.2028
   58DPPC   C3A  691  -0.233   1.702  24.288  0.0106  0.4015  0.0771
   58DPPC   C4A  692  -0.560   1.725  23.843 -0.0244 -0.1419 -0.0040
   58DPPC   C1B  693   0.809   2.118  24.765 -0.0899  0.1666 -0.0963
   58DPPC   C2B  694   0.650   2.236  24.411  0.0467 -0.3626 -0.5236
   58DPPC   C3B  695   0.378   2.225  23.989 -0.2407  0.0925  0.1146
   58DPPC   C4B  696   0.081   2.351  23.704 -0.0299  0.2480 -0.1927
   59DPPC   NC3  697   0.609   5.261  26.748 -0.2271 -0.0556 -0.1303
   59DPPC   PO4  698   0.643   5.423  26.382 -0.0668  0.2530 -0.1954
   59DPPC   GL1  699   0.385   5.566  26.032 -0.0483 -0.2888  0.0615
   59DPPC   GL2  700   0.226   5.354  26.107  0.1486 -0.0036 -0.0536
   59DPPC   C1A  701   0.176   5.801  25.814  0.1515 -0.0438 -0.0103
   59DPPC   C2A  702  -0.036   5.738  25.470 -0.0297  0.1379 -0.4273
   59DPPC   C3A  703  -0.266   5.615  25.126 -0.0081 -0.2313 -0.0153
   59DPPC   C4A  704  -0.540   5.589  24.791 -0.4373 -0.0480  0.3166
   59DPPC   C1B  705   0.033   5.225  25.801 -0.1325  0.1250 -0.1550
   59DPPC   C2B  706  -0.201   5.172  25.470 -0.4604  0.1746  0.1859
   59DPPC   C3B  707  -0.516   5.113  25.090 -0.0393  0.0872 -0.1883
   59DPPC   C4B  708  -0.866   5.149  24.743  0.1360 -0.0107 -0.1776
   60DPPC   NC3  709   3.021   4.393  23.334 -0.1587 -0.1258 -0.1560
   60DPPC   PO4  710   2.803   4.234  23.029 -0.0971 -0.2568  0.2436
   60DPPC   GL1  711   2.405   3.992  22.923 -0.0270  0.0474  0.3853
   60DPPC   GL2  712   2.586   4.061  22.650  0.0045  0.2170 -0.1395
   60DPPC   C1A  713   2.020   3.976  22.905  0.2147 -0.2043 -0.0972
   60DPPC   C2A  714   1.711   3.935  22.625  0.0313  0.2057 -0.0939
   60DPPC   C3A  715   1.421   3.938  22.266 -0.1889  0.1028 -0.2511
   60DPPC   C4A  716   1.046   3.945  21.912  0.1166  0.3269  0.0514
   60DPPC   C1B  717   2.265   3.966  22.528 -0.1871  0.1128  0.0833
   60DPPC   C2B  718   2.010   3.993  22.194  0.3610  0.1126 -0.0427
   60DPPC   C3B  719   1.665   4.042  21.800 -0.4135 -0.2149  0.0840
   60DPPC   C4B  720   1.318   4.098  21.424 -0.1795 -0.1602 -0.1809
   61DPPC   NC3  721   0.434   4.318  26.681 -0.3046 -0.3170  0.0339
   61DPPC   PO4  722   0.430   4.645  26.481  0.0156  0.1153 -0.0081
   61DPPC   GL1  723   0.136   4.722  26.287 -0.0172 -0.0789  0.1126
   61DPPC   GL2  724   0.330   4.547  26.042 -0.0759  0.1379  0.3848
   61DPPC   C1A  725  -0.094   4.952  26.205  0.1594 -0.2282  0.1047
   61DPPC   C2A  726  -0.435   5.074  25.942 -0.3195  0.1568 -0.2888
   61DPPC   C3A  727  -0.729   5.057  25.545  0.2520  0.0137  0.0320
   61DPPC   C4A  728  -1.081   5.014  25.223  0.2845 -0.0621  0.0459
   61DPPC   C1B  729   0.203   4.432  25.736 -0.1572  0.0757 -0.3684
   61DPPC   C2B  730  -0.000   4.410  25.318  0.0142  0.3490  0.0191
   61DPPC   C3B  731  -0.319   4.381  25.007  0.1389  0.0935  0.1734
   61DPPC   C4B  732  -0.682   4.332  24.723  0.0481  0.3905  0.1598
   62DPPC   NC3  733   2.374   1.482  24.264 -0.3113  0.3345 -0.1004
   62DPPC   PO4  734   2.173   1.795  24.358  0.2035 -0.0702  0.3671
   62DPPC   GL1  735   1.881   1.788  24.071  0.0946 -0.2283 -0.3504
   62DPPC   GL2  736   1.786   1.510  24.055 -0.2288  0.1518 -0.6575
   62DPPC   C1A  737   1.623   1.984  23.911  0.2651  0.1419 -0.1696
   62DPPC   C2A  738   1.261   2.002  23.752 -0.0873 -0.0730  0.1724
   62DPPC   C3A  739   0.929   2.001  23.425 -0.1732  0.3961 -0.0361
   62DPPC   C4A  740   0.610   1.958  23.078  0.1113  0.0075  0.0255
   62DPPC   C1B  741   1.461   1.582  23.911  0.2010  0.1061 -0.1811
   62DPPC   C2B  742   1.070   1.512  23.780 -0.0167 -0.0216  0.7486
   62DPPC   C3B  743   0.718   1.480  23.449 -0.0143  0.0962 -0.0909
   62DPPC   C4B  744   0.314   1.491  23.106 -0.0359  0.0147  0.1223
   63DPPC   NC3  745  21.046   4.751  27.322  0.2020  0.0266  0.0201
   63DPPC   PO4  746  20.896   4.389  27.394  0.2176  0.0868  0.0299
   63DPPC   GL1  747  20.464   4.432  27.221  0.1333 -0.3288 -0.1048
   63DPPC   GL2  748  20.569   4.645  27.038 -0.2246  0.0126  0.2892
   63DPPC   C1A  749  20.083   4.362  27.137 -0.4835  0.3118 -0.1836
   63DPPC   C2A  750  19.891   4.415  26.804 -0.3364  0.2353 -0.0441
   63DPPC   C3A  751  19.555   4.432  26.481  0.1838 -0.3047  0.2063
   63DPPC   C4A  752  19.207   4.342  26.103  0.0709 -0.2364 -0.0861
   63DPPC   C1B  753  20.493   4.551  26.661  0.1860 -0.2074 -0.1831
   63DPPC   C2B  754  20.238   4.532  26.328 -0.0644  0.2386 -0.0994
   63DPPC   C3B  755  19.915   4.611  26.043 -0.0416  0.0054  0.1589
   63DPPC   C4B  756  19.566   4.561  25.690  0.0221 -0.1751 -0.2309
   64DPPC   NC3  757  16.610   0.630  29.029 -0.1380  0.0417  0.0371
   64DPPC   PO4  758  16.950   0.419  28.923 -0.0683 -0.1497 -0.0709
   64DPPC   GL1  759  17.128   0.562  28.566 -0.1436  0.2138 -0.1675
   64DPPC   GL2  760  17.038   0.376  28.433  0.2656 -0.4403  0.2898
   64DPPC   C1A  761  17.280   0.831  28.427 -0.1807 -0.2661  0.3035
   64DPPC   C2A  762  17.326   1.184  28.533  0.0854 -0.0755 -0.3071
   64DPPC   C3A  763  17.749   1.422  28.637 -0.0078 -0.0068 -0.0292
   64DPPC   C4A  764  17.825   1.863  28.469  0.0589  0.0110  0.0978
   64DPPC   C1B  765  17.235   0.151  28.285 -0.0370  0.3580 -0.0008
   64DPPC   C2B  766  17.497  -0.131  28.187 -0.0830  0.0656  0.1741
   64DPPC   C3B  767  17.565  -0.524  27.998 -0.1078 -0.0508  0.1823
   64DPPC   C4B  768  17.767  -0.793  27.755 -0.1493 -0.3316  0.1284
   65DPPC   NC3  769   0.715   0.807  26.421 -0.0489 -0.0731 -0.1131
   65DPPC   PO4  770   0.616   0.802  26.045  0.1626  0.0665 -0.0262
   65DPPC   GL1  771   0.454   0.649  25.675 -0.0517 -0.0422 -0.0858
   65DPPC   GL2  772   0.316   0.431  25.880  0.1766 -0.1480  0.0393
   65DPPC   C1A  773   0.192   0.708  25.404 -0.1239 -0.4490  0.1744
   65DPPC   C2A  774  -0.115   0.808  25.158 -0.0135 -0.0279 -0.0471
   65DPPC   C3A  775  -0.445   0.798  24.777 -0.0147 -0.2874 -0.0253
   65DPPC   C4A  776  -0.731   0.882  24.408 -0.2738  0.1524  0.0795
   65DPPC   C1B  777   0.055   0.376  25.662 -0.0069 -0.5427 -0.2174
   65DPPC   C2B  778  -0.171   0.354  25.352  0.2720  0.2708  0.1164
   65DPPC   C3B  779  -0.496   0.343  24.991  0.1276  0.1561 -0.0661
   65DPPC   C4B  780  -0.874   0.426  24.644 -0.0585  0.1491 -0.4228
   66DPPC   NC3  781  19.675   3.271  28.488 -0.0719  0.1353  0.4659
   66DPPC   PO4  782  19.934   3.569  28.333  0.2820 -0.1056  0.0837
   66DPPC   GL1  783  19.907   3.724  27.944  0.4277  0.0240 -0.1755
   66DPPC   GL2  784  19.982   3.394  27.791 -0.0814  0.1373 -0.2440
   66DPPC   C1A  785  19.904   3.846  27.603 -0.0617 -0.0086 -0.0742
   66DPPC   C2A  786  19.909   3.856  27.180  0.1283  0.0525 -0.2198
   66DPPC   C3A  787  19.645   3.973  26.792  0.2806  0.1483 -0.1567
   66DPPC   C4A  788  19.359   3.899  26.435 -0.2761 -0.1739  0.1229
   66DPPC   C1B  789  20.037   3.372  27.430 -0.1751 -0.1017  0.1354
   66DPPC   C2B  790  20.041   3.159  27.064  0.3099  0.1777 -0.1617
   66DPPC   C3B  791  19.795   3.082  26.669 -0.2904 -0.2100  0.0113
   66DPPC   C4B  792  19.537   3.033  26.267 -0.2987 -0.0847 -0.2774
   67DPPC   NC3  793  20.289   5.926  28.258  0.3024 -0.1225 -0.0107
   67DPPC   PO4  794  20.278   6.289  28.327 -0.2191 -0.2247  0.2302
   67DPPC   GL1  795  20.126   6.574  28.013  0.0601 -0.0332  0.2164
   67DPPC   GL2  796  20.272   6.457  27.833 -0.0782  0.0279 -0.3795
   67DPPC   C1A  797  19.814   6.435  27.863  0.1483  0.1736 -0.2361
   67DPPC   C2A  798  19.378   6.426  27.812 -0.1336 -0.0988  0.1002
   67DPPC   C3A  799  18.940   6.478  28.060 -0.1922 -0.0677  0.0566
   67DPPC   C4A  800  18.481   6.544  28.180  0.1015  0.0809  0.4360
   67DPPC   C1B  801  20.039   6.575  27.566  0.4053  0.1698 -0.0393
   67DPPC   C2B  802  19.639   6.525  27.396 -0.1757  0.2501  0.0767
   67DPPC   C3B  803  19.300   6.488  27.083  0.0842  0.1556  0.1076
   67DPPC   C4B  804  18.914   6.407  26.792  0.0537 -0.1346 -0.1261
   68DPPC   NC3  805   1.035   6.487  25.557 -0.1709  0.0309 -0.0700
   68DPPC   PO4  806   1.364   6.256  25.430  0.2100  0.0010 -0.4310
   68DPPC   GL1  807   1.300   6.532  25.126  0.1991 -0.1651 -0.0810
   68DPPC   GL2  808   1.407   6.295  25.014 -0.1712 -0.2920  0.1559
   68DPPC   C1A  809   1.140   6.646  24.828  0.0477 -0.2016 -0.0964
   68DPPC   C2A  810   0.852   6.811  24.608 -0.0825  0.0184  0.1522
   68DPPC   C3A  811   0.554   6.752  24.174  0.0577 -0.2299 -0.0848
   68DPPC   C4A  812   0.296   6.734  23.750  0.3012 -0.1342  0.0198
   68DPPC   C1B  813   1.212   6.137  24.678  0.2329  0.0899  0.0160
   68DPPC   C2B  814   0.944   5.980  24.384 -0.0105  0.3113 -0.0492
   68DPPC   C3B  815   0.653   5.885  24.009  0.0596 -0.2444  0.2867
   68DPPC   C4B  816   0.356   5.844  23.612  0.0097  0.0131  0.3518
   69DPPC   NC3  817   0.450   6.054  26.045 -0.0117  0.3964  0.1170
   69DPPC   PO4  818   0.661   6.400  26.139 -0.1275 -0.1036  0.1347
   69DPPC   GL1  819   0.307   6.622  26.137  0.0797 -0.0452  0.0720
   69DPPC   GL2  820   0.226   6.383  26.348  0.5005  0.1137  0.0310
   69DPPC   C1A  821   0.026   6.596  25.923 -0.0964 -0.1380 -0.1877
   69DPPC   C2A  822  -0.191   6.534  25.622  0.1947 -0.0444 -0.1388
   69DPPC   C3A  823  -0.469   6.485  25.217  0.0859  0.0711 -0.0678
   69DPPC   C4A  824  -0.761   6.464  24.826 -0.2698 -0.0625 -0.0185
   69DPPC   C1B  825   0.004   6.215  26.079  0.1809 -0.0558 -0.1301
   69DPPC   C2B  826  -0.194   6.075  25.773 -0.0666 -0.0492 -0.0791
   69DPPC   C3B  827  -0.494   6.015  25.437 -0.1240 -0.0009 -0.0204
   69DPPC   C4B  828  -0.802   5.998  25.036 -0.0727 -0.2584 -0.2648
   70DPPC   NC3  829   3.002   6.586  23.165  0.3087 -0.3718 -0.0825
   70DPPC   PO4  830   2.748   6.895  23.107 -0.0025  0.1651  0.2180
   70DPPC   GL1  831   2.535   6.995  22.788 -0.0222  0.1245  0.0712
   70DPPC   GL2  832   2.369   6.718  22.828 -0.0694  0.1408 -0.1621
   70DPPC   C1A  833   2.544   7.020  22.424 -0.1008 -0.3152 -0.1171
   70DPPC   C2A  834   2.337   7.167  22.154  0.3751 -0.0726 -0.4263
   70DPPC   C3A  835   1.988   7.209  21.862 -0.0783 -0.1813  0.0227
   70DPPC   C4A  836   1.703   7.186  21.501 -0.0603 -0.3169 -0.0792
   70DPPC   C1B  837   2.278   6.676  22.469 -0.0408  0.0305 -0.0672
   70DPPC   C2B  838   2.030   6.742  22.144 -0.0723 -0.0419 -0.1924
   70DPPC   C3B  839   1.725   6.765  21.753  0.0366 -0.0157 -0.1099
   70DPPC   C4B  840   1.357   6.742  21.472  0.1387  0.0572 -0.4752
   71DPPC   NC3  841   1.170   1.473  25.845 -0.0154  0.4551  0.1473
   71DPPC   PO4  842   0.817   1.671  25.832 -0.1002  0.0528 -0.0177
   71DPPC   GL1  843   0.437   1.676  25.813  0.1052 -0.0555 -0.0679
   71DPPC   GL2  844   0.458   1.593  25.472 -0.1119  0.0313 -0.0187
   71DPPC   C1A  845   0.081   1.759  25.816 -0.1253 -0.2602 -0.0586
   71DPPC   C2A  846  -0.240   2.014  25.668 -0.1202  0.1046 -0.0890
   71DPPC   C3A  847  -0.570   2.041  25.323  0.1221 -0.1445 -0.1124
   71DPPC   C4A  848  -0.942   1.991  24.961 -0.2973 -0.0901 -0.2150
   71DPPC   C1B  849   0.106   1.588  25.408 -0.1296  0.1087 -0.3473
   71DPPC   C2B  850  -0.225   1.643  25.179 -0.1408  0.1116 -0.1714
   71DPPC   C3B  851  -0.557   1.643  24.852  0.0464  0.3070 -0.1162
   71DPPC   C4B  852  -0.905   1.672  24.438 -0.0323  0.2363 -0.0621
   72DPPC   NC3  853  16.812   3.609  29.699 -0.2131  0.2162  0.0563
   72DPPC   PO4  854  17.143   3.785  29.574  0.0191  0.0324 -0.2473
   72DPPC   GL1  855  17.168   3.559  29.134  0.1578  0.0008 -0.1115
   72DPPC   GL2  856  17.157   3.830  28.998 -0.0473 -0.0792 -0.0588
   72DPPC   C1A  857  17.130   3.427  28.788 -0.1314  0.0252 -0.0620
   72DPPC   C2A  858  17.212   3.190  28.448  0.3007 -0.4560 -0.2619
   72DPPC   C3A  859  17.395   3.039  28.040 -0.0681 -0.1432  0.2789
   72DPPC   C4A  860  17.703   3.043  27.672  0.0122  0.0980 -0.0296
   72DPPC   C1B  861  17.105   4.075  28.724  0.0700  0.2890 -0.2900
   72DPPC   C2B  862  17.147   4.419  28.565 -0.0417  0.1011 -0.0969
   72DPPC   C3B  863  16.924   4.815  28.472  0.1722  0.0297 -0.0489
   72DPPC   C4B  864  16.775   5.155  28.179 -0.0753  0.0005 -0.2253
   73DPPC   NC3  865  20.517   5.420  27.528 -0.4272  0.0894 -0.0172
   73DPPC   PO4  866  20.508   5.659  27.860 -0.0626 -0.1232  0.1825
   73DPPC   GL1  867  20.223   5.951  27.725  0.0862  0.1668 -0.0449
   73DPPC   GL2  868  20.341   6.148  27.527 -0.1557 -0.1988  0.2754
   73DPPC   C1A  869  20.042   5.828  27.486 -0.0069  0.2512  0.0456
   73DPPC   C2A  870  19.711   5.642  27.283 -0.0712  0.1109  0.3055
   73DPPC   C3A  871  19.400   5.572  26.993 -0.0606 -0.1219  0.1436
   73DPPC   C4A  872  19.076   5.616  26.585 -0.3985  0.3349  0.1777
   73DPPC   C1B  873  20.031   6.207  27.293  0.3749 -0.0733  0.3747
   73DPPC   C2B  874  19.744   6.101  27.058 -0.1388 -0.0509 -0.0973
   73DPPC   C3B  875  19.394   6.095  26.688  0.3829 -0.1130 -0.2147
   73DPPC   C4B  876  19.005   6.088  26.274  0.0529  0.1934  0.1001
   74DPPC   NC3  877   2.801   3.205  23.021 -0.0634  0.2901  0.1324
   74DPPC   PO4  878   2.555   3.265  23.321  0.2468 -0.0498 -0.5361
   74DPPC   GL1  879   2.249   3.256  23.172  0.1369 -0.0691  0.0845
   74DPPC   GL2  880   2.068   3.452  23.276  0.0687 -0.1092  0.0565
   74DPPC   C1A  881   2.033   3.240  22.815  0.0166 -0.1090 -0.3116
   74DPPC   C2A  882   1.832   3.059  22.494 -0.0079 -0.1140  0.0038
   74DPPC   C3A  883   1.477   3.062  22.250  0.0814 -0.2758  0.2921
   74DPPC   C4A  884   1.145   3.143  21.961 -0.0808 -0.1316  0.2268
   74DPPC   C1B  885   1.777   3.507  23.033  0.0691 -0.3742  0.1494
   74DPPC   C2B  886   1.486   3.452  22.659 -0.3227  0.1163 -0.0126
   74DPPC   C3B  887   1.101   3.495  22.332 -0.1768  0.3347 -0.0190
   74DPPC   C4B  888   0.764   3.499  21.940 -0.0002  0.0696 -0.2027
   75DPPC   NC3  889   2.036   0.144  24.581  0.3714  0.3937 -0.0145
   75DPPC   PO4  890   1.954   0.113  24.197  0.0770 -0.0077 -0.1958
   75DPPC   GL1  891   1.583   0.108  24.002 -0.0355 -0.0557  0.1107
   75DPPC   GL2  892   1.638   0.338  23.843 -0.3136  0.0087  0.0462
   75DPPC   C1A  893   1.330  -0.149  23.949 -0.4145 -0.2661 -0.0028
   75DPPC   C2A  894   1.097  -0.124  23.605 -0.0228 -0.0597  0.2930
   75DPPC   C3A  895   0.892  -0.206  23.168 -0.0429  0.2261 -0.1013
   75DPPC   C4A  896   0.536  -0.222  22.829  0.2895 -0.0936  0.0262
   75DPPC   C1B  897   1.385   0.275  23.578  0.1093 -0.0348  0.0137
   75DPPC   C2B  898   1.112   0.330  23.222  0.0029  0.1116  0.2117
   75DPPC   C3B  899   0.839   0.286  22.891  0.0350  0.1249  0.0032
   75DPPC   C4B  900   0.509   0.293  22.538 -0.0966 -0.4625 -0.0063
   76DPPA   PO4  901   2.974   0.627  22.751  0.1663 -0.0609 -0.1730
   76DPPA   GL1  902   2.699   0.885  22.456  0.1818 -0.1929  0.0061
   76DPPA   GL2  903   2.519   0.801  22.674  0.3414 -0.0324  0.1692
   76DPPA   C1A  904   2.498   0.968  22.174  0.0505  0.1893  0.2143
   76DPPA   C2A  905   2.218   1.076  21.892 -0.0632  0.2019 -0.1812
   76DPPA   C3A  906   1.854   1.061  21.579 -0.2786  0.0503  0.2097
   76DPPA   C4A  907   1.569   0.996  21.150 -0.4591  0.2354 -0.0433
   76DPPA   C1B  908   2.130   0.859  22.525 -0.1545 -0.2072 -0.2010
   76DPPA   C2B  909   1.875   0.889  22.245  0.0773  0.0676  0.1692
   76DPPA   C3B  910   1.585   0.921  21.931 -0.1279  0.1159  0.0333
   76DPPA   C4B  911   1.243   0.883  21.610 -0.0057  0.1448 -0.0812
   77DPPA   PO4  912   1.040   0.964  25.193  0.1353  0.1305  0.0363
   77DPPA   GL1  913   0.632   0.954  25.109  0.0784 -0.1322  0.0319
   77DPPA   GL2  914   0.546   1.013  25.411  0.2668 -0.1948  0.0221
   77DPPA   C1A  915   0.374   0.823  24.856  0.2266 -0.0218 -0.2012
   77DPPA   C2A  916   0.087   0.796  24.632 -0.0403  0.0916  0.1162
   77DPPA   C3A  917  -0.253   0.863  24.301  0.1918 -0.1740 -0.0219
   77DPPA   C4A  918  -0.538   0.824  23.883  0.0981 -0.2390 -0.2441
   77DPPA   C1B  919   0.307   1.262  25.219 -0.0832 -0.0993 -0.0735
   77DPPA   C2B  920   0.026   1.224  24.886 -0.3030  0.0997  0.1353
   77DPPA   C3B  921  -0.322   1.271  24.590 -0.0656  0.4097 -0.0766
   77DPPA   C4B  922  -0.640   1.328  24.206 -0.0708 -0.1125 -0.1016
   78DPPA   PO4  923   2.718   1.793  23.483 -0.1911  0.0105 -0.1416
   78DPPA   GL1  924   2.446   1.845  23.221 -0.1595  0.1170  0.1277
   78DPPA   GL2  925   2.262   1.632  23.326 -0.1737 -0.0259 -0.2512
   78DPPA   C1A  926   2.363   2.023  22.908 -0.0024 -0.0609  0.2416
   78DPPA   C2A  927   2.093   2.196  22.595 -0.2206  0.0892 -0.0495
   78DPPA   C3A  928   1.736   2.179  22.257 -0.0955  0.1880  0.4851
   78DPPA   C4A  929   1.374   2.293  21.913  0.2198  0.1025 -0.0765
   78DPPA   C1B  930   1.986   1.542  23.117  0.1781 -0.3216 -0.0890
   78DPPA   C2B  931   1.661   1.627  22.864 -0.0494 -0.0622 -0.0248
   78DPPA   C3B  932   1.270   1.702  22.668 -0.1149 -0.1070 -0.1866
   78DPPA   C4B  933   0.982   1.674  22.311  0.0497  0.1970 -0.1016
   79DPPA   PO4  934  20.124   1.229  20.695  0.0227  0.2839  0.1474
   79DPPA   GL1  935  20.342   1.463  20.907 -0.1701  0.3244 -0.2460
   79DPPA   GL2  936  20.451   1.594  20.724 -0.2860  0.2175  0.0246
   79DPPA   C1A  937  20.556   1.535  21.232  0.1891  0.1068  0.2233
   79DPPA   C2A  938  20.806   1.628  21.506 -0.1652 -0.0923  0.2524
   79DPPA   C3A  939  21.095   1.522  21.851 -0.3701  0.0399 -0.1616
   79DPPA   C4A  940  21.414   1.533  22.222 -0.0328 -0.0429  0.0137
   79DPPA   C1B  941  20.790   1.633  20.827 -0.2570 -0.0654  0.1617
   79DPPA   C2B  942  21.075   1.658  21.096 -0.1436  0.0768  0.0721
   79DPPA   C3B  943  21.404   1.658  21.478 -0.0091 -0.1685 -0.1055
   79DPPA   C4B  944  21.738   1.665  21.857  0.1893 -0.1475  0.1414
   80DPPA   PO4  945   0.609   6.257  26.666  0.1131  0.0174  0.1620
   80DPPA   GL1  946   0.254   6.140  26.761  0.0920  0.4790 -0.0353
   80DPPA   GL2  947   0.355   5.857  26.590  0.0087 -0.2397  0.0075
   80DPPA   C1A  948  -0.033   6.111  26.582  0.0320  0.1168  0.2497
   80DPPA   C2A  949  -0.343   6.024  26.286  0.1936 -0.3739 -0.2284
   80DPPA   C3A  950  -0.682   5.961  25.985 -0.3894 -0.4431 -0.0908
   80DPPA   C4A  951  -0.962   5.904  25.615 -0.0320 -0.2389 -0.0187
   80DPPA   C1B  952   0.082   5.755  26.313  0.4349 -0.1951 -0.1972
   80DPPA   C2B  953  -0.169   5.585  26.061 -0.0383  0.2861 -0.1911
   80DPPA   C3B  954  -0.473   5.611  25.678 -0.0739 -0.0693 -0.2169
   80DPPA   C4B  955  -0.765   5.577  25.260  0.2358  0.2372 -0.0448
   81DPPA   PO4  956   1.410   3.526  24.582  0.3190 -0.0341  0.0495
   81DPPA   GL1  957   1.285   3.585  24.180 -0.1474 -0.0725  0.1555
   81DPPA   GL2  958   1.340   3.295  24.187  0.1797 -0.0554 -0.1750
   81DPPA   C1A  959   0.942   3.626  24.035 -0.2245 -0.1001  0.1900
   81DPPA   C2A  960   0.656   3.663  23.724 -0.1472 -0.3608  0.0722
   81DPPA   C3A  961   0.294   3.668  23.383 -0.0368  0.2634  0.0253
   81DPPA   C4A  962  -0.075   3.610  23.007 -0.0781  0.2505 -0.1146
   81DPPA   C1B  963   1.242   3.285  23.825 -0.1278  0.1733 -0.2080
   81DPPA   C2B  964   0.981   3.343  23.533 -0.1816  0.2639  0.1428
   81DPPA   C3B  965   0.654   3.308  23.178  0.1224 -0.2271 -0.3186
   81DPPA   C4B  966   0.282   3.245  22.834 -0.2238 -0.1394  0.0910
   82DPPA   PO4  967   0.228   5.530  26.855  0.1324  0.0042  0.1928
   82DPPA   GL1  968  -0.207   5.586  26.786 -0.2765  0.0807  0.0911
   82DPPA   GL2  969  -0.265   5.314  26.739 -0.2889  0.2999 -0.2929
   82DPPA   C1A  970  -0.488   5.822  26.741  0.0112  0.0248  0.0104
   82DPPA   C2A  971  -0.815   5.865  26.491 -0.0967  0.2578  0.1203
   82DPPA   C3A  972  -1.144   5.756  26.138 -0.0675  0.0889 -0.0211
   82DPPA   C4A  973  -1.471   5.758  25.824 -0.1833 -0.3569 -0.0216
   82DPPA   C1B  974  -0.384   5.332  26.415  0.0368 -0.0448  0.2326
   82DPPA   C2B  975  -0.646   5.444  26.127  0.2513 -0.0813  0.0094
   82DPPA   C3B  976  -0.929   5.416  25.786  0.1292 -0.1297 -0.1486
   82DPPA   C4B  977  -1.300   5.429  25.482 -0.1372 -0.0288  0.1900
   83DPPA   PO4  978   1.273   0.294  25.409 -0.0838  0.1681 -0.0963
   83DPPA   GL1  979   1.038   0.368  25.061 -0.1893 -0.0946 -0.0586
   83DPPA   GL2  980   0.862   0.226  25.223  0.0010  0.3933 -0.1124
   83DPPA   C1A  981   0.833   0.585  24.860  0.0409  0.1186  0.0361
   83DPPA   C2A  982   0.556   0.580  24.538 -0.1333  0.3464  0.1254
   83DPPA   C3A  983   0.194   0.514  24.225  0.2410  0.2834 -0.2765
   83DPPA   C4A  984  -0.117   0.534  23.878 -0.0656 -0.3721 -0.0103
   83DPPA   C1B  985   0.507   0.381  25.207 -0.1504  0.1478 -0.0165
   83DPPA   C2B  986   0.154   0.447  24.959 -0.0293 -0.0840 -0.2326
   83DPPA   C3B  987  -0.191   0.346  24.576  0.0476 -0.0434 -0.0908
   83DPPA   C4B  988  -0.494   0.391  24.237  0.0703 -0.0516 -0.2160
   84DPPA   PO4  989   3.059   6.048  23.165  0.1909 -0.3100  0.0869
   84DPPA   GL1  990   2.740   5.993  22.840  0.2493 -0.3601  0.3749
   84DPPA   GL2  991   2.655   6.298  22.814  0.1294  0.1302 -0.1888
   84DPPA   C1A  992   2.611   5.875  22.549  0.0946  0.1557 -0.1081
   84DPPA   C2A  993   2.279   5.947  22.283 -0.2458 -0.0914 -0.0379
   84DPPA   C3A  994   1.964   5.862  21.950 -0.0379 -0.2126 -0.4214
   84DPPA   C4A  995   1.667   5.829  21.574 -0.0473  0.1046 -0.1148
   84DPPA   C1B  996   2.281   6.295  22.783 -0.1933 -0.2103  0.8914
   84DPPA   C2B  997   1.977   6.273  22.452 -0.0110 -0.1923 -0.0649
   84DPPA   C3B  998   1.724   6.242  22.061  0.1457  0.2117 -0.1041
   84DPPA   C4B  999   1.370   6.158  21.738  0.0278 -0.0825  0.0983
   85DPPA   PO4 1000  19.285   3.111  28.733  0.2958  0.1178  0.1384
   85DPPA   GL1 1001  19.004   3.428  28.501 -0.0707  0.0545 -0.0567
   85DPPA   GL2 1002  19.228   3.254  28.302  0.1063 -0.1891 -0.3431
   85DPPA   C1A 1003  18.871   3.627  28.232 -0.1663  0.0779  0.2018
   85DPPA   C2A 1004  19.022   3.756  27.886 -0.2240 -0.3070  0.2247
   85DPPA   C3A 1005  18.862   3.814  27.457  0.3223  0.0582  0.0761
   85DPPA   C4A 1006  18.853   4.225  27.315 -0.0690 -0.0725  0.1730
   85DPPA   C1B 1007  19.146   3.292  27.957  0.1188 -0.0106  0.0624
   85DPPA   C2B 1008  19.144   3.366  27.568 -0.2726 -0.2201 -0.2205
   85DPPA   C3B 1009  19.031   3.354  27.117 -0.0340 -0.0214 -0.0883
   85DPPA   C4B 1010  18.763   3.264  26.719 -0.0842  0.1630 -0.0558
   86DPPA   PO4 1011  21.140   0.377  26.905 -0.1212 -0.0798  0.1395
   86DPPA   GL1 1012  20.801   0.398  26.691  0.0573  0.2639  0.0603
   86DPPA   GL2 1013  20.815   0.667  26.560  0.1953  0.6071  0.1254
   86DPPA   C1A 1014  20.576   0.239  26.429 -0.1140  0.3603 -0.1212
   86DPPA   C2A 1015  20.333   0.111  26.126  0.0857  0.1189  0.2190
   86DPPA   C3A 1016  20.032   0.052  25.728 -0.1369  0.0499 -0.4363
   86DPPA   C4A 1017  19.730   0.033  25.346 -0.2290 -0.0961  0.0764
   86DPPA   C1B 1018  20.610   0.670  26.193 -0.0464  0.2347  0.0839
   86DPPA   C2B 1019  20.333   0.600  25.865 -0.2859 -0.1186  0.1343
   86DPPA   C3B 1020  20.010   0.541  25.530  0.1329  0.1927 -0.2691
   86DPPA   C4B 1021  19.736   0.484  25.092  0.0160  0.0776  0.1644
   87DPPA   PO4 1022   0.880   1.521  25.362  0.1666 -0.1311 -0.3823
   87DPPA   GL1 1023   0.664   1.470  25.023  0.1088 -0.1479 -0.0757
   87DPPA   GL2 1024   0.697   1.291  24.888 -0.0909  0.2747  0.0085
   87DPPA   C1A 1025   0.587   1.655  24.725  0.2229 -0.4338 -0.0597
   87DPPA   C2A 1026   0.393   1.763  24.376  0.0713 -0.0916 -0.0807
   87DPPA   C3A 1027   0.085   1.845  23.959 -0.0763  0.0415 -0.0826
   87DPPA   C4A 1028  -0.218   1.969  23.560  0.0519 -0.2964 -0.1091
   87DPPA   C1B 1029   0.417   1.239  24.587  0.2912  0.1545 -0.0414
   87DPPA   C2B 1030   0.066   1.297  24.311  0.1121 -0.0043 -0.0959
   87DPPA   C3B 1031  -0.236   1.343  23.930 -0.2075 -0.0466 -0.1213
   87DPPA   C4B 1032  -0.424   1.333  23.535  0.0814  0.0212  0.0316
   88DPPA   PO4 1033  16.385   3.626  29.568  0.2107  0.3900  0.2955
   88DPPA   GL1 1034  16.201   3.565  29.179  0.1992  0.1528 -0.0699
   88DPPA   GL2 1035  16.352   3.767  29.102  0.0399 -0.1541  0.3840
   88DPPA   C1A 1036  16.392   3.356  28.952  0.2726  0.0697  0.1894
   88DPPA   C2A 1037  16.660   3.070  28.747 -0.2297 -0.3710  0.2793
   88DPPA   C3A 1038  16.752   2.958  28.273 -0.0801  0.0849 -0.0798
   88DPPA   C4A 1039  16.935   2.877  27.746  0.1887 -0.2292 -0.0279
   88DPPA   C1B 1040  16.645   3.717  28.816  0.1418 -0.0164  0.1497
   88DPPA   C2B 1041  16.753   3.552  28.460 -0.0843  0.0590 -0.0101
   88DPPA   C3B 1042  17.018   3.457  28.082 -0.1483  0.0432  0.2406
   88DPPA   C4B 1043  17.106   3.680  27.626 -0.0484 -0.0301  0.0406
   89DPPA   PO4 1044   0.829   6.067  25.568 -0.1327 -0.0344  0.3519
   89DPPA   GL1 1045   0.482   6.160  25.305 -0.0990  0.0027 -0.3524
   89DPPA   GL2 1046   0.659   6.458  25.251 -0.0684 -0.1890  0.2484
   89DPPA   C1A 1047   0.356   6.246  24.960 -0.1474  0.3864  0.3156
   89DPPA   C2A 1048   0.067   6.183  24.649  0.1086 -0.1705 -0.0593
   89DPPA   C3A 1049  -0.218   6.174  24.221  0.1084 -0.1300  0.0538
   89DPPA   C4A 1050  -0.548   6.118  23.865  0.3024  0.0061  0.0518
   89DPPA   C1B 1051   0.503   6.672  24.942 -0.4022  0.2437 -0.0372
   89DPPA   C2B 1052   0.253   6.736  24.603 -0.0047 -0.1001 -0.1550
   89DPPA   C3B 1053  -0.012   6.680  24.175 -0.1084 -0.0819 -0.0720
   89DPPA   C4B 1054  -0.350   6.613  23.805  0.0439  0.1895  0.0223
   90DPPA   PO4 1055  20.816   1.170  27.549 -0.1312 -0.1448 -0.1174
   90DPPA   GL1 1056  20.525   1.010  27.214  0.5034 -0.0882  0.0554
   90DPPA   GL2 1057  20.474   0.819  27.425 -0.0781 -0.0851 -0.0650
   90DPPA   C1A 1058  20.201   0.994  26.955  0.0330 -0.0440  0.1054
   90DPPA   C2A 1059  19.931   0.913  26.639 -0.1051  0.2294 -0.4238
   90DPPA   C3A 1060  19.594   0.934  26.257 -0.0993 -0.1349 -0.0308
   90DPPA   C4A 1061  19.278   0.938  25.870  0.2584  0.1186  0.1775
   90DPPA   C1B 1062  20.090   0.816  27.488  0.2902  0.2413 -0.2126
   90DPPA   C2B 1063  19.856   0.795  27.167  0.4595 -0.1147 -0.3007
   90DPPA   C3B 1064  19.473   0.771  26.834 -0.1500  0.0789 -0.2196
   90DPPA   C4B 1065  19.142   0.775  26.500 -0.0022 -0.1010 -0.1683
   91DPPA   PO4 1066   0.189   6.491  27.062 -0.0971 -0.0001 -0.1723
   91DPPA   GL1 1067   0.012   6.510  26.742  0.1008  0.0863  0.0969
   91DPPA   GL2 1068  -0.194   6.318  26.913 -0.4618 -0.4344 -0.4343
   91DPPA   C1A 1069  -0.212   6.530  26.452  0.2575 -0.3516 -0.1453
   91DPPA   C2A 1070  -0.414   6.477  26.092 -0.0930 -0.2002 -0.0700
   91DPPA   C3A 1071  -0.723   6.380  25.736  0.0493  0.3310  0.1508
   91DPPA   C4A 1072  -0.951   6.336  25.331 -0.0642  0.1802 -0.0184
   91DPPA   C1B 1073  -0.471   6.237  26.667  0.0927  0.4497 -0.0224
   91DPPA   C2B 1074  -0.782   6.343  26.389 -0.0273  0.1914 -0.1963
   91DPPA   C3B 1075  -1.136   6.219  26.055 -0.0961  0.0551 -0.2657
   91DPPA   C4B 1076  -1.395   6.211  25.646 -0.0234 -0.2550 -0.0274
   92DPPA   PO4 1077   0.292   3.002  26.738  0.0699  0.0681 -0.0385
   92DPPA   GL1 1078  -0.037   2.999  26.561  0.0061  0.0176 -0.0930
   92DPPA   GL2 1079  -0.115   2.796  26.350 -0.0654  0.1977 -0.0426
   92DPPA   C1A 1080  -0.242   3.248  26.417 -0.1459 -0.0866 -0.3090
   92DPPA   C2A 1081  -0.528   3.295  26.156 -0.0873  0.0069  0.2217
   92DPPA   C3A 1082  -0.789   3.361  25.808  0.0624 -0.0967 -0.0415
   92DPPA   C4A 1083  -1.132   3.285  25.356 -0.0576 -0.1786 -0.1644
   92DPPA   C1B 1084  -0.228   2.778  26.008  0.1754  0.1335  0.1857
   92DPPA   C2B 1085  -0.436   2.852  25.682 -0.0372  0.1121 -0.1537
   92DPPA   C3B 1086  -0.759   2.807  25.352 -0.0994 -0.0765  0.1114
   92DPPA   C4B 1087  -1.075   2.872  25.068  0.0903 -0.1263  0.2206
   93DPPA   PO4 1088   0.611   2.610  25.952  0.1020 -0.0577 -0.2021
   93DPPA   GL1 1089   0.184   2.732  25.903 -0.1800  0.1597  0.0555
   93DPPA   GL2 1090   0.291   2.940  25.757 -0.2503  0.0450  0.1518
   93DPPA   C1A 1091  -0.018   2.540  25.623 -0.1294  0.1024 -0.1322
   93DPPA   C2A 1092  -0.334   2.531  25.322 -0.0885  0.0171  0.1103
   93DPPA   C3A 1093  -0.613   2.462  24.977  0.1292  0.0359 -0.1780
   93DPPA   C4A 1094  -0.951   2.402  24.649  0.2338 -0.1396  0.0335
   93DPPA   C1B 1095   0.004   3.091  25.536 -0.1193  0.1984  0.0476
   93DPPA   C2B 1096  -0.174   3.008  25.191  0.2175  0.2030 -0.1784
   93DPPA   C3B 1097  -0.507   2.999  24.795  0.3987 -0.0203 -0.0314
   93DPPA   C4B 1098  -0.929   2.913  24.503 -0.3127  0.0283 -0.0206
   94DPPA   PO4 1099  20.977   1.795  27.020 -0.1352 -0.0151  0.1408
   94DPPA   GL1 1100  20.665   1.687  26.835 -0.1874 -0.0508  0.2755
   94DPPA   GL2 1101  20.450   1.896  26.961  0.0318 -0.2797 -0.3093
   94DPPA   C1A 1102  20.612   1.615  26.505  0.0846  0.1746  0.0802
   94DPPA   C2A 1103  20.481   1.554  26.152 -0.2129  0.2513 -0.2735
   94DPPA   C3A 1104  20.136   1.464  25.764  0.3231  0.0601  0.2310
   94DPPA   C4A 1105  19.821   1.380  25.352  0.0425 -0.0021  0.1374
   94DPPA   C1B 1106  20.090   1.853  26.827 -0.0655  0.0454 -0.0530
   94DPPA   C2B 1107  19.745   1.697  26.583 -0.0242  0.1432  0.0582
   94DPPA   C3B 1108  19.448   1.764  26.228  0.0245 -0.2515  0.0462
   94DPPA   C4B 1109  19.161   1.637  25.881  0.0099 -0.0637  0.1966
   95DPPA   PO4 1110   2.733   1.011  23.595 -0.1033  0.2200  0.1639
   95DPPA   GL1 1111   2.629   1.218  23.233  0.4048  0.6041  0.1700
   95DPPA   GL2 1112   2.810   1.399  23.177 -0.1574 -0.1655 -0.0089
   95DPPA   C1A 1113   2.364   1.214  23.021 -0.2316  0.1031  0.2673
   95DPPA   C2A 1114   1.949   1.189  22.851  0.1171 -0.1407 -0.0741
   95DPPA   C3A 1115   1.622   1.282  22.472  0.1232 -0.0546  0.3065
   95DPPA   C4A 1116   1.261   1.266  22.105  0.1819 -0.0124 -0.1132
   95DPPA   C1B 1117   2.628   1.582  22.887  0.2372 -0.2037 -0.0838
   95DPPA   C2B 1118   2.252   1.609  22.787  0.2416 -0.4901 -0.1537
   95DPPA   C3B 1119   1.866   1.703  22.427  0.0743 -0.1968  0.0663
   95DPPA   C4B 1120   1.454   1.791  22.148  0.0388 -0.3769 -0.1835
   96DPPA   PO4 1121   2.149   3.844  24.168  0.5917  0.1202  0.1459
   96DPPA   GL1 1122   1.815   3.794  23.870 -0.1738 -0.0086  0.0545
   96DPPA   GL2 1123   1.966   3.809  23.618 -0.2643  0.0292  0.0103
   96DPPA   C1A 1124   1.469   3.801  23.755 -0.2640 -0.1197  0.0021
   96DPPA   C2A 1125   1.169   3.793  23.517 -0.0287  0.0813 -0.2605
   96DPPA   C3A 1126   0.801   3.765  23.204 -0.3412 -0.1064  0.1499
   96DPPA   C4A 1127   0.445   3.845  22.832 -0.0902 -0.0997  0.2731
   96DPPA   C1B 1128   1.842   3.867  23.306 -0.2271  0.0718  0.3669
   96DPPA   C2B 1129   1.483   3.872  23.087 -0.0746  0.3660 -0.0995
   96DPPA   C3B 1130   1.185   3.870  22.743  0.0928 -0.1558  0.1212
   96DPPA   C4B 1131   0.800   3.906  22.406 -0.2074  0.1385 -0.0431
   97DPPA   PO4 1132   0.356   2.234  26.302  0.4628 -0.0812 -0.0634
   97DPPA   GL1 1133   0.167   2.283  25.967  0.4373 -0.3253 -0.2056
   97DPPA   GL2 1134  -0.105   2.379  26.010  0.4066 -0.0742 -0.0426
   97DPPA   C1A 1135   0.180   2.185  25.574  0.3495 -0.2819 -0.0006
   97DPPA   C2A 1136  -0.001   2.067  25.216  0.1845 -0.1895 -0.1412
   97DPPA   C3A 1137  -0.257   2.070  24.848 -0.0354 -0.0383 -0.0416
   97DPPA   C4A 1138  -0.634   2.074  24.550  0.0365 -0.1107  0.1951
   97DPPA   C1B 1139  -0.443   2.345  25.952  0.1815 -0.1528 -0.3459
   97DPPA   C2B 1140  -0.685   2.424  25.649  0.2982 -0.2767  0.3287
   97DPPA   C3B 1141  -1.006   2.376  25.270 -0.1580 -0.1559  0.2274
   97DPPA   C4B 1142  -1.370   2.313  24.927 -0.0041  0.0184 -0.1228
   98DPPA   PO4 1143   1.665   4.713  24.520  0.0183 -0.1003 -0.1466
   98DPPA   GL1 1144   1.367   4.864  24.383 -0.1024 -0.2874  0.2231
   98DPPA   GL2 1145   1.192   5.005  24.426  0.1016 -0.0345  0.0447
   98DPPA   C1A 1146   1.242   4.800  24.011 -0.1516 -0.2355 -0.3733
   98DPPA   C2A 1147   1.078   4.677  23.642  0.2020  0.0915 -0.0208
   98DPPA   C3A 1148   0.658   4.595  23.272 -0.0489  0.0038 -0.1392
   98DPPA   C4A 1149   0.394   4.589  22.882  0.4749  0.4238 -0.1285
   98DPPA   C1B 1150   1.102   5.215  24.154  0.1078  0.2589  0.1154
   98DPPA   C2B 1151   0.810   5.053  23.857  0.3352  0.0329  0.1595
   98DPPA   C3B 1152   0.520   5.030  23.503 -0.0549 -0.1724 -0.0305
   98DPPA   C4B 1153   0.173   4.943  23.149  0.4580  0.1803  0.0381
   99DPPA   PO4 1154   1.790   5.721  24.484  0.1498  0.1451  0.2597
   99DPPA   GL1 1155   1.360   5.759  24.487 -0.3099 -0.2027  0.0577
   99DPPA   GL2 1156   1.296   5.699  24.777 -0.1657  0.0314  0.6149
   99DPPA   C1A 1157   1.202   5.596  24.157  0.1311 -0.2188  0.0298
   99DPPA   C2A 1158   0.988   5.512  23.785 -0.0953  0.1958 -0.0879
   99DPPA   C3A 1159   0.650   5.518  23.420  0.0986  0.0215 -0.1805
   99DPPA   C4A 1160   0.351   5.454  23.013  0.2140 -0.3361 -0.0847
   99DPPA   C1B 1161   0.986   5.549  24.573 -0.0400  0.0418  0.2896
   99DPPA   C2B 1162   0.753   5.476  24.261  0.2751 -0.0179  0.1792
   99DPPA   C3B 1163   0.432   5.413  23.871 -0.0429 -0.2940  0.0439
   99DPPA   C4B 1164   0.137   5.405  23.498 -0.0997 -0.0378  0.1175
  100DPPA   PO4 1165  19.765   0.674  20.942  0.2061  0.1083 -0.0476
  100DPPA   GL1 1166  20.126   0.904  21.041 -0.1303  0.2506  0.3011
  100DPPA   GL2 1167  20.215   0.661  21.086 -0.2277  0.2544  0.2032
  100DPPA   C1A 1168  20.380   1.107  21.274 -0.2412  0.1194  0.2389
  100DPPA   C2A 1169  20.663   1.145  21.538 -0.1339  0.0365 -0.2225
  100DPPA   C3A 1170  20.900   1.068  21.929  0.1410 -0.0260 -0.2410
  100DPPA   C4A 1171  21.283   1.034  22.213  0.1086  0.1648 -0.0800
  100DPPA   C1B 1172  20.445   0.683  21.388 -0.2778 -0.1605 -0.0125
  100DPPA   C2B 1173  20.661   0.670  21.792  0.1133 -0.1255 -0.1659
  100DPPA   C3B 1174  20.917   0.617  22.205  0.3758  0.0803  0.0273
  100DPPA   C4B 1175  21.256   0.546  22.513 -0.1408  0.1944  0.0402
  101DPPC   NC3 1176  18.743   2.030  22.131 -0.2016  0.1915  0.0248
  101DPPC   PO4 1177  18.753   1.646  22.241  0.1501 -0.0467 -0.0324
  101DPPC   GL1 1178  19.115   1.447  22.284 -0.2028  0.1997  0.1204
  101DPPC   GL2 1179  19.149   1.558  22.029 -0.2723 -0.2534 -0.0157
  101DPPC   C1A 1180  19.340   1.513  22.543 -0.1635 -0.3388 -0.2548
  101DPPC   C2A 1181  19.564   1.685  22.842 -0.0810 -0.1711  0.0338
  101DPPC   C3A 1182  19.841   1.655  23.253  0.0671  0.0224 -0.2577
  101DPPC   C4A 1183  20.187   1.623  23.554 -0.2090  0.0998 -0.1096
  101DPPC   C1B 1184  19.540   1.511  21.997  0.5434 -0.3013  0.3515
  101DPPC   C2B 1185  19.901   1.312  22.027  0.0540 -0.1212 -0.1102
  101DPPC   C3B 1186  20.222   1.318  22.368  0.1720 -0.0906 -0.3108
  101DPPC   C4B 1187  20.563   1.314  22.696  0.1184  0.1289 -0.2405
  102DPPC   NC3 1188  17.717   3.524  23.436 -0.1531  0.0339  0.0747
  102DPPC   PO4 1189  17.856   3.185  23.460  0.0446  0.0664 -0.2551
  102DPPC   GL1 1190  18.299   2.988  23.581  0.0305 -0.0037  0.0074
  102DPPC   GL2 1191  18.120   3.049  23.747 -0.3739 -0.0505 -0.2502
  102DPPC   C1A 1192  18.552   2.809  23.722 -0.3294 -0.3393 -0.5480
  102DPPC   C2A 1193  18.708   2.811  24.104  0.0699 -0.0316 -0.0825
  102DPPC   C3A 1194  19.000   2.762  24.441  0.2073 -0.1690 -0.2186
  102DPPC   C4A 1195  19.261   2.648  24.854 -0.0703  0.0293  0.0084
  102DPPC   C1B 1196  18.324   3.046  24.039  0.2329  0.0238  0.1153
  102DPPC   C2B 1197  18.481   3.181  24.411 -0.0554 -0.0886 -0.3121
  102DPPC   C3B 1198  18.831   3.111  24.752 -0.0468  0.0495 -0.1954
  102DPPC   C4B 1199  19.168   3.070  25.118 -0.1097  0.0822  0.0628
  103DPPC   NC3 1200  21.019   1.056  19.425 -0.3155  0.1463  0.0640
  103DPPC   PO4 1201  21.154   1.426  19.259 -0.0838  0.0729 -0.1480
  103DPPC   GL1 1202  21.488   1.311  19.501 -0.3171  0.1622  0.1998
  103DPPC   GL2 1203  21.602   1.305  19.324 -0.5667 -0.3731  0.2640
  103DPPC   C1A 1204  21.731   1.359  19.791 -0.1330  0.0020  0.3383
  103DPPC   C2A 1205  21.983   1.476  20.094  0.1288 -0.2201  0.3132
  103DPPC   C3A 1206  22.232   1.495  20.486  0.1770  0.0429 -0.1258
  103DPPC   C4A 1207  22.571   1.545  20.841 -0.2419 -0.0290  0.1120
  103DPPC   C1B 1208  21.936   1.450  19.439 -0.1298 -0.0571 -0.0029
  103DPPC   C2B 1209  22.266   1.489  19.667  0.0475 -0.1264  0.0555
  103DPPC   C3B 1210  22.581   1.527  20.000  0.0617 -0.2890  0.0018
  103DPPC   C4B 1211  22.870   1.558  20.380  0.1037 -0.0449  0.0139
  104DPPC   NC3 1212  18.961   1.560  22.703 -0.1095  0.0138 -0.0614
  104DPPC   PO4 1213  18.775   1.909  22.646  0.2262 -0.2552  0.2337
  104DPPC   GL1 1214  18.951   2.055  23.029 -0.2135  0.1663  0.1689
  104DPPC   GL2 1215  18.801   2.345  23.016  0.0114  0.3743  0.2088
  104DPPC   C1A 1216  19.301   2.045  23.129 -0.3788 -0.5460  0.3891
  104DPPC   C2A 1217  19.639   2.059  23.395  0.1502 -0.0774 -0.2285
  104DPPC   C3A 1218  19.952   2.021  23.755 -0.1456 -0.2283  0.0255
  104DPPC   C4A 1219  20.237   2.108  24.106 -0.1305 -0.0806  0.1510
  104DPPC   C1B 1220  18.814   2.406  23.386  0.1020 -0.3515  0.1341
  104DPPC   C2B 1221  18.890   2.422  23.736  0.2563 -0.0735 -0.0338
  104DPPC   C3B 1222  19.209   2.368  24.131 -0.1297 -0.2023 -0.0825
  104DPPC   C4B 1223  19.477   2.301  24.523  0.0109  0.0522  0.1677
  105DPPC   NC3 1224  16.676   0.046  25.297  0.0423  0.2301 -0.1712
  105DPPC   PO4 1225  16.899   0.001  25.019 -0.2760  0.2724 -0.1779
  105DPPC   GL1 1226  17.243  -0.005  25.167  0.1356 -0.1080  0.1725
  105DPPC   GL2 1227  17.319  -0.301  25.176 -0.1940  0.4244  0.3659
  105DPPC   C1A 1228  17.535   0.136  25.369 -0.2025 -0.1075  0.3860
  105DPPC   C2A 1229  17.739   0.307  25.669  0.1540 -0.3231 -0.0021
  105DPPC   C3A 1230  18.053   0.261  26.062  0.1313 -0.1101 -0.1157
  105DPPC   C4A 1231  18.318   0.325  26.460  0.0182 -0.2885  0.0964
  105DPPC   C1B 1232  17.578  -0.319  25.396  0.4145 -0.0723  0.0273
  105DPPC   C2B 1233  17.970  -0.225  25.516  0.0625  0.0612 -0.2179
  105DPPC   C3B 1234  18.278  -0.146  25.884  0.0625  0.0847  0.0367
  105DPPC   C4B 1235  18.580  -0.120  26.341 -0.0390  0.0565  0.1838
  106DPPC   NC3 1236  17.303   0.117  24.014 -0.0250  0.0114  0.0418
  106DPPC   PO4 1237  17.578  -0.109  23.855 -0.1708 -0.1877  0.2311
  106DPPC   GL1 1238  17.724  -0.324  24.302 -0.2351  0.2318  0.3037
  106DPPC   GL2 1239  17.949  -0.119  24.131 -0.0499 -0.3203 -0.0957
  106DPPC   C1A 1240  18.038  -0.417  24.523  0.1010 -0.0445  0.2424
  106DPPC   C2A 1241  18.366  -0.489  24.688  0.1193  0.1031 -0.3624
  106DPPC   C3A 1242  18.724  -0.470  24.964  0.2418  0.1058 -0.2191
  106DPPC   C4A 1243  18.951  -0.503  25.369  0.3790 -0.1030 -0.2718
  106DPPC   C1B 1244  18.242  -0.032  24.402  0.4029  0.0964 -0.0560
  106DPPC   C2B 1245  18.518  -0.032  24.697  0.0194 -0.1961 -0.3804
  106DPPC   C3B 1246  18.857   0.018  25.087  0.1003 -0.0621 -0.2565
  106DPPC   C4B 1247  19.161  -0.037  25.443 -0.3206 -0.3773  0.0884
  107DPPC   NC3 1248  21.111   3.929  19.376 -0.1150 -0.1772 -0.0660
  107DPPC   PO4 1249  21.164   4.356  19.345 -0.0482  0.0753 -0.1869
  107DPPC   GL1 1250  21.397   4.650  19.614  0.1158  0.3175  0.0207
  107DPPC   GL2 1251  21.169   4.637  19.798  0.1541  0.3176 -0.3053
  107DPPC   C1A 1252  21.709   4.548  19.725 -0.0718  0.1379 -0.0813
  107DPPC   C2A 1253  22.071   4.510  19.878  0.0109 -0.0277  0.3842
  107DPPC   C3A 1254  22.331   4.490  20.240 -0.0631  0.0804 -0.1706
  107DPPC   C4A 1255  22.678   4.531  20.584  0.2800 -0.2443  0.1218
  107DPPC   C1B 1256  21.245   4.684  20.167 -0.2200  0.1080  0.0761
  107DPPC   C2B 1257  21.393   4.875  20.458 -0.1504 -0.1350 -0.1228
  107DPPC   C3B 1258  21.706   4.905  20.794 -0.1068 -0.0278  0.0355
  107DPPC   C4B 1259  22.057   4.876  21.148 -0.0120 -0.2690 -0.1601
  108DPPC   NC3 1260  17.755   1.806  23.126 -0.0243  0.2082 -0.5126
  108DPPC   PO4 1261  18.146   1.922  23.131 -0.0055 -0.0583  0.2024
  108DPPC   GL1 1262  18.434   1.958  23.416  0.2756  0.0270 -0.3922
  108DPPC   GL2 1263  18.682   1.959  23.335 -0.0313 -0.0293 -0.1545
  108DPPC   C1A 1264  18.597   2.054  23.740  0.0315 -0.2681 -0.2191
  108DPPC   C2A 1265  18.902   1.993  23.978  0.2484 -0.0092 -0.1838
  108DPPC   C3A 1266  19.135   1.938  24.401  0.0740 -0.2307 -0.1423
  108DPPC   C4A 1267  19.461   1.807  24.646 -0.2285 -0.1531  0.1288
  108DPPC   C1B 1268  18.992   2.017  23.509 -0.0287 -0.2428 -0.0458
  108DPPC   C2B 1269  19.320   2.039  23.750 -0.1372 -0.0540  0.0959
  108DPPC   C3B 1270  19.602   1.933  24.121 -0.0128  0.1346 -0.0009
  108DPPC   C4B 1271  19.915   1.999  24.453  0.0628  0.3545  0.3471
  109DPPC   NC3 1272  20.404   3.843  19.824  0.2451  0.0734 -0.1423
  109DPPC   PO4 1273  20.445   3.451  19.848 -0.1237  0.1940 -0.1444
  109DPPC   GL1 1274  20.667   3.294  20.181  0.2807  0.2867  0.1137
  109DPPC   GL2 1275  20.859   3.232  19.988 -0.2986 -0.1106 -0.2417
  109DPPC   C1A 1276  20.825   3.372  20.453  0.3233  0.0323 -0.5493
  109DPPC   C2A 1277  21.019   3.514  20.829 -0.2195 -0.0163 -0.2192
  109DPPC   C3A 1278  21.343   3.498  21.223  0.1353  0.0701  0.2233
  109DPPC   C4A 1279  21.668   3.509  21.536  0.1094  0.0269 -0.0169
  109DPPC   C1B 1280  21.166   3.266  20.131 -0.0373 -0.2777 -0.2059
  109DPPC   C2B 1281  21.327   3.509  20.436 -0.0456  0.1798 -0.2101
  109DPPC   C3B 1282  21.637   3.568  20.764 -0.3655  0.0276 -0.1107
  109DPPC   C4B 1283  21.962   3.650  21.116  0.0824 -0.0125 -0.2673
  110DPPC   NC3 1284  20.327   2.065  20.044  0.0895  0.2017 -0.1537
  110DPPC   PO4 1285  20.342   2.436  20.055 -0.1441 -0.1681  0.0541
  110DPPC   GL1 1286  20.677   2.514  20.116  0.0992  0.2024  0.2389
  110DPPC   GL2 1287  20.756   2.205  20.155 -0.1867  0.1558  0.4152
  110DPPC   C1A 1288  20.882   2.544  20.407 -0.2837 -0.2417  0.0308
  110DPPC   C2A 1289  21.201   2.593  20.657  0.2775  0.1396 -0.0494
  110DPPC   C3A 1290  21.401   2.716  21.075 -0.0630  0.1721 -0.1324
  110DPPC   C4A 1291  21.750   2.689  21.420 -0.0465 -0.0059 -0.0157
  110DPPC   C1B 1292  20.972   2.079  20.421 -0.0145  0.0122 -0.0384
  110DPPC   C2B 1293  21.124   2.093  20.834 -0.2353  0.2139  0.0159
  110DPPC   C3B 1294  21.461   2.164  21.224  0.1281 -0.0058 -0.0328
  110DPPC   C4B 1295  21.792   2.145  21.583 -0.2428 -0.0860  0.0081
  111DPPC   NC3 1296  20.140   6.480  20.998 -0.0402 -0.0588  0.1081
  111DPPC   PO4 1297  19.859   6.331  21.261  0.1229  0.1143  0.0290
  111DPPC   GL1 1298  20.001   6.529  21.613 -0.1173  0.0524 -0.1171
  111DPPC   GL2 1299  20.100   6.785  21.628  0.2460 -0.1046  0.0586
  111DPPC   C1A 1300  20.272   6.385  21.856 -0.0519 -0.3895 -0.2561
  111DPPC   C2A 1301  20.455   6.263  22.142  0.1395  0.1880 -0.2667
  111DPPC   C3A 1302  20.679   6.287  22.541  0.0539 -0.2410  0.0734
  111DPPC   C4A 1303  21.070   6.277  22.914  0.0249 -0.0125 -0.1272
  111DPPC   C1B 1304  20.466   6.772  21.820 -0.0494 -0.3049 -0.2253
  111DPPC   C2B 1305  20.711   6.720  22.158  0.0040 -0.2438 -0.0401
  111DPPC   C3B 1306  21.001   6.635  22.546  0.0406 -0.1081 -0.1455
  111DPPC   C4B 1307  21.329   6.744  22.938  0.0581  0.1509 -0.0334
  112DPPC   NC3 1308  18.920   1.155  21.948 -0.2402 -0.2948 -0.1258
  112DPPC   PO4 1309  18.916   0.760  22.067 -0.1253  0.0310 -0.0015
  112DPPC   GL1 1310  19.284   0.709  22.079  0.0605 -0.1727  0.4463
  112DPPC   GL2 1311  19.414   0.756  21.895  0.0210  0.1598 -0.3795
  112DPPC   C1A 1312  19.506   0.744  22.424  0.2103 -0.0548 -0.1000
  112DPPC   C2A 1313  19.626   0.849  22.787  0.0458 -0.0942 -0.2728
  112DPPC   C3A 1314  20.003   0.836  23.132 -0.1686 -0.1099 -0.0164
  112DPPC   C4A 1315  20.355   0.827  23.410 -0.1219 -0.1602  0.2775
  112DPPC   C1B 1316  19.777   0.763  22.012 -0.0882  0.1694  0.1089
  112DPPC   C2B 1317  19.994   0.841  22.322 -0.3785  0.2667 -0.2509
  112DPPC   C3B 1318  20.303   0.903  22.698 -0.1153  0.0226 -0.1361
  112DPPC   C4B 1319  20.669   0.937  23.041 -0.1187 -0.0795 -0.1834
  113DPPC   NC3 1320  18.725   5.201  22.985  0.1971 -0.1732 -0.1792
  113DPPC   PO4 1321  18.857   5.503  22.803 -0.1940  0.3664 -0.1767
  113DPPC   GL1 1322  19.184   5.338  23.024 -0.2084  0.0899  0.1468
  113DPPC   GL2 1323  19.153   5.534  23.236 -0.0106 -0.3863  0.1071
  113DPPC   C1A 1324  19.481   5.188  23.082 -0.3373 -0.1555 -0.1854
  113DPPC   C2A 1325  19.772   5.159  23.367 -0.0682 -0.4110  0.0754
  113DPPC   C3A 1326  20.081   5.243  23.661  0.0758  0.0775  0.0591
  113DPPC   C4A 1327  20.466   5.234  23.980  0.3966 -0.0330 -0.0987
  113DPPC   C1B 1328  19.269   5.608  23.586  0.0231 -0.3410  0.2393
  113DPPC   C2B 1329  19.615   5.499  23.721 -0.1734 -0.0084 -0.1978
  113DPPC   C3B 1330  19.949   5.499  24.050 -0.3533 -0.0030  0.1141
  113DPPC   C4B 1331  20.302   5.521  24.445  0.4382 -0.1065  0.1610
  114DPPC   NC3 1332  18.785   3.690  21.956 -0.2970 -0.2315 -0.1566
  114DPPC   PO4 1333  18.944   3.699  22.329  0.0331 -0.2004 -0.0359
  114DPPC   GL1 1334  19.193   3.820  22.523 -0.1080  0.0995  0.0700
  114DPPC   GL2 1335  19.110   4.145  22.515 -0.2286 -0.4469 -0.1980
  114DPPC   C1A 1336  19.552   3.844  22.576 -0.3078  0.0260  0.0342
  114DPPC   C2A 1337  19.916   3.950  22.804 -0.0187 -0.3480  0.1257
  114DPPC   C3A 1338  20.303   4.004  23.169  0.1474  0.2167  0.2726
  114DPPC   C4A 1339  20.631   3.942  23.594 -0.0644 -0.0020  0.0442
  114DPPC   C1B 1340  19.380   4.276  22.723 -0.0969 -0.1029  0.0065
  114DPPC   C2B 1341  19.613   4.362  23.070  0.0883  0.1548 -0.1654
  114DPPC   C3B 1342  19.988   4.308  23.369 -0.1135 -0.1019 -0.0549
  114DPPC   C4B 1343  20.308   4.293  23.810 -0.0963  0.0035 -0.0458
  115DPPC   NC3 1344  18.270   6.182  22.519 -0.1637 -0.1633 -0.1926
  115DPPC   PO4 1345  18.660   6.170  22.455  0.2435  0.2338 -0.0336
  115DPPC   GL1 1346  18.954   6.172  22.740  0.3205  0.2645 -0.1217
  115DPPC   GL2 1347  19.039   5.931  22.826  0.1265 -0.1131 -0.2487
  115DPPC   C1A 1348  19.229   6.362  22.933  0.2806  0.2115 -0.0831
  115DPPC   C2A 1349  19.549   6.481  23.161 -0.2382 -0.0774 -0.0376
  115DPPC   C3A 1350  19.869   6.446  23.560 -0.2411  0.3463  0.0740
  115DPPC   C4A 1351  20.207   6.426  23.942 -0.1223  0.0521  0.1134
  115DPPC   C1B 1352  19.241   5.961  23.123  0.2498  0.1765  0.1991
  115DPPC   C2B 1353  19.517   5.985  23.417  0.1857 -0.2085 -0.1570
  115DPPC   C3B 1354  19.836   5.980  23.798 -0.1780 -0.0449  0.0550
  115DPPC   C4B 1355  20.191   5.953  24.161 -0.1028  0.0278  0.3618
  116DPPC   NC3 1356  20.236   5.399  19.872  0.0148  0.0139 -0.0430
  116DPPC   PO4 1357  20.404   5.618  20.133  0.3433 -0.0221 -0.0330
  116DPPC   GL1 1358  20.803   5.789  20.287 -0.0181  0.0744 -0.0319
  116DPPC   GL2 1359  20.701   5.730  20.493 -0.2821 -0.2208 -0.0887
  116DPPC   C1A 1360  21.113   5.697  20.272  0.3064 -0.0385  0.0425
  116DPPC   C2A 1361  21.358   5.704  20.566 -0.0359 -0.2861  0.0477
  116DPPC   C3A 1362  21.673   5.797  20.928 -0.1829 -0.0360  0.1271
  116DPPC   C4A 1363  21.950   5.750  21.304  0.2376  0.2380 -0.1145
  116DPPC   C1B 1364  20.895   5.686  20.812 -0.1516 -0.1176 -0.2229
  116DPPC   C2B 1365  21.104   5.675  21.172  0.0152  0.2703 -0.0378
  116DPPC   C3B 1366  21.456   5.674  21.433 -0.1381 -0.0915 -0.2037
  116DPPC   C4B 1367  21.736   5.692  21.889  0.2691  0.0058  0.0675
  117DPPC   NC3 1368  17.296   4.248  24.364  0.0021 -0.0856 -0.0398
  117DPPC   PO4 1369  17.625   4.039  24.229  0.1796 -0.2470 -0.2640
  117DPPC   GL1 1370  18.088   3.994  24.256  0.5544 -0.1595  0.0918
  117DPPC   GL2 1371  18.155   4.138  24.021  0.1190 -0.2063  0.2253
  117DPPC   C1A 1372  18.359   4.044  24.539 -0.1192  0.1266 -0.1905
  117DPPC   C2A 1373  18.654   4.013  24.810 -0.2780 -0.0326 -0.1378
  117DPPC   C3A 1374  18.960   4.004  25.162 -0.2044 -0.0107 -0.0848
  117DPPC   C4A 1375  19.299   4.056  25.555  0.0297  0.1131 -0.2905
  117DPPC   C1B 1376  18.458   4.370  23.970 -0.4464 -0.0438  0.0508
  117DPPC   C2B 1377  18.881   4.477  24.085  0.0671 -0.0296  0.1317
  117DPPC   C3B 1378  19.229   4.532  24.442 -0.1030  0.0116  0.4108
  117DPPC   C4B 1379  19.555   4.573  24.821 -0.0992 -0.1215  0.1579
  118DPPC   NC3 1380  18.029   1.376  23.167  0.0433  0.0478 -0.0431
  118DPPC   PO4 1381  17.877   1.255  23.496 -0.1668  0.1180  0.0087
  118DPPC   GL1 1382  18.179   1.238  23.889 -0.0550 -0.0172  0.2935
  118DPPC   GL2 1383  18.013   1.006  24.014  0.0858 -0.0082  0.2233
  118DPPC   C1A 1384  18.453   1.182  24.101 -0.1127  0.3392 -0.2778
  118DPPC   C2A 1385  18.678   0.959  24.347 -0.1067 -0.2156 -0.2681
  118DPPC   C3A 1386  19.040   0.898  24.685  0.2001  0.0114 -0.0041
  118DPPC   C4A 1387  19.344   0.865  25.074 -0.4324 -0.0622 -0.0640
  118DPPC   C1B 1388  18.149   0.958  24.311 -0.2756 -0.0331 -0.1578
  118DPPC   C2B 1389  18.303   0.819  24.667  0.2074  0.0061 -0.1492
  118DPPC   C3B 1390  18.645   0.904  24.986  0.2274  0.1313  0.0159
  118DPPC   C4B 1391  18.949   0.874  25.410  0.1568  0.0017  0.0817
  119DPPC   NC3 1392  18.898   5.565  21.955 -0.1852 -0.0326 -0.0343
  119DPPC   PO4 1393  19.092   5.340  22.198 -0.0166  0.0626  0.2073
  119DPPC   GL1 1394  19.293   5.445  22.525 -0.0358  0.2842 -0.3878
  119DPPC   GL2 1395  19.454   5.154  22.556  0.3482  0.2024  0.4040
  119DPPC   C1A 1396  19.504   5.578  22.786  0.0154  0.0459  0.1563
  119DPPC   C2A 1397  19.699   5.640  23.092 -0.1319  0.0640 -0.4668
  119DPPC   C3A 1398  20.098   5.638  23.404 -0.0182  0.0267 -0.0295
  119DPPC   C4A 1399  20.357   5.623  23.750 -0.3323 -0.1483  0.3790
  119DPPC   C1B 1400  19.788   5.269  22.718 -0.0289  0.0501 -0.2949
  119DPPC   C2B 1401  20.083   5.330  22.987 -0.0806 -0.2912 -0.2658
  119DPPC   C3B 1402  20.439   5.276  23.296  0.0829 -0.0370  0.0777
  119DPPC   C4B 1403  20.783   5.402  23.581 -0.0396 -0.0008 -0.1333
  120DPPC   NC3 1404  20.828   1.337  20.126  0.1678  0.2427  0.1710
  120DPPC   PO4 1405  20.486   1.273  20.374 -0.2113 -0.0522  0.2073
  120DPPC   GL1 1406  20.689   1.224  20.774  0.1771 -0.0345 -0.1514
  120DPPC   GL2 1407  20.484   0.969  20.872 -0.3049 -0.2630 -0.0408
  120DPPC   C1A 1408  20.893   1.264  21.090 -0.1598  0.2609  0.1534
  120DPPC   C2A 1409  21.142   1.196  21.390  0.0522 -0.0984  0.1413
  120DPPC   C3A 1410  21.412   1.197  21.785 -0.0543  0.2638 -0.0111
  120DPPC   C4A 1411  21.786   1.175  22.107 -0.1614  0.1547  0.0248
  120DPPC   C1B 1412  20.703   0.826  21.122 -0.1228  0.1104 -0.1690
  120DPPC   C2B 1413  20.955   0.717  21.408  0.0336  0.0516 -0.1709
  120DPPC   C3B 1414  21.257   0.698  21.804 -0.1190 -0.1786  0.0190
  120DPPC   C4B 1415  21.595   0.672  22.145  0.0624 -0.0980 -0.1794
  121DPPC   NC3 1416  17.304   4.726  24.502  0.2408  0.1297 -0.2319
  121DPPC   PO4 1417  17.308   4.668  24.897 -0.0088  0.0913 -0.2074
  121DPPC   GL1 1418  17.604   4.767  25.161 -0.2578  0.1626 -0.1738
  121DPPC   GL2 1419  17.655   5.035  25.220  0.3033 -0.3824  0.0613
  121DPPC   C1A 1420  17.826   4.628  25.383  0.1135 -0.0365 -0.2791
  121DPPC   C2A 1421  17.996   4.593  25.759 -0.2019  0.0755 -0.1272
  121DPPC   C3A 1422  18.288   4.603  26.112  0.2034  0.0349  0.0047
  121DPPC   C4A 1423  18.559   4.581  26.485  0.3242 -0.0821 -0.1280
  121DPPC   C1B 1424  17.965   5.025  25.396  0.4589 -0.1776  0.1512
  121DPPC   C2B 1425  18.168   5.086  25.759 -0.2547 -0.1582  0.0599
  121DPPC   C3B 1426  18.493   5.141  26.144  0.0886  0.1432  0.1958
  121DPPC   C4B 1427  18.760   5.028  26.522 -0.2360 -0.0355 -0.0270
  122DPPC   NC3 1428  17.998   0.210  23.852 -0.0329 -0.2487  0.1343
  122DPPC   PO4 1429  18.185  -0.123  23.669  0.0195 -0.1181  0.1465
  122DPPC   GL1 1430  18.502  -0.205  23.903  0.1825 -0.1183 -0.0553
  122DPPC   GL2 1431  18.308  -0.358  24.152  0.2419  0.0908 -0.4495
  122DPPC   C1A 1432  18.820  -0.298  24.011 -0.4030 -0.1506 -0.2385
  122DPPC   C2A 1433  19.233  -0.285  24.206  0.1103  0.1940  0.3269
  122DPPC   C3A 1434  19.518  -0.294  24.537 -0.0493 -0.1638 -0.1220
  122DPPC   C4A 1435  19.840  -0.294  24.961  0.2334 -0.0955  0.0168
  122DPPC   C1B 1436  18.568  -0.381  24.331 -0.3400 -0.1950 -0.2756
  122DPPC   C2B 1437  18.916  -0.336  24.541  0.0683  0.0571 -0.1985
  122DPPC   C3B 1438  19.201  -0.387  24.924  0.2587 -0.0300 -0.1307
  122DPPC   C4B 1439  19.472  -0.400  25.282 -0.1436  0.3583  0.1785
  123DPPC   NC3 1440  19.311   6.122  21.540 -0.2167  0.1268 -0.0852
  123DPPC   PO4 1441  19.011   6.007  21.767 -0.4948 -0.0451 -0.1884
  123DPPC   GL1 1442  19.348   6.008  21.997 -0.1321 -0.1070  0.1162
  123DPPC   GL2 1443  19.334   5.725  22.078 -0.1285  0.0237 -0.0249
  123DPPC   C1A 1444  19.422   6.112  22.345 -0.3134  0.2195 -0.0786
  123DPPC   C2A 1445  19.547   6.038  22.755  0.1424  0.0384 -0.2892
  123DPPC   C3A 1446  19.882   6.143  23.075 -0.1596 -0.0612 -0.2537
  123DPPC   C4A 1447  20.230   6.123  23.441 -0.0864  0.0115 -0.1394
  123DPPC   C1B 1448  19.566   5.669  22.337  0.0106  0.0728  0.2196
  123DPPC   C2B 1449  19.889   5.717  22.627  0.0271  0.3008  0.1110
  123DPPC   C3B 1450  20.268   5.808  22.925 -0.0205  0.0521  0.0977
  123DPPC   C4B 1451  20.643   5.818  23.238  0.2318 -0.2185  0.0627
  124DPPC   NC3 1452  18.114   5.649  23.277 -0.0070  0.0562  0.1305
  124DPPC   PO4 1453  18.332   5.304  23.237  0.0087  0.2077  0.0478
  124DPPC   GL1 1454  18.638   5.102  23.406 -0.0360  0.1537 -0.0267
  124DPPC   GL2 1455  18.503   5.069  23.681 -0.5119 -0.1339 -0.1162
  124DPPC   C1A 1456  18.983   4.988  23.402  0.0350  0.0153 -0.0929
  124DPPC   C2A 1457  19.326   5.117  23.610  0.2132  0.2065  0.0053
  124DPPC   C3A 1458  19.632   5.079  23.981  0.0248  0.2783 -0.0150
  124DPPC   C4A 1459  20.030   5.065  24.280 -0.1966 -0.0190  0.2004
  124DPPC   C1B 1460  18.820   5.025  23.804 -0.4940 -0.1215  0.1990
  124DPPC   C2B 1461  19.134   5.002  24.091  0.0050 -0.0360 -0.1878
  124DPPC   C3B 1462  19.407   4.958  24.457 -0.0178  0.2943 -0.0027
  124DPPC   C4B 1463  19.764   5.071  24.757 -0.1893 -0.0987  0.1049
  125DPPC   NC3 1464  17.570   4.260  23.774  0.1782 -0.2470 -0.0598
  125DPPC   PO4 1465  17.458   4.539  24.046 -0.3294 -0.1385 -0.0581
  125DPPC   GL1 1466  17.857   4.555  24.252  0.1596 -0.2685 -0.1380
  125DPPC   GL2 1467  17.741   4.432  24.456  0.3375 -0.2089 -0.0780
  125DPPC   C1A 1468  18.248   4.488  24.286 -0.1901 -0.2151 -0.1919
  125DPPC   C2A 1469  18.558   4.453  24.564 -0.2547 -0.2964 -0.2703
  125DPPC   C3A 1470  18.940   4.477  24.854 -0.1624 -0.1245  0.1501
  125DPPC   C4A 1471  19.283   4.507  25.261  0.1144 -0.0137 -0.0585
  125DPPC   C1B 1472  17.987   4.408  24.710 -0.2278  0.2298  0.0457
  125DPPC   C2B 1473  18.318   4.338  24.987 -0.4047  0.0693  0.0749
  125DPPC   C3B 1474  18.676   4.357  25.267 -0.0427  0.0083  0.1795
  125DPPC   C4B 1475  18.940   4.399  25.650 -0.2647  0.0882 -0.3200
  126DPPC   NC3 1476  17.617   2.382  24.512  0.0251  0.1378  0.0037
  126DPPC   PO4 1477  17.715   2.747  24.345  0.0625 -0.0230  0.2891
  126DPPC   GL1 1478  17.982   2.973  24.536 -0.1396 -0.2548  0.2535
  126DPPC   GL2 1479  18.005   3.188  24.302 -0.1217  0.0884  0.1183
  126DPPC   C1A 1480  18.287   2.965  24.812  0.3721 -0.0557 -0.0886
  126DPPC   C2A 1481  18.538   3.000  25.179 -0.0497 -0.2443 -0.1020
  126DPPC   C3A 1482  18.854   2.964  25.533 -0.2470 -0.2079 -0.1038
  126DPPC   C4A 1483  19.200   3.112  25.884  0.0484 -0.0036 -0.0607
  126DPPC   C1B 1484  18.171   3.472  24.557  0.1035 -0.1007  0.0574
  126DPPC   C2B 1485  18.445   3.501  24.903  0.0493  0.0431  0.0138
  126DPPC   C3B 1486  18.808   3.492  25.227  0.0700 -0.1075 -0.1054
  126DPPC   C4B 1487  19.080   3.492  25.632  0.1476  0.1422  0.1974
  127DPPC   NC3 1488  18.354   3.143  23.162 -0.0943 -0.2444 -0.1486
  127DPPC   PO4 1489  18.447   3.502  23.028  0.2839  0.0233  0.2765
  127DPPC   GL1 1490  18.840   3.492  23.231  0.0944  0.0199  0.1082
  127DPPC   GL2 1491  18.647   3.672  23.359 -0.0515  0.2046  0.1825
  127DPPC   C1A 1492  19.269   3.505  23.206 -0.1903 -0.0794 -0.0101
  127DPPC   C2A 1493  19.620   3.387  23.428  0.0574 -0.0717 -0.3342
  127DPPC   C3A 1494  19.951   3.379  23.773 -0.0652  0.0295  0.2167
  127DPPC   C4A 1495  20.177   3.336  24.173 -0.0396  0.2168 -0.0305
  127DPPC   C1B 1496  18.766   3.705  23.687  0.0286  0.0217  0.0057
  127DPPC   C2B 1497  18.970   3.644  24.028 -0.3887  0.2242  0.2823
  127DPPC   C3B 1498  19.319   3.691  24.394  0.2642  0.1427  0.0427
  127DPPC   C4B 1499  19.574   3.669  24.772 -0.2393 -0.0107  0.0934
  128DPPC   NC3 1500  17.087   4.607  25.339  0.4848 -0.3509 -0.0485
  128DPPC   PO4 1501  17.127   4.992  25.285 -0.1013  0.0157  0.1389
  128DPPC   GL1 1502  17.362   5.103  25.632 -0.7598  0.1614  0.1106
  128DPPC   GL2 1503  17.419   4.781  25.617 -0.0660  0.1552 -0.0115
  128DPPC   C1A 1504  17.658   5.278  25.674  0.0874  0.0649 -0.1570
  128DPPC   C2A 1505  17.959   5.490  25.988  0.2353  0.2291 -0.0661
  128DPPC   C3A 1506  18.257   5.552  26.370 -0.1737 -0.0404 -0.0805
  128DPPC   C4A 1507  18.606   5.524  26.722  0.2242 -0.1946 -0.2117
  128DPPC   C1B 1508  17.652   4.866  25.880 -0.2766  0.1703 -0.0121
  128DPPC   C2B 1509  17.900   5.023  26.186 -0.0604 -0.1804 -0.2631
  128DPPC   C3B 1510  18.176   5.042  26.573  0.0625  0.2185 -0.4434
  128DPPC   C4B 1511  18.500   5.068  26.926 -0.0950 -0.1447 -0.0286
  129DPPC   NC3 1512  20.462   0.514  19.801  0.2397 -0.1378  0.1568
  129DPPC   PO4 1513  20.729   0.361  20.063  0.0984 -0.1088 -0.0125
  129DPPC   GL1 1514  20.705   0.047  20.298 -0.1953  0.1899  0.1749
  129DPPC   GL2 1515  20.929  -0.118  20.048  0.2877  0.2719  0.1525
  129DPPC   C1A 1516  20.847   0.107  20.663 -0.0120  0.0615 -0.1948
  129DPPC   C2A 1517  20.975   0.306  20.998  0.2024  0.0207  0.0444
  129DPPC   C3A 1518  21.333   0.307  21.330 -0.0250  0.1067 -0.2518
  129DPPC   C4A 1519  21.646   0.338  21.757  0.3272  0.3693  0.1259
  129DPPC   C1B 1520  21.275  -0.047  20.131 -0.0620 -0.4494 -0.2740
  129DPPC   C2B 1521  21.580   0.073  20.336  0.0733 -0.0391 -0.2346
  129DPPC   C3B 1522  21.894   0.089  20.702 -0.1631 -0.1865  0.2544
  129DPPC   C4B 1523  22.249   0.117  21.033 -0.1972 -0.1219  0.1793
  130DPPC   NC3 1524  19.133   2.863  22.274 -0.1002 -0.0844  0.0442
  130DPPC   PO4 1525  19.038   2.474  22.215 -0.0566 -0.0681  0.1936
  130DPPC   GL1 1526  19.141   2.159  22.469 -0.1766 -0.0217  0.2562
  130DPPC   GL2 1527  19.225   1.942  22.373  0.1885 -0.1748 -0.1831
  130DPPC   C1A 1528  19.264   2.343  22.753 -0.2108  0.3434 -0.2449
  130DPPC   C2A 1529  19.519   2.527  23.031 -0.0728  0.0842 -0.1218
  130DPPC   C3A 1530  19.879   2.561  23.405  0.0349 -0.3560  0.2618
  130DPPC   C4A 1531  20.238   2.562  23.767  0.2979  0.1377 -0.2831
  130DPPC   C1B 1532  19.545   1.896  22.404 -0.3185  0.2597  0.0016
  130DPPC   C2B 1533  19.936   1.775  22.489  0.1756  0.0597  0.1847
  130DPPC   C3B 1534  20.207   1.729  22.913  0.3064  0.0523  0.4020
  130DPPC   C4B 1535  20.601   1.802  23.156 -0.2878 -0.0814 -0.1698
  131DPPC   NC3 1536  18.402   1.331  22.421 -0.0895  0.1005 -0.2494
  131DPPC   PO4 1537  18.772   1.202  22.426  0.1147 -0.1784 -0.1631
  131DPPC   GL1 1538  18.986   0.924  22.610 -0.1657  0.0974  0.2506
  131DPPC   GL2 1539  19.214   1.086  22.549 -0.2844  0.1123  0.0259
  131DPPC   C1A 1540  19.158   0.887  22.971  0.2466 -0.2838 -0.0155
  131DPPC   C2A 1541  19.448   0.740  23.265  0.0430  0.0878  0.1508
  131DPPC   C3A 1542  19.757   0.772  23.578  0.0264  0.0037 -0.0249
  131DPPC   C4A 1543  20.102   0.715  23.907  0.0598 -0.0058 -0.1695
  131DPPC   C1B 1544  19.296   1.257  22.855  0.1255  0.0753  0.0307
  131DPPC   C2B 1545  19.531   1.242  23.199 -0.1970 -0.1127 -0.1032
  131DPPC   C3B 1546  19.900   1.233  23.489  0.1465 -0.0529  0.0324
  131DPPC   C4B 1547  20.287   1.219  23.812  0.1580  0.5601  0.2464
  132DPPC   NC3 1548  18.770   4.560  22.275  0.0194  0.3866  0.1575
  132DPPC   PO4 1549  18.838   4.501  22.647  0.2374  0.1937  0.1429
  132DPPC   GL1 1550  19.028   4.467  23.035  0.0449 -0.1438 -0.1886
  132DPPC   GL2 1551  19.184   4.617  22.956  0.2021 -0.0812 -0.0982
  132DPPC   C1A 1552  19.175   4.324  23.348 -0.1105  0.1532  0.1077
  132DPPC   C2A 1553  19.503   4.242  23.613  0.2676 -0.1747  0.0683
  132DPPC   C3A 1554  19.858   4.239  23.966 -0.1687 -0.1401 -0.0765
  132DPPC   C4A 1555  20.188   4.209  24.334  0.0005 -0.0794  0.0514
  132DPPC   C1B 1556  19.375   4.680  23.272  0.0776 -0.2839 -0.0532
  132DPPC   C2B 1557  19.679   4.693  23.537 -0.1077  0.0661  0.0322
  132DPPC   C3B 1558  20.028   4.776  23.850 -0.0183  0.0038 -0.1010
  132DPPC   C4B 1559  20.384   4.773  24.185 -0.1238  0.0076  0.2226
  133DPPC   NC3 1560  20.732   6.041  19.919  0.3370  0.0506  0.3832
  133DPPC   PO4 1561  20.602   6.175  20.258  0.0810  0.1041  0.0425
  133DPPC   GL1 1562  20.917   6.113  20.618 -0.2701  0.2243  0.0033
  133DPPC   GL2 1563  21.031   6.306  20.453 -0.0363 -0.1336 -0.2047
  133DPPC   C1A 1564  21.124   6.136  20.920  0.1665  0.2395  0.3907
  133DPPC   C2A 1565  21.390   6.113  21.202  0.0002  0.1256  0.0306
  133DPPC   C3A 1566  21.723   6.142  21.540 -0.3667 -0.0620  0.1849
  133DPPC   C4A 1567  22.008   6.099  21.943  0.1860 -0.1238  0.1741
  133DPPC   C1B 1568  21.246   6.539  20.615 -0.1520 -0.0417  0.2391
  133DPPC   C2B 1569  21.441   6.548  20.989 -0.0225 -0.1108  0.4207
  133DPPC   C3B 1570  21.764   6.597  21.332 -0.3610  0.0040 -0.0644
  133DPPC   C4B 1571  22.046   6.548  21.742  0.4190  0.1302 -0.2413
  134DPPC   NC3 1572  20.836   5.456  19.919 -0.1188  0.3386  0.2357
  134DPPC   PO4 1573  20.599   5.125  19.988 -0.0755  0.1942 -0.0477
  134DPPC   GL1 1574  20.936   4.938  20.146  0.1115  0.1400 -0.1447
  134DPPC   GL2 1575  21.073   5.127  20.182 -0.1423 -0.1334 -0.3679
  134DPPC   C1A 1576  20.930   4.845  20.555 -0.3322  0.1874 -0.0820
  134DPPC   C2A 1577  21.145   4.868  20.910  0.1594 -0.0193 -0.3619
  134DPPC   C3A 1578  21.478   4.861  21.284 -0.0758  0.0382  0.0170
  134DPPC   C4A 1579  21.755   4.897  21.603  0.0995 -0.1529 -0.0203
  134DPPC   C1B 1580  21.115   5.228  20.512  0.0760 -0.0631 -0.3396
  134DPPC   C2B 1581  21.388   5.347  20.883  0.1727 -0.0074 -0.0888
  134DPPC   C3B 1582  21.696   5.314  21.260  0.1246  0.1641 -0.1659
  134DPPC   C4B 1583  21.999   5.310  21.668 -0.2436  0.0081 -0.0681
  135DPPC   NC3 1584  19.705   4.790  21.552 -0.0412 -0.0100 -0.1618
  135DPPC   PO4 1585  19.361   4.595  21.592 -0.0070 -0.2456  0.1225
  135DPPC   GL1 1586  19.618   4.504  21.901  0.1107  0.1601 -0.4287
  135DPPC   GL2 1587  19.604   4.750  22.022 -0.0720 -0.0749  0.2289
  135DPPC   C1A 1588  19.898   4.286  21.889  0.2275 -0.1030 -0.2476
  135DPPC   C2A 1589  20.135   3.911  21.983  0.0679 -0.0328  0.1777
  135DPPC   C3A 1590  20.483   3.638  22.162  0.0600  0.3389  0.0879
  135DPPC   C4A 1591  20.840   3.641  22.496 -0.1222  0.0174 -0.0262
  135DPPC   C1B 1592  19.731   4.899  22.320 -0.0129 -0.3856 -0.4466
  135DPPC   C2B 1593  20.073   4.959  22.554  0.2270  0.3652  0.5767
  135DPPC   C3B 1594  20.452   4.956  22.867 -0.1957 -0.2792  0.2767
  135DPPC   C4B 1595  20.772   4.830  23.252 -0.0723 -0.0858  0.0719
  136DPPC   NC3 1596  20.508   2.950  19.957  0.0375  0.1401  0.1287
  136DPPC   PO4 1597  20.790   2.734  19.766 -0.2247 -0.1460  0.0464
  136DPPC   GL1 1598  21.151   2.924  19.825 -0.2366 -0.1692  0.2811
  136DPPC   GL2 1599  20.997   2.873  20.166 -0.1358  0.1526 -0.0916
  136DPPC   C1A 1600  21.443   2.733  19.826  0.1000  0.3965  0.4247
  136DPPC   C2A 1601  21.836   2.686  19.986  0.0355  0.0215 -0.1323
  136DPPC   C3A 1602  22.089   2.769  20.335 -0.0029 -0.1898 -0.0445
  136DPPC   C4A 1603  22.383   2.818  20.726  0.0948 -0.3310 -0.1142
  136DPPC   C1B 1604  21.088   2.990  20.488 -0.2210  0.1440 -0.1081
  136DPPC   C2B 1605  21.412   3.110  20.769  0.1771  0.0349  0.0032
  136DPPC   C3B 1606  21.718   3.165  21.128 -0.2017  0.1678  0.0569
  136DPPC   C4B 1607  22.033   3.127  21.484  0.2975  0.3527 -0.3364
  137DPPC   NC3 1608  18.437   3.172  22.173  0.0125  0.0645 -0.1904
  137DPPC   PO4 1609  18.846   3.218  22.098  0.0074 -0.1663  0.0790
  137DPPC   GL1 1610  19.148   3.293  22.472  0.0728 -0.0030 -0.3321
  137DPPC   GL2 1611  19.302   3.323  22.286  0.1320 -0.4282  0.1468
  137DPPC   C1A 1612  19.289   3.476  22.782 -0.1205 -0.1040  0.0579
  137DPPC   C2A 1613  19.667   3.463  22.928 -0.2314  0.0644  0.1055
  137DPPC   C3A 1614  20.053   3.532  23.205  0.0098 -0.1165  0.2129
  137DPPC   C4A 1615  20.413   3.435  23.573 -0.2242  0.1440  0.0403
  137DPPC   C1B 1616  19.636   3.249  22.427 -0.1183 -0.2283  0.1884
  137DPPC   C2B 1617  19.974   3.124  22.675  0.0771  0.1158  0.0252
  137DPPC   C3B 1618  20.281   3.119  23.011 -0.0172 -0.0068  0.1804
  137DPPC   C4B 1619  20.592   3.005  23.375 -0.3391  0.1314  0.1024
  138DPPC   NC3 1620  19.704   3.743  21.638  0.1185  0.0029  0.0676
  138DPPC   PO4 1621  19.551   3.411  21.404 -0.2698 -0.0154  0.0791
  138DPPC   GL1 1622  19.807   3.097  21.416  0.2668  0.1722  0.0204
  138DPPC   GL2 1623  19.708   2.865  21.515 -0.1213  0.4075 -0.1119
  138DPPC   C1A 1624  20.089   3.192  21.591 -0.4978  0.0524  0.0118
  138DPPC   C2A 1625  20.489   3.256  21.687  0.0851 -0.1829  0.3330
  138DPPC   C3A 1626  20.851   3.316  22.022 -0.0499 -0.4064 -0.0076
  138DPPC   C4A 1627  21.162   3.313  22.402 -0.1899  0.1200  0.3980
  138DPPC   C1B 1628  19.883   2.907  21.862  0.4142 -0.1031 -0.2525
  138DPPC   C2B 1629  20.026   2.678  22.204  0.0095  0.1233  0.0045
  138DPPC   C3B 1630  20.426   2.702  22.521  0.2855 -0.0037 -0.1640
  138DPPC   C4B 1631  20.609   2.778  22.964  0.0722  0.1965  0.0038
  139DPPC   NC3 1632  18.874   3.229  21.564  0.0055  0.0982 -0.2235
  139DPPC   PO4 1633  19.167   3.039  21.736  0.1976  0.3985  0.0146
  139DPPC   GL1 1634  19.485   3.071  21.897 -0.2243 -0.0572 -0.1461
  139DPPC   GL2 1635  19.599   3.311  21.898  0.0149  0.3830 -0.1139
  139DPPC   C1A 1636  19.598   2.880  22.223  0.0166 -0.4006  0.2987
  139DPPC   C2A 1637  19.732   2.702  22.577  0.1143  0.0251 -0.2886
  139DPPC   C3A 1638  20.095   2.567  22.916  0.0338  0.3494  0.1639
  139DPPC   C4A 1639  20.364   2.580  23.307  0.1127 -0.1116 -0.0949
  139DPPC   C1B 1640  19.956   3.265  21.985 -0.0085  0.3010  0.0015
  139DPPC   C2B 1641  20.246   3.140  22.242  0.0465  0.1177 -0.1469
  139DPPC   C3B 1642  20.637   3.141  22.577 -0.2274 -0.0528  0.0749
  139DPPC   C4B 1643  20.950   3.151  22.913 -0.2231 -0.0032  0.0547
  140DPPC   NC3 1644  18.416   0.750  23.093 -0.0940 -0.0484  0.1423
  140DPPC   PO4 1645  18.577   0.910  22.801 -0.0603 -0.3090 -0.0474
  140DPPC   GL1 1646  18.757   1.218  23.037 -0.1259 -0.0757 -0.1205
  140DPPC   GL2 1647  18.790   0.989  23.208  0.0884  0.2269  0.0571
  140DPPC   C1A 1648  18.940   1.527  23.210 -0.0275  0.2300  0.3515
  140DPPC   C2A 1649  19.230   1.577  23.457  0.0493 -0.2994  0.1476
  140DPPC   C3A 1650  19.646   1.575  23.786 -0.0108  0.1916  0.1604
  140DPPC   C4A 1651  20.014   1.597  24.011 -0.2256 -0.2643  0.0387
  140DPPC   C1B 1652  19.122   1.073  23.353 -0.2048  0.0284 -0.5022
  140DPPC   C2B 1653  19.389   1.115  23.645  0.0155 -0.1275  0.1140
  140DPPC   C3B 1654  19.691   1.080  24.028 -0.0925  0.3548  0.0145
  140DPPC   C4B 1655  20.040   1.183  24.381 -0.0774  0.1449 -0.1204
  141DPPC   NC3 1656  20.767   4.450  19.582  0.0256 -0.1071 -0.1432
  141DPPC   PO4 1657  20.805   4.123  19.712  0.0162 -0.1492 -0.3018
  141DPPC   GL1 1658  21.079   4.069  19.853 -0.0458  0.0576 -0.0826
  141DPPC   GL2 1659  21.306   4.203  19.798 -0.3039  0.0858  0.1535
  141DPPC   C1A 1660  21.280   3.912  20.140 -0.0497  0.0612 -0.0483
  141DPPC   C2A 1661  21.567   4.004  20.388  0.0902  0.1480  0.1108
  141DPPC   C3A 1662  21.793   4.047  20.775 -0.0507 -0.1590  0.2202
  141DPPC   C4A 1663  22.208   4.069  21.008 -0.0367 -0.0060  0.1108
  141DPPC   C1B 1664  21.507   4.346  20.085  0.1621 -0.0149 -0.0434
  141DPPC   C2B 1665  21.726   4.500  20.409 -0.1215  0.0216 -0.1281
  141DPPC   C3B 1666  22.052   4.506  20.777 -0.1330  0.0657  0.0757
  141DPPC   C4B 1667  22.390   4.532  21.133  0.0185 -0.2172  0.0600
  142DPPC   NC3 1668  17.893   6.133  23.821  0.0322  0.0643  0.0285
  142DPPC   PO4 1669  18.000   5.881  24.091  0.1700  0.0936 -0.0042
  142DPPC   GL1 1670  18.313   5.840  24.228 -0.3448  0.0700 -0.1164
  142DPPC   GL2 1671  18.571   5.849  24.106  0.0276  0.1927 -0.0665
  142DPPC   C1A 1672  18.433   5.687  24.516 -0.2420  0.0260  0.0037
  142DPPC   C2A 1673  18.782   5.694  24.742 -0.2076  0.2267  0.0500
  142DPPC   C3A 1674  19.090   5.750  25.020 -0.3410 -0.0698 -0.3530
  142DPPC   C4A 1675  19.393   5.723  25.392  0.1260  0.0417 -0.0033
  142DPPC   C1B 1676  18.896   5.873  24.318  0.2170  0.0142  0.2891
  142DPPC   C2B 1677  19.241   5.823  24.542  0.1703  0.2581 -0.0888
  142DPPC   C3B 1678  19.577   5.827  24.799 -0.1380  0.0019 -0.2139
  142DPPC   C4B 1679  19.869   5.873  25.228 -0.1045 -0.0422  0.2778
  143DPPC   NC3 1680  17.467   1.920  23.979  0.2011 -0.1919 -0.3502
  143DPPC   PO4 1681  17.745   2.223  24.046  0.0172 -0.0566  0.1237
  143DPPC   GL1 1682  18.195   2.149  24.055  0.2331 -0.0709  0.0229
  143DPPC   GL2 1683  18.066   2.274  24.390  0.0492 -0.1190  0.1079
  143DPPC   C1A 1684  18.454   1.993  24.202  0.0632 -0.1748 -0.0089
  143DPPC   C2A 1685  18.668   1.854  24.550 -0.2710 -0.3777 -0.2389
  143DPPC   C3A 1686  18.991   1.789  24.905  0.2876  0.1925 -0.0086
  143DPPC   C4A 1687  19.242   1.717  25.304  0.1866  0.2160 -0.1113
  143DPPC   C1B 1688  18.297   2.233  24.683  0.0099  0.3753  0.1372
  143DPPC   C2B 1689  18.595   2.206  24.968 -0.0705  0.0370 -0.2962
  143DPPC   C3B 1690  18.851   2.101  25.298  0.1390 -0.2558  0.0370
  143DPPC   C4B 1691  19.200   2.110  25.579 -0.0545  0.2408  0.3296
  144DPPC   NC3 1692  19.263   5.067  21.826 -0.3605  0.0972  0.1980
  144DPPC   PO4 1693  19.168   4.822  22.119 -0.2082  0.0702  0.1603
  144DPPC   GL1 1694  19.336   4.653  22.520  0.0122  0.2029 -0.1719
  144DPPC   GL2 1695  19.320   4.408  22.299 -0.1324 -0.0923 -0.1128
  144DPPC   C1A 1696  19.609   4.759  22.761 -0.0036 -0.0129  0.2101
  144DPPC   C2A 1697  19.880   4.792  23.013 -0.4105  0.3014 -0.3416
  144DPPC   C3A 1698  20.178   4.770  23.368 -0.1304  0.2492 -0.2014
  144DPPC   C4A 1699  20.512   4.819  23.656  0.2454 -0.0208  0.0082
  144DPPC   C1B 1700  19.676   4.379  22.280 -0.2279  0.1280  0.1513
  144DPPC   C2B 1701  19.937   4.466  22.587  0.1677 -0.1053 -0.0148
  144DPPC   C3B 1702  20.276   4.485  22.956  0.1864  0.0180 -0.2558
  144DPPC   C4B 1703  20.576   4.391  23.368 -0.1019  0.0087 -0.0432
  145DPPC   NC3 1704  19.644   4.446  20.525 -0.1917  0.1129  0.0782
  145DPPC   PO4 1705  19.929   4.712  20.723 -0.3472  0.0289 -0.0875
  145DPPC   GL1 1706  20.252   4.667  21.020  0.2925 -0.1023 -0.1719
  145DPPC   GL2 1707  20.006   4.554  21.242 -0.1295 -0.0494  0.0213
  145DPPC   C1A 1708  20.529   4.823  21.204 -0.2258  0.3295  0.1168
  145DPPC   C2A 1709  20.843   4.732  21.472 -0.2909 -0.2591  0.1559
  145DPPC   C3A 1710  21.224   4.723  21.732  0.1195  0.0746  0.0532
  145DPPC   C4A 1711  21.538   4.700  22.100  0.1289 -0.1487 -0.3148
  145DPPC   C1B 1712  20.232   4.519  21.485 -0.1293 -0.0119 -0.3125
  145DPPC   C2B 1713  20.514   4.562  21.779  0.1501 -0.1701 -0.0144
  145DPPC   C3B 1714  20.847   4.596  22.144  0.0697  0.3428 -0.0312
  145DPPC   C4B 1715  21.151   4.556  22.528  0.0392 -0.0803  0.0653
  146DPPC   NC3 1716  17.744   5.381  24.225 -0.1424  0.0817  0.1703
  146DPPC   PO4 1717  17.629   5.042  24.320 -0.1526 -0.0320  0.0802
  146DPPC   GL1 1718  17.714   4.795  24.744 -0.1515  0.0421  0.0311
  146DPPC   GL2 1719  17.943   4.817  24.558  0.0270 -0.0885  0.3770
  146DPPC   C1A 1720  17.993   4.800  25.000  0.0313  0.0298 -0.1836
  146DPPC   C2A 1721  18.288   4.748  25.297 -0.2785  0.2644 -0.1061
  146DPPC   C3A 1722  18.535   4.731  25.726 -0.0405  0.3640 -0.0466
  146DPPC   C4A 1723  18.874   4.783  26.070 -0.1567  0.1616  0.3249
  146DPPC   C1B 1724  18.266   4.782  24.700 -0.2707 -0.1742 -0.3177
  146DPPC   C2B 1725  18.599   4.812  24.932  0.1144  0.3783  0.0803
  146DPPC   C3B 1726  18.856   4.862  25.375  0.1954  0.1871 -0.1882
  146DPPC   C4B 1727  19.176   4.870  25.708 -0.0811  0.0368  0.0593
  147DPPC   NC3 1728  18.295   3.929  23.257  0.1590 -0.2542 -0.2279
  147DPPC   PO4 1729  18.162   3.595  23.432  0.0412 -0.2827  0.1179
  147DPPC   GL1 1730  18.542   3.307  23.535  0.1120  0.2194  0.0993
  147DPPC   GL2 1731  18.464   3.344  23.820  0.2809 -0.1548  0.0777
  147DPPC   C1A 1732  18.931   3.244  23.524  0.0922  0.0607  0.0526
  147DPPC   C2A 1733  19.259   3.325  23.741 -0.0639 -0.1025 -0.4019
  147DPPC   C3A 1734  19.561   3.284  24.079 -0.0893 -0.3515  0.0924
  147DPPC   C4A 1735  19.830   3.247  24.487  0.2111  0.1708  0.2828
  147DPPC   C1B 1736  18.750   3.232  23.974  0.1604  0.1896  0.2373
  147DPPC   C2B 1737  19.012   3.251  24.324  0.0647  0.4312  0.1312
  147DPPC   C3B 1738  19.351   3.152  24.600 -0.0497 -0.2515  0.0091
  147DPPC   C4B 1739  19.628   3.190  25.016  0.0669  0.0708  0.0592
  148DPPC   NC3 1740  16.838   5.499  24.306 -0.0615 -0.3996  0.2319
  148DPPC   PO4 1741  17.226   5.547  24.399 -0.1457 -0.0401 -0.0926
  148DPPC   GL1 1742  17.529   5.961  24.551  0.1608  0.1935  0.0597
  148DPPC   GL2 1743  17.763   5.743  24.487 -0.1095  0.2538  0.0177
  148DPPC   C1A 1744  17.769   6.044  24.828 -0.1254  0.2065 -0.2930
  148DPPC   C2A 1745  18.020   6.080  25.136  0.0174  0.0189  0.1515
  148DPPC   C3A 1746  18.427   6.093  25.450  0.2457  0.1113  0.3021
  148DPPC   C4A 1747  18.752   5.971  25.814 -0.0267 -0.1722  0.2037
  148DPPC   C1B 1748  18.045   5.689  24.768 -0.1151  0.0456  0.2405
  148DPPC   C2B 1749  18.365   5.621  25.062  0.2633 -0.0447  0.2584
  148DPPC   C3B 1750  18.703   5.682  25.367  0.2762  0.1600  0.0781
  148DPPC   C4B 1751  19.026   5.591  25.713 -0.1822 -0.1883  0.2930
  149DPPC   NC3 1752  20.067   5.530  21.044 -0.2920 -0.2215  0.0253
  149DPPC   PO4 1753  20.149   5.922  21.006  0.0616 -0.0780  0.1878
  149DPPC   GL1 1754  20.314   6.184  21.327 -0.0466 -0.0168  0.0117
  149DPPC   GL2 1755  20.312   5.974  21.494 -0.2547 -0.1072  0.2688
  149DPPC   C1A 1756  20.413   6.483  21.472  0.0183 -0.5531  0.0105
  149DPPC   C2A 1757  20.742   6.391  21.760 -0.1523 -0.3798  0.2031
  149DPPC   C3A 1758  21.080   6.389  22.109 -0.2510  0.0261  0.0965
  149DPPC   C4A 1759  21.461   6.416  22.448 -0.1457 -0.2464  0.0623
  149DPPC   C1B 1760  20.554   5.973  21.742 -0.3413 -0.0624 -0.1590
  149DPPC   C2B 1761  20.834   5.982  22.018  0.0553  0.1141 -0.1401
  149DPPC   C3B 1762  21.092   5.896  22.357 -0.1309  0.0217 -0.0438
  149DPPC   C4B 1763  21.385   5.900  22.805 -0.1283 -0.0506  0.1908
  150DPPC   NC3 1764  18.060   2.176  23.567  0.1287  0.0785  0.2922
  150DPPC   PO4 1765  17.890   1.813  23.644  0.1483 -0.0992 -0.2275
  150DPPC   GL1 1766  18.075   1.643  23.905 -0.1688  0.0589 -0.2162
  150DPPC   GL2 1767  17.940   1.787  24.134  0.3741  0.0053  0.1080
  150DPPC   C1A 1768  18.407   1.624  23.975 -0.2140 -0.1103  0.1101
  150DPPC   C2A 1769  18.751   1.545  24.215 -0.0293  0.2065 -0.4353
  150DPPC   C3A 1770  19.135   1.437  24.536 -0.2197 -0.3396  0.2595
  150DPPC   C4A 1771  19.431   1.409  24.936  0.0230 -0.0248 -0.0781
  150DPPC   C1B 1772  18.123   1.828  24.449  0.0330  0.4129 -0.1028
  150DPPC   C2B 1773  18.279   1.715  24.800  0.0273 -0.3664  0.1339
  150DPPC   C3B 1774  18.475   1.698  25.181  0.3102  0.2038  0.1487
  150DPPC   C4B 1775  18.773   1.703  25.535 -0.0526 -0.2764 -0.3210
  151DPPC   NC3 1776  20.183   0.716  20.614  0.2356  0.2720 -0.1389
  151DPPC   PO4 1777  20.062   0.350  20.721  0.0580  0.2092 -0.2754
  151DPPC   GL1 1778  20.453   0.180  20.704  0.3008 -0.3569 -0.1971
  151DPPC   GL2 1779  20.573   0.420  20.552 -0.1244  0.1641  0.0434
  151DPPC   C1A 1780  20.517   0.206  21.041  0.1993 -0.0183  0.3477
  151DPPC   C2A 1781  20.651   0.301  21.418 -0.1018 -0.2027  0.0745
  151DPPC   C3A 1782  21.047   0.302  21.757  0.3218  0.0259  0.1671
  151DPPC   C4A 1783  21.328   0.256  22.152  0.0895 -0.0346  0.2019
  151DPPC   C1B 1784  20.799   0.683  20.738  0.0934 -0.2955 -0.1332
  151DPPC   C2B 1785  21.159   0.813  20.895  0.3442  0.1413 -0.0928
  151DPPC   C3B 1786  21.509   0.783  21.237 -0.1196  0.2740 -0.1136
  151DPPC   C4B 1787  21.740   0.820  21.664 -0.3127  0.1015  0.0440
  152DPPC   NC3 1788  19.537   0.935  21.379 -0.1413 -0.0489 -0.0352
  152DPPC   PO4 1789  19.468   0.542  21.506  0.2097 -0.0066 -0.2111
  152DPPC   GL1 1790  19.703   0.426  21.836  0.3593  0.3635  0.1635
  152DPPC   GL2 1791  19.581   0.396  22.065 -0.0011  0.2085 -0.1768
  152DPPC   C1A 1792  20.052   0.478  21.889 -0.0072 -0.2928 -0.2372
  152DPPC   C2A 1793  20.344   0.447  22.162  0.2371 -0.0732  0.1936
  152DPPC   C3A 1794  20.579   0.488  22.531 -0.0007 -0.1237 -0.3577
  152DPPC   C4A 1795  20.932   0.475  22.865 -0.0548  0.0092  0.0358
  152DPPC   C1B 1796  19.806   0.379  22.397 -0.0183  0.3208 -0.0232
  152DPPC   C2B 1797  20.081   0.438  22.658 -0.3218  0.0289  0.1986
  152DPPC   C3B 1798  20.391   0.509  23.051 -0.0879 -0.0906 -0.2726
  152DPPC   C4B 1799  20.722   0.402  23.361  0.2122 -0.1274 -0.2683
  153DPPC   NC3 1800  21.099   1.880  19.477 -0.0170  0.1402  0.0228
  153DPPC   PO4 1801  21.023   2.232  19.670 -0.0335 -0.1751  0.0754
  153DPPC   GL1 1802  21.101   2.488  20.060  0.1110  0.1801 -0.2411
  153DPPC   GL2 1803  21.262   2.277  20.135 -0.0886  0.2334 -0.1903
  153DPPC   C1A 1804  21.368   2.684  20.223  0.2458 -0.1004 -0.0814
  153DPPC   C2A 1805  21.635   2.710  20.524 -0.0453 -0.0042  0.0412
  153DPPC   C3A 1806  21.910   2.721  20.930  0.0121 -0.0454  0.0625
  153DPPC   C4A 1807  22.289   2.745  21.289  0.1657  0.1239 -0.1944
  153DPPC   C1B 1808  21.450   2.216  20.427  0.0287 -0.2964 -0.0277
  153DPPC   C2B 1809  21.645   2.241  20.737  0.1120  0.0159  0.0489
  153DPPC   C3B 1810  21.949   2.264  21.119 -0.3910 -0.0881  0.0778
  153DPPC   C4B 1811  22.267   2.247  21.462  0.3110 -0.2228 -0.1167
  154DPPC   NC3 1812  20.254   0.164  20.300  0.2766 -0.0809 -0.1734
  154DPPC   PO4 1813  20.189  -0.201  20.481  0.2695 -0.1879  0.0680
  154DPPC   GL1 1814  20.558  -0.288  20.680 -0.0270  0.0238  0.1711
  154DPPC   GL2 1815  20.550  -0.521  20.856  0.1189 -0.1623 -0.0838
  154DPPC   C1A 1816  20.799  -0.212  20.953  0.4629 -0.1688  0.1077
  154DPPC   C2A 1817  21.001  -0.116  21.293  0.1656  0.1126 -0.0034
  154DPPC   C3A 1818  21.317  -0.067  21.666 -0.0819 -0.1555 -0.0320
  154DPPC   C4A 1819  21.643  -0.196  22.001 -0.1287 -0.0947 -0.2604
  154DPPC   C1B 1820  20.801  -0.591  21.144  0.1446  0.2282 -0.1494
  154DPPC   C2B 1821  21.032  -0.605  21.535  0.1059 -0.2533  0.3609
  154DPPC   C3B 1822  21.390  -0.619  21.842  0.0656 -0.0166  0.0367
  154DPPC   C4B 1823  21.687  -0.650  22.271  0.2614  0.2040 -0.1036
  155DPPC   NC3 1824  19.706   3.480  20.915  0.3553 -0.0464  0.2694
  155DPPC   PO4 1825  19.753   3.812  21.153 -0.0828  0.1641 -0.1089
  155DPPC   GL1 1826  20.174   3.834  21.291  0.1071  0.3002  0.2041
  155DPPC   GL2 1827  20.129   4.031  21.461  0.0248  0.1082 -0.0448
  155DPPC   C1A 1828  20.414   3.665  21.469  0.0676 -0.2876 -0.0243
  155DPPC   C2A 1829  20.730   3.785  21.685  0.1160 -0.0338  0.1209
  155DPPC   C3A 1830  21.001   3.832  22.068 -0.0318  0.0630  0.2007
  155DPPC   C4A 1831  21.294   3.774  22.481  0.2161 -0.4283 -0.2423
  155DPPC   C1B 1832  20.406   4.131  21.738 -0.3935 -0.1491  0.1333
  155DPPC   C2B 1833  20.604   4.184  22.112  0.1334  0.1110 -0.2479
  155DPPC   C3B 1834  20.895   4.141  22.438 -0.0079  0.0735 -0.0252
  155DPPC   C4B 1835  21.204   4.171  22.848 -0.0511 -0.1769 -0.2477
  156DPPC   NC3 1836  16.799   6.453  24.535  0.0337  0.1265  0.2400
  156DPPC   PO4 1837  17.079   6.754  24.528  0.0833  0.2711 -0.1460
  156DPPC   GL1 1838  17.335   6.793  24.813  0.1757 -0.0757  0.1696
  156DPPC   GL2 1839  17.200   7.000  25.000  0.1165 -0.0635 -0.2117
  156DPPC   C1A 1840  17.588   6.614  24.908 -0.6351  0.2982  0.0407
  156DPPC   C2A 1841  17.983   6.512  24.850 -0.0340 -0.1452 -0.0557
  156DPPC   C3A 1842  18.334   6.504  25.154 -0.2497  0.0055 -0.3256
  156DPPC   C4A 1843  18.661   6.516  25.550 -0.0536 -0.0986 -0.0668
  156DPPC   C1B 1844  17.483   7.149  25.166 -0.1794  0.3237 -0.1141
  156DPPC   C2B 1845  17.715   7.368  25.445 -0.4413 -0.3534  0.1671
  156DPPC   C3B 1846  18.046   7.359  25.793  0.1621 -0.0433 -0.0641
  156DPPC   C4B 1847  18.333   7.347  26.135 -0.1601 -0.2095 -0.0268
  157DPPC   NC3 1848  17.644   2.623  23.729  0.1829  0.3120  0.2167
  157DPPC   PO4 1849  17.971   2.681  23.478  0.0753 -0.2138 -0.0222
  157DPPC   GL1 1850  18.193   2.578  23.820 -0.1717 -0.3056 -0.3214
  157DPPC   GL2 1851  18.005   2.698  24.022 -0.0435  0.1359  0.2366
  157DPPC   C1A 1852  18.507   2.443  23.953  0.0661 -0.2941 -0.2066
  157DPPC   C2A 1853  18.723   2.343  24.261 -0.1388  0.2135  0.1394
  157DPPC   C3A 1854  18.966   2.285  24.665  0.0801 -0.1463 -0.2596
  157DPPC   C4A 1855  19.283   2.167  25.030  0.1552 -0.0480 -0.1748
  157DPPC   C1B 1856  18.259   2.583  24.297  0.0427 -0.3028 -0.2311
  157DPPC   C2B 1857  18.515   2.619  24.607 -0.3662 -0.0160  0.1204
  157DPPC   C3B 1858  18.820   2.673  24.962 -0.2123 -0.2287 -0.1969
  157DPPC   C4B 1859  19.104   2.558  25.328  0.2133 -0.0005  0.3714
  158DPPC   NC3 1860  17.047   1.670  24.752 -0.2008  0.1771  0.2079
  158DPPC   PO4 1861  17.261   1.877  24.455 -0.1926  0.1243  0.1313
  158DPPC   GL1 1862  17.676   1.915  24.515 -0.0574  0.2386 -0.1559
  158DPPC   GL2 1863  17.540   1.647  24.664  0.2173  0.0769 -0.0593
  158DPPC   C1A 1864  17.923   2.058  24.725 -0.3234  0.0507 -0.0175
  158DPPC   C2A 1865  18.061   2.124  25.101  0.0741 -0.0469  0.3829
  158DPPC   C3A 1866  18.331   2.114  25.449  0.0690  0.1343  0.0736
  158DPPC   C4A 1867  18.648   2.108  25.854  0.0969 -0.1957 -0.0073
  158DPPC   C1B 1868  17.809   1.578  24.958  0.0436 -0.0838 -0.0427
  158DPPC   C2B 1869  17.991   1.559  25.227  0.0427  0.3275 -0.0394
  158DPPC   C3B 1870  18.227   1.609  25.645 -0.5255 -0.0040  0.4936
  158DPPC   C4B 1871  18.522   1.619  25.998  0.0215 -0.0863 -0.1455
  159DPPC   NC3 1872  19.373   1.801  21.437  0.0804 -0.1300 -0.5781
  159DPPC   PO4 1873  19.516   2.180  21.533 -0.0756  0.3864  0.2109
  159DPPC   GL1 1874  19.888   2.233  21.545  0.2891  0.4334  0.2091
  159DPPC   GL2 1875  19.878   2.506  21.709  0.2494 -0.0254  0.0204
  159DPPC   C1A 1876  20.090   2.186  21.821  0.1755  0.2691 -0.3249
  159DPPC   C2A 1877  20.386   2.236  22.120  0.2537  0.2152  0.1042
  159DPPC   C3A 1878  20.745   2.290  22.446  0.1136 -0.0132 -0.1112
  159DPPC   C4A 1879  21.016   2.274  22.804  0.3448 -0.0068  0.0020
  159DPPC   C1B 1880  20.218   2.624  21.806  0.0388 -0.3099 -0.1340
  159DPPC   C2B 1881  20.599   2.736  22.024  0.2859 -0.2155  0.1326
  159DPPC   C3B 1882  20.974   2.801  22.390 -0.2042 -0.2205  0.0226
  159DPPC   C4B 1883  21.232   2.741  22.777 -0.0587  0.0002 -0.3251
  160DPPC   NC3 1884  17.499   3.194  24.384 -0.2084  0.1437  0.0180
  160DPPC   PO4 1885  17.589   3.592  24.479 -0.0580 -0.2388  0.0180
  160DPPC   GL1 1886  17.868   3.866  24.666  0.3154 -0.0850 -0.1333
  160DPPC   GL2 1887  17.722   3.717  24.964  0.0026 -0.0728  0.0279
  160DPPC   C1A 1888  18.124   3.912  24.918 -0.2397  0.2869 -0.2279
  160DPPC   C2A 1889  18.452   3.875  25.267  0.0285  0.2691  0.1559
  160DPPC   C3A 1890  18.775   3.886  25.615 -0.2362  0.0498 -0.0232
  160DPPC   C4A 1891  19.017   3.874  26.020 -0.1220 -0.0079 -0.1114
  160DPPC   C1B 1892  17.939   3.759  25.299  0.3948  0.1522  0.2243
  160DPPC   C2B 1893  18.181   3.733  25.637 -0.1283 -0.0862  0.2286
  160DPPC   C3B 1894  18.467   3.756  26.006 -0.0882 -0.0705  0.4958
  160DPPC   C4B 1895  18.681   3.694  26.461 -0.0526 -0.1143  0.0763
  161DPPC   NC3 1896  19.839   5.864  21.410 -0.0343  0.1349 -0.0705
  161DPPC   PO4 1897  19.750   6.110  21.697  0.1288 -0.1961 -0.2272
  161DPPC   GL1 1898  19.758   5.953  22.094  0.0682  0.3463 -0.0326
  161DPPC   GL2 1899  19.820   5.661  21.933 -0.4057 -0.1473  0.2149
  161DPPC   C1A 1900  20.117   5.943  22.219  0.0521 -0.0331  0.2319
  161DPPC   C2A 1901  20.470   5.879  22.468  0.1627  0.3254  0.2016
  161DPPC   C3A 1902  20.830   5.851  22.791  0.1804  0.0315 -0.3958
  161DPPC   C4A 1903  21.122   5.819  23.225  0.1998  0.1105  0.1695
  161DPPC   C1B 1904  20.022   5.501  22.163  0.0378 -0.0225  0.0170
  161DPPC   C2B 1905  20.288   5.449  22.454  0.1077 -0.2086 -0.1607
  161DPPC   C3B 1906  20.606   5.421  22.822  0.1007 -0.0085  0.3029
  161DPPC   C4B 1907  20.937   5.281  23.157 -0.1516 -0.1049 -0.1791
  162DPPC   NC3 1908  19.180   0.347  21.827  0.0253 -0.0305  0.3412
  162DPPC   PO4 1909  18.975   0.255  22.156 -0.0012 -0.0133  0.0967
  162DPPC   GL1 1910  19.297   0.133  22.300  0.3349  0.2466 -0.2944
  162DPPC   GL2 1911  19.330   0.416  22.481  0.1083 -0.2214 -0.0029
  162DPPC   C1A 1912  19.425  -0.021  22.591  0.0950 -0.1450  0.1533
  162DPPC   C2A 1913  19.795  -0.025  22.706 -0.2004 -0.0181 -0.3946
  162DPPC   C3A 1914  20.157  -0.030  23.078  0.0277 -0.1821  0.0395
  162DPPC   C4A 1915  20.419  -0.032  23.473  0.0405  0.0034 -0.0619
  162DPPC   C1B 1916  19.555   0.400  22.765 -0.4535 -0.1883 -0.1008
  162DPPC   C2B 1917  19.830   0.399  23.086 -0.0982 -0.0854 -0.2057
  162DPPC   C3B 1918  20.065   0.401  23.450  0.4298 -0.0906 -0.1066
  162DPPC   C4B 1919  20.423   0.359  23.751  0.2671 -0.0333 -0.1525
  163DPPC   NC3 1920  20.451   4.737  20.355  0.1408 -0.1933 -0.1524
  163DPPC   PO4 1921  20.606   4.622  20.008 -0.2504 -0.0541  0.0750
  163DPPC   GL1 1922  20.825   4.444  20.400 -0.2628 -0.0719 -0.1390
  163DPPC   GL2 1923  21.031   4.291  20.221 -0.1111 -0.0018 -0.1048
  163DPPC   C1A 1924  21.170   4.446  20.617 -0.0608  0.3282  0.0028
  163DPPC   C2A 1925  21.505   4.440  20.886  0.2843 -0.0180 -0.0916
  163DPPC   C3A 1926  21.815   4.417  21.201 -0.0268  0.0148  0.1503
  163DPPC   C4A 1927  22.160   4.499  21.572  0.0995  0.1837 -0.2877
  163DPPC   C1B 1928  21.083   4.022  20.485  0.1448 -0.0796 -0.5140
  163DPPC   C2B 1929  21.251   4.012  20.865  0.2780 -0.0878  0.2484
  163DPPC   C3B 1930  21.563   3.991  21.206  0.2113 -0.0189 -0.1623
  163DPPC   C4B 1931  21.938   3.993  21.480  0.0486  0.0210 -0.1419
  164DPPC   NC3 1932  20.214   5.901  20.505  0.1335  0.0177  0.1368
  164DPPC   PO4 1933  20.301   5.552  20.635 -0.1575 -0.0915 -0.2042
  164DPPC   GL1 1934  20.546   5.547  20.971 -0.2383  0.1441 -0.3083
  164DPPC   GL2 1935  20.451   5.672  21.204  0.0106 -0.0616 -0.3738
  164DPPC   C1A 1936  20.767   5.224  21.040  0.1758 -0.0414 -0.3553
  164DPPC   C2A 1937  21.084   5.145  21.325 -0.0494 -0.1420 -0.2208
  164DPPC   C3A 1938  21.403   5.282  21.690  0.3847  0.1614 -0.1449
  164DPPC   C4A 1939  21.733   5.164  22.128  0.0186  0.4617 -0.0796
  164DPPC   C1B 1940  20.670   5.668  21.443 -0.3800 -0.2314 -0.2708
  164DPPC   C2B 1941  20.887   5.534  21.789 -0.2776  0.1655 -0.1931
  164DPPC   C3B 1942  21.293   5.532  22.093  0.2537  0.1626  0.0906
  164DPPC   C4B 1943  21.568   5.539  22.475  0.4216 -0.0394 -0.1435
  165DPPC   NC3 1944  18.360   0.103  23.197  0.2054  0.2471 -0.0593
  165DPPC   PO4 1945  18.501   0.303  22.941 -0.1251  0.1691  0.2085
  165DPPC   GL1 1946  18.871   0.552  23.001 -0.2758 -0.1819  0.3725
  165DPPC   GL2 1947  19.028   0.369  22.868 -0.2483  0.2236  0.0065
  165DPPC   C1A 1948  19.031   0.600  23.280  0.0453  0.2187 -0.0219
  165DPPC   C2A 1949  19.187   0.667  23.685  0.0926  0.0556  0.2506
  165DPPC   C3A 1950  19.498   0.616  24.008  0.1331 -0.0759  0.0043
  165DPPC   C4A 1951  19.888   0.708  24.346  0.0838 -0.1301  0.0206
  165DPPC   C1B 1952  19.296   0.221  23.097 -0.4180  0.0553  0.1628
  165DPPC   C2B 1953  19.525   0.297  23.455 -0.1950 -0.1464 -0.0965
  165DPPC   C3B 1954  19.793   0.257  23.879 -0.2509  0.0768  0.3578
  165DPPC   C4B 1955  20.141   0.238  24.186  0.0168 -0.2102 -0.1846
  166DPPC   NC3 1956  20.985   0.161  19.673  0.3124  0.2958  0.0102
  166DPPC   PO4 1957  20.881  -0.224  19.585 -0.2233  0.1010 -0.1551
  166DPPC   GL1 1958  21.220  -0.397  19.807  0.3285  0.1798 -0.3326
  166DPPC   GL2 1959  21.151  -0.515  20.023 -0.4811  0.0248 -0.0764
  166DPPC   C1A 1960  21.543  -0.383  19.919 -0.3079 -0.1728  0.0310
  166DPPC   C2A 1961  21.830  -0.350  20.190  0.0336  0.2196 -0.2956
  166DPPC   C3A 1962  22.147  -0.352  20.527 -0.0427  0.3324 -0.0610
  166DPPC   C4A 1963  22.507  -0.316  20.870 -0.0040 -0.1711  0.1516
  166DPPC   C1B 1964  21.360  -0.472  20.325 -0.1489 -0.0090 -0.4451
  166DPPC   C2B 1965  21.633  -0.391  20.642  0.0771  0.3207 -0.0426
  166DPPC   C3B 1966  21.880  -0.390  20.968  0.1087 -0.1935 -0.1429
  166DPPC   C4B 1967  22.159  -0.292  21.356 -0.0916 -0.1025 -0.0580
  167DPPC   NC3 1968  18.067   4.815  23.405  0.0148  0.0481 -0.2146
  167DPPC   PO4 1969  18.423   4.660  23.517 -0.3385 -0.0247  0.1889
  167DPPC   GL1 1970  18.648   4.343  23.332  0.0060 -0.0676  0.3077
  167DPPC   GL2 1971  18.823   4.609  23.446  0.0373  0.4338 -0.0893
  167DPPC   C1A 1972  18.835   4.120  23.558 -0.1812 -0.2619  0.1098
  167DPPC   C2A 1973  19.138   4.122  23.907  0.3018 -0.0073  0.6784
  167DPPC   C3A 1974  19.480   4.119  24.221 -0.4203 -0.1636 -0.1511
  167DPPC   C4A 1975  19.794   4.122  24.653 -0.1247 -0.1006  0.1611
  167DPPC   C1B 1976  19.088   4.609  23.715 -0.1268  0.0509  0.0137
  167DPPC   C2B 1977  19.456   4.578  23.986  0.0681  0.3189  0.3143
  167DPPC   C3B 1978  19.748   4.581  24.370  0.1005  0.3378 -0.1848
  167DPPC   C4B 1979  20.078   4.671  24.724 -0.0085  0.2954  0.2634
  168DPPC   NC3 1980  17.540   0.785  23.170 -0.0846  0.2678 -0.0938
  168DPPC   PO4 1981  17.936   0.867  23.198  0.0485  0.0544  0.2503
  168DPPC   GL1 1982  18.218   0.912  23.523  0.2414  0.0379  0.3793
  168DPPC   GL2 1983  18.309   1.074  23.352 -0.1812  0.0222 -0.2363
  168DPPC   C1A 1984  18.348   0.784  23.844 -0.0048  0.0024 -0.1144
  168DPPC   C2A 1985  18.452   0.601  24.209  0.0882 -0.0747  0.3959
  168DPPC   C3A 1986  18.693   0.484  24.646  0.2123 -0.1048 -0.0517
  168DPPC   C4A 1987  18.993   0.500  25.005  0.1673  0.1724 -0.3512
  168DPPC   C1B 1988  18.618   1.312  23.444  0.0804 -0.2429 -0.2068
  168DPPC   C2B 1989  18.809   1.615  23.677  0.2003  0.0940  0.0271
  168DPPC   C3B 1990  19.195   1.513  23.949  0.0366  0.0067 -0.1075
  168DPPC   C4B 1991  19.633   1.467  24.294  0.0723  0.0415 -0.1064
  169DPPC   NC3 1992  18.787   0.022  22.591  0.2297 -0.3990 -0.0973
  169DPPC   PO4 1993  18.571  -0.174  22.854  0.0037  0.2290 -0.1978
  169DPPC   GL1 1994  18.817  -0.051  23.095 -0.0620  0.2282 -0.1538
  169DPPC   GL2 1995  18.819   0.201  23.242 -0.0190 -0.0894  0.2382
  169DPPC   C1A 1996  19.056  -0.153  23.360  0.0149  0.0881  0.3553
  169DPPC   C2A 1997  19.350  -0.265  23.652  0.0855  0.0554  0.1142
  169DPPC   C3A 1998  19.660  -0.247  24.022 -0.3030  0.2513  0.0047
  169DPPC   C4A 1999  20.004  -0.221  24.377  0.1833 -0.1780 -0.4572
  169DPPC   C1B 2000  19.074   0.256  23.489 -0.3530  0.1914  0.0235
  169DPPC   C2B 2001  19.233   0.127  23.866  0.2698 -0.1888 -0.1523
  169DPPC   C3B 2002  19.490   0.158  24.266  0.1058  0.1663 -0.2858
  169DPPC   C4B 2003  19.775   0.147  24.648  0.0685  0.0447 -0.1856
  170DPPC   NC3 2004  20.352   1.093  19.945  0.0519 -0.3147 -0.3059
  170DPPC   PO4 2005  20.463   0.815  20.231 -0.0162  0.0423 -0.2619
  170DPPC   GL1 2006  20.937   0.730  20.298  0.5841  0.4546 -0.3257
  170DPPC   GL2 2007  20.923   0.970  20.491  0.1494 -0.2099 -0.0169
  170DPPC   C1A 2008  21.165   0.426  20.480 -0.0320  0.1442 -0.0533
  170DPPC   C2A 2009  21.420   0.385  20.761  0.1941  0.2835 -0.0841
  170DPPC   C3A 2010  21.783   0.415  21.063 -0.0414 -0.0024 -0.3832
  170DPPC   C4A 2011  22.055   0.479  21.440 -0.0589  0.1173  0.0514
  170DPPC   C1B 2012  21.190   1.202  20.644  0.0703 -0.3253  0.2710
  170DPPC   C2B 2013  21.420   1.248  20.989  0.1114 -0.0660 -0.2406
  170DPPC   C3B 2014  21.708   1.264  21.380 -0.3154  0.1754  0.2310
  170DPPC   C4B 2015  22.088   1.290  21.732 -0.0057 -0.3437  0.0263
  171DPPC   NC3 2016  18.770   3.209  22.749 -0.0181  0.1807 -0.0539
  171DPPC   PO4 2017  18.718   2.907  22.544 -0.1177 -0.1337  0.0010
  171DPPC   GL1 2018  18.997   2.685  22.738 -0.1435 -0.0419 -0.1721
  171DPPC   GL2 2019  19.187   2.962  22.694 -0.0641  0.0106 -0.5136
  171DPPC   C1A 2020  19.102   2.630  23.102 -0.1187 -0.1912 -0.0676
  171DPPC   C2A 2021  19.258   2.442  23.427 -0.1794 -0.0168  0.0632
  171DPPC   C3A 2022  19.655   2.442  23.797  0.1781  0.2757  0.3424
  171DPPC   C4A 2023  19.867   2.468  24.218  0.2256  0.0360 -0.0340
  171DPPC   C1B 2024  19.521   3.048  22.856  0.3674 -0.0608  0.0081
  171DPPC   C2B 2025  19.853   3.019  23.143 -0.1028  0.2101 -0.2798
  171DPPC   C3B 2026  20.125   3.012  23.488  0.2444  0.2389  0.3906
  171DPPC   C4B 2027  20.445   3.014  23.904 -0.2273  0.0842 -0.0034
  172DPPC   NC3 2028  19.909   1.678  20.821  0.0411 -0.1393  0.0328
  172DPPC   PO4 2029  20.033   2.032  20.739  0.1552  0.1053  0.1613
  172DPPC   GL1 2030  20.341   2.013  20.971 -0.3117 -0.2174  0.0267
  172DPPC   GL2 2031  20.195   2.039  21.221  0.3871  0.0143 -0.1439
  172DPPC   C1A 2032  20.695   1.925  21.089 -0.0885  0.1583  0.3629
  172DPPC   C2A 2033  20.991   2.035  21.376 -0.0227 -0.2561 -0.0032
  172DPPC   C3A 2034  21.236   2.009  21.766 -0.0310  0.0031  0.1352
  172DPPC   C4A 2035  21.522   1.999  22.171  0.1337  0.0528  0.0357
  172DPPC   C1B 2036  20.383   1.980  21.563 -0.2517 -0.0368  0.1082
  172DPPC   C2B 2037  20.674   1.908  21.886  0.0801  0.1610 -0.0746
  172DPPC   C3B 2038  21.057   1.917  22.253 -0.1063  0.0760  0.1214
  172DPPC   C4B 2039  21.352   1.910  22.699  0.0274  0.2121 -0.1133
  173DPPC   NC3 2040  18.826   6.061  23.207 -0.1885  0.0010 -0.0433
  173DPPC   PO4 2041  18.703   5.686  23.219 -0.3119 -0.0002 -0.2652
  173DPPC   GL1 2042  18.706   5.497  23.558  0.0211 -0.1490 -0.1318
  173DPPC   GL2 2043  18.450   5.518  23.709  0.3670  0.0542  0.1071
  173DPPC   C1A 2044  18.954   5.506  23.862 -0.1563  0.0834  0.0710
  173DPPC   C2A 2045  19.309   5.487  24.162  0.1210  0.1838 -0.3478
  173DPPC   C3A 2046  19.654   5.463  24.497  0.0523 -0.1187  0.0058
  173DPPC   C4A 2047  20.027   5.547  24.867 -0.0129  0.3032 -0.1597
  173DPPC   C1B 2048  18.576   5.333  24.015 -0.0309  0.0024  0.0759
  173DPPC   C2B 2049  18.888   5.396  24.335  0.0343  0.0829  0.2520
  173DPPC   C3B 2050  19.201   5.349  24.706 -0.0429 -0.1089 -0.0131
  173DPPC   C4B 2051  19.556   5.410  25.063  0.0968  0.0286  0.0434
  174DPPC   NC3 2052  17.649   0.928  24.265 -0.0789  0.3184  0.0093
  174DPPC   PO4 2053  17.678   0.547  24.162  0.0177 -0.1444 -0.1885
  174DPPC   GL1 2054  17.770   0.553  24.529 -0.0332 -0.1997 -0.2254
  174DPPC   GL2 2055  18.048   0.412  24.554  0.0189 -0.4268  0.1369
  174DPPC   C1A 2056  17.750   0.408  24.869 -0.0740 -0.4685 -0.0040
  174DPPC   C2A 2057  17.916   0.347  25.216  0.0902  0.1930  0.2370
  174DPPC   C3A 2058  18.253   0.256  25.566 -0.0120 -0.0278  0.1873
  174DPPC   C4A 2059  18.550   0.234  25.942  0.2146  0.0288  0.1381
  174DPPC   C1B 2060  18.220   0.340  24.841 -0.0945 -0.3350  0.6446
  174DPPC   C2B 2061  18.493   0.375  25.127 -0.1274 -0.0794  0.0415
  174DPPC   C3B 2062  18.870   0.369  25.477  0.0751  0.1439  0.0992
  174DPPC   C4B 2063  19.360   0.477  25.442  0.0859 -0.1985 -0.3561
  175DPPC   NC3 2064  17.673   1.409  23.894  0.1406 -0.1202 -0.2673
  175DPPC   PO4 2065  17.456   1.481  24.245  0.2198  0.0310  0.0075
  175DPPC   GL1 2066  17.813   1.287  24.459 -0.1676 -0.1635 -0.0177
  175DPPC   GL2 2067  18.021   1.372  24.330  0.2759  0.3895  0.4094
  175DPPC   C1A 2068  17.996   1.199  24.717  0.1389  0.0156  0.1911
  175DPPC   C2A 2069  18.274   1.206  25.005 -0.0692  0.0515  0.0256
  175DPPC   C3A 2070  18.563   1.228  25.338  0.2864  0.1595  0.0592
  175DPPC   C4A 2071  18.855   1.221  25.763  0.1934 -0.2934  0.2480
  175DPPC   C1B 2072  18.367   1.344  24.485 -0.0439 -0.0032 -0.3749
  175DPPC   C2B 2073  18.690   1.405  24.777  0.0831  0.2098  0.0020
  175DPPC   C3B 2074  18.969   1.297  25.129 -0.0080 -0.1150  0.0590
  175DPPC   C4B 2075  19.261   1.270  25.515  0.0234  0.0295 -0.0074
  176DPPA   PO4 2076  19.752   2.551  21.145  0.3289 -0.0670  0.1803
  176DPPA   GL1 2077  20.068   2.585  21.331 -0.1259  0.4190  0.0262
  176DPPA   GL2 2078  20.191   2.821  21.262 -0.0541  0.0084 -0.0565
  176DPPA   C1A 2079  20.380   2.396  21.473  0.0235 -0.0692  0.1153
  176DPPA   C2A 2080  20.755   2.388  21.637  0.0461 -0.0332  0.0684
  176DPPA   C3A 2081  20.996   2.385  21.949 -0.0305 -0.0660 -0.2012
  176DPPA   C4A 2082  21.326   2.421  22.370  0.0221 -0.1632  0.0759
  176DPPA   C1B 2083  20.582   2.896  21.281 -0.0555 -0.0433 -0.2352
  176DPPA   C2B 2084  20.862   2.898  21.499 -0.2878 -0.2311 -0.0040
  176DPPA   C3B 2085  21.138   2.920  21.872  0.4054 -0.1536  0.1765
  176DPPA   C4B 2086  21.460   2.947  22.286  0.1765  0.0676  0.0654
  177DPPA   PO4 2087  20.310   3.676  20.299 -0.0995  0.0960  0.2578
  177DPPA   GL1 2088  20.591   3.729  20.521  0.4289 -0.3256 -0.0056
  177DPPA   GL2 2089  20.609   4.037  20.569 -0.2390 -0.0184  0.1585
  177DPPA   C1A 2090  20.536   3.524  20.864 -0.1155 -0.2420 -0.0732
  177DPPA   C2A 2091  20.713   3.395  21.232  0.0996 -0.2795 -0.0498
  177DPPA   C3A 2092  21.033   3.356  21.552 -0.0619 -0.2237 -0.0656
  177DPPA   C4A 2093  21.349   3.482  21.942 -0.2247  0.2099 -0.1125
  177DPPA   C1B 2094  20.809   4.194  20.808  0.0029  0.6038  0.3060
  177DPPA   C2B 2095  20.928   4.456  21.042 -0.1520  0.3901  0.0906
  177DPPA   C3B 2096  21.298   4.386  21.364 -0.0452 -0.2850  0.0620
  177DPPA   C4B 2097  21.678   4.408  21.696  0.2612 -0.1444  0.0437
  178DPPA   PO4 2098  18.698   4.086  22.982  0.0954  0.0418  0.0323
  178DPPA   GL1 2099  19.086   4.041  23.012  0.1435 -0.1559  0.0844
  178DPPA   GL2 2100  19.019   3.906  23.279  0.4089 -0.1032  0.0713
  178DPPA   C1A 2101  19.450   3.935  22.993 -0.0224 -0.2759  0.0854
  178DPPA   C2A 2102  19.693   3.907  23.290  0.0104  0.4219  0.0702
  178DPPA   C3A 2103  20.015   3.853  23.655 -0.1007  0.0393  0.0901
  178DPPA   C4A 2104  20.310   3.778  23.975  0.0534  0.2314  0.1022
  178DPPA   C1B 2105  19.311   3.818  23.533 -0.2015  0.1857  0.0836
  178DPPA   C2B 2106  19.529   3.723  23.839 -0.0697 -0.1438  0.0808
  178DPPA   C3B 2107  19.876   3.751  24.223  0.1203 -0.1949 -0.2290
  178DPPA   C4B 2108  20.133   3.710  24.628 -0.0898  0.0163  0.0154
  179DPPA   PO4 2109  17.859   5.201  23.483 -0.2686  0.3905 -0.1233
  179DPPA   GL1 2110  18.085   5.214  23.797 -0.3422 -0.0820  0.0425
  179DPPA   GL2 2111  18.149   5.402  23.986  0.1884  0.1039  0.1482
  179DPPA   C1A 2112  18.203   4.947  24.030 -0.0111  0.0871  0.4748
  179DPPA   C2A 2113  18.540   4.916  24.259  0.0800 -0.1688 -0.0795
  179DPPA   C3A 2114  18.892   4.945  24.580  0.0497  0.1408  0.1261
  179DPPA   C4A 2115  19.249   4.932  24.960 -0.2227 -0.1516 -0.1899
  179DPPA   C1B 2116  18.254   5.370  24.316 -0.0725 -0.3821  0.1314
  179DPPA   C2B 2117  18.511   5.260  24.645  0.2799  0.2255 -0.2535
  179DPPA   C3B 2118  18.820   5.242  25.022 -0.1504 -0.0193  0.2334
  179DPPA   C4B 2119  19.177   5.272  25.377 -0.2340 -0.0319  0.1089
  180DPPA   PO4 2120  17.357   5.175  24.784 -0.0392  0.2847 -0.1614
  180DPPA   GL1 2121  17.756   5.407  24.797  0.1948  0.1439 -0.0356
  180DPPA   GL2 2122  17.907   5.201  24.729  0.2386  0.2202 -0.2190
  180DPPA   C1A 2123  17.846   5.610  25.111  0.2417  0.1219 -0.1132
  180DPPA   C2A 2124  18.099   5.577  25.471 -0.0428  0.0983 -0.0702
  180DPPA   C3A 2125  18.466   5.529  25.819  0.0990 -0.1291  0.1129
  180DPPA   C4A 2126  18.719   5.665  26.250 -0.0969  0.1205 -0.3959
  180DPPA   C1B 2127  18.105   5.249  25.046  0.0448 -0.0299 -0.1228
  180DPPA   C2B 2128  18.420   5.237  25.355  0.0336  0.2291  0.0398
  180DPPA   C3B 2129  18.775   5.173  25.728 -0.2751  0.0426 -0.2121
  180DPPA   C4B 2130  19.070   5.276  26.109 -0.1896 -0.0447 -0.1324
  181DPPA   PO4 2131  19.455   5.549  21.664 -0.0810  0.0073 -0.3965
  181DPPA   GL1 2132  19.726   5.274  21.636  0.1443  0.1141  0.1087
  181DPPA   GL2 2133  19.906   5.356  21.464  0.2286 -0.1626 -0.0622
  181DPPA   C1A 2134  19.892   5.036  21.901  0.1041 -0.0325  0.5091
  181DPPA   C2A 2135  20.049   4.677  22.099 -0.2403 -0.1623 -0.2446
  181DPPA   C3A 2136  20.393   4.546  22.474 -0.1292  0.1787 -0.0442
  181DPPA   C4A 2137  20.724   4.506  22.778 -0.0661  0.0661  0.4455
  181DPPA   C1B 2138  20.212   5.477  21.669 -0.0731  0.0307 -0.2551
  181DPPA   C2B 2139  20.366   5.695  22.002 -0.1087  0.1345  0.1166
  181DPPA   C3B 2140  20.746   5.501  22.282  0.2191  0.0898 -0.0771
  181DPPA   C4B 2141  21.081   5.446  22.594 -0.2691 -0.0676 -0.1155
  182DPPA   PO4 2142  17.346   2.819  24.738  0.1089  0.0462 -0.1145
  182DPPA   GL1 2143  17.463   2.921  25.135 -0.1971 -0.0721 -0.0086
  182DPPA   GL2 2144  17.792   2.963  24.965 -0.0267  0.1412  0.1916
  182DPPA   C1A 2145  17.623   2.921  25.457 -0.1580  0.0945 -0.0658
  182DPPA   C2A 2146  17.801   2.873  25.843  0.1068  0.0577 -0.0652
  182DPPA   C3A 2147  18.114   2.826  26.228 -0.0648  0.2611  0.0574
  182DPPA   C4A 2148  18.442   2.763  26.566 -0.0776  0.1228 -0.2372
  182DPPA   C1B 2149  18.061   2.961  25.232 -0.1001  0.2057 -0.2502
  182DPPA   C2B 2150  18.284   2.906  25.606 -0.1951  0.5446  0.0469
  182DPPA   C3B 2151  18.596   2.923  25.956 -0.2135 -0.2354 -0.1186
  182DPPA   C4B 2152  18.912   2.970  26.337  0.0944 -0.1737  0.2299
  183DPPA   PO4 2153  19.530   1.563  21.052  0.0623  0.3306  0.1421
  183DPPA   GL1 2154  19.783   1.660  21.322 -0.1080 -0.0193  0.1599
  183DPPA   GL2 2155  20.085   1.592  21.315 -0.1116 -0.3523  0.0516
  183DPPA   C1A 2156  19.919   1.706  21.690  0.1039  0.4240 -0.2147
  183DPPA   C2A 2157  20.154   1.760  22.014 -0.0966  0.0455 -0.0804
  183DPPA   C3A 2158  20.494   1.840  22.358  0.2921 -0.0966  0.1197
  183DPPA   C4A 2159  20.829   1.782  22.687  0.0458  0.1739 -0.0808
  183DPPA   C1B 2160  20.326   1.511  21.591 -0.3727  0.0594 -0.2268
  183DPPA   C2B 2161  20.536   1.428  21.966 -0.0965 -0.1703 -0.2360
  183DPPA   C3B 2162  20.880   1.420  22.329 -0.0829  0.0131 -0.0871
  183DPPA   C4B 2163  21.235   1.342  22.637 -0.2150 -0.0350 -0.1186
  184DPPA   PO4 2164  19.520   0.042  21.583  0.1275  0.0589  0.0494
  184DPPA   GL1 2165  19.795  -0.047  21.967  0.0698  0.0269 -0.2221
  184DPPA   GL2 2166  19.637  -0.269  22.071  0.1622  0.1049 -0.1037
  184DPPA   C1A 2167  20.020   0.058  22.243  0.4920  0.2065  0.0679
  184DPPA   C2A 2168  20.331   0.011  22.512 -0.0854 -0.0297 -0.1830
  184DPPA   C3A 2169  20.631   0.038  22.912 -0.2013 -0.2094  0.4314
  184DPPA   C4A 2170  20.995   0.059  23.303 -0.1602 -0.0378 -0.0361
  184DPPA   C1B 2171  19.873  -0.356  22.346  0.0320 -0.0519  0.1222
  184DPPA   C2B 2172  20.130  -0.401  22.654 -0.1760 -0.3990  0.0894
  184DPPA   C3B 2173  20.493  -0.382  22.993 -0.0210  0.1200 -0.2003
  184DPPA   C4B 2174  20.834  -0.380  23.404  0.2465 -0.3169  0.0718
  185DPPA   PO4 2175  17.910   3.926  23.678  0.1073  0.1617 -0.0671
  185DPPA   GL1 2176  18.325   3.770  23.825 -0.4353 -0.4703  0.0556
  185DPPA   GL2 2177  18.456   4.032  23.685  0.0780  0.0013  0.1949
  185DPPA   C1A 2178  18.383   3.737  24.215 -0.0499  0.0636  0.0030
  185DPPA   C2A 2179  18.677   3.630  24.476 -0.0411 -0.2714  0.1685
  185DPPA   C3A 2180  19.062   3.627  24.783 -0.0782 -0.0305  0.2164
  185DPPA   C4A 2181  19.301   3.614  25.197 -0.1663 -0.1872  0.0354
  185DPPA   C1B 2182  18.661   4.002  24.000 -0.0594 -0.0422  0.3880
  185DPPA   C2B 2183  18.939   4.049  24.374  0.0493 -0.0571  0.0792
  185DPPA   C3B 2184  19.258   4.134  24.715  0.0537  0.0473  0.0570
  185DPPA   C4B 2185  19.583   4.038  25.110 -0.0771  0.2773  0.1118
  186DPPA   PO4 2186  20.127   2.794  20.350  0.0107  0.0056 -0.1661
  186DPPA   GL1 2187  20.482   2.717  20.516 -0.0989  0.1603  0.1293
  186DPPA   GL2 2188  20.641   2.980  20.448 -0.0012  0.0188 -0.2045
  186DPPA   C1A 2189  20.560   2.750  20.834  0.1391 -0.0551 -0.2993
  186DPPA   C2A 2190  20.868   2.600  21.083  0.1910 -0.0456 -0.1115
  186DPPA   C3A 2191  21.198   2.521  21.485  0.1439 -0.0191  0.0158
  186DPPA   C4A 2192  21.473   2.502  21.882  0.0544 -0.2375  0.1615
  186DPPA   C1B 2193  20.776   3.144  20.802 -0.0571  0.0095  0.1265
  186DPPA   C2B 2194  21.060   3.056  21.077 -0.1575 -0.1565 -0.0160
  186DPPA   C3B 2195  21.381   3.040  21.462 -0.2274  0.1150  0.2053
  186DPPA   C4B 2196  21.644   3.085  21.862  0.0931  0.1144  0.2917
  187DPPA   PO4 2197  20.285   4.344  20.597  0.0430  0.3036  0.1925
  187DPPA   GL1 2198  20.376   4.050  20.993 -0.1260  0.0113  0.2515
  187DPPA   GL2 2199  20.362   4.268  21.134  0.2442  0.3429 -0.0586
  187DPPA   C1A 2200  20.597   3.878  21.163 -0.0424  0.1362  0.0875
  187DPPA   C2A 2201  20.981   3.882  21.260 -0.0283  0.1250  0.0365
  187DPPA   C3A 2202  21.309   3.904  21.623  0.1365  0.1734  0.0201
  187DPPA   C4A 2203  21.626   3.884  22.041 -0.0834 -0.0964 -0.0694
  187DPPA   C1B 2204  20.635   4.281  21.346  0.3479 -0.2287  0.1075
  187DPPA   C2B 2205  20.896   4.286  21.706 -0.0300  0.0949  0.4935
  187DPPA   C3B 2206  21.236   4.227  22.032  0.2747  0.0593 -0.1247
  187DPPA   C4B 2207  21.550   4.240  22.404  0.0575 -0.1444 -0.0355
  188DPPA   PO4 2208  18.319   5.965  23.674  0.3173 -0.1652  0.1350
  188DPPA   GL1 2209  18.653   6.146  23.596 -0.1495 -0.0054 -0.0580
  188DPPA   GL2 2210  18.662   6.413  23.454 -0.0549  0.0673 -0.2294
  188DPPA   C1A 2211  18.976   6.008  23.720  0.1658 -0.0804  0.0438
  188DPPA   C2A 2212  19.313   5.918  23.943 -0.0001  0.0314  0.4225
  188DPPA   C3A 2213  19.649   5.899  24.309 -0.1149  0.0227 -0.0278
  188DPPA   C4A 2214  20.042   5.969  24.628  0.0801  0.3668  0.2073
  188DPPA   C1B 2215  18.723   6.703  23.646  0.1207 -0.0378  0.2691
  188DPPA   C2B 2216  18.804   7.025  23.876  0.1506  0.2640 -0.0348
  188DPPA   C3B 2217  19.045   7.171  24.292  0.1328 -0.0154 -0.0680
  188DPPA   C4B 2218  19.443   7.187  24.566  0.2013 -0.1623  0.4298
  189DPPA   PO4 2219  20.837   1.842  19.895  0.2398 -0.2363  0.2124
  189DPPA   GL1 2220  21.139   1.759  20.172  0.0362  0.0682 -0.0039
  189DPPA   GL2 2221  21.045   1.642  20.428  0.1568  0.2417 -0.3138
  189DPPA   C1A 2222  21.486   1.827  20.273 -0.0190  0.0710 -0.1296
  189DPPA   C2A 2223  21.841   1.845  20.490  0.2688  0.4571 -0.1391
  189DPPA   C3A 2224  22.103   1.857  20.908  0.0871 -0.3242 -0.0492
  189DPPA   C4A 2225  22.469   1.746  21.291 -0.1999  0.0369  0.2019
  189DPPA   C1B 2226  21.272   1.654  20.701 -0.1644 -0.2054  0.1014
  189DPPA   C2B 2227  21.567   1.721  20.981 -0.3268 -0.3028 -0.2438
  189DPPA   C3B 2228  21.904   1.733  21.387 -0.0037  0.1235  0.2836
  189DPPA   C4B 2229  22.203   1.763  21.796 -0.0397 -0.0597 -0.0992
  190DPPA   PO4 2230  20.705   1.389  19.642 -0.0607 -0.0586 -0.0651
  190DPPA   GL1 2231  21.163   1.535  19.729  0.2005 -0.0706  0.0989
  190DPPA   GL2 2232  21.181   1.289  19.808  0.4272 -0.0856 -0.0533
  190DPPA   C1A 2233  21.434   1.772  19.816  0.0742 -0.0046  0.0969
  190DPPA   C2A 2234  21.795   1.900  19.973 -0.2879 -0.0238 -0.2158
  190DPPA   C3A 2235  22.213   1.929  20.144 -0.2744 -0.3145 -0.0662
  190DPPA   C4A 2236  22.529   1.957  20.499 -0.1742  0.4419  0.1075
  190DPPA   C1B 2237  21.458   1.366  20.127 -0.1501 -0.4109 -0.1698
  190DPPA   C2B 2238  21.642   1.357  20.490 -0.1034  0.0519 -0.0193
  190DPPA   C3B 2239  21.877   1.334  20.868 -0.0064 -0.0120 -0.2690
  190DPPA   C4B 2240  22.270   1.287  21.272 -0.1688 -0.3847 -0.0185
  191DPPA   PO4 2241  18.411   2.758  22.902  0.2322  0.2980  0.3757
  191DPPA   GL1 2242  18.754   2.902  23.062  0.0164 -0.0516  0.0460
  191DPPA   GL2 2243  18.691   2.895  23.296  0.0320 -0.1263  0.1079
  191DPPA   C1A 2244  19.073   3.031  23.105 -0.5040 -0.4149 -0.1282
  191DPPA   C2A 2245  19.418   3.002  23.287  0.2000  0.1464  0.0554
  191DPPA   C3A 2246  19.625   2.975  23.708  0.0879  0.2782  0.0373
  191DPPA   C4A 2247  19.955   2.921  24.044 -0.1304 -0.0862  0.0016
  191DPPA   C1B 2248  18.951   2.799  23.488 -0.3203  0.3391 -0.2592
  191DPPA   C2B 2249  19.209   2.805  23.805  0.0624 -0.0038 -0.0307
  191DPPA   C3B 2250  19.485   2.790  24.256  0.3016  0.0465  0.4756
  191DPPA   C4B 2251  19.763   2.721  24.686 -0.0909  0.1242  0.0728
  192DPPA   PO4 2252  18.070   0.464  23.455 -0.0654 -0.0761  0.2933
  192DPPA   GL1 2253  18.366   0.327  23.643  0.0376 -0.0471  0.2867
  192DPPA   GL2 2254  18.581   0.504  23.441 -0.2673  0.0555 -0.0400
  192DPPA   C1A 2255  18.409   0.201  24.017 -0.3418 -0.2427 -0.0412
  192DPPA   C2A 2256  18.745   0.066  24.252  0.2132 -0.0751  0.3447
  192DPPA   C3A 2257  19.066   0.098  24.577  0.0587  0.3734  0.1731
  192DPPA   C4A 2258  19.364   0.103  25.016  0.4830 -0.3533  0.2998
  192DPPA   C1B 2259  18.703   0.813  23.578  0.3633  0.1615 -0.3280
  192DPPA   C2B 2260  18.873   1.047  23.836  0.0857  0.0353  0.0474
  192DPPA   C3B 2261  19.242   0.979  24.186  0.3129 -0.2309  0.2151
  192DPPA   C4B 2262  19.561   1.052  24.615 -0.2032  0.2504 -0.1122
  193DPPA   PO4 2263  19.197   2.040  21.909  0.0889  0.0690 -0.1479
  193DPPA   GL1 2264  19.523   2.253  22.055  0.1050  0.0160 -0.1325
  193DPPA   GL2 2265  19.752   1.982  21.991  0.0164  0.3023  0.1004
  193DPPA   C1A 2266  19.547   2.325  22.410  0.0473 -0.0727  0.0526
  193DPPA   C2A 2267  19.742   2.174  22.769  0.1034 -0.1482  0.0648
  193DPPA   C3A 2268  20.053   2.128  23.194  0.1024  0.1130  0.1681
  193DPPA   C4A 2269  20.405   2.092  23.539  0.0767  0.0793 -0.2289
  193DPPA   C1B 2270  19.937   2.156  22.247 -0.1970 -0.1453 -0.0281
  193DPPA   C2B 2271  20.151   2.226  22.578  0.0325 -0.2800 -0.1198
  193DPPA   C3B 2272  20.470   2.199  22.843 -0.0103  0.1022 -0.1769
  193DPPA   C4B 2273  20.720   2.283  23.185  0.0212 -0.3560 -0.1720
  194DPPA   PO4 2274  19.389   4.105  21.770  0.0908  0.0628 -0.0121
  194DPPA   GL1 2275  19.489   4.024  22.137 -0.3515 -0.0208 -0.1852
  194DPPA   GL2 2276  19.329   3.788  22.114  0.0956  0.1116  0.1938
  194DPPA   C1A 2277  19.830   3.991  22.292  0.0688 -0.0909  0.2364
  194DPPA   C2A 2278  20.207   4.074  22.448  0.0776 -0.2829  0.0249
  194DPPA   C3A 2279  20.585   4.044  22.760  0.0753  0.1326 -0.2690
  194DPPA   C4A 2280  20.865   3.973  23.152  0.0577 -0.3897  0.1189
  194DPPA   C1B 2281  19.622   3.622  22.192 -0.1485  0.0904 -0.0193
  194DPPA   C2B 2282  19.981   3.596  22.355  0.0812 -0.0991 -0.0760
  194DPPA   C3B 2283  20.340   3.564  22.663  0.0742 -0.2403 -0.3096
  194DPPA   C4B 2284  20.607   3.486  23.076  0.0105  0.2410  0.3115
  195DPPA   PO4 2285  19.811   5.032  21.120 -0.1084 -0.1483 -0.0916
  195DPPA   GL1 2286  20.151   4.919  21.421  0.0581 -0.1412  0.2761
  195DPPA   GL2 2287  20.321   5.198  21.316  0.2390 -0.1652  0.4030
  195DPPA   C1A 2288  20.241   4.918  21.711  0.2102 -0.2224  0.0613
  195DPPA   C2A 2289  20.408   5.162  22.029  0.2343  0.0052 -0.1285
  195DPPA   C3A 2290  20.728   5.017  22.419 -0.0750 -0.2088 -0.3926
  195DPPA   C4A 2291  21.001   4.981  22.777 -0.2318  0.1137  0.1421
  195DPPA   C1B 2292  20.601   5.202  21.588 -0.0735 -0.0722 -0.3261
  195DPPA   C2B 2293  20.849   5.026  21.863 -0.2692 -0.1862 -0.0539
  195DPPA   C3B 2294  21.170   5.060  22.157 -0.1509  0.2288 -0.1277
  195DPPA   C4B 2295  21.480   5.018  22.568  0.0592  0.0082  0.2701
  196DPPA   PO4 2296  17.116   3.268  24.795  0.2454  0.1641  0.2924
  196DPPA   GL1 2297  17.447   3.405  25.015 -0.4486  0.3950 -0.3601
  196DPPA   GL2 2298  17.646   3.317  24.794 -0.0474  0.4044  0.1771
  196DPPA   C1A 2299  17.657   3.330  25.265 -0.0516 -0.3870  0.2570
  196DPPA   C2A 2300  17.849   3.291  25.605  0.1426  0.0528  0.2260
  196DPPA   C3A 2301  18.237   3.237  25.912  0.1004 -0.1518  0.1487
  196DPPA   C4A 2302  18.460   3.226  26.359 -0.0967 -0.0734 -0.0307
  196DPPA   C1B 2303  18.001   3.412  25.018  0.1926  0.0298  0.0726
  196DPPA   C2B 2304  18.259   3.405  25.322 -0.1604  0.3932 -0.0617
  196DPPA   C3B 2305  18.568   3.451  25.626 -0.1014 -0.2014 -0.0648
  196DPPA   C4B 2306  18.846   3.396  26.058 -0.2103 -0.2584 -0.0319
  197DPPA   PO4 2307  17.093   2.157  24.893 -0.0881 -0.2224 -0.1130
  197DPPA   GL1 2308  17.426   2.128  24.844  0.1194 -0.2098 -0.1348
  197DPPA   GL2 2309  17.545   2.500  24.992 -0.0828  0.1527  0.1687
  197DPPA   C1A 2310  17.597   1.969  25.109 -0.0604  0.3544  0.0947
  197DPPA   C2A 2311  17.678   1.994  25.525 -0.2807 -0.0466  0.3040
  197DPPA   C3A 2312  18.080   1.982  25.879  0.0148 -0.2326 -0.2258
  197DPPA   C4A 2313  18.436   2.009  26.281 -0.4038 -0.3926  0.1102
  197DPPA   C1B 2314  17.876   2.543  25.173  0.2345 -0.0875 -0.0522
  197DPPA   C2B 2315  18.289   2.550  25.246 -0.1802 -0.0231 -0.0877
  197DPPA   C3B 2316  18.625   2.486  25.513 -0.1958 -0.0973  0.1636
  197DPPA   C4B 2317  18.957   2.492  25.886 -0.0820 -0.3868  0.2240
  198DPPA   PO4 2318  20.795   0.593  19.475 -0.0086  0.0673 -0.0903
  198DPPA   GL1 2319  21.122   0.661  19.713  0.0075  0.0010  0.0036
  198DPPA   GL2 2320  21.165   0.463  19.912  0.2449 -0.1420 -0.0063
  198DPPA   C1A 2321  21.263   0.924  19.987 -0.0540  0.1222  0.1196
  198DPPA   C2A 2322  21.363   0.860  20.405  0.1368 -0.0276 -0.2652
  198DPPA   C3A 2323  21.717   0.874  20.716  0.1707 -0.2106  0.0895
  198DPPA   C4A 2324  21.968   0.908  21.121 -0.0866  0.0649 -0.1241
  198DPPA   C1B 2325  21.465   0.468  20.125  0.1729 -0.0561  0.0355
  198DPPA   C2B 2326  21.773   0.529  20.375 -0.0301 -0.1208  0.5054
  198DPPA   C3B 2327  22.125   0.579  20.725  0.1957  0.0851  0.2573
  198DPPA   C4B 2328  22.433   0.598  21.119 -0.3731 -0.0626  0.0104
  199DPPA   PO4 2329  19.238   1.317  21.365 -0.0747  0.2971  0.2562
  199DPPA   GL1 2330  19.417   1.201  21.751 -0.5822  0.1872  0.2694
  199DPPA   GL2 2331  19.713   1.378  21.633  0.1762 -0.4108 -0.3670
  199DPPA   C1A 2332  19.471   1.112  22.108  0.1270 -0.2923 -0.0053
  199DPPA   C2A 2333  19.655   1.199  22.467 -0.0807 -0.0527 -0.0018
  199DPPA   C3A 2334  19.930   1.259  22.887 -0.1125  0.0707 -0.2408
  199DPPA   C4A 2335  20.361   1.329  23.210 -0.2393  0.3291  0.1188
  199DPPA   C1B 2336  20.023   1.168  21.633 -0.0830 -0.2689 -0.0697
  199DPPA   C2B 2337  20.280   0.966  21.894 -0.1016  0.4332  0.0229
  199DPPA   C3B 2338  20.530   0.898  22.260 -0.0142 -0.0919 -0.0289
  199DPPA   C4B 2339  20.908   0.981  22.592  0.2447  0.0956 -0.0201
  200DPPA   PO4 2340   2.542   0.021  23.679 -0.2068 -0.2257 -0.1627
  200DPPA   GL1 2341   2.217   0.144  23.447  0.0910 -0.0116  0.3945
  200DPPA   GL2 2342   2.312   0.359  23.303 -0.0100  0.1287 -0.0257
  200DPPA   C1A 2343   2.070  -0.043  23.171  0.1294 -0.0035 -0.1633
  200DPPA   C2A 2344   1.869  -0.018  22.784  0.2569 -0.0114 -0.0919
  200DPPA   C3A 2345   1.579   0.000  22.369 -0.3048  0.1890 -0.0778
  200DPPA   C4A 2346   1.319  -0.039  21.999  0.0030 -0.0486  0.1658
  200DPPA   C1B 2347   2.070   0.413  23.002  0.1089 -0.3773 -0.0570
  200DPPA   C2B 2348   1.929   0.440  22.581  0.2109 -0.1040  0.0069
  200DPPA   C3B 2349   1.662   0.458  22.181  0.1018 -0.0673 -0.1587
  200DPPA   C4B 2350   1.306   0.452  21.850 -0.1409  0.1169  0.2533
  201W        W 2351  13.522   5.304  32.868  0.1768  0.1224  0.1420
  202W        W 2352   1.079   0.186  27.278  0.0530 -0.1770  0.2863
  203W        W 2353   8.484   1.727  35.713  0.0172  0.0648  0.0074
  204W        W 2354  21.146   3.825  29.448  0.4802 -0.0041 -0.1362
  205W        W 2355   8.319   1.201   7.522  0.1308  0.2631  0.0814
  206W        W 2356   4.401   1.530  26.988 -0.1313 -0.0793  0.2890
  207W        W 2357  16.398   2.334  17.998 -0.0215 -0.0420  0.0190
  208W        W 2358   3.238   5.115   9.472 -0.1209  0.0894  0.1355
  209W        W 2359   4.802   5.969  37.647  0.2990 -0.0378  0.1440
  210W        W 2360   4.877   1.073   2.425 -0.0339 -0.3999 -0.0325
  211W        W 2361  15.596   6.263  19.352  0.0728 -0.0849  0.1370
  212W        W 2362  18.302   5.824   3.253  0.0721 -0.1153 -0.0624
  213W        W 2363   3.487   0.736   6.494  0.3230  0.1406  0.0128
  214W        W 2364  11.900   6.257   0.469  0.0657 -0.0256 -0.1692
  215W        W 2365  20.637   6.004  18.782  0.1078 -0.1708  0.0396
  216W        W 2366  13.415   0.325  38.345 -0.0001  0.0509  0.1600
  217W        W 2367  10.402   3.494  27.711 -0.2945 -0.0134  0.0971
  218W        W 2368   1.223   1.341   3.969  0.0470 -0.1322 -0.0092
  219W        W 2369   9.467   4.132   7.394 -0.0447 -0.0464  0.1131
  220W        W 2370  11.334   1.065  16.441 -0.2006 -0.1340  0.0686
  221W        W 2371   0.275   0.432   8.979  0.0531  0.0004 -0.0165
  222W        W 2372   1.976   5.087  34.704  0.0244 -0.2068  0.0137
  223W        W 2373  16.206   4.749  11.293  0.0606 -0.0598  0.1665
  224W        W 2374   1.439   3.145  28.001  0.1483  0.3831  0.1099
  225W        W 2375   4.880   3.947   0.753  0.0976 -0.1669 -0.0173
  226W        W 2376   4.207   0.136  28.154 -0.3066  0.0052 -0.4779
  227W        W 2377   6.035   0.502  24.098  0.0220 -0.0822 -0.2702
  228W        W 2378   2.705   1.107   2.811 -0.2241  0.1183  0.1689
  229W        W 2379  14.426   0.604  10.155 -0.1384 -0.1522 -0.3716
  230W        W 2380  15.989   6.341  30.831  0.1717  0.0536 -0.0936
  231W        W 2381  11.795   3.908  32.636  0.3133 -0.3873 -0.1593
  232W        W 2382   9.885   3.796   1.472 -0.0199 -0.3036 -0.0882
  233W        W 2383  13.133   0.165  31.714 -0.0928  0.2119 -0.0331
  234W        W 2384  10.770   2.186  37.284  0.0675  0.1049 -0.1365
  235W        W 2385   9.240   1.652  44.030  0.0813 -0.1197 -0.0994
  236W        W 2386   6.466   0.913  28.497  0.0617 -0.0292 -0.1770
  237W        W 2387  19.686   5.901  14.384  0.2444 -0.1911 -0.0544
  238W        W 2388  13.461   2.532  36.713  0.0191 -0.0446  0.1642
  239W        W 2389   3.097   2.632  27.479  0.2025  0.0183 -0.0445
  240W        W 2390   0.580   3.338  16.719 -0.0810 -0.0387  0.0681
  241W        W 2391  12.036   5.358  36.985  0.1165 -0.0943  0.1136
  242W        W 2392  15.407   6.466  20.374  0.0875  0.0977 -0.0227
  243W        W 2393   2.828   5.037   1.423 -0.0626 -0.0074  0.0363
  244W        W 2394  13.823   0.431  14.102  0.3121  0.2344  0.0101
  245W        W 2395   7.944   4.896  34.111  0.2104  0.2166  0.1537
  246W        W 2396   7.336   3.281  24.233 -0.0648 -0.3069 -0.3440
  247W        W 2397  15.554   1.216  17.708 -0.3157  0.1784 -0.0277
  248W        W 2398   0.819   4.882   7.236  0.0771 -0.3829  0.3097
  249W        W 2399   6.219   4.793  38.565  0.0583  0.1845 -0.1669
  250W        W 2400  14.237   2.455  38.087  0.0417 -0.3298 -0.0625
  251W        W 2401  11.586   2.258   7.263 -0.0293 -0.0358 -0.1311
  252W        W 2402   3.917   1.957  34.636 -0.0525 -0.2155  0.2406
  253W        W 2403  15.743   5.497  41.242  0.0526 -0.2567  0.2088
  254W        W 2404   1.531   0.593  26.196  0.2704 -0.0662  0.0747
  255W        W 2405  15.120   0.031  17.160 -0.0947  0.1188 -0.2931
  256W        W 2406   5.036   3.090  31.616 -0.0269  0.0656  0.1343
  257W        W 2407  20.047   5.231  43.831 -0.2085 -0.0196 -0.2392
  258W        W 2408   6.582   2.339  23.926  0.0911  0.2692  0.0379
  259W        W 2409  10.686   2.377  18.108 -0.0307  0.2044  0.1927
  260W        W 2410   8.243   4.833  28.365 -0.1921 -0.1996 -0.1021
  261W        W 2411   8.268   2.736   1.822 -0.0834 -0.1660  0.0865
  262W        W 2412  14.102   5.538  33.859  0.5776  0.0358  0.0430
  263W        W 2413   8.492   5.609  41.372  0.2247 -0.1835 -0.0070
  264W        W 2414   1.883   1.024  14.254  0.3523 -0.1250  0.0131
  265W        W 2415  18.891   4.526   3.523 -0.0741  0.2625  0.1921
  266W        W 2416  13.632   5.163  14.998 -0.1383  0.0085  0.1397
  267W        W 2417  11.069   0.407  11.000 -0.0526  0.0209 -0.4131
  268W        W 2418   8.851   0.482  34.012  0.0312 -0.0327  0.1750
  269W        W 2419  19.861   0.631   5.998 -0.1801 -0.2110  0.2470
  270W        W 2420   8.206   4.500  26.969 -0.3880  0.1729 -0.2244
  271W        W 2421  10.933   0.443  27.323 -0.0310  0.2670  0.0997
  272W        W 2422  13.478   2.270  27.985  0.1755 -0.2256 -0.0533
  273W        W 2423  16.192   5.677  10.857  0.1031 -0.2590 -0.0415
  274W        W 2424   4.079   3.712  30.856  0.2563  0.1125  0.0394
  275W        W 2425  10.476   5.007  31.939 -0.0349 -0.1742 -0.1922
  276W        W 2426  15.736   6.099  12.347 -0.0044  0.3034  0.3095
  277W        W 2427   4.385   2.363   7.520 -0.2268  0.2193 -0.0368
  278W        W 2428  14.433   3.578  35.720 -0.2579  0.0356 -0.0056
  279W        W 2429   4.195   1.759  37.664  0.0890 -0.4446 -0.4558
  280W        W 2430   5.173   4.204  28.563  0.0810  0.0661 -0.1600
  281W        W 2431   9.096   5.430   6.728  0.0928  0.1560 -0.2467
  282W        W 2432  15.817   2.887   5.640 -0.0127 -0.0156 -0.0122
  283W        W 2433   5.145   4.008  43.410 -0.0298  0.2814 -0.0840
  284W        W 2434   1.525   4.796  12.299 -0.0582  0.2253 -0.2699
  285W        W 2435   5.357   1.045  25.478  0.0614 -0.2009  0.0426
  286W        W 2436   4.257   5.510  32.347 -0.1186 -0.0159  0.2187
  287W        W 2437  12.712   2.899   7.679 -0.0404 -0.0979 -0.3347
  288W        W 2438   2.851   5.708  40.956  0.2614  0.1143 -0.0065
  289W        W 2439  17.534   0.713  20.542  0.0120 -0.1881  0.0678
  290W        W 2440  17.530   4.094  41.317 -0.2032 -0.0425 -0.1369
  291W        W 2441   7.589   0.120  33.408 -0.0569 -0.0514 -0.0055
  292W        W 2442   7.629   4.649  15.288  0.1336 -0.1354 -0.2560
  293W        W 2443   8.491   5.179  35.011  0.0250  0.1634 -0.1740
  294W        W 2444   1.412   2.790  11.716 -0.0661 -0.0125 -0.1700
  295W        W 2445  15.146   4.817  13.027 -0.0307  0.1317  0.0317
  296W        W 2446  10.192   1.755  27.479 -0.0469 -0.1183 -0.1153
  297W        W 2447  11.304   4.532  35.496 -0.0863  0.0462 -0.0967
  298W        W 2448  20.507   2.632  38.513  0.2585 -0.2168 -0.3224
  299W        W 2449   7.517   0.528  30.727 -0.0930  0.0348 -0.2930
  300W        W 2450  20.403   1.836  40.598  0.0965  0.0722 -0.3306
  301W        W 2451  15.237   0.003  10.686  0.0528  0.0644  0.0968
  302W        W 2452  13.753   4.155   8.826  0.2066 -0.1046 -0.1841
  303W        W 2453   4.812   0.047  24.459 -0.3083 -0.2898  0.1305
  304W        W 2454  11.636   3.320  31.985 -0.1725  0.1248 -0.2722
  305W        W 2455   1.736   0.992   8.294 -0.3315  0.0969  0.2861
  306W        W 2456  17.417   2.630   1.019 -0.0994  0.0546  0.0410
  307W        W 2457  11.807   1.763  29.261  0.1116 -0.0035  0.0891
  308W        W 2458  13.427   0.917  14.822 -0.1795  0.0928 -0.0568
  309W        W 2459  17.658   2.150  13.855  0.0296  0.0531  0.1462
  310W        W 2460   1.730   3.056  40.014  0.1897 -0.1830 -0.1289
  311W        W 2461  16.089   4.949   9.257  0.2598  0.0271  0.3435
  312W        W 2462  12.343   5.495  17.157 -0.0095  0.1583  0.0273
  313W        W 2463   9.417   5.560  10.444 -0.1195 -0.1671  0.2868
  314W        W 2464  13.031   2.160   2.698  0.1892 -0.1869 -0.0304
  315W        W 2465   3.188   0.174  23.571  0.2326  0.0688 -0.1775
  316W        W 2466   7.428   5.059  26.739 -0.1538 -0.2473 -0.1910
  317W        W 2467  13.897   3.277   3.021  0.2002  0.1187 -0.0373
  318W        W 2468   4.871   5.298  12.071 -0.2087  0.0949  0.2470
  319W        W 2469  11.283   2.588   1.512 -0.0061 -0.0826  0.1775
  320W        W 2470  16.419   0.968  37.772 -0.2492 -0.2671 -0.1036
  321W        W 2471   6.285   3.391  31.235  0.0060  0.0615 -0.1700
  322W        W 2472  19.798   6.165   8.133 -0.1839 -0.3714  0.0593
  323W        W 2473   3.837   4.182  15.847 -0.1058 -0.1130  0.0858
  324W        W 2474  19.799   6.068  20.247  0.3209 -0.1340 -0.0200
  325W        W 2475   9.082   5.288  17.239 -0.0080 -0.2160  0.3085
  326W        W 2476  15.636   4.504  31.304 -0.2287 -0.1164 -0.0194
  327W        W 2477   7.126   6.489  34.617 -0.1469 -0.1433 -0.0788
  328W        W 2478  18.295   0.358   4.343  0.1695 -0.1625 -0.1387
  329W        W 2479   8.267   0.384  14.935 -0.0082  0.1087  0.0093
  330W        W 2480   5.778   4.925  40.783 -0.1267  0.2947 -0.0995
  331W        W 2481  11.043   1.764  37.405  0.1808  0.0587  0.3104
  332W        W 2482   4.024   2.925  31.177  0.0070  0.0306  0.1341
  333W        W 2483   3.585   4.961  37.919  0.1387  0.1398 -0.1220
  334W        W 2484  13.579   0.390  14.660  0.0267 -0.1074 -0.0424
  335W        W 2485  13.512   0.343  44.099 -0.1610 -0.1858  0.1002
  336W        W 2486   0.861   5.118  16.534  0.1203 -0.1968  0.0623
  337W        W 2487  15.231   2.176  10.494 -0.0651  0.1241  0.4275
  338W        W 2488   0.810   1.269  43.518 -0.0272 -0.2825  0.1507
  339W        W 2489   3.580   5.185  26.656  0.0481  0.1799 -0.1454
  340W        W 2490  11.445   6.286  43.394  0.1053 -0.2291 -0.0629
  341W        W 2491  14.262   1.147  31.458 -0.4081 -0.0682 -0.0250
  342W        W 2492  18.906   5.234  37.398 -0.1184  0.2074  0.0546
  343W        W 2493  15.022   5.673   7.161 -0.1919  0.0092 -0.2328
  344W        W 2494   6.499   0.709  12.009 -0.3023  0.0590  0.0150
  345W        W 2495   1.510   3.904  26.982 -0.3175  0.0162 -0.1504
  346W        W 2496  10.027   0.160  37.515  0.0680 -0.1408  0.1483
  347W        W 2497  17.000   0.922   8.263  0.4071 -0.0342 -0.0919
  348W        W 2498  16.134   5.989  26.119 -0.0686  0.0004 -0.0268
  349W        W 2499   7.201   0.854  13.400  0.3097  0.1998 -0.0523
  350W        W 2500   2.155   3.389  27.174 -0.0719  0.0242 -0.0762
  351W        W 2501  18.597   5.649  20.854 -0.0534 -0.5001  0.2556
  352W        W 2502   9.861   5.766  42.410  0.1246 -0.0935  0.0020
  353W        W 2503  10.336   1.173   8.872  0.1178  0.2650 -0.0202
  354W        W 2504  19.960   2.459  44.141  0.1068 -0.1460  0.0640
  355W        W 2505   4.156   3.140  37.943  0.0395 -0.2562 -0.0167
  356W        W 2506   1.464   0.719  41.828  0.1205  0.1547 -0.3533
  357W        W 2507   1.627   1.844   8.460  0.3243 -0.0058 -0.1226
  358W        W 2508  16.177   4.756  20.822  0.2601 -0.1200 -0.2856
  359W        W 2509   4.669   1.253   7.998 -0.1409  0.1458  0.2467
  360W        W 2510   3.208   0.022   6.484  0.2411  0.2532  0.1012
  361W        W 2511  19.299   6.373  12.427 -0.2920  0.2233 -0.0299
  362W        W 2512  15.078   3.244   0.630  0.1911  0.0399  0.0438
  363W        W 2513   0.847   3.923  38.772  0.1343  0.0484  0.0817
  364W        W 2514  19.186   5.527  45.058  0.0900 -0.0474 -0.4055
  365W        W 2515   5.290   0.117   5.260 -0.0370  0.0110 -0.3108
  366W        W 2516   5.542   3.259  20.509 -0.3311 -0.1730  0.2043
  367W        W 2517  11.327   5.196  40.430  0.0224 -0.3184  0.0945
  368W        W 2518   3.373   1.751  26.043  0.1866  0.0350  0.1590
  369W        W 2519   8.324   6.563  36.460 -0.0332 -0.2930  0.0784
  370W        W 2520   1.871   0.185  12.734 -0.0376  0.1028 -0.0883
  371W        W 2521   3.412   1.722  13.484  0.1736 -0.1898 -0.1264
  372W        W 2522  16.179   1.096  21.338  0.1589  0.2858  0.1667
  373W        W 2523  13.197   0.668  44.370  0.1497 -0.0882  0.0397
  374W        W 2524   7.002   2.747   4.836 -0.3575 -0.0870 -0.0975
  375W        W 2525   5.775   4.564  38.728  0.0006  0.1241  0.3420
  376W        W 2526   0.639   1.412   4.934  0.3175 -0.1808 -0.0980
  377W        W 2527  19.878   5.684  10.837 -0.0698 -0.1561 -0.0784
  378W        W 2528  16.750   4.969   8.612  0.5005  0.0943 -0.0678
  379W        W 2529  16.200   2.230  16.749 -0.1761 -0.0645  0.4444
  380W        W 2530   2.467   5.276  15.785  0.1056 -0.1302 -0.2489
  381W        W 2531  16.234   1.247  15.740 -0.1104 -0.1389 -0.0466
  382W        W 2532  20.070   6.072  10.513 -0.0259 -0.1029 -0.0905
  383W        W 2533  15.816   0.032  30.476  0.3459 -0.0654  0.1353
  384W        W 2534  10.945   0.638  17.222 -0.0472  0.2509  0.0081
  385W        W 2535   1.206   3.264  15.174  0.2536 -0.0933 -0.0664
  386W        W 2536   4.744   6.448  29.961  0.2012 -0.0740  0.3532
  387W        W 2537   5.579   2.537  42.824  0.1846  0.1879  0.2163
  388W        W 2538   9.876   0.346  40.595 -0.0016 -0.0400  0.1833
  389W        W 2539  11.380   6.325  17.398  0.0578 -0.0132  0.0432
  390W        W 2540   4.244   5.844  11.267 -0.0851  0.1073  0.1342
  391W        W 2541  19.676   2.930  44.772  0.3181  0.1428 -0.5038
  392W        W 2542   5.064   1.452  27.912  0.1297  0.1691 -0.1725
  393W        W 2543   2.744   0.175   2.544 -0.1931 -0.0623  0.1800
  394W        W 2544  20.514   2.397   6.994  0.0801 -0.0770 -0.0017
  395W        W 2545   2.066   2.148  15.852  0.0378 -0.1153  0.4249
  396W        W 2546  11.132   6.293  41.615  0.1507  0.1745 -0.1553
  397W        W 2547  15.262   2.028  20.166  0.4343 -0.2199 -0.0952
  398W        W 2548  11.107   3.455  43.278 -0.2141  0.0759 -0.1446
  399W        W 2549   5.366   0.210  28.356 -0.0778  0.2535 -0.0105
  400W        W 2550  19.869   3.431  39.133 -0.4278 -0.4216 -0.0389
  401W        W 2551   2.484   1.865   0.015  0.0509  0.1445  0.2566
  402W        W 2552   7.643   6.537  12.401  0.0396 -0.3417  0.2065
  403W        W 2553   5.273   4.465   3.994  0.0116  0.2147  0.1282
  404W        W 2554  12.556   2.357  40.620 -0.2583 -0.1062  0.1604
  405W        W 2555   8.884   2.341   3.895 -0.1194 -0.0807 -0.0929
  406W        W 2556  11.516   2.735  28.354  0.4098  0.0312 -0.1216
  407W        W 2557   6.758   0.201  32.800 -0.1722  0.0850  0.1857
  408W        W 2558   4.481   2.021   6.688  0.0757 -0.0347 -0.2379
  409W        W 2559   8.691   0.636  26.130 -0.0126 -0.2200  0.0636
  410W        W 2560   6.168   3.473  42.483  0.3409  0.3661  0.1524
  411W        W 2561   0.245   6.140  36.925  0.1739  0.3033  0.1433
  412W        W 2562   3.163   1.512  33.395 -0.0538  0.0034  0.0550
  413W        W 2563  15.256   5.342  32.992 -0.2893  0.1734  0.1348
  414W        W 2564  16.105   2.064  22.484  0.0139 -0.2916  0.0905
  415W        W 2565   2.928   3.971  30.373  0.1257  0.1742 -0.1565
  416W        W 2566  20.305   4.294  32.056  0.1476 -0.2686 -0.1179
  417W        W 2567  17.563   5.795  18.247  0.1393 -0.3300  0.3745
  418W        W 2568  15.052   4.314  10.537  0.0784  0.0641  0.1384
  419W        W 2569   4.297   2.362   0.581 -0.0236 -0.1547  0.0343
  420W        W 2570  12.094   0.902  10.217 -0.1164  0.1528 -0.2948
  421W        W 2571  20.720   3.830  28.146 -0.3038 -0.0011 -0.3278
  422W        W 2572  18.171   2.663  42.141  0.0758  0.0459  0.2477
  423W        W 2573  17.070   2.709   9.243 -0.0940  0.0665 -0.1527
  424W        W 2574  20.913   3.874  29.895 -0.4217 -0.1554  0.2056
  425W        W 2575  10.862   3.469   1.716 -0.0413  0.2207 -0.0003
  426W        W 2576   9.533   1.391   1.293 -0.2715 -0.4422 -0.2183
  427W        W 2577  10.612   5.958  28.972 -0.0526  0.3960  0.1791
  428W        W 2578  21.116   5.291   9.870  0.1039 -0.0604 -0.2139
  429W        W 2579  15.281   1.185  18.714 -0.0210 -0.1630  0.1122
  430W        W 2580  15.882   4.575  19.480  0.0407  0.1175  0.2125
  431W        W 2581  18.483   2.539  35.385  0.0666 -0.0698  0.0119
  432W        W 2582   9.918   4.025   5.758 -0.0214  0.2749 -0.1630
  433W        W 2583  20.930   4.740  10.846 -0.0594 -0.3518 -0.0413
  434W        W 2584  12.748   1.411  11.022 -0.3625 -0.0976  0.0135
  435W        W 2585   1.620   4.250  14.018  0.2116 -0.2347  0.0477
  436W        W 2586   9.243   5.350  32.244 -0.1702  0.0772 -0.1052
  437W        W 2587  18.025   2.817  11.773 -0.1419 -0.1488 -0.1737
  438W        W 2588  16.736   6.430  21.363  0.1203 -0.0938  0.1875
  439W        W 2589   6.685   5.999   8.695  0.1747  0.1528 -0.1767
  440W        W 2590   7.416   1.159  29.469  0.2378 -0.0317 -0.0431
  441W        W 2591  15.021   5.288  12.931  0.0316 -0.0291 -0.2827
  442W        W 2592   4.205   6.198  11.785  0.1776  0.3367  0.2407
  443W        W 2593   2.550   0.430  14.825  0.2523 -0.0254  0.2022
  444W        W 2594  20.050   0.764  37.217 -0.1052 -0.0141 -0.1180
  445W        W 2595   1.655   0.945  11.303 -0.1839  0.0312  0.1514
  446W        W 2596   3.592   3.142  40.932 -0.1713  0.1736 -0.0452
  447W        W 2597  11.610   5.998  11.627 -0.2053  0.2009  0.0100
  448W        W 2598   4.008   1.214  25.710 -0.0364 -0.0441  0.3358
  449W        W 2599   2.830   2.434  32.857 -0.3672 -0.4936 -0.1741
  450W        W 2600  17.107   3.525  18.809  0.1883  0.0777 -0.0528
  451W        W 2601  11.428   5.256   0.157  0.0836  0.0113  0.0831
  452W        W 2602   9.429   3.906  15.308 -0.1889 -0.1747 -0.1581
  453W        W 2603   4.128   6.054  31.352 -0.0748 -0.0177  0.3590
  454W        W 2604  20.633   4.128  39.231 -0.3138 -0.0767 -0.1351
  455W        W 2605   4.991   6.146  29.019  0.1773 -0.3045 -0.2864
  456W        W 2606  16.104   0.501  30.770  0.0842 -0.1680  0.2324
  457W        W 2607  17.874   4.961  16.636 -0.1552  0.0887 -0.0123
  458W        W 2608   4.213   3.871  14.992  0.0090  0.0346  0.2364
  459W        W 2609   5.647   6.045   7.962 -0.1304  0.0447  0.2130
  460W        W 2610  18.376   4.437  19.769  0.3077 -0.0756  0.1372
  461W        W 2611  18.072   6.206   0.578  0.1455 -0.3100 -0.2057
  462W        W 2612  14.546   0.321  18.871 -0.3123 -0.1787 -0.1214
  463W        W 2613  20.129   2.315  32.785 -0.2696 -0.1843 -0.1656
  464W        W 2614   7.920   6.486   2.497 -0.1726  0.1933 -0.0409
  465W        W 2615   6.785   0.171  41.480 -0.0890 -0.0783  0.0273
  466W        W 2616  13.128   4.941   8.443  0.1621 -0.1253  0.2813
  467W        W 2617  18.335   5.995  37.982  0.0478  0.0117  0.2619
  468W        W 2618  12.860   3.684   7.875  0.1565 -0.1972  0.2793
  469W        W 2619   1.553   2.966   1.394  0.1438  0.1487 -0.0775
  470W        W 2620   1.547   4.629   2.519 -0.0036  0.0075 -0.2276
  471W        W 2621  11.192   3.058  38.079  0.2908 -0.0110  0.2695
  472W        W 2622   0.676   4.252  14.275 -0.0897  0.0042 -0.1856
  473W        W 2623  17.856   1.916  38.295 -0.2082 -0.0127 -0.2109
  474W        W 2624   5.887   5.172   6.762 -0.0906  0.3544  0.0204
  475W        W 2625  18.553   5.187   9.645 -0.2691 -0.2893  0.2674
  476W        W 2626  16.880   4.607  44.577 -0.0126  0.2234 -0.0746
  477W        W 2627  10.559   3.387  41.222 -0.0255  0.0756  0.0441
  478W        W 2628  14.028   0.641  38.776  0.0861 -0.1356  0.1156
  479W        W 2629   6.076   5.064  43.657 -0.2153  0.0328 -0.4084
  480W        W 2630  17.945   1.985  40.851 -0.0162 -0.0336  0.2344
  481W        W 2631   0.017   2.254   9.310  0.2102 -0.0801 -0.1569
  482W        W 2632   1.375   3.972   8.853  0.0055  0.2945 -0.3255
  483W        W 2633   9.451   4.069   5.614  0.1291  0.1897 -0.0392
  484W        W 2634   1.648   2.564   6.462 -0.0019  0.2229  0.2168
  485W        W 2635   7.714   5.898  39.243  0.0488  0.1134 -0.4738
  486W        W 2636  19.615   0.171  31.395 -0.1845  0.0323 -0.0692
  487W        W 2637   0.172   5.488  41.908 -0.1896 -0.1558 -0.1030
  488W        W 2638   4.611   3.402  10.003  0.1114 -0.1585  0.1001
  489W        W 2639  12.739   0.596  34.285  0.1372 -0.0630  0.0877
  490W        W 2640  12.634   1.472   0.716  0.0263 -0.0950 -0.1488
  491W        W 2641   4.283   2.848  25.094 -0.1083 -0.0291 -0.0464
  492W        W 2642  15.791   1.091  32.013 -0.0161  0.0330  0.0794
  493W        W 2643   3.526   4.326  36.665 -0.1345  0.1241  0.2388
  494W        W 2644   5.145   3.130  37.791 -0.2826 -0.0615 -0.2390
  495W        W 2645  10.910   4.416  41.450 -0.1446 -0.0095  0.3528
  496W        W 2646   1.278   2.704   7.827 -0.3938 -0.2222  0.0936
  497W        W 2647  17.596   4.601   2.443  0.1778 -0.1690 -0.1410
  498W        W 2648  13.710   0.665  15.345 -0.0651  0.0604 -0.1950
  499W        W 2649  16.624   0.232   2.942  0.0072 -0.1774 -0.3266
  500W        W 2650  18.102   2.021  16.091  0.1490 -0.3204  0.2291
  501W        W 2651   5.795   3.379  24.857 -0.0230  0.0405 -0.0790
  502W        W 2652   3.713   2.380  23.365  0.2010  0.0638  0.0249
  503W        W 2653   6.463   1.279  10.036  0.1785 -0.2531 -0.1567
  504W        W 2654   1.195   6.242  13.678 -0.3287 -0.3562  0.1492
  505W        W 2655  12.225   0.049   7.433  0.1789  0.2481  0.1368
  506W        W 2656  17.876   2.164  12.764 -0.2435 -0.0300 -0.0981
  507W        W 2657   2.165   6.507   3.242 -0.0276  0.3112  0.0397
  508W        W 2658   2.740   2.576  11.015  0.1115  0.1365 -0.0944
  509W        W 2659  16.696   0.155  15.438 -0.0924 -0.0193 -0.1899
  510W        W 2660   2.632   0.550  26.954  0.2880  0.4177 -0.2296
  511W        W 2661   6.612   6.141   0.496  0.1557 -0.3486  0.0868
  512W        W 2662   8.813   5.413  12.233  0.0966  0.3614  0.0648
  513W        W 2663   4.176   2.581  30.444  0.0985  0.0282 -0.0834
  514W        W 2664   0.022   2.752   3.358  0.1334  0.1449 -0.0771
  515W        W 2665  12.916   4.792  44.920  0.0372  0.1790 -0.0515
  516W        W 2666  17.826   5.376   3.970  0.0890  0.0934  0.2265
  517W        W 2667   4.329   0.082  44.673 -0.0154 -0.2355 -0.2937
  518W        W 2668  15.949   5.564  31.799 -0.1685 -0.0922 -0.1358
  519W        W 2669  20.504   3.038  40.507 -0.2092 -0.1573 -0.2767
  520W        W 2670   7.025   3.714   3.657 -0.0671 -0.2615 -0.0513
  521W        W 2671  13.752   3.884  12.891 -0.2288  0.2426  0.0970
  522W        W 2672  20.882   6.013  38.157  0.0318 -0.2163 -0.0404
  523W        W 2673  13.858   6.031  33.747  0.0305 -0.0029  0.3946
  524W        W 2674  18.752   5.927  35.277 -0.1815 -0.0948  0.1380
  525W        W 2675   5.998   0.228  42.933 -0.2439  0.0406 -0.3900
  526W        W 2676   5.294   2.955  14.338  0.0972  0.0269 -0.0475
  527W        W 2677  16.564   4.779  25.229  0.1222  0.1966 -0.2685
  528W        W 2678   2.597   1.725  15.051 -0.0412 -0.2615 -0.2049
  529W        W 2679  17.766   4.837  36.406 -0.1727 -0.4495  0.1826
  530W        W 2680  11.377   6.568  40.915 -0.3015 -0.1513 -0.2216
  531W        W 2681  10.706   2.419  10.686 -0.1473 -0.1878  0.0473
  532W        W 2682   7.193   0.774  32.272 -0.0885 -0.1823  0.2624
  533W        W 2683  20.638   3.509  39.071  0.1091 -0.1958  0.1077
  534W        W 2684   9.420   4.245  42.955  0.0461 -0.0543 -0.1529
  535W        W 2685  20.063   6.134   7.594  0.2910 -0.1646  0.0814
  536W        W 2686  15.672   2.271   0.428 -0.0376 -0.0296 -0.1243
  537W        W 2687  12.686   0.392  36.616  0.0112 -0.2394 -0.2153
  538W        W 2688  16.276   1.112  22.585  0.0336 -0.0307  0.1593
  539W        W 2689   3.794   1.685  31.336  0.0556  0.0875  0.1055
  540W        W 2690  12.961   3.068  14.914  0.2168 -0.2072  0.0612
  541W        W 2691   5.073   2.663  12.862  0.0900 -0.1750 -0.1383
  542W        W 2692  19.489   4.527  14.222  0.2843 -0.1992  0.0253
  543W        W 2693  10.008   0.873  36.626 -0.0101  0.1640 -0.0823
  544W        W 2694  10.111   1.406  41.833  0.1515 -0.0186  0.1221
  545W        W 2695   1.828   0.365  42.022  0.0874  0.1103 -0.1545
  546W        W 2696   5.874   3.118  39.874 -0.3566 -0.2397  0.0290
  547W        W 2697   3.612   3.561   5.587 -0.0624 -0.0529 -0.3263
  548W        W 2698  11.142   1.450   0.985  0.1122  0.0697 -0.0752
  549W        W 2699  20.067   5.172  34.371  0.3596  0.0262  0.0935
  550W        W 2700  18.140   0.298  11.871 -0.0600  0.1364 -0.1912
  551W        W 2701  19.943   0.218  16.785  0.0889  0.1609  0.0700
  552W        W 2702  13.978   3.666  30.376  0.0298 -0.1085 -0.0959
  553W        W 2703   8.037   2.537   7.613  0.0036  0.0072 -0.2203
  554W        W 2704   9.855   4.537  44.861  0.0302 -0.2251  0.2844
  555W        W 2705  11.924   5.723   3.875  0.2437  0.1500 -0.1078
  556W        W 2706  20.255   6.583  11.575  0.1202 -0.1005 -0.0407
  557W        W 2707   3.994   0.033  24.704  0.1493  0.1193  0.1882
  558W        W 2708   8.382   4.269  16.498  0.0147  0.2196 -0.0377
  559W        W 2709  20.698   2.454   5.617  0.0365  0.1022 -0.0120
  560W        W 2710  18.739   5.704  42.227  0.0714 -0.2321  0.0072
  561W        W 2711   8.416   2.325  11.454  0.2709 -0.0770 -0.1120
  562W        W 2712   3.223   1.983  37.313  0.2059 -0.2149 -0.0734
  563W        W 2713  11.367   2.624   6.390 -0.0398 -0.2975  0.0179
  564W        W 2714  17.158   6.440  44.664 -0.2104  0.0896 -0.1201
  565W        W 2715  17.299   1.101   4.882 -0.1732  0.2876  0.0438
  566W        W 2716  19.324   4.618   7.352  0.1530 -0.0263 -0.0863
  567W        W 2717  20.283   0.821  36.240 -0.3047 -0.1107  0.0312
  568W        W 2718  11.987   2.083   8.548 -0.2051 -0.1824  0.1756
  569W        W 2719   5.815   5.302   3.304 -0.4462  0.0142 -0.1902
  570W        W 2720   1.105   0.047  26.030 -0.0746  0.2571 -0.1694
  571W        W 2721  16.654   2.257  18.475 -0.0875  0.1836 -0.0754
  572W        W 2722   8.792   5.559  44.877  0.0816 -0.0687 -0.0290
  573W        W 2723  10.551   3.153  44.849  0.0539  0.0035  0.0517
  574W        W 2724   4.686   3.629  29.073 -0.0330 -0.0860 -0.0278
  575W        W 2725  16.708   1.931  35.317  0.0852 -0.5198 -0.0409
  576W        W 2726   7.333   0.586  23.585 -0.0741  0.0309 -0.2479
  577W        W 2727  15.936   0.335  32.820  0.1424  0.2445  0.4079
  578W        W 2728  11.962   2.366  43.682 -0.0692 -0.2291  0.3341
  579W        W 2729   5.106   1.802  13.460  0.0210  0.4805 -0.1187
  580W        W 2730  17.887   1.502  22.690 -0.0711 -0.0576  0.0982
  581W        W 2731   3.510   2.865  14.488  0.1094 -0.0319 -0.0497
  582W        W 2732  16.978   2.320  30.399 -0.0293  0.2127  0.0519
  583W        W 2733  10.401   2.881  28.992  0.0596  0.3361  0.2431
  584W        W 2734  14.232   5.598  35.038  0.0921  0.3358  0.0855
  585W        W 2735  11.524   3.824  34.265 -0.1323 -0.2350 -0.0713
  586W        W 2736  11.603   6.274   0.074 -0.2432 -0.1667 -0.0424
  587W        W 2737  20.709   2.434   2.462 -0.1271 -0.0580  0.2908
  588W        W 2738  12.470   4.617  42.008  0.0797  0.0679  0.1709
  589W        W 2739   3.925   1.198   3.773  0.0374 -0.1117 -0.2834
  590W        W 2740   8.288   5.712  44.748 -0.1734 -0.1471  0.2373
  591W        W 2741   7.624   6.470  15.921 -0.4761  0.1114  0.0046
  592W        W 2742  16.411   4.223  30.932  0.0058  0.0101 -0.0754
  593W        W 2743  11.819   5.619  41.237  0.0904 -0.0121  0.0301
  594W        W 2744   3.071   5.174   7.921  0.2434 -0.0788  0.0332
  595W        W 2745   0.378   4.088   1.512 -0.3076 -0.1078 -0.4126
  596W        W 2746   8.509   4.732  14.967 -0.4657  0.1508 -0.0493
  597W        W 2747  10.281   1.409  38.795  0.0038 -0.0350 -0.1124
  598W        W 2748   4.598   5.252  39.985  0.1322  0.0103 -0.0850
  599W        W 2749  13.558   2.133  37.560  0.1478  0.0382  0.1064
  600W        W 2750   2.372   4.306  24.802 -0.1040 -0.0755  0.1050
  601W        W 2751  15.922   5.090  14.623  0.0535 -0.3564  0.0827
  602W        W 2752  17.436   4.155  20.990 -0.0535 -0.0561 -0.0413
  603W        W 2753  20.573   2.253  28.859  0.1921  0.1404 -0.0176
  604W        W 2754  13.472   4.555  39.740 -0.0484  0.1628  0.0034
  605W        W 2755  15.153   0.965   8.286  0.4352 -0.1266 -0.3462
  606W        W 2756  11.890   5.699  33.255  0.3835 -0.0467  0.0211
  607W        W 2757   0.226   6.050  17.135  0.2207 -0.3007  0.0976
  608W        W 2758  15.969   1.753  17.082  0.0716 -0.1242  0.0738
  609W        W 2759  11.646   2.878   7.091 -0.0530  0.2761 -0.1165
  610W        W 2760  11.058   4.817  41.696 -0.1386  0.0766  0.0116
  611W        W 2761  11.964   4.118   7.043 -0.0593  0.0512  0.2047
  612W        W 2762  16.703   0.030  44.679  0.0445  0.1568 -0.4055
  613W        W 2763   0.832   5.580  15.077  0.0750  0.0781  0.1551
  614W        W 2764  16.998   6.533   2.762 -0.1788  0.0170 -0.0779
  615W        W 2765   3.239   1.376  39.246 -0.0882  0.0482 -0.1326
  616W        W 2766   4.360   2.812  41.329 -0.3609 -0.3928  0.0353
  617W        W 2767  15.700   1.206   9.794  0.2334  0.2642  0.2329
  618W        W 2768   2.804   2.186  15.523 -0.0678  0.0354  0.0604
  619W        W 2769   7.022   3.089  23.529  0.0383  0.0257 -0.0835
  620W        W 2770  13.965   3.026   7.905 -0.3059 -0.2816 -0.1612
  621W        W 2771  13.248   4.411  12.332  0.1997  0.1832  0.0584
  622W        W 2772  15.650   2.352  20.219  0.3042 -0.2099 -0.1025
  623W        W 2773   4.426   4.470  30.471 -0.0133  0.0718  0.1190
  624W        W 2774  15.839   1.623   1.364  0.2302  0.3091  0.1082
  625W        W 2775  10.965   6.476   9.002 -0.0770  0.0160  0.1573
  626W        W 2776  15.321   4.047  41.026 -0.2533 -0.1854 -0.1874
  627W        W 2777  14.375   0.419  16.423 -0.1728 -0.3585 -0.1354
  628W        W 2778  19.817   0.698  35.114  0.0547  0.1708  0.1874
  629W        W 2779  17.987   6.345   3.325  0.1192  0.0423 -0.2305
  630W        W 2780   7.792   0.287  26.270  0.2046 -0.1016 -0.1522
  631W        W 2781   3.106   0.086  15.599  0.1767 -0.0107 -0.2603
  632W        W 2782   2.414   6.136  40.070 -0.2216  0.1655  0.0298
  633W        W 2783  10.801   6.158  38.963  0.0552  0.1728 -0.0522
  634W        W 2784  15.390   3.174   4.282 -0.1091  0.2484 -0.3757
  635W        W 2785  11.496   1.549  30.173  0.1010  0.2590  0.3473
  636W        W 2786  12.055   2.452  16.772 -0.1400  0.0248 -0.2610
  637W        W 2787   2.881   6.087  26.167  0.1813  0.2725 -0.1157
  638W        W 2788  17.159   1.169  42.892 -0.1123 -0.0508 -0.0353
  639W        W 2789  17.723   1.978  32.759  0.3364  0.2437  0.1390
  640W        W 2790   0.390   2.673  40.182 -0.4769  0.2093  0.1040
  641W        W 2791   0.400   3.334  38.083 -0.0122 -0.1444  0.0016
  642W        W 2792  19.974   4.857  36.297 -0.0206 -0.0754 -0.1506
  643W        W 2793   8.766   2.112  35.439 -0.0309  0.1753  0.2916
  644W        W 2794  11.646   0.646  14.476 -0.0669  0.0876 -0.1774
  645W        W 2795   4.127   2.631  22.833  0.1479  0.1492  0.2104
  646W        W 2796   9.944   6.479  32.069  0.2392  0.0489 -0.0411
  647W        W 2797   8.642   3.781  24.444  0.2209 -0.0505 -0.0651
  648W        W 2798   8.390   0.548  34.731  0.1759 -0.1137 -0.1712
  649W        W 2799  20.475   1.050  10.726  0.2961  0.1191  0.0329
  650W        W 2800  11.597   6.336   4.184  0.1958 -0.3346 -0.3040
  651W        W 2801   2.007   0.550  43.344  0.3499 -0.1429  0.1377
  652W        W 2802  11.524   1.262   8.652  0.3260 -0.0518 -0.1437
  653W        W 2803   3.930   0.346  11.961 -0.2272 -0.0369  0.1045
  654W        W 2804   3.311   5.997  10.667 -0.2383  0.0073  0.3986
  655W        W 2805  18.390   4.610  10.448 -0.2022 -0.2808  0.0861
  656W        W 2806  12.006   1.148  44.160  0.3029 -0.0133 -0.2022
  657W        W 2807   2.177   1.870  12.663 -0.0953  0.2940  0.0548
  658W        W 2808  14.043   6.004  43.291  0.1499  0.0922  0.1374
  659W        W 2809   5.901   3.680  22.681  0.1895 -0.0347  0.0138
  660W        W 2810  19.063   1.343  17.636 -0.0137 -0.0186  0.0527
  661W        W 2811   4.325   3.551  44.564  0.0090 -0.1739 -0.2848
  662W        W 2812   4.033   3.634   7.275  0.0003  0.2632 -0.2691
  663W        W 2813   3.475   1.789  34.816  0.0017  0.0561 -0.1647
  664W        W 2814   9.442   6.088  42.663  0.0276  0.0329 -0.1952
  665W        W 2815   8.069   0.221  31.979 -0.0648 -0.0380  0.2443
  666W        W 2816   1.569   1.331  11.590  0.0097  0.1514 -0.0201
  667W        W 2817   3.195   3.328  34.860  0.3921 -0.3915  0.1617
  668W        W 2818   9.473   2.822  41.894  0.2906 -0.1151 -0.0980
  669W        W 2819  20.593   4.690  44.700 -0.0463  0.0352 -0.1727
  670W        W 2820   1.215   4.338  13.290 -0.3268  0.2235 -0.0644
  671W        W 2821   5.507   4.532   7.433  0.0233  0.0394 -0.0085
  672W        W 2822  14.668   3.354  11.546  0.0030 -0.1582  0.2932
  673W        W 2823  19.836   0.273  21.248  0.3185  0.1619  0.3149
  674W        W 2824   2.334   0.299  33.819 -0.1046 -0.0001  0.0414
  675W        W 2825   5.601   0.677  38.262 -0.1482 -0.1122 -0.1038
  676W        W 2826   0.882   1.939  15.209 -0.1824  0.0530  0.1908
  677W        W 2827   7.587   0.530  43.858 -0.1427  0.0032 -0.0726
  678W        W 2828  13.598   4.688  10.664  0.0073 -0.2130  0.0416
  679W        W 2829   2.134   3.976  30.850  0.1923 -0.1556 -0.0407
  680W        W 2830   9.482   2.282   2.407  0.1172 -0.0040  0.3002
  681W        W 2831   6.474   2.939  27.497 -0.1290 -0.0545  0.0893
  682W        W 2832   5.125   2.200  24.183  0.0230 -0.0816 -0.0925
  683W        W 2833  16.978   5.822   0.244 -0.0418 -0.0275  0.1892
  684W        W 2834   5.630   2.257  39.211  0.0960 -0.2670  0.5741
  685W        W 2835  12.507   4.590  32.062 -0.3250 -0.0524 -0.0534
  686W        W 2836   4.302   3.384   3.333 -0.1780 -0.2254  0.1537
  687W        W 2837   5.434   0.628  30.657  0.0015 -0.1027  0.1283
  688W        W 2838  20.541   3.891  38.766  0.0193 -0.0094  0.0038
  689W        W 2839  10.567   5.129  27.076  0.2126 -0.3059 -0.1522
  690W        W 2840  16.303   3.925  25.223 -0.3093 -0.2053  0.0446
  691W        W 2841  20.386   1.340   4.509  0.2268  0.1161 -0.1143
  692W        W 2842   7.970   2.943   1.443 -0.0316  0.0650 -0.2057
  693W        W 2843   7.774   3.663  13.462 -0.0814 -0.2182 -0.0888
  694W        W 2844   4.944   2.529  24.444 -0.1062  0.4415 -0.1001
  695W        W 2845  16.279   3.307   4.488  0.0170 -0.0561  0.2096
  696W        W 2846   5.976   0.152  26.624 -0.2103  0.0870 -0.0642
  697W        W 2847  10.158   4.034  38.153 -0.3853  0.3081 -0.1863
  698W        W 2848   0.966   2.710  42.928 -0.1237 -0.1195  0.1828
  699W        W 2849  13.706   0.055  11.882 -0.0153 -0.0350 -0.1067
  700W        W 2850   4.678   2.521   3.546  0.0818  0.0727  0.0771
  701W        W 2851  17.060   0.450  38.709 -0.0816 -0.0756 -0.0606
  702W        W 2852   3.224   3.147  36.295 -0.0585 -0.0177  0.1758
  703W        W 2853   8.848   6.209  32.225  0.1467 -0.2202 -0.2363
  704W        W 2854  13.750   5.123  17.083 -0.2006 -0.2305  0.1984
  705W        W 2855   5.243   1.575  44.152 -0.1033  0.0919 -0.0301
  706W        W 2856   5.289   6.515  26.230  0.1115 -0.0064 -0.1284
  707W        W 2857  16.630   0.649  35.455 -0.1867 -0.0973 -0.0284
  708W        W 2858  14.192   5.820  19.597  0.0276  0.0705 -0.0088
  709W        W 2859   1.130   0.654  28.206 -0.1466 -0.1380 -0.2658
  710W        W 2860  11.229   2.366  16.564  0.0468 -0.1298 -0.3395
  711W        W 2861  17.576   0.997  14.890  0.1149  0.2360  0.0851
  712W        W 2862   6.955   4.177  36.293  0.0495  0.2219  0.2267
  713W        W 2863  10.281   4.475  44.490  0.0118 -0.2512 -0.1379
  714W        W 2864  13.293   2.301  17.631 -0.1092 -0.0692  0.0673
  715W        W 2865  12.594   3.567  32.232  0.3179 -0.2142  0.0529
  716W        W 2866   9.048   1.838   5.625  0.2620 -0.2908  0.1478
  717W        W 2867   8.532   4.563   1.984  0.1195  0.0694 -0.0841
  718W        W 2868  10.647   1.240  30.435  0.0845 -0.0445 -0.2257
  719W        W 2869  12.309   6.466  14.449 -0.0666 -0.0322 -0.0488
  720W        W 2870   3.728   5.022  11.853  0.0574 -0.0541  0.2747
  721W        W 2871   7.999   4.799   4.354  0.2370  0.2790  0.3147
  722W        W 2872  17.902   0.766  34.906  0.0878 -0.0918 -0.0154
  723W        W 2873   6.885   5.370  45.070 -0.2351 -0.2151 -0.0224
  724W        W 2874   0.360   0.364  44.764  0.1220 -0.0919 -0.1139
  725W        W 2875  19.982   3.880  19.118  0.0677  0.0866 -0.0229
  726W        W 2876   7.004   2.706  42.206 -0.1980 -0.2088  0.2904
  727W        W 2877   5.828   5.596  13.525 -0.1541  0.0311  0.1569
  728W        W 2878   3.115   0.058   7.022  0.0514 -0.1790  0.0314
  729W        W 2879  13.777   3.170  36.222 -0.0822 -0.4222  0.2015
  730W        W 2880   7.140   4.333  12.505  0.0449  0.0782  0.2985
  731W        W 2881   1.308   1.002  35.068  0.0980 -0.0273  0.0571
  732W        W 2882  13.037   6.338  44.756 -0.1081 -0.1009 -0.1685
  733W        W 2883  12.485   4.555   2.004 -0.0777  0.4170 -0.0886
  734W        W 2884  16.037   3.328   8.902  0.1491 -0.2081 -0.2426
  735W        W 2885   6.912   3.916  12.134  0.2308 -0.0402 -0.1156
  736W        W 2886   3.139   3.027   7.205 -0.3287 -0.2007  0.1086
  737W        W 2887   2.284   6.333  15.001  0.0182  0.0015  0.0912
  738W        W 2888  13.005   4.350   2.830  0.1401  0.1560 -0.0197
  739W        W 2889   2.563   2.784  39.559  0.1766 -0.0425 -0.2102
  740W        W 2890   3.679   4.896   1.640 -0.1526 -0.0791 -0.0899
  741W        W 2891  20.547   4.614  11.884 -0.0935 -0.1416 -0.1039
  742W        W 2892   8.632   2.238   9.744  0.0439 -0.0562  0.0053
  743W        W 2893   0.318   2.569  41.424 -0.1015  0.2619 -0.0940
  744W        W 2894   9.564   5.923  11.767 -0.1922  0.2470 -0.1275
  745W        W 2895  20.985   6.252   3.468  0.0598  0.2270 -0.1974
  746W        W 2896  11.903   4.602  16.843 -0.0429 -0.0952 -0.1021
  747W        W 2897  17.149   0.550  33.636  0.1754 -0.1035 -0.2856
  748W        W 2898  16.516   1.812   3.211  0.1068  0.1577 -0.1776
  749W        W 2899  21.124   0.729  29.861  0.0662 -0.3371 -0.1458
  750W        W 2900   7.131   2.846   9.384 -0.0254  0.0806 -0.1751
  751W        W 2901   9.241   0.864  27.651  0.1940  0.4523 -0.0567
  752W        W 2902  17.231   4.320   1.652  0.0932 -0.1345 -0.0495
  753W        W 2903  13.522   5.588  39.485 -0.0466 -0.0571 -0.1776
  754W        W 2904   3.621   0.785  12.092 -0.3169 -0.2979  0.2659
  755W        W 2905   1.098   3.337   2.740  0.0330  0.3101 -0.0026
  756W        W 2906   7.867   1.678   2.152 -0.0218  0.1339 -0.0461
  757W        W 2907   5.809   3.128   8.854  0.0126 -0.3420  0.2316
  758W        W 2908  17.189   1.630   6.968 -0.1349  0.2100  0.0095
  759W        W 2909  19.993   4.853  19.384  0.2703 -0.0613  0.0905
  760W        W 2910   4.436   5.505  10.155  0.0751 -0.2021 -0.1894
  761W        W 2911   8.109   3.020  26.241  0.0418  0.0898  0.2230
  762W        W 2912  20.586   6.161  27.881 -0.0340  0.0588 -0.1583
  763W        W 2913  17.730   2.510  14.587  0.1288  0.1058  0.1378
  764W        W 2914   7.185   2.252  21.190  0.0501  0.1802  0.0759
  765W        W 2915  11.075   4.295  39.093 -0.3008  0.0844 -0.1486
  766W        W 2916   5.800   2.514  20.876 -0.2420  0.0688  0.2697
  767W        W 2917   5.034   5.949   9.593  0.0811  0.0536 -0.0392
  768W        W 2918  15.191   2.407  39.794 -0.1169 -0.1563 -0.1808
  769W        W 2919  17.204   2.540  31.385  0.1108 -0.1452  0.0595
  770W        W 2920  10.262   2.716   3.007  0.0097 -0.0954 -0.2156
  771W        W 2921  18.920   0.161  44.572  0.1903  0.1772 -0.0664
  772W        W 2922  14.729   4.728  41.909  0.2954 -0.0438  0.2255
  773W        W 2923   8.735   5.344   4.974 -0.0492 -0.0065 -0.0544
  774W        W 2924  15.083   4.561  44.738  0.0197  0.0975 -0.0029
  775W        W 2925  14.185   2.583  45.054  0.1256 -0.1344 -0.1626
  776W        W 2926  14.815   0.410   2.909 -0.1289  0.2783  0.2247
  777W        W 2927   9.246   5.432   5.315  0.1130 -0.0226 -0.0285
  778W        W 2928   8.966   4.013  30.710  0.1032 -0.0721 -0.0219
  779W        W 2929   3.799   1.058  14.474 -0.2535 -0.2671 -0.0338
  780W        W 2930   4.999   6.133   4.002 -0.1499  0.1700 -0.0817
  781W        W 2931   9.661   5.795   8.211 -0.2497 -0.1100 -0.1678
  782W        W 2932   2.197   5.474  39.065 -0.2129  0.1110  0.0443
  783W        W 2933   6.465   1.137  15.999  0.0787  0.1486  0.0300
  784W        W 2934  15.996   2.279  38.372  0.0693 -0.1169 -0.2628
  785W        W 2935  20.686   4.671  13.530 -0.0439 -0.2310  0.0285
  786W        W 2936  15.522   5.151  21.112  0.0551  0.2384  0.2744
  787W        W 2937  14.600   1.649  20.204  0.0370  0.0365  0.0060
  788W        W 2938  12.001   6.262  34.969 -0.2716  0.1172 -0.2325
  789W        W 2939  16.297   0.102  35.446  0.1166 -0.2200  0.2588
  790W        W 2940  10.660   0.822  27.125 -0.2008 -0.0451  0.1100
  791W        W 2941   0.950   2.334  32.304 -0.1194  0.0262 -0.1226
  792W        W 2942   1.364   0.402  39.164  0.2610  0.0616 -0.0105
  793W        W 2943  11.171   4.127  38.627  0.0956 -0.1562  0.2738
  794W        W 2944   9.490   3.892   0.457 -0.2329 -0.1339 -0.2844
  795W        W 2945  14.101   6.102   5.476  0.0408 -0.0380  0.1868
  796W        W 2946   7.459   0.365  14.361 -0.0000  0.2222  0.1671
  797W        W 2947   4.038   0.965  15.652  0.1856  0.2212 -0.0214
  798W        W 2948   4.748   6.188  32.966 -0.1568  0.0183  0.1662
  799W        W 2949   8.276   4.603   5.637 -0.0299 -0.3814  0.0499
  800W        W 2950   8.438   4.542  35.948  0.1274  0.0972 -0.0806
  801W        W 2951   4.890   0.626  10.229  0.2159  0.0441  0.2538
  802W        W 2952   6.156   2.890  23.259  0.2748  0.1378  0.0441
  803W        W 2953  18.622   0.959  32.318  0.2815  0.1110  0.0582
  804W        W 2954   4.945   2.885  27.167 -0.0836 -0.0788 -0.1743
  805W        W 2955   6.323   6.577  33.517 -0.0873  0.0885  0.1009
  806W        W 2956  14.158   3.654  41.111  0.1319  0.2026  0.0774
  807W        W 2957   8.025   2.900  16.533 -0.1696 -0.2893  0.1901
  808W        W 2958  18.631   0.981  14.400  0.1011  0.1220  0.1177
  809W        W 2959  11.810   3.647  17.573  0.1621 -0.4675 -0.1327
  810W        W 2960   0.066   4.252  32.114 -0.1997  0.4455  0.1239
  811W        W 2961  17.257   3.012  10.289  0.0711 -0.1019  0.0815
  812W        W 2962   2.747   1.618  42.224 -0.1244 -0.0452 -0.1103
  813W        W 2963   0.585   5.323  10.730  0.0008  0.0280 -0.0596
  814W        W 2964  11.050   4.397  38.110  0.1835 -0.2165 -0.0454
  815W        W 2965  11.555   3.574  36.357  0.2502 -0.1093  0.1908
  816W        W 2966   4.098   1.620   4.582 -0.0629 -0.3019 -0.1734
  817W        W 2967  16.528   1.157  45.034  0.2894  0.0571  0.1489
  818W        W 2968  17.560   4.669  37.705 -0.0625  0.0012 -0.2346
  819W        W 2969  16.310   2.390  31.594 -0.0575  0.2924  0.2318
  820W        W 2970  19.460   2.376  39.013 -0.1584 -0.3215 -0.2570
  821W        W 2971   7.726   5.648  36.017 -0.3684 -0.1211  0.4431
  822W        W 2972   4.446   4.081  38.716 -0.2016 -0.2932 -0.2523
  823W        W 2973   9.681   0.518  17.784 -0.1499  0.1084  0.1796
  824W        W 2974  14.670   1.229   3.699  0.2603 -0.2706 -0.1322
  825W        W 2975  15.285   4.357   3.958  0.2374  0.1520  0.1673
  826W        W 2976   1.470   1.253   6.401  0.0358 -0.1235 -0.0830
  827W        W 2977  10.370   1.903   2.432 -0.0292  0.1216 -0.0083
  828W        W 2978  18.236   6.475  35.694  0.1639  0.1244  0.1441
  829W        W 2979  17.814   1.393   3.211 -0.0822  0.0111 -0.1291
  830W        W 2980   8.647   3.002  35.693  0.0309 -0.1737 -0.1395
  831W        W 2981  14.566   5.827   2.644  0.2924 -0.1589  0.1255
  832W        W 2982  11.242   3.770  36.047 -0.4317  0.0898  0.0590
  833W        W 2983  16.999   0.720  36.281  0.3563 -0.0278 -0.0766
  834W        W 2984   2.575   4.120  34.533  0.1639 -0.1380 -0.2867
  835W        W 2985  19.388   1.180  15.582 -0.1317  0.1272 -0.1774
  836W        W 2986   1.814   0.241  31.824  0.1707  0.2254 -0.1615
  837W        W 2987   5.611   5.671  29.773  0.1484 -0.0244 -0.0602
  838W        W 2988   4.462   2.695  14.424 -0.1639  0.2499  0.3412
  839W        W 2989  14.316   0.403  13.974  0.0825  0.0308  0.0324
  840W        W 2990  18.410   3.114  44.086  0.0580  0.1653  0.2849
  841W        W 2991  13.351   3.870   0.338  0.0193  0.0780 -0.0100
  842W        W 2992   6.948   0.153  24.773 -0.1825 -0.0487  0.2868
  843W        W 2993   5.074   4.301  10.195  0.0047  0.0636 -0.1846
  844W        W 2994  10.505   6.525  17.714 -0.0977  0.0763  0.2054
  845W        W 2995   3.362   1.203  28.520  0.3451 -0.0836 -0.2800
  846W        W 2996   7.531   0.729   4.354  0.2210 -0.0799  0.0954
  847W        W 2997   8.811   3.352   1.101  0.2778 -0.0286 -0.3318
  848W        W 2998  16.484   6.114  39.913  0.0882 -0.0801  0.0133
  849W        W 2999   0.261   1.762  27.769  0.0326 -0.0511 -0.0878
  850W        W 3000  13.817   4.063  38.708  0.2835 -0.0209 -0.1297
  851W        W 3001  12.275   5.226  44.596  0.1968 -0.1592 -0.0866
  852W        W 3002  11.695   2.017  41.127  0.0224 -0.0867  0.1578
  853W        W 3003   7.211   3.973  38.294  0.2888  0.1012 -0.0362
  854W        W 3004  13.229   0.281  36.030 -0.3119  0.1983  0.2713
  855W        W 3005   9.601   5.587  30.282 -0.0021  0.0909 -0.1486
  856W        W 3006  19.128   5.647  21.282  0.1323 -0.1754  0.0256
  857W        W 3007  12.349   3.125  10.216 -0.3932  0.0601 -0.2623
  858W        W 3008   9.987   4.926  42.859 -0.2497 -0.0774 -0.0804
  859W        W 3009  11.886   1.330  16.515 -0.0129  0.2863 -0.0064
  860W        W 3010  11.664   2.898  10.983 -0.2660  0.0685 -0.1584
  861W        W 3011   3.934   0.687  23.611 -0.1290  0.2073 -0.0602
  862W        W 3012  14.910   4.637  19.613  0.2380 -0.0507  0.0240
  863W        W 3013  19.145   4.990   7.919 -0.0456 -0.1154 -0.0194
  864W        W 3014  20.789   1.321  27.054 -0.2733 -0.0775  0.1299
  865W        W 3015   0.366   2.862  35.965  0.0715 -0.1666  0.0916
  866W        W 3016   3.618   3.270  13.320  0.0056 -0.0512  0.3900
  867W        W 3017   5.001   1.781   1.865 -0.0383  0.0495  0.1105
  868W        W 3018   8.500   6.313   8.646  0.0265 -0.2176  0.2753
  869W        W 3019  15.421   2.183  42.465 -0.0785  0.1215 -0.4977
  870W        W 3020   8.361   2.445  29.341  0.0571  0.0161 -0.0444
  871W        W 3021   2.104   2.657   4.968  0.1160  0.0770 -0.0028
  872W        W 3022   3.437   6.043  38.784 -0.0340 -0.1420  0.3311
  873W        W 3023   7.595   1.701  37.731  0.0696 -0.1308 -0.3159
  874W        W 3024   2.030   2.475  33.022  0.0165 -0.1089 -0.1703
  875W        W 3025  21.060   4.441  31.681  0.4550 -0.0330 -0.1986
  876W        W 3026  13.277   6.516   0.821 -0.0166  0.0520  0.0095
  877W        W 3027  10.707   5.902  17.248 -0.0193 -0.1209  0.0552
  878W        W 3028  11.711   6.161  43.799 -0.1263  0.1162 -0.3597
  879W        W 3029  12.075   0.064   0.770  0.0679  0.0315  0.1317
  880W        W 3030  19.777   5.596   7.274 -0.0305 -0.2997 -0.1295
  881W        W 3031  11.665   5.420  12.358 -0.1149 -0.1697  0.0707
  882W        W 3032   3.725   2.148  26.554 -0.2717 -0.3418 -0.0290
  883W        W 3033  14.443   4.224  31.935 -0.1108  0.0938  0.0474
  884W        W 3034   1.741   3.792  10.496  0.0464  0.0544 -0.2353
  885W        W 3035   7.484   1.254  23.333 -0.1007 -0.1179 -0.0762
  886W        W 3036  18.273   2.218  20.851  0.2718 -0.2388 -0.1140
  887W        W 3037  19.335   0.036  29.515 -0.0362 -0.0482  0.1435
  888W        W 3038   9.838   5.748  29.273  0.0093 -0.2678  0.2251
  889W        W 3039  19.118   6.571  31.500 -0.1171  0.2386  0.2180
  890W        W 3040  10.264   6.100  30.076 -0.1181 -0.0706 -0.0205
  891W        W 3041   6.715   4.074   1.787  0.3141 -0.0948  0.2207
  892W        W 3042   8.418   6.142  13.994 -0.1647 -0.1472  0.1570
  893W        W 3043  16.473   0.609  42.105  0.2041 -0.0832  0.0929
  894W        W 3044   3.384   4.114   8.323 -0.1304  0.0514 -0.1095
  895W        W 3045  12.949   2.514  10.696  0.0648  0.0547 -0.0511
  896W        W 3046   6.201   5.994  38.251  0.1459 -0.2155 -0.4996
  897W        W 3047  12.294   1.350   2.030 -0.1776  0.3491 -0.1256
  898W        W 3048  14.651   1.544   6.863 -0.2404  0.0048  0.2079
  899W        W 3049  10.868   3.789   9.752 -0.1411 -0.0706 -0.2272
  900W        W 3050   0.269   4.637  34.614  0.0161  0.2712  0.1110
  901W        W 3051   1.160   3.335   5.582  0.2436 -0.0447 -0.1165
  902W        W 3052  15.852   1.959  44.235  0.2568 -0.0696  0.0511
  903W        W 3053  18.539   1.765  31.241  0.1035  0.0597 -0.1510
  904W        W 3054  15.652   2.332  40.161 -0.0785 -0.0578  0.0645
  905W        W 3055   4.523   4.465   4.923  0.1312 -0.1633  0.2804
  906W        W 3056  20.185   4.104  14.566  0.1561  0.0949  0.1857
  907W        W 3057  12.408   5.662  39.206 -0.0475  0.1634  0.2049
  908W        W 3058  16.017   6.235  40.050 -0.2261 -0.0534 -0.3093
  909W        W 3059   8.951   0.025   1.211 -0.3808 -0.2431 -0.1562
  910W        W 3060  17.908   3.088  17.870 -0.0447  0.0879  0.2601
  911W        W 3061   4.288   0.610   9.371 -0.0568 -0.0159  0.2379
  912W        W 3062  13.351   6.166  44.344 -0.0744 -0.1812 -0.2291
  913W        W 3063  18.707   4.423  14.833 -0.1801 -0.4508 -0.0940
  914W        W 3064   8.457   1.495  11.752  0.2329 -0.2119 -0.1118
  915W        W 3065   6.527   0.119  37.109 -0.1849  0.0048 -0.0891
  916W        W 3066   3.035   4.581  15.515  0.1109  0.1393  0.1118
  917W        W 3067   8.165   4.410   0.642  0.0102  0.2695 -0.2952
  918W        W 3068   0.757   1.828  41.044 -0.0346  0.0287  0.0272
  919W        W 3069  20.900   2.980   8.682  0.3221  0.3166 -0.3761
  920W        W 3070   0.399   1.581  42.303 -0.0102  0.2913  0.0865
  921W        W 3071   2.799   1.227   1.046 -0.1550  0.1009 -0.0457
  922W        W 3072  20.124   1.609  13.152 -0.1331  0.1607 -0.1554
  923W        W 3073   8.225   1.558  39.634 -0.0138  0.0370  0.0229
  924W        W 3074   6.320   6.383   1.326 -0.2890  0.0491  0.0738
  925W        W 3075   4.385   5.160   6.595 -0.0416  0.0562 -0.3499
  926W        W 3076   6.504   5.927   1.499 -0.0948  0.1783  0.1493
  927W        W 3077  17.815   3.635   0.827 -0.0321  0.1826  0.0117
  928W        W 3078  14.197   5.282   1.937  0.0642 -0.1713  0.1297
  929W        W 3079  10.303   1.569  16.249  0.2546  0.3968 -0.0709
  930W        W 3080  14.659   5.245   1.201  0.1462  0.0076  0.1379
  931W        W 3081  16.228   5.134  19.632  0.0292 -0.1110 -0.0971
  932W        W 3082  12.915   1.087   5.327 -0.0958  0.1015 -0.1933
  933W        W 3083   6.660   6.220  13.316 -0.0697 -0.0359 -0.0359
  934W        W 3084  12.773   6.159  10.365  0.1758 -0.0559  0.2026
  935W        W 3085  11.219   1.707   9.729  0.0591  0.0905  0.0517
  936W        W 3086  11.777   1.931   9.436 -0.2871 -0.0621 -0.0870
  937W        W 3087  14.704   4.130  15.049 -0.3364  0.1836 -0.1157
  938W        W 3088  10.811   3.026  25.292  0.2856 -0.2098  0.0805
  939W        W 3089  19.695   1.465   8.544  0.3042 -0.0595 -0.2452
  940W        W 3090   5.350   2.242  14.660  0.0098  0.1712 -0.3158
  941W        W 3091  15.328   1.248  29.159  0.1749  0.0249  0.0587
  942W        W 3092   3.824   3.429  25.038 -0.0106  0.0429  0.1087
  943W        W 3093  17.011   3.316  22.094  0.2353 -0.2310  0.0297
  944W        W 3094  11.337   5.196  17.174  0.0809 -0.1994  0.0131
  945W        W 3095   7.061   5.635  39.357 -0.0083  0.0739  0.1897
  946W        W 3096  19.723   0.817   7.178 -0.1800 -0.0280 -0.0124
  947W        W 3097   2.985   5.768  28.987 -0.0938 -0.1675 -0.0123
  948W        W 3098  10.308   2.722  15.701 -0.0760  0.0745 -0.2848
  949W        W 3099  10.291   6.223  39.274 -0.2223 -0.2534 -0.0939
  950W        W 3100   2.399   3.748  23.262 -0.2875 -0.1566  0.0480
  951W        W 3101  18.380   3.870  43.560  0.2256  0.1113 -0.0751
  952W        W 3102  17.385   3.683   7.022  0.1651  0.1313 -0.0288
  953W        W 3103  14.609   5.708  33.063  0.0174  0.1007  0.1665
  954W        W 3104   9.991   2.546  36.234  0.2660  0.2703 -0.1777
  955W        W 3105  19.737   1.895   1.329 -0.2395 -0.0161 -0.4894
  956W        W 3106   3.455   4.686  25.546  0.0159 -0.1173 -0.3231
  957W        W 3107   6.379   6.319  43.033 -0.1474 -0.2874 -0.1722
  958W        W 3108   8.109   0.181  43.404 -0.1460 -0.1240  0.3330
  959W        W 3109   6.218   1.716  41.138  0.0021  0.0010 -0.3074
  960W        W 3110  20.156   0.228   3.371  0.1368 -0.0819  0.2954
  961W        W 3111   7.801   1.095  29.155  0.2461 -0.1101 -0.0790
  962W        W 3112  20.749   2.088   9.164  0.0705 -0.1497 -0.0998
  963W        W 3113   6.789   2.609   8.361  0.0210  0.3142  0.1165
  964W        W 3114   7.893   1.946   4.997  0.0752  0.0580 -0.1163
  965W        W 3115   3.144   4.918   2.269  0.4691 -0.2073 -0.0128
  966W        W 3116  12.564   6.417  38.476  0.1819  0.1568 -0.0531
  967W        W 3117  11.848   2.843  14.014 -0.0684 -0.2710 -0.2164
  968W        W 3118   6.518   1.653   7.647 -0.0984  0.2041 -0.1024
  969W        W 3119  20.391   1.615  36.445  0.2417  0.1822 -0.0249
  970W        W 3120   7.014   5.674  10.516  0.1116 -0.1818  0.4099
  971W        W 3121   7.921   1.554  26.101 -0.2771 -0.0490 -0.1961
  972W        W 3122  15.813   3.503   9.610  0.2273 -0.2567  0.3435
  973W        W 3123  13.531   3.714  44.772  0.1635 -0.1137  0.0477
  974W        W 3124  16.127   3.791  14.104 -0.0458  0.0632 -0.0844
  975W        W 3125  18.105   4.313  10.797 -0.4013  0.1235 -0.0803
  976W        W 3126  20.882   5.933   1.484  0.0250 -0.0414  0.0988
  977W        W 3127  18.438   2.411  38.769 -0.1571  0.2761 -0.1781
  978W        W 3128   2.993   0.517   5.617 -0.2583  0.1772  0.6381
  979W        W 3129   5.638   4.766   5.323  0.1461 -0.2080  0.0468
  980W        W 3130  20.055   0.673   8.922  0.0020 -0.1678 -0.1738
  981W        W 3131   8.914   6.427  16.035  0.0710  0.0704  0.1245
  982W        W 3132   1.036   2.861   9.383  0.2582 -0.2486  0.0160
  983W        W 3133   5.258   5.945  26.477 -0.2717  0.0780  0.2757
  984W        W 3134   2.688   6.571  35.002  0.4214 -0.0757  0.1469
  985W        W 3135   8.049   1.767  32.161 -0.1576 -0.0687 -0.0723
  986W        W 3136   7.516   3.866  22.518  0.2478  0.1460 -0.1873
  987W        W 3137  16.934   4.211  44.873 -0.0343 -0.0798  0.0055
  988W        W 3138   6.321   2.685  32.790 -0.1979 -0.0717 -0.3918
  989W        W 3139   8.209   0.069  27.707 -0.1307 -0.3861 -0.2247
  990W        W 3140   9.764   5.480  10.094 -0.1508  0.1219  0.0344
  991W        W 3141  16.676   1.625  44.269 -0.0400 -0.1056  0.0787
  992W        W 3142   0.040   5.376  36.852 -0.0312 -0.0095  0.1120
  993W        W 3143   6.022   0.653   5.428 -0.0398 -0.1134  0.2455
  994W        W 3144  20.934   5.229  10.614 -0.0715 -0.1748 -0.1172
  995W        W 3145   0.456   0.547   4.582 -0.1788 -0.2842  0.1104
  996W        W 3146  17.139   2.013  31.362 -0.1572 -0.0033 -0.0396
  997W        W 3147   5.966   0.854  10.589  0.1342 -0.0539  0.0663
  998W        W 3148  17.741   5.104  19.316  0.1342  0.2313  0.2594
  999W        W 3149  16.608   0.214   4.546  0.1242 -0.1834  0.1244
 1000W        W 3150  12.924   3.591   9.757  0.0417  0.1869  0.1365
 1001W        W 3151  18.915   4.911  20.597  0.1284  0.0858 -0.2175
 1002W        W 3152  14.450   5.841  44.159 -0.0717 -0.2276  0.0192
 1003W        W 3153   1.184   0.908  31.779 -0.2829 -0.2028  0.2698
 1004W        W 3154  16.584   2.543   7.291  0.1253 -0.0483  0.1929
 1005W        W 3155   8.897   4.881  33.753 -0.0358 -0.0516 -0.0105
 1006W        W 3156  15.619   4.594  41.434 -0.0797  0.2126 -0.1126
 1007W        W 3157   0.398   3.648  14.713  0.2368  0.0258 -0.0607
 1008W        W 3158   1.564   5.058  34.954  0.3412 -0.0265 -0.4558
 1009W        W 3159  15.596   3.040  13.140  0.1292  0.0688 -0.5267
 1010W        W 3160  15.555   2.522  34.035 -0.1759  0.1522  0.0199
 1011W        W 3161   5.104   2.107  28.414 -0.0702 -0.3798 -0.0535
 1012W        W 3162   5.211   0.865  14.830  0.3561  0.1126  0.0754
 1013W        W 3163  12.199   2.246  39.060 -0.0943 -0.1884  0.3178
 1014W        W 3164  10.834   0.553  42.563 -0.0225  0.1216  0.1265
 1015W        W 3165  14.384   1.540  29.885 -0.1398 -0.1043  0.2266
 1016W        W 3166   5.320   2.152  36.481 -0.0280 -0.1204 -0.2848
 1017W        W 3167   5.056   6.524  21.249 -0.1131  0.0940 -0.2803
 1018W        W 3168   7.873   1.448  35.011 -0.2563  0.0271 -0.0766
 1019W        W 3169   3.636   2.127  39.597  0.1876  0.3004 -0.1300
 1020W        W 3170  20.042   3.534  13.006  0.0800  0.1311 -0.1445
 1021W        W 3171  10.880   3.388  11.835  0.0224 -0.2422  0.3040
 1022W        W 3172  15.000   6.140  38.930  0.1894 -0.3232 -0.2012
 1023W        W 3173  10.996   1.456  43.587 -0.1987 -0.0064  0.1914
 1024W        W 3174   9.262   2.383   8.192 -0.0539 -0.0330  0.1287
 1025W        W 3175  15.056   4.103  43.985 -0.1444 -0.0767 -0.3840
 1026W        W 3176  15.537   0.893  37.750 -0.0920 -0.0517 -0.0201
 1027W        W 3177  12.256   4.182  18.895 -0.1527  0.0330  0.2710
 1028W        W 3178   0.380   5.327  11.898 -0.0344 -0.4429  0.0827
 1029W        W 3179   6.473   1.035  43.651 -0.0068 -0.2857 -0.1320
 1030W        W 3180  18.518   4.038  42.027 -0.4058 -0.1409  0.0654
 1031W        W 3181   8.736   3.510  44.387  0.2457  0.0155  0.0213
 1032W        W 3182   7.050   4.888  15.058  0.1013  0.1628  0.0572
 1033W        W 3183  12.795   1.405   1.739  0.0605 -0.0325  0.0589
 1034W        W 3184   8.495   4.332  42.261 -0.0202 -0.1272 -0.1122
 1035W        W 3185  17.415   4.577  22.712  0.2084  0.0946  0.0831
 1036W        W 3186  16.106   4.583   9.859  0.0073 -0.0011 -0.0758
 1037W        W 3187  11.030   4.035  44.424  0.1957  0.1542  0.2071
 1038W        W 3188   0.986   5.019  15.767 -0.3286 -0.0936  0.2114
 1039W        W 3189   1.169   2.292  37.429  0.1935 -0.4188 -0.1311
 1040W        W 3190  11.582   1.137   6.970 -0.1355  0.0925  0.0826
 1041W        W 3191  14.362   0.817  42.245  0.3411 -0.2231 -0.2447
 1042W        W 3192   2.672   1.882   7.133  0.0858 -0.2724 -0.0581
 1043W        W 3193  13.285   5.064   2.405 -0.0718 -0.2360 -0.1855
 1044W        W 3194   3.340   5.421  42.521 -0.0222 -0.1939 -0.2508
 1045W        W 3195   0.923   1.043  25.678 -0.1499 -0.0322  0.2071
 1046W        W 3196   0.723   4.103   4.204  0.0935  0.1761 -0.1150
 1047W        W 3197   6.841   5.462  32.120  0.0046  0.0961 -0.2115
 1048W        W 3198  20.945   2.866  32.760  0.0289 -0.0743 -0.1726
 1049W        W 3199   6.449   6.134  28.020 -0.0616 -0.3017  0.1476
 1050W        W 3200   1.467   5.250   1.739 -0.1843 -0.3357  0.1760
 1051W        W 3201   3.762   0.462  38.316  0.1272 -0.2599 -0.1785
 1052W        W 3202   2.893   5.623  30.796  0.1827 -0.4198 -0.2150
 1053W        W 3203  12.691   0.775  14.323  0.0421 -0.0199 -0.0956
 1054W        W 3204  15.278   0.169  14.953  0.2211 -0.1376  0.3312
 1055W        W 3205  20.036   6.368  12.727 -0.0134 -0.0622  0.2256
 1056W        W 3206  13.499   6.463  36.191  0.0010  0.2781  0.0503
 1057W        W 3207  13.663   1.174  34.265  0.0294  0.2949 -0.0414
 1058W        W 3208  19.403   4.796   1.886 -0.0834 -0.2075  0.0291
 1059W        W 3209   6.035   6.182  25.493 -0.2089 -0.0649 -0.0136
 1060W        W 3210   2.429   3.062  37.316  0.0451  0.0342 -0.0629
 1061W        W 3211   3.015   0.624  27.909  0.1090  0.2861  0.1159
 1062W        W 3212   8.037   5.069  24.560 -0.0742 -0.1629 -0.1073
 1063W        W 3213  10.230   1.437  35.376 -0.1133 -0.0299  0.3214
 1064W        W 3214  20.569   4.792  16.347  0.1781  0.2072 -0.1094
 1065W        W 3215   1.501   2.598  36.955 -0.1648  0.1931 -0.0779
 1066W        W 3216  13.097   0.978  17.091 -0.3161 -0.0526 -0.0752
 1067W        W 3217  12.271   3.430  15.464  0.0021  0.2108 -0.1279
 1068W        W 3218  15.348   2.249  21.225  0.3374 -0.3872  0.1577
 1069W        W 3219  14.321   3.817  20.104  0.0445  0.0493  0.1897
 1070W        W 3220  14.797   5.276  18.475 -0.2226  0.0421  0.3177
 1071W        W 3221   9.043   5.663  33.274 -0.0749 -0.0869  0.0791
 1072W        W 3222   6.835   4.479  31.221  0.1905 -0.1008 -0.2090
 1073W        W 3223  16.096   3.392  36.621  0.1306  0.0730  0.0681
 1074W        W 3224  19.202   5.676   1.354 -0.0726  0.2403  0.0544
 1075W        W 3225  11.554   3.884  32.173 -0.4501 -0.3053  0.0874
 1076W        W 3226   8.184   4.765  13.482  0.0047 -0.0440 -0.2521
 1077W        W 3227  17.624   0.373  31.978 -0.0593 -0.1544 -0.0458
 1078W        W 3228  13.234   0.819  10.910 -0.0963  0.3182  0.1031
 1079W        W 3229  14.797   2.086  42.223  0.0271  0.2021 -0.1257
 1080W        W 3230   9.726   4.895  34.404  0.0737  0.2480  0.2122
 1081W        W 3231   9.754   6.308   8.541 -0.1658  0.1552 -0.1879
 1082W        W 3232  20.151   1.648   8.355 -0.0809  0.1008  0.1999
 1083W        W 3233  13.701   1.599   9.927  0.0241  0.1085 -0.0273
 1084W        W 3234   5.136   2.593  26.250 -0.3795 -0.0500  0.1544
 1085W        W 3235  16.149   6.372   6.497 -0.0681 -0.0679 -0.0293
 1086W        W 3236  12.384   1.502  43.877 -0.0637 -0.2589  0.1213
 1087W        W 3237   2.523   1.721  26.117 -0.0334 -0.1004  0.2283
 1088W        W 3238   6.666   5.983  23.678  0.0107  0.0463  0.3233
 1089W        W 3239   5.557   0.081   3.269  0.0509 -0.0587 -0.1643
 1090W        W 3240   6.027   0.520  11.289 -0.1781 -0.1465  0.1940
 1091W        W 3241  10.731   2.383   2.460  0.0422  0.0588  0.0179
 1092W        W 3242   0.396   5.932   8.673  0.0334 -0.1007 -0.2849
 1093W        W 3243   5.974   5.669   2.220 -0.1351 -0.0638  0.0056
 1094W        W 3244  20.057   0.228  45.013 -0.2408 -0.2991  0.2277
 1095W        W 3245  10.781   6.012  35.791  0.0585  0.1309  0.0847
 1096W        W 3246  17.543   0.211   2.844 -0.0183  0.0565  0.0795
 1097W        W 3247  13.543   3.441   2.722 -0.0232 -0.1546 -0.0805
 1098W        W 3248   8.396   5.199  25.194 -0.1635  0.0086 -0.3303
 1099W        W 3249   6.157   4.406  33.757 -0.2959 -0.1238 -0.1391
 1100W        W 3250   7.517   0.267  34.764  0.3543 -0.2823 -0.2778
 1101W        W 3251  20.793   3.498  38.601  0.0838  0.0481 -0.2395
 1102W        W 3252  18.527   1.889  30.687 -0.0753  0.2239  0.0353
 1103W        W 3253  11.643   4.858  15.995  0.2213  0.4652  0.0569
 1104W        W 3254  13.335   4.550  35.260  0.1839  0.2541 -0.0540
 1105W        W 3255   0.271   5.361  18.523 -0.1535  0.0955  0.0141
 1106W        W 3256  16.713   4.202  13.837 -0.0884  0.1015  0.3589
 1107W        W 3257   5.600   6.407  39.254  0.1362 -0.0082 -0.2213
 1108W        W 3258   2.024   3.636  10.046  0.2710  0.2679 -0.1048
 1109W        W 3259   2.133   4.004   0.138  0.0626 -0.1453  0.0574
 1110W        W 3260  15.724   5.505   9.604 -0.0144  0.2119  0.2019
 1111W        W 3261  11.342   1.890  37.871 -0.1278 -0.0071  0.1758
 1112W        W 3262  18.839   2.228   4.773 -0.0174  0.0146 -0.4037
 1113W        W 3263   5.483   3.624   4.260  0.1094 -0.3123  0.4076
 1114W        W 3264   3.137   6.453  13.642 -0.0612 -0.1123 -0.3286
 1115W        W 3265   5.330   0.093  42.039  0.3899 -0.4017  0.1249
 1116W        W 3266  11.615   6.456   0.833 -0.0268 -0.0370  0.1183
 1117W        W 3267  20.986   5.015  34.166  0.0350 -0.2050 -0.1396
 1118W        W 3268  14.471   6.503  36.888 -0.1336  0.1360  0.1365
 1119W        W 3269   1.249   2.087  38.796 -0.2830 -0.0864 -0.3215
 1120W        W 3270   5.104   4.647  23.828 -0.0978 -0.3281  0.0328
 1121W        W 3271   3.688   5.933   6.470 -0.3184 -0.1970 -0.2753
 1122W        W 3272  12.327   1.966  12.600  0.2133 -0.0053  0.2067
 1123W        W 3273   4.102   3.482  27.550 -0.2086  0.0285  0.1819
 1124W        W 3274   4.176   4.385   2.996  0.1730 -0.1083  0.1917
 1125W        W 3275   4.902   0.973  25.358 -0.0202 -0.0125 -0.0900
 1126W        W 3276   5.814   6.171  40.309 -0.1543 -0.1470  0.0990
 1127W        W 3277   8.103   0.116  21.741  0.1729  0.2454  0.0308
 1128W        W 3278  16.421   2.160   9.549 -0.0419  0.4098  0.3352
 1129W        W 3279  21.048   0.430   4.711 -0.3191 -0.3979  0.0684
 1130W        W 3280  18.047   3.026   6.629 -0.2013  0.1145  0.1895
 1131W        W 3281   9.596   0.869  13.457 -0.1941 -0.2277  0.0233
 1132W        W 3282   4.838   4.929  34.427 -0.1341  0.4211 -0.2224
 1133W        W 3283  11.197   5.805  32.257 -0.1527 -0.2378 -0.2317
 1134W        W 3284   8.630   2.187  23.691  0.0106 -0.0948  0.0325
 1135W        W 3285   6.695   2.507   3.048  0.1339 -0.0255  0.1903
 1136W        W 3286  12.582   6.147  13.868  0.4717 -0.1728  0.2309
 1137W        W 3287  13.718   4.953   2.682  0.0788  0.1189  0.1002
 1138W        W 3288  11.896   4.063   5.669  0.1250  0.0978 -0.2015
 1139W        W 3289   1.845   2.571  26.407 -0.0281 -0.1797  0.4191
 1140W        W 3290   7.379   5.365  10.368 -0.2196 -0.0512  0.0753
 1141W        W 3291   1.730   5.453  29.799  0.0112  0.1356  0.0233
 1142W        W 3292  18.961   3.698  41.113 -0.0417 -0.1233 -0.1501
 1143W        W 3293  13.189   4.978   1.370  0.0611 -0.0545 -0.1616
 1144W        W 3294  19.467   5.424  31.550  0.1335  0.0157  0.0583
 1145W        W 3295   0.236   3.650  17.239  0.1679  0.0392  0.0569
 1146W        W 3296  15.288   3.889  23.731  0.1310  0.1669  0.4116
 1147W        W 3297   2.244   2.664  41.684  0.1563 -0.0652  0.3277
 1148W        W 3298  13.743   3.326  28.937  0.0520  0.0194  0.4583
 1149W        W 3299   7.784   4.951  42.802 -0.2060  0.1809  0.1993
 1150W        W 3300   1.255   5.063  34.016 -0.1023  0.0810 -0.0484
 1151W        W 3301   4.332   4.480   4.400  0.0457 -0.0313 -0.0521
 1152W        W 3302   5.569   5.508  25.663  0.1289 -0.2067 -0.2105
 1153W        W 3303  14.673   5.065  19.454 -0.0586  0.0776  0.3266
 1154W        W 3304   9.318   5.526  16.189  0.2947  0.1310  0.2311
 1155W        W 3305  19.721   4.607  43.832 -0.1104  0.4913  0.1123
 1156W        W 3306  11.489   3.841  37.601 -0.0151  0.0901 -0.1835
 1157W        W 3307  14.294   1.192  43.014 -0.2625 -0.1206  0.0301
 1158W        W 3308   9.173   6.094   6.032  0.0845 -0.0353 -0.0340
 1159W        W 3309   7.884   3.459  36.960 -0.0361 -0.0586 -0.0204
 1160W        W 3310   8.391   1.339   1.169 -0.4434 -0.0956  0.0425
 1161W        W 3311  16.643   0.374  10.408 -0.1944 -0.0203  0.0476
 1162W        W 3312  18.456   0.160  39.790  0.0080 -0.1730  0.0350
 1163W        W 3313   4.564   5.891  32.453 -0.0263 -0.0860 -0.1692
 1164W        W 3314   7.058   4.711   6.324  0.2355 -0.2237  0.0083
 1165W        W 3315  20.446   0.416  13.232 -0.0546  0.0728 -0.0048
 1166W        W 3316  18.222   1.063  40.310  0.4022 -0.1876 -0.0050
 1167W        W 3317  11.540   3.219  38.404  0.0010 -0.0282  0.1364
 1168W        W 3318   4.764   4.569  44.740  0.1686 -0.1269  0.3823
 1169W        W 3319  16.783   4.903  37.324  0.0116 -0.0636 -0.2634
 1170W        W 3320  10.088   3.179  37.136  0.1480  0.0030  0.1075
 1171W        W 3321  19.052   0.770  38.513 -0.0253 -0.0709 -0.3221
 1172W        W 3322   8.843   2.292  33.538  0.0554 -0.0819  0.2673
 1173W        W 3323  19.572   1.006  29.167 -0.1091 -0.0142 -0.2909
 1174W        W 3324   5.924   1.338  33.037  0.2837  0.0851  0.2473
 1175W        W 3325  17.383   1.071  38.134  0.2367 -0.0226  0.0166
 1176W        W 3326  18.124   0.004  30.441  0.1905 -0.4334 -0.0801
 1177W        W 3327  19.230   4.327  30.043  0.1234 -0.0406 -0.0598
 1178W        W 3328   4.225   4.223  10.415  0.0881 -0.0781  0.1161
 1179W        W 3329  16.995   6.075  17.368 -0.0857  0.0916 -0.0859
 1180W        W 3330   7.838   5.721  24.407 -0.0915 -0.0220  0.0412
 1181W        W 3331   6.034   0.269  23.116  0.1030  0.2519  0.0419
 1182W        W 3332  11.459   2.944  14.896  0.0471  0.1268  0.1880
 1183W        W 3333  10.127   4.053  33.792  0.0129 -0.3179 -0.1020
 1184W        W 3334   9.394   4.931  29.096  0.1340  0.1614  0.0469
 1185W        W 3335  18.065   1.318   8.838 -0.0183  0.1251  0.0981
 1186W        W 3336  14.644   3.547  16.167  0.0693 -0.1141 -0.3108
 1187W        W 3337   7.091   6.199  35.411 -0.0643  0.0211  0.0746
 1188W        W 3338   0.811   2.028  10.676 -0.2300 -0.3507  0.0564
 1189W        W 3339  15.329   5.383  12.495 -0.0812  0.3086  0.1047
 1190W        W 3340  19.124   2.502  33.794 -0.0002 -0.0612 -0.1563
 1191W        W 3341  16.932   5.087  44.697  0.2407 -0.0704  0.0678
 1192W        W 3342   9.636   2.525   0.850 -0.0392 -0.1410  0.1272
 1193W        W 3343  20.021   1.951  39.905  0.1233  0.1770 -0.1748
 1194W        W 3344   5.752   1.853   1.136  0.1274  0.0994  0.1906
 1195W        W 3345  12.917   2.191  40.916  0.1067 -0.0768  0.0784
 1196W        W 3346  14.116   4.368  16.652 -0.0603 -0.2024 -0.2378
 1197W        W 3347   1.801   0.796   3.018 -0.0329 -0.1120  0.0473
 1198W        W 3348  13.761   3.235  37.695  0.0366 -0.1675  0.1382
 1199W        W 3349   4.453   6.198  37.210  0.1276  0.1752  0.1744
 1200W        W 3350   2.633   5.991  45.029  0.0037  0.2364  0.1357
 1201W        W 3351  17.051   3.960   2.304  0.2395 -0.3277 -0.2373
 1202W        W 3352   6.863   4.344  39.323 -0.1332  0.3710  0.2670
 1203W        W 3353  16.224   3.706   9.976 -0.2523  0.1809 -0.1714
 1204W        W 3354   3.096   1.529  30.004  0.3983 -0.2898 -0.0518
 1205W        W 3355  16.196   2.069  15.643 -0.1790 -0.1614  0.0854
 1206W        W 3356   1.758   4.865   9.078  0.2415 -0.1488  0.0733
 1207W        W 3357  11.254   4.621  31.118  0.1792 -0.4500  0.3364
 1208W        W 3358  12.131   2.114  14.082 -0.0629 -0.1818 -0.1272
 1209W        W 3359  15.627   5.070  29.593 -0.1707  0.3059  0.0682
 1210W        W 3360  10.474   3.356  31.746 -0.0944  0.2184  0.0380
 1211W        W 3361   9.103   2.629  39.217 -0.0868 -0.1801  0.1602
 1212W        W 3362  10.413   5.505  38.792  0.0896  0.0008 -0.5278
 1213W        W 3363   6.002   4.900   3.706 -0.1372 -0.1908  0.0084
 1214W        W 3364   2.462   3.031  44.275  0.0100 -0.0900  0.0910
 1215W        W 3365  12.182   3.756  17.942 -0.0862  0.1785  0.0877
 1216W        W 3366  11.022   3.001   9.913 -0.1972  0.3879  0.0110
 1217W        W 3367  12.239   3.196  18.806  0.0204 -0.1820  0.1717
 1218W        W 3368   4.093   0.384  13.370 -0.3327 -0.1287 -0.2077
 1219W        W 3369  17.699   5.789  31.299 -0.0628 -0.2105 -0.0756
 1220W        W 3370  15.002   0.977   5.261 -0.1288 -0.0342 -0.1566
 1221W        W 3371  14.673   6.050  20.561  0.1752  0.1194 -0.2037
 1222W        W 3372  12.364   0.851  11.523 -0.1329 -0.2179  0.0078
 1223W        W 3373  14.997   0.507   7.551 -0.0155  0.0017 -0.2814
 1224W        W 3374   2.066   1.531  38.875  0.0338 -0.3633  0.0974
 1225W        W 3375   2.591   3.097  25.757  0.0806  0.0733 -0.0226
 1226W        W 3376   4.145   3.602  26.700  0.0865  0.1462 -0.0787
 1227W        W 3377  12.463   0.968  43.930  0.2098 -0.2012  0.0105
 1228W        W 3378  11.826   5.096   4.121  0.4341  0.1238  0.1041
 1229W        W 3379  15.054   5.858   5.005  0.0738 -0.0223  0.1574
 1230W        W 3380   7.963   3.866   7.968 -0.0215  0.1410 -0.3103
 1231W        W 3381   6.380   5.403   6.857 -0.0859 -0.0507  0.0475
 1232W        W 3382   0.610   3.909  16.746 -0.3594  0.2535  0.1673
 1233W        W 3383  18.923   5.880  29.302  0.0855  0.1229  0.1384
 1234W        W 3384   6.714   3.704   6.801  0.0887 -0.1605 -0.0457
 1235W        W 3385   7.182   3.214  25.780 -0.0700  0.0362 -0.2267
 1236W        W 3386  17.762   1.209  39.170  0.1026  0.0488 -0.3013
 1237W        W 3387  16.508   6.533  40.757  0.0908  0.0947 -0.4408
 1238W        W 3388  13.830   5.838  40.038 -0.2467 -0.1181  0.1701
 1239W        W 3389  14.682   4.062   0.939 -0.2557  0.1860 -0.5806
 1240W        W 3390   3.850   2.704  45.022 -0.2331 -0.0415 -0.1439
 1241W        W 3391  10.842   4.932  17.088 -0.0966  0.1941 -0.1418
 1242W        W 3392   6.549   4.951   0.155 -0.3659 -0.1395  0.1116
 1243W        W 3393   5.885   3.493  41.902 -0.2368  0.3469 -0.1706
 1244W        W 3394   3.232   0.058  34.949  0.0764 -0.1074  0.0875
 1245W        W 3395  17.522   1.392  11.049  0.0179 -0.2010 -0.1049
 1246W        W 3396   4.871   1.127  13.421 -0.0590  0.0656  0.1125
 1247W        W 3397   6.966   1.891   1.165  0.2814 -0.2241  0.0898
 1248W        W 3398   9.413   2.318  40.045  0.1470 -0.1496 -0.0208
 1249W        W 3399   3.624   4.211  34.416  0.0339 -0.2534 -0.1334
 1250W        W 3400   2.501   0.030  43.402 -0.1401 -0.1539  0.2861
 1251W        W 3401  11.357   5.238   6.563 -0.1165 -0.0622  0.4922
 1252W        W 3402   0.625   5.073   3.814  0.1856  0.0473 -0.1967
 1253W        W 3403  13.403   2.991   8.990  0.2446 -0.2023 -0.1135
 1254W        W 3404   2.736   5.861  42.822 -0.2008 -0.4757  0.2213
 1255W        W 3405   8.490   2.722  26.442 -0.0012  0.1425  0.1677
 1256W        W 3406  13.093   3.999  18.363  0.2253  0.0290 -0.0892
 1257W        W 3407  15.738   4.636  40.928 -0.0373  0.0172 -0.0829
 1258W        W 3408   9.274   5.403  10.012 -0.1074  0.1258 -0.1486
 1259W        W 3409  12.473   6.521   4.172  0.0385  0.2282 -0.0663
 1260W        W 3410  13.981   5.212  29.970  0.2652 -0.0091  0.1347
 1261W        W 3411   2.612   4.020  30.753  0.0104  0.0488 -0.1598
 1262W        W 3412  13.285   4.695  29.561  0.3072 -0.1155 -0.0483
 1263W        W 3413  18.667   3.848  31.597 -0.2785  0.2192  0.2577
 1264W        W 3414   1.822   4.375   1.618 -0.0417  0.0845  0.1295
 1265W        W 3415   2.829   3.413  40.074  0.0482  0.1110  0.2459
 1266W        W 3416  13.451   5.489   4.130 -0.2632  0.1806 -0.1340
 1267W        W 3417  12.920   1.413  37.010  0.2237  0.1590  0.0554
 1268W        W 3418  13.321   2.140  18.823 -0.2697  0.0926  0.0875
 1269W        W 3419   0.150   6.560  12.703 -0.1630 -0.1913 -0.0493
 1270W        W 3420   5.760   1.479  40.045  0.1804 -0.1332  0.2263
 1271W        W 3421  14.571   3.893  19.617 -0.3475 -0.2287  0.1420
 1272W        W 3422  10.082   2.057  10.204  0.2869 -0.0042  0.2931
 1273W        W 3423  12.907   1.035   5.909 -0.2863 -0.2145  0.0796
 1274W        W 3424   7.784   0.676   1.948  0.1330 -0.1899 -0.2808
 1275W        W 3425   3.507   5.233  35.432  0.0657  0.1430 -0.1709
 1276W        W 3426  20.177   3.967   0.416  0.0077  0.0498  0.1209
 1277W        W 3427  10.710   4.649  34.679 -0.2748  0.2426 -0.1217
 1278W        W 3428   9.770   4.851  10.035 -0.0096  0.1613  0.1373
 1279W        W 3429   6.581   5.686  12.374  0.0596 -0.0954  0.0516
 1280W        W 3430  13.974   2.999  18.942 -0.2225  0.1118 -0.0671
 1281W        W 3431   2.112   0.378  27.467 -0.1986 -0.1402  0.1643
 1282W        W 3432  15.786   3.878  33.338  0.2661 -0.1591  0.1069
 1283W        W 3433   0.463   2.988  34.987 -0.0317 -0.0361 -0.1914
 1284W        W 3434  17.959   2.211  39.537  0.0923  0.1323  0.3304
 1285W        W 3435  15.322   1.072   4.839 -0.1577 -0.0510 -0.2539
 1286W        W 3436  18.125   4.311  39.678 -0.2207 -0.1315  0.0751
 1287W        W 3437  19.084   5.603  30.787 -0.4278 -0.0754  0.0143
 1288W        W 3438   2.072   6.498  25.618  0.1823 -0.2022  0.0785
 1289W        W 3439   2.280   0.622  29.355 -0.1553  0.0676  0.1265
 1290W        W 3440   7.513   2.244  34.878 -0.0346 -0.0339  0.1183
 1291W        W 3441   2.378   4.958  28.868 -0.2873  0.2566 -0.1972
 1292W        W 3442  12.975   3.009  38.268 -0.1942  0.0991  0.0291
 1293W        W 3443   9.411   3.495  25.000  0.2719  0.1872  0.1328
 1294W        W 3444  21.096   4.012   1.837 -0.0000 -0.1577 -0.0252
 1295W        W 3445   9.600   2.779  40.474  0.3145 -0.0347  0.2579
 1296W        W 3446   9.066   5.160  28.751  0.2551  0.2276 -0.0340
 1297W        W 3447   7.276   1.872  26.167  0.1946  0.0775  0.2631
 1298W        W 3448  16.098   1.181   4.375  0.0232 -0.0625 -0.0421
 1299W        W 3449  18.125   0.994  44.917  0.2085 -0.0919  0.1000
 1300W        W 3450   1.124   5.005   5.884 -0.1212  0.1586 -0.1069
 1301W        W 3451  17.910   6.425   2.821  0.2659  0.1015  0.1175
 1302W        W 3452  18.190   2.116  40.376 -0.0055 -0.0821 -0.0095
 1303W        W 3453   2.554   0.253  24.221 -0.0554  0.3095 -0.0205
 1304W        W 3454  11.431   6.397  18.356 -0.1721  0.1026  0.1385
 1305W        W 3455   1.281   2.640   6.940 -0.0755 -0.1119  0.2268
 1306W        W 3456   6.673   3.565  23.473  0.1175 -0.1809  0.2509
 1307W        W 3457  18.758   4.534  19.459  0.0324  0.1716 -0.0257
 1308W        W 3458  15.660   2.905  34.402 -0.1916  0.1088  0.0961
 1309W        W 3459   4.959   4.090  38.448  0.0169  0.1932 -0.0316
 1310W        W 3460  14.193   0.353   8.033  0.3122 -0.3343 -0.2707
 1311W        W 3461   9.311   6.119   6.875  0.1686 -0.1776  0.1695
 1312W        W 3462  19.600   1.561   5.703  0.0650 -0.1012  0.0876
 1313W        W 3463   6.367   2.228  40.128  0.4736  0.0773 -0.1244
 1314W        W 3464   5.607   4.137  43.178 -0.0858  0.1597  0.0948
 1315W        W 3465   1.196   1.647  32.385  0.0150  0.1669  0.2100
 1316W        W 3466  10.274   2.824  16.692 -0.1807  0.1246  0.0167
 1317W        W 3467  18.680   3.200  40.436  0.0438 -0.3100 -0.0879
 1318W        W 3468  14.212   5.265  12.820  0.0487  0.1199  0.1132
 1319W        W 3469   4.498   3.033   5.665  0.0694 -0.1404 -0.1539
 1320W        W 3470   6.250   3.983  30.032 -0.0386 -0.1101  0.2297
 1321W        W 3471  19.709   4.850  29.594 -0.1760  0.2246 -0.0082
 1322W        W 3472  17.016   4.457  10.473  0.0315 -0.0525 -0.0082
 1323W        W 3473   8.231   2.966   3.517 -0.2935 -0.0527  0.3497
 1324W        W 3474   7.344   3.272  34.258  0.0358  0.0966 -0.2012
 1325W        W 3475  13.388   3.941  44.247  0.1569 -0.1545  0.1791
 1326W        W 3476  14.931   0.628  32.008  0.4141  0.0129  0.0347
 1327W        W 3477  11.287   0.536  14.202  0.2398  0.0276  0.2250
 1328W        W 3478   8.910   0.735  24.307 -0.1880  0.0939 -0.0225
 1329W        W 3479  16.951   3.737  13.675 -0.2654 -0.1112 -0.2686
 1330W        W 3480   6.711   6.217   4.712  0.0318 -0.0779 -0.1974
 1331W        W 3481  16.452   2.144  39.833  0.0009  0.3980  0.1227
 1332W        W 3482   8.323   1.425  25.562  0.1648 -0.0363 -0.0833
 1333W        W 3483  11.081   0.712   7.625  0.0079  0.0234  0.3202
 1334W        W 3484  20.121   2.984   7.934 -0.1254 -0.1547  0.0046
 1335W        W 3485   4.607   5.926  42.491 -0.0825 -0.1215 -0.2272
 1336W        W 3486  16.371   2.462  36.094  0.2742  0.0345  0.4022
 1337W        W 3487  10.331   2.972  36.119  0.3657 -0.0631 -0.0087
 1338W        W 3488   5.733   1.808  30.268 -0.3191 -0.0537 -0.1554
 1339W        W 3489  16.748   4.337  37.811  0.1742  0.1926  0.3182
 1340W        W 3490   5.618   6.251  39.757  0.1047 -0.2541 -0.1246
 1341W        W 3491  12.566   3.988  16.691 -0.1789  0.1991  0.0732
 1342W        W 3492   6.650   4.444  29.517 -0.4661  0.1952  0.1786
 1343W        W 3493   4.006   5.888  32.563 -0.0899 -0.1325 -0.1223
 1344W        W 3494  19.965   3.806  10.893 -0.0613 -0.0373 -0.1659
 1345W        W 3495   4.959   1.979  22.619  0.0012  0.0942  0.0796
 1346W        W 3496  17.701   4.303  19.510  0.1036 -0.0681 -0.3141
 1347W        W 3497   9.208   1.551  40.656  0.2745 -0.0154 -0.0026
 1348W        W 3498  10.497   1.939   4.838 -0.0226 -0.2869  0.2351
 1349W        W 3499  10.167   6.426  16.575  0.0096  0.1582  0.1545
 1350W        W 3500  11.766   1.524  34.088 -0.4542  0.0694  0.0230
 1351W        W 3501  14.771   2.857  14.129 -0.2931 -0.3250 -0.0903
 1352W        W 3502  18.332   4.075  18.821  0.0265 -0.0165 -0.0669
 1353W        W 3503  18.005   6.566  17.246  0.1592  0.1257 -0.3221
 1354W        W 3504  19.942   3.312  20.528 -0.2432  0.1055  0.3037
 1355W        W 3505  15.869   5.593  20.234  0.0186  0.0044 -0.0188
 1356W        W 3506   2.020   0.372  32.449 -0.1135 -0.1227  0.2169
 1357W        W 3507   3.957   4.527  12.979  0.3786  0.2037 -0.1856
 1358W        W 3508   4.336   3.869  26.283  0.2649 -0.3234 -0.0572
 1359W        W 3509  14.366   5.586  30.776 -0.2224  0.1273  0.3047
 1360W        W 3510  12.941   0.909  37.160 -0.0080 -0.3426 -0.0969
 1361W        W 3511  16.853   4.597  35.770 -0.0374 -0.0230  0.1453
 1362W        W 3512   4.655   5.074  29.175  0.2697 -0.0654 -0.0201
 1363W        W 3513  10.948   4.074  16.269 -0.3059  0.1503  0.3839
 1364W        W 3514   5.808   2.189  23.699 -0.2844  0.0537 -0.1561
 1365W        W 3515  20.427   2.737  11.879 -0.0898 -0.0635 -0.4006
 1366W        W 3516  17.992   0.487  14.384  0.0749 -0.1306  0.0581
 1367W        W 3517   9.858   6.379  30.372  0.1532  0.0903  0.1550
 1368W        W 3518  10.390   5.101  43.653 -0.0502  0.2773  0.0864
 1369W        W 3519   5.909   5.666  10.232 -0.5076  0.0160 -0.0450
 1370W        W 3520   2.966   5.003  34.790  0.1683 -0.0573  0.0839
 1371W        W 3521  14.100   3.498  42.994  0.0430 -0.1822 -0.1557
 1372W        W 3522   4.554   1.682  11.940 -0.0413 -0.0129 -0.1364
 1373W        W 3523  14.969   5.389  40.600 -0.0551 -0.1311  0.3555
 1374W        W 3524  14.447   2.897  31.564 -0.2751 -0.0013 -0.0277
 1375W        W 3525   9.707   1.862  40.020 -0.3082 -0.0353 -0.1023
 1376W        W 3526  17.013   0.646   7.833 -0.0851  0.2935 -0.0494
 1377W        W 3527   2.831   5.029  32.603  0.1133 -0.0609  0.0064
 1378W        W 3528  12.496   6.285  18.685 -0.1686 -0.1864 -0.0104
 1379W        W 3529   3.863   0.419  27.200  0.1088 -0.0549 -0.0501
 1380W        W 3530   7.874   2.452   1.240 -0.3074 -0.1203  0.2239
 1381W        W 3531   2.334   4.285  24.228 -0.2728 -0.0933 -0.1609
 1382W        W 3532   2.423   2.234  11.662 -0.0676 -0.0601 -0.0037
 1383W        W 3533  11.916   5.449  34.365 -0.1245 -0.0970  0.4408
 1384W        W 3534  13.019   6.200  11.275 -0.0915  0.1744  0.1332
 1385W        W 3535  19.296   4.673   3.262  0.1424  0.1602 -0.3029
 1386W        W 3536  19.354   0.336  16.096  0.0584  0.0775  0.2746
 1387W        W 3537  20.547   4.748   6.999 -0.0489 -0.0126  0.1239
 1388W        W 3538  19.694   0.370  14.614  0.1487 -0.0165 -0.1493
 1389W        W 3539   8.351   6.453  37.619  0.0078 -0.3593 -0.1449
 1390W        W 3540   9.336   5.521  12.216 -0.0162  0.0858  0.0115
 1391W        W 3541   5.146   5.767  11.317  0.2673  0.1302 -0.0320
 1392W        W 3542  13.011   3.034  40.665 -0.1947  0.0264  0.1580
 1393W        W 3543   5.048   3.849  40.813  0.0058 -0.3256 -0.0054
 1394W        W 3544   5.179   2.420  34.941  0.1615  0.0369 -0.1755
 1395W        W 3545  18.654   0.696   4.260 -0.0266 -0.0203 -0.2431
 1396W        W 3546  12.671   0.732  29.600  0.0732  0.0976 -0.2693
 1397W        W 3547  18.460   6.576   8.307  0.3211  0.0179 -0.0326
 1398W        W 3548  10.759   5.839  16.497  0.2113  0.2049  0.0691
 1399W        W 3549  16.320   1.754  43.860  0.0056 -0.3520  0.3887
 1400W        W 3550  20.716   4.635  35.348  0.2163 -0.0373 -0.0775
 1401W        W 3551   3.858   1.438  11.373 -0.0864 -0.2416 -0.0940
 1402W        W 3552   7.650   1.352  31.921  0.1146  0.1036 -0.0563
 1403W        W 3553  11.900   5.728  28.492 -0.2018  0.2154 -0.1612
 1404W        W 3554   6.667   4.639  15.894  0.0878 -0.0946 -0.0836
 1405W        W 3555  18.303   1.371  33.037  0.1520 -0.0128 -0.3100
 1406W        W 3556   6.091   6.141  23.939  0.1819  0.1217  0.2825
 1407W        W 3557  19.332   4.011  18.349  0.2282 -0.0499 -0.2639
 1408W        W 3558  13.416   1.419   3.456 -0.1883 -0.2322 -0.0457
 1409W        W 3559  18.645   1.544   2.461 -0.1811  0.3153 -0.2864
 1410W        W 3560  20.386   2.695   2.763  0.0553 -0.0517  0.1978
 1411W        W 3561   7.032   3.050  12.121 -0.1058 -0.2959 -0.2068
 1412W        W 3562   8.788   1.763  28.496 -0.0954  0.2134  0.1417
 1413W        W 3563  17.686   6.438   4.921  0.1418 -0.1635  0.0013
 1414W        W 3564  12.425   0.870  17.103  0.0576 -0.1938 -0.3193
 1415W        W 3565   4.793   0.372  44.720 -0.0238 -0.0719  0.4237
 1416W        W 3566  19.609   1.546  42.664 -0.0892  0.0761  0.0050
 1417W        W 3567   2.811   5.375  30.008  0.1673  0.0218 -0.0392
 1418W        W 3568   7.195   1.978  28.195 -0.1997  0.2693  0.1229
 1419W        W 3569  13.766   4.692   8.834 -0.0024  0.1244 -0.2409
 1420W        W 3570   6.380   3.027  37.023  0.3467  0.6356 -0.1155
 1421W        W 3571   6.785   4.049   4.471 -0.3363 -0.3193 -0.0129
 1422W        W 3572   4.045   2.295  40.636  0.1173 -0.1771  0.0212
 1423W        W 3573   1.242   1.314  10.067 -0.2413 -0.1440 -0.0136
 1424W        W 3574  14.036   0.375  33.973 -0.0814  0.2148 -0.0338
 1425W        W 3575  13.189   4.427   1.993  0.2912  0.0154  0.2479
 1426W        W 3576  16.100   1.754   9.241  0.0002 -0.0205  0.2778
 1427W        W 3577  13.084   2.036  14.283 -0.2508  0.1477 -0.1402
 1428W        W 3578  11.726   6.099  38.179  0.0135 -0.1388  0.3301
 1429W        W 3579  16.527   2.054   7.046  0.1031  0.1563  0.0928
 1430W        W 3580  18.204   5.435  13.410  0.0776  0.0805 -0.0107
 1431W        W 3581  19.471   5.396  40.255 -0.1291  0.1841 -0.2063
 1432W        W 3582  17.220   2.128  40.303  0.0940  0.0736 -0.3328
 1433W        W 3583   4.139   1.065  12.769  0.3052  0.1815 -0.0473
 1434W        W 3584  11.135   2.599   8.688  0.0713  0.0506 -0.0355
 1435W        W 3585  18.758   1.646  42.911  0.1847  0.0023  0.1406
 1436W        W 3586  19.745   6.495  29.109  0.0439 -0.3470  0.1090
 1437W        W 3587   5.086   0.906   0.871 -0.1198 -0.0255 -0.1007
 1438W        W 3588   6.772   2.934  35.688  0.0485  0.0297 -0.0413
 1439W        W 3589  20.594   0.683  16.227 -0.2003  0.2777 -0.2153
 1440W        W 3590   7.569   1.631  40.540 -0.0625  0.0678 -0.2926
 1441W        W 3591  10.716   5.471   2.576  0.1466  0.1063 -0.2289
 1442W        W 3592   5.375   4.845  34.211 -0.0950  0.0962 -0.3141
 1443W        W 3593   0.339   5.731  12.496  0.2857  0.0669  0.0306
 1444W        W 3594   5.445   2.494  23.387  0.1556  0.0163  0.0814
 1445W        W 3595   0.330   4.008  38.885 -0.3272 -0.2358  0.0040
 1446W        W 3596   5.770   0.832  43.959 -0.0555  0.1059 -0.0183
 1447W        W 3597   5.164   5.652  21.853 -0.0584 -0.0393 -0.1214
 1448W        W 3598   1.156   5.393  33.165 -0.1277  0.0518 -0.5276
 1449W        W 3599   8.912   1.231  27.727  0.0460  0.1363  0.1415
 1450W        W 3600  19.021   1.452  31.216 -0.1974 -0.1108  0.3032
 1451W        W 3601  12.262   4.399  42.431 -0.0994 -0.0226 -0.0016
 1452W        W 3602  16.674   1.631  43.531  0.5124 -0.3309  0.0404
 1453W        W 3603  17.995   2.973   5.304 -0.1627  0.0885  0.0872
 1454W        W 3604   5.541   3.244   8.442 -0.1665  0.0802  0.1385
 1455W        W 3605   4.562   3.743  22.840  0.0541 -0.0797  0.1125
 1456W        W 3606  13.520   0.803  15.765  0.0719  0.0870  0.0792
 1457W        W 3607  12.706   5.557  36.487 -0.4041  0.0375  0.1251
 1458W        W 3608  18.132   0.510  30.648  0.1857 -0.3138 -0.1098
 1459W        W 3609   4.318   2.142  11.998  0.0563 -0.1561 -0.2785
 1460W        W 3610  12.815   1.296  16.075 -0.1436  0.1531 -0.0936
 1461W        W 3611  13.689   6.465  29.711 -0.0041  0.2776  0.2286
 1462W        W 3612   0.328   0.687  28.854 -0.0396 -0.3083 -0.0516
 1463W        W 3613   1.009   1.705  33.611  0.1121 -0.0117  0.0064
 1464W        W 3614   8.103   4.413  30.817 -0.0765 -0.0278  0.1696
 1465W        W 3615  15.840   1.674  10.132  0.0945  0.1483 -0.0292
 1466W        W 3616  11.969   0.208  14.578  0.1203  0.0055 -0.0307
 1467W        W 3617   4.020   5.080  31.008  0.1209  0.2027 -0.1876
 1468W        W 3618  12.542   1.901  34.466 -0.3533  0.2871  0.2584
 1469W        W 3619   6.392   1.142   9.167 -0.0193  0.0483  0.2095
 1470W        W 3620  15.491   6.345  22.138 -0.1288 -0.0628 -0.0347
 1471W        W 3621   5.969   2.704   9.421 -0.2310  0.3403  0.1772
 1472W        W 3622  10.661   1.764  38.755 -0.2513 -0.1039 -0.0223
 1473W        W 3623  14.171   2.409  41.262  0.1411  0.1833 -0.0717
 1474W        W 3624   4.850   5.641  42.839 -0.1430 -0.0569 -0.1084
 1475W        W 3625  15.080   3.508  10.142 -0.1299 -0.0324  0.1449
 1476W        W 3626  14.786   0.605  19.298 -0.2223 -0.0156  0.1210
 1477W        W 3627  13.040   5.870   8.321  0.4497  0.2120  0.0076
 1478W        W 3628   5.394   2.557  33.318  0.1342  0.1630  0.0639
 1479W        W 3629  17.078   4.539  13.908 -0.0882  0.1361 -0.0054
 1480W        W 3630   3.068   0.827  40.518  0.0380  0.0879  0.0299
 1481W        W 3631   1.216   5.581  36.826 -0.1875  0.3288 -0.2487
 1482W        W 3632   0.573   5.312  12.734 -0.2641 -0.2336 -0.2861
 1483W        W 3633   9.909   5.304   5.951 -0.1035  0.0804 -0.0617
 1484W        W 3634   2.860   4.083  33.163 -0.0552 -0.1509 -0.2556
 1485W        W 3635  15.149   4.099  30.643  0.0744  0.1783  0.3756
 1486W        W 3636  14.758   5.743  39.820 -0.2602 -0.1591 -0.2465
 1487W        W 3637   5.127   2.671  32.504  0.0226 -0.3209 -0.0215
 1488W        W 3638   1.944   5.064  25.875  0.0586  0.0342  0.1612
 1489W        W 3639   1.148   2.446  17.113  0.0382  0.3672 -0.0401
 1490W        W 3640   6.814   2.143   3.705  0.0151 -0.1237 -0.0239
 1491W        W 3641   6.595   1.657  13.081  0.0026 -0.0078  0.0322
 1492W        W 3642   4.254   3.935  12.355  0.0265  0.2069  0.0160
 1493W        W 3643   0.403   0.426   7.651  0.2239  0.0594  0.1532
 1494W        W 3644   8.983   0.653  39.501 -0.1798 -0.3482  0.0327
 1495W        W 3645   4.838   0.035  39.058  0.0879  0.0989 -0.5040
 1496W        W 3646  12.198   1.227   8.917  0.0159  0.2510 -0.1667
 1497W        W 3647  20.388   1.800  31.650 -0.3024  0.1083 -0.2475
 1498W        W 3648  14.656   4.126  12.571 -0.3763 -0.2087 -0.2110
 1499W        W 3649  15.700   5.582  42.504  0.0348  0.0483 -0.0166
 1500W        W 3650  12.885   0.699  35.832 -0.1867  0.1748 -0.0978
 1501W        W 3651  17.562   3.400  15.299 -0.0741 -0.0569 -0.1132
 1502W        W 3652  12.221   0.008  29.859 -0.2690 -0.0385 -0.1513
 1503W        W 3653   3.315   2.701  10.174  0.0033 -0.0851  0.0362
 1504W        W 3654   0.184   6.457  16.164 -0.0378 -0.2214  0.0277
 1505W        W 3655  13.606   2.892  28.620 -0.0278  0.0742 -0.0687
 1506W        W 3656   4.996   2.117   5.758 -0.1678 -0.1867 -0.0966
 1507W        W 3657   9.901   5.654   3.144  0.0259 -0.2155  0.0681
 1508W        W 3658  13.176   5.446  15.088  0.0471 -0.1208 -0.1722
 1509W        W 3659  12.630   3.115   0.564 -0.2224  0.1858  0.2798
 1510W        W 3660   5.991   4.801   9.584 -0.1003 -0.0918  0.1394
 1511W        W 3661   7.471   1.232  42.534 -0.2578 -0.0418  0.0406
 1512W        W 3662  16.554   5.389  43.785  0.3361  0.1777  0.2008
 1513W        W 3663   0.077   3.844   4.980  0.4576 -0.0146 -0.0546
 1514W        W 3664  17.172   3.676   9.492  0.1974  0.1257  0.1977
 1515W        W 3665  19.348   0.619   6.231  0.0600  0.0177 -0.1829
 1516W        W 3666   6.252   2.975  31.510 -0.1524  0.0737 -0.1097
 1517W        W 3667   4.439   6.129  12.217  0.1704 -0.0513  0.1499
 1518W        W 3668  19.099   5.646  29.667  0.1125 -0.0295  0.0106
 1519W        W 3669   2.826   6.227   1.816 -0.1489  0.1544 -0.0564
 1520W        W 3670   0.196   0.167   8.567 -0.4509  0.3421  0.3164
 1521W        W 3671  16.149   4.182  34.589  0.1420 -0.1111 -0.0057
 1522W        W 3672   3.921   3.455   3.004  0.0436 -0.1180 -0.2753
 1523W        W 3673   3.532   0.838  23.391  0.4924 -0.2330 -0.0774
 1524W        W 3674   6.800   0.281  25.871 -0.1397  0.1510  0.0683
 1525W        W 3675   2.205   0.527   5.355  0.0362  0.0766  0.0440
 1526W        W 3676  14.314   4.136  17.646  0.1105  0.3665 -0.0974
 1527W        W 3677  16.770   6.133  44.563  0.0781 -0.1325 -0.4248
 1528W        W 3678   2.599   4.631   4.027 -0.0399  0.1284 -0.0762
 1529W        W 3679   1.857   3.202   9.926 -0.0328  0.0908  0.1664
 1530W        W 3680  21.144   4.977  18.361  0.0065 -0.1293 -0.1415
 1531W        W 3681   0.584   2.189  11.047 -0.2832 -0.1419  0.3004
 1532W        W 3682   3.719   5.189   9.743  0.2023  0.1194  0.2188
 1533W        W 3683   3.926   2.995  41.544 -0.0184 -0.0425 -0.4041
 1534W        W 3684   7.943   1.814   3.959 -0.1885  0.0073  0.1343
 1535W        W 3685  20.025   5.622  31.833 -0.0378 -0.1149  0.1115
 1536W        W 3686  17.775   0.040  39.003 -0.0241  0.1828  0.0659
 1537W        W 3687  10.355   3.366  10.484 -0.0868 -0.1010 -0.1810
 1538W        W 3688   6.941   4.094   2.728  0.1176 -0.1806  0.0435
 1539W        W 3689   7.646   1.547  42.877 -0.0243 -0.2422  0.0072
 1540W        W 3690   7.880   6.141   8.247 -0.1265  0.1094 -0.1322
 1541W        W 3691   7.398   5.795  27.299 -0.1418  0.1424  0.0565
 1542W        W 3692  17.426   5.489  21.993  0.4892 -0.0174  0.0514
 1543W        W 3693   8.967   4.135  43.683 -0.1074 -0.1454  0.1133
 1544W        W 3694  18.403   5.628  29.262 -0.2028  0.0841  0.1825
 1545W        W 3695   4.405   1.349   1.379 -0.0048  0.1069 -0.1832
 1546W        W 3696   4.460   1.558  44.511 -0.0593  0.1954 -0.0309
 1547W        W 3697   3.675   1.710   4.797 -0.0252 -0.1017  0.1182
 1548W        W 3698   8.892   1.552  35.517  0.2324  0.1829 -0.0970
 1549W        W 3699   1.844   1.548  31.479  0.0585 -0.1072  0.0763
 1550W        W 3700   9.165   1.940  33.512  0.0034  0.1443  0.1838
 1551W        W 3701  12.987   3.483  37.946  0.2480  0.0291  0.2135
 1552W        W 3702  16.051   2.694  10.218 -0.2375 -0.5559  0.1719
 1553W        W 3703  16.818   3.946  11.264 -0.2563  0.3040  0.0797
 1554W        W 3704   2.840   2.039   8.956  0.1762  0.0924 -0.3414
 1555W        W 3705  11.054   2.687  14.729 -0.1067 -0.3706 -0.0536
 1556W        W 3706  19.802   1.657  18.975  0.1735 -0.0163 -0.1624
 1557W        W 3707  15.829   0.963   7.426 -0.1493 -0.0109  0.1200
 1558W        W 3708   2.995   3.214   8.307  0.0114  0.0992  0.1636
 1559W        W 3709  11.507   5.829  31.354 -0.1117 -0.1613 -0.0976
 1560W        W 3710  12.305   5.957  18.273 -0.1224  0.1131 -0.0924
 1561W        W 3711   0.750   1.408  16.368  0.0671  0.0883  0.1695
 1562W        W 3712  13.432   2.344  43.148 -0.1494  0.1093 -0.0318
 1563W        W 3713   6.888   1.054  41.296  0.0311  0.0126 -0.0871
 1564W        W 3714   5.649   0.201  14.078 -0.1007  0.1073  0.2114
 1565W        W 3715  15.813   5.195  24.560 -0.0492 -0.1976  0.1190
 1566W        W 3716   0.354   2.873   0.378 -0.1005  0.0080 -0.0875
 1567W        W 3717  13.427   5.733  30.322 -0.0577 -0.0566 -0.0526
 1568W        W 3718  15.116   5.967  41.909 -0.1954  0.2581 -0.1168
 1569W        W 3719  18.014   4.181  18.162  0.2706 -0.1526  0.0286
 1570W        W 3720   0.816   5.735   6.236 -0.2797 -0.5729 -0.0568
 1571W        W 3721   9.911   2.722  42.861 -0.0751  0.0823  0.0528
 1572W        W 3722  19.744   0.144  12.549 -0.3560  0.1101 -0.1376
 1573W        W 3723   5.731   4.164  30.611 -0.0992 -0.0909  0.1911
 1574W        W 3724  15.876   2.979  11.010  0.1801 -0.1619 -0.2660
 1575W        W 3725  19.245   2.680  42.128 -0.3017  0.1703  0.1454
 1576W        W 3726  18.981   4.187  42.018  0.0133  0.2832  0.0488
 1577W        W 3727  15.707   3.076  31.013 -0.0609 -0.1114 -0.0205
 1578W        W 3728  14.934   6.169  33.378 -0.1902  0.0285  0.0246
 1579W        W 3729   9.489   5.017   6.633  0.0826  0.2787 -0.2487
 1580W        W 3730  18.679   5.191  34.123 -0.1691 -0.1255  0.1347
 1581W        W 3731  11.603   1.427  16.155 -0.0254  0.4873  0.0750
 1582W        W 3732  11.011   5.998  36.240  0.0938 -0.0522  0.0727
 1583W        W 3733   4.701   1.300  44.875  0.1339 -0.0265  0.0503
 1584W        W 3734   1.294   1.854   9.975 -0.2081  0.0704  0.1641
 1585W        W 3735  14.908   6.511   7.508 -0.0009  0.2500 -0.0086
 1586W        W 3736  10.579   2.613  31.951  0.0134  0.2307 -0.1936
 1587W        W 3737  11.916   3.204   8.683  0.0793 -0.1892 -0.0378
 1588W        W 3738  20.469   3.979  42.765  0.2516  0.2256 -0.0439
 1589W        W 3739   1.820   2.812  33.527 -0.0128  0.4359  0.4083
 1590W        W 3740  15.325   2.540  14.648  0.1702  0.0770  0.2907
 1591W        W 3741   4.508   6.200  24.311  0.2915  0.1096 -0.0266
 1592W        W 3742   3.905   5.143  32.478  0.2209 -0.0629 -0.0054
 1593W        W 3743  10.289   2.816  34.652  0.1019 -0.0518 -0.2441
 1594W        W 3744   0.959   2.256   6.977  0.0002 -0.0343 -0.1307
 1595W        W 3745  14.701   4.439  21.392  0.4012 -0.2704  0.1368
 1596W        W 3746  10.133   3.641   1.951  0.2012 -0.2435 -0.0265
 1597W        W 3747  15.281   1.690  29.459  0.2651  0.3979  0.1603
 1598W        W 3748   6.303   2.481  12.241  0.0128  0.3154 -0.0976
 1599W        W 3749  18.284   6.532  34.745 -0.0531 -0.0879 -0.0494
 1600W        W 3750  15.847   2.950  35.369  0.1503  0.0074  0.2929
 1601W        W 3751  19.517   2.056  13.390 -0.0203  0.0613  0.0673
 1602W        W 3752   5.050   1.756  15.955 -0.1610 -0.0401  0.1929
 1603W        W 3753   7.161   2.044  39.087 -0.1253  0.0892  0.1434
 1604W        W 3754  16.185   6.462  35.016 -0.2278  0.3142 -0.0086
 1605W        W 3755   5.669   0.602  42.094 -0.0935  0.0125  0.1213
 1606W        W 3756  17.178   1.211   3.985 -0.0471  0.0342  0.0086
 1607W        W 3757  17.903   4.880  13.610 -0.2717 -0.2160 -0.2142
 1608W        W 3758   5.949   1.939  40.082  0.1017  0.0655  0.0068
 1609W        W 3759  12.284   2.952   2.508  0.1916 -0.0762  0.3014
 1610W        W 3760   5.567   2.903   6.554  0.0344 -0.1190 -0.0108
 1611W        W 3761   6.672   6.332  25.069  0.0645  0.0579 -0.2883
 1612W        W 3762  12.199   4.207  12.254 -0.1740 -0.1184  0.1303
 1613W        W 3763  18.076   1.005   3.584 -0.1136  0.0221 -0.0724
 1614W        W 3764  16.676   6.553  33.748 -0.2230 -0.1374 -0.3189
 1615W        W 3765   2.743   1.351  35.040  0.0751 -0.1757 -0.1644
 1616W        W 3766  11.571   4.848  32.382 -0.2790  0.3680 -0.0250
 1617W        W 3767  20.426   6.082  17.920 -0.0721  0.0651  0.0625
 1618W        W 3768  10.103   5.473   0.788 -0.0812  0.2468 -0.1524
 1619W        W 3769   7.268   0.325  38.424 -0.4128  0.1875 -0.3589
 1620W        W 3770   4.754   1.314  42.174 -0.0026 -0.0039  0.2017
 1621W        W 3771   0.230   6.323  32.898 -0.0977  0.1781  0.2740
 1622W        W 3772   8.035   2.500   6.177  0.3024 -0.2236 -0.0528
 1623W        W 3773   6.257   2.059  23.568 -0.3074 -0.2473  0.0528
 1624W        W 3774  20.859   2.158  41.311 -0.0728  0.1658  0.1621
 1625W        W 3775  10.829   5.307   8.739 -0.2791  0.0882  0.1218
 1626W        W 3776   8.997   6.126  38.781 -0.3011  0.0735  0.1798
 1627W        W 3777  18.175   0.598  12.373 -0.0502 -0.1507 -0.0538
 1628W        W 3778   3.757   2.675  15.362 -0.1844  0.1269  0.0404
 1629W        W 3779   8.203   0.948   7.980  0.3030 -0.0391 -0.0045
 1630W        W 3780   4.958   0.578  38.784 -0.1850 -0.0638  0.1910
 1631W        W 3781   6.956   3.762   2.167  0.2030 -0.1311 -0.2260
 1632W        W 3782  10.890   3.280  32.602 -0.0051  0.1779 -0.0417
 1633W        W 3783   8.651   1.316  14.643  0.1184 -0.1152  0.2316
 1634W        W 3784  20.633   5.355   2.374  0.1875 -0.1106  0.0392
 1635W        W 3785  14.968   5.248  31.305  0.2083 -0.0890  0.0239
 1636W        W 3786   9.539   1.629  28.093  0.0779 -0.0125  0.0982
 1637W        W 3787  20.341   5.637  31.465 -0.3594 -0.1280 -0.1467
 1638W        W 3788   6.083   5.687  21.479 -0.0379 -0.2453 -0.0546
 1639W        W 3789  19.268   0.476   7.174  0.0278 -0.0988  0.0399
 1640W        W 3790   7.674   2.735  43.363 -0.0512  0.0377 -0.1752
 1641W        W 3791   4.939   0.587  32.410 -0.0618  0.2075  0.2048
 1642W        W 3792  19.416   2.947  10.051 -0.1872 -0.0035 -0.1780
 1643W        W 3793  16.352   3.182  37.368 -0.2300 -0.2864 -0.0306
 1644W        W 3794  13.440   2.662  43.939  0.2355  0.1499  0.0204
 1645W        W 3795  16.833   5.026  31.492  0.0307  0.1619  0.1396
 1646W        W 3796  11.536   5.757  40.890 -0.2067  0.1487  0.1380
 1647W        W 3797  10.346   1.459  29.495 -0.0416 -0.0192  0.0694
 1648W        W 3798   3.357   0.373  32.278  0.3597 -0.0369  0.1518
 1649W        W 3799  16.582   4.946   8.088 -0.2091  0.1226  0.0743
 1650W        W 3800  13.056   3.190   5.750  0.0289 -0.1754  0.1625
 1651W        W 3801  21.085   6.472  30.274  0.1913  0.4172 -0.0258
 1652W        W 3802   3.321   4.351  30.538  0.2982 -0.0206 -0.3652
 1653W        W 3803   0.832   1.188   7.656  0.2131  0.4063 -0.1498
 1654W        W 3804  16.120   4.557  41.238  0.0266 -0.0708 -0.0170
 1655W        W 3805  13.173   1.757  37.646 -0.0763  0.1474  0.1676
 1656W        W 3806  16.938   5.941  42.135  0.1635 -0.1389 -0.0195
 1657W        W 3807  10.655   1.507  14.851  0.2978 -0.1587 -0.0038
 1658W        W 3808   5.622   1.148  37.004  0.2149 -0.0538  0.1361
 1659W        W 3809  18.357   0.638   8.761  0.1711  0.0623 -0.1754
 1660W        W 3810   3.949   4.257  30.436 -0.3007 -0.1022  0.2116
 1661W        W 3811  16.013   3.912  15.991  0.1470  0.0769 -0.0034
 1662W        W 3812  14.907   2.927  18.968  0.3071 -0.0797 -0.2151
 1663W        W 3813  10.833   2.391  44.417 -0.0864 -0.0726 -0.0324
 1664W        W 3814  11.369   3.166  16.450  0.0259 -0.1155 -0.1430
 1665W        W 3815   5.885   4.510  42.641 -0.2154  0.0400 -0.0858
 1666W        W 3816  13.196   2.676  41.003 -0.2675 -0.1963 -0.0690
 1667W        W 3817   4.401   1.083  40.623  0.2414  0.2162 -0.0282
 1668W        W 3818  15.181   6.096  32.008  0.0768 -0.1905  0.3157
 1669W        W 3819  19.990   2.009  41.495 -0.0506 -0.2810  0.1168
 1670W        W 3820  17.772   2.999  39.606  0.2692  0.2047 -0.4293
 1671W        W 3821  20.607   3.494  44.107 -0.0294 -0.1115 -0.1733
 1672W        W 3822   3.687   3.821  37.152  0.1369 -0.2613 -0.0506
 1673W        W 3823  14.776   4.389   3.458  0.0520  0.0711  0.1000
 1674W        W 3824   9.190   0.145  27.278 -0.1083 -0.1829 -0.1786
 1675W        W 3825  19.384   0.359  12.215 -0.3968  0.3233 -0.0223
 1676W        W 3826  15.827   4.531  42.432  0.1959  0.1510 -0.0596
 1677W        W 3827   2.210   1.623  10.489 -0.2349  0.0955 -0.0867
 1678W        W 3828   7.366   2.504   7.564  0.2932  0.0414 -0.2888
 1679W        W 3829   4.349   1.330  12.331 -0.2273  0.2594 -0.0185
 1680W        W 3830   5.934   0.961  22.658 -0.2880  0.0954 -0.3109
 1681W        W 3831  12.891   1.866  30.673  0.3875  0.0321 -0.0663
 1682W        W 3832  16.580   1.454  25.528  0.0041  0.0022  0.0590
 1683W        W 3833   9.750   3.358  25.876  0.1193 -0.1939  0.4053
 1684W        W 3834   5.125   5.803  21.175  0.0410  0.1732  0.1607
 1685W        W 3835  12.261   4.393  37.819  0.0308  0.0547 -0.0051
 1686W        W 3836  20.629   1.378  11.538  0.0376 -0.0689 -0.0551
 1687W        W 3837  20.497   2.703   8.636 -0.0691 -0.0461 -0.3372
 1688W        W 3838  14.658   0.479   6.782 -0.0901  0.2408  0.3068
 1689W        W 3839  17.561   6.607  22.844 -0.3418  0.0333 -0.0777
 1690W        W 3840  17.335   5.716   2.460  0.0308 -0.0359  0.1346
 1691W        W 3841   8.981   0.042  26.136  0.2941 -0.3730 -0.1074
 1692W        W 3842  15.818   5.771   7.640 -0.1574 -0.2582 -0.1639
 1693W        W 3843   3.492   2.232  34.085  0.0034  0.0728  0.1485
 1694W        W 3844  13.013   5.463  33.525  0.2174  0.0589 -0.0857
 1695W        W 3845  13.936   6.305   0.135 -0.0121 -0.1482  0.1733
 1696W        W 3846  16.734   6.422  42.121 -0.1528 -0.0082  0.2995
 1697W        W 3847  10.585   1.286   3.977  0.2377 -0.0806  0.1992
 1698W        W 3848   5.903   0.780   7.643  0.2495 -0.0413  0.1031
 1699W        W 3849   2.466   2.718  43.205 -0.3079  0.2129  0.2490
 1700W        W 3850   2.636   3.191  35.614 -0.0025 -0.1505 -0.2327
 1701W        W 3851  19.108   3.947   8.176  0.2888 -0.1070 -0.1109
 1702W        W 3852   7.076   3.299  10.270 -0.1521  0.1452  0.1425
 1703W        W 3853  12.641   4.826  34.464  0.1131 -0.0509 -0.3165
 1704W        W 3854  12.914   2.087  39.246  0.0509 -0.1743 -0.2688
 1705W        W 3855  14.817   1.051  39.036  0.1595 -0.3749 -0.0698
 1706W        W 3856   9.937   3.960  39.331  0.3764  0.0571  0.0266
 1707W        W 3857  17.404   6.343   3.030  0.0620 -0.3142  0.1999
 1708W        W 3858  14.159   2.242  38.682  0.0616  0.2639  0.0866
 1709W        W 3859  20.621   3.999  44.076 -0.0795  0.1452 -0.0020
 1710W        W 3860  13.259   0.288  19.189  0.3049  0.1877  0.0620
 1711W        W 3861  11.041   3.538  28.443  0.0311  0.0008  0.1460
 1712W        W 3862  14.979   3.623  41.247 -0.1412  0.1282 -0.1371
 1713W        W 3863  16.921   4.627  38.884 -0.2594 -0.1284  0.0911
 1714W        W 3864   2.846   2.230  13.297 -0.0793  0.1603  0.1571
 1715W        W 3865   9.835   0.030   8.182 -0.3844  0.0479 -0.0271
 1716W        W 3866  14.514   3.197  16.954  0.0089 -0.1244 -0.0369
 1717W        W 3867  15.220   4.973  42.087  0.1720  0.4781 -0.1273
 1718W        W 3868   6.211   5.810  33.926  0.0633  0.2189  0.0841
 1719W        W 3869  15.220   4.961   7.951 -0.0580  0.0050  0.0032
 1720W        W 3870  20.932   5.964   4.102 -0.1521  0.0295 -0.2669
 1721W        W 3871   9.082   5.141  15.906  0.1429  0.0255  0.0827
 1722W        W 3872   7.253   1.590   5.467 -0.0366  0.2844  0.0166
 1723W        W 3873   3.671   1.143   6.524  0.1958  0.1170  0.2317
 1724W        W 3874   8.571   2.162  38.305 -0.0747 -0.2791  0.1420
 1725W        W 3875   0.060   5.235   6.921  0.3402 -0.0437  0.1264
 1726W        W 3876   8.552   4.204  23.621 -0.0477  0.0365  0.0035
 1727W        W 3877  17.986   3.462   9.119 -0.0028 -0.2286  0.4716
 1728W        W 3878   9.864   5.363  16.491 -0.1168 -0.0129  0.1367
 1729W        W 3879  11.497   3.262  34.120  0.1540  0.0140 -0.0373
 1730W        W 3880   1.178   1.024  38.418  0.2035 -0.1216  0.1312
 1731W        W 3881   8.096   1.763   6.543 -0.0113  0.0515 -0.0188
 1732W        W 3882  15.808   2.662  44.245 -0.1197 -0.1090  0.1452
 1733W        W 3883  20.060   5.996  14.790  0.2564  0.2301  0.0526
 1734W        W 3884   7.644   0.084  11.413 -0.1427 -0.2811  0.0923
 1735W        W 3885   3.162   0.818  11.913  0.1443 -0.1836  0.0236
 1736W        W 3886   7.171   2.202  14.458  0.1695 -0.1250 -0.1341
 1737W        W 3887   1.279   5.117  43.437 -0.3673 -0.0444  0.0460
 1738W        W 3888   2.790   2.250  32.286  0.1291  0.1839  0.2372
 1739W        W 3889  16.877   0.998  10.170  0.2523 -0.2183  0.1753
 1740W        W 3890   6.897   2.847  13.455  0.0978 -0.1075  0.0543
 1741W        W 3891   6.518   4.505  37.237 -0.1990  0.2100 -0.0571
 1742W        W 3892  11.818   0.615  15.555  0.1438  0.0500  0.1587
 1743W        W 3893   5.086   4.718  22.026 -0.1131 -0.0880  0.0603
 1744W        W 3894   0.279   1.495  32.029  0.4010  0.1198  0.0664
 1745W        W 3895   8.134   1.330   3.918  0.1485 -0.2161 -0.0945
 1746W        W 3896   4.087   0.707  36.871 -0.1584  0.0260  0.1800
 1747W        W 3897  17.256   5.846  39.387 -0.0637  0.0635 -0.1683
 1748W        W 3898  14.127   6.497  39.308 -0.1236 -0.0915 -0.2152
 1749W        W 3899   9.546   4.637  44.421 -0.0194  0.3503  0.1019
 1750W        W 3900   5.296   5.252  15.500  0.0940 -0.1009 -0.1627
 1751W        W 3901  21.100   5.545   2.866 -0.0193 -0.0898  0.0788
 1752W        W 3902  13.037   3.350   3.475 -0.0177 -0.1810  0.0043
 1753W        W 3903  18.673   5.555  12.611 -0.1833  0.1663 -0.1217
 1754W        W 3904  13.050   4.839  12.377  0.0105  0.2858  0.2044
 1755W        W 3905   4.772   3.126  34.744 -0.1995  0.3113  0.2595
 1756W        W 3906   8.893   6.183   2.395  0.2857 -0.2227 -0.1289
 1757W        W 3907  18.697   1.290  32.766 -0.0514  0.1915 -0.1038
 1758W        W 3908   6.729   1.735  35.506 -0.0273  0.1738 -0.0022
 1759W        W 3909  15.940   0.351   9.206  0.1361 -0.0550  0.1922
 1760W        W 3910   0.062   2.256   4.773 -0.2870  0.3128  0.0559
 1761W        W 3911   4.414   0.272  11.136 -0.1251  0.0497  0.0598
 1762W        W 3912   5.024   4.828  11.861 -0.0656  0.0932  0.0792
 1763W        W 3913  14.145   2.439  29.843 -0.0942 -0.1761  0.0567
 1764W        W 3914   9.157   5.134   3.606  0.0601 -0.1726  0.1238
 1765W        W 3915   4.885   1.861   9.223 -0.1930 -0.0758  0.2430
 1766W        W 3916  18.934   2.619  17.560 -0.1237 -0.0877  0.1738
 1767W        W 3917  11.797   3.741  28.750  0.0573 -0.0430  0.3075
 1768W        W 3918  11.135   2.680   4.359 -0.0939  0.0036  0.2488
 1769W        W 3919  14.684   5.430   8.503  0.0759  0.1113  0.1453
 1770W        W 3920   6.399   5.384  21.202  0.1108 -0.0954  0.3748
 1771W        W 3921   5.107   3.223  37.223 -0.2248 -0.1139  0.0647
 1772W        W 3922   0.193   4.203  30.638  0.0779 -0.1537 -0.1423
 1773W        W 3923  19.412   5.070   8.344 -0.0446 -0.1343 -0.0116
 1774W        W 3924  12.566   6.483  12.492 -0.0598 -0.2491  0.2509
 1775W        W 3925   3.720   1.670  44.164  0.1196 -0.2014 -0.0134
 1776W        W 3926   6.072   3.424  13.918  0.0308 -0.1219 -0.0073
 1777W        W 3927   2.023   2.970   5.321  0.1361  0.0455  0.2295
 1778W        W 3928  18.835   6.566  37.350  0.0149  0.0010  0.2113
 1779W        W 3929  11.813   4.427  29.719  0.0300 -0.0369  0.1212
 1780W        W 3930   8.960   6.271   5.156  0.0985  0.1326 -0.3626
 1781W        W 3931   5.512   4.256  24.136  0.0754 -0.1178 -0.1104
 1782W        W 3932   9.462   3.113  13.298 -0.1142 -0.1505 -0.2162
 1783W        W 3933  17.354   1.579  12.798  0.4494  0.2007  0.2906
 1784W        W 3934   7.421   4.719   2.864  0.0710 -0.0398  0.0007
 1785W        W 3935   8.667   3.218  32.295 -0.1478 -0.2340  0.1212
 1786W        W 3936   5.920   2.247  15.538  0.2563 -0.1347 -0.0572
 1787W        W 3937   0.630   2.593  11.336  0.0902  0.1121 -0.0639
 1788W        W 3938  10.965   1.722   7.330 -0.1638 -0.0517  0.1036
 1789W        W 3939  17.251   4.169   9.640 -0.1893  0.2973  0.2327
 1790W        W 3940  20.755   2.821   9.951  0.3043 -0.0052  0.3749
 1791W        W 3941   2.021   0.330  37.356 -0.0659  0.2175  0.0639
 1792W        W 3942  13.878   6.031  44.408 -0.0419  0.5578 -0.0541
 1793W        W 3943  14.729   3.622  16.669 -0.0862 -0.1263 -0.0945
 1794W        W 3944  13.412   3.022  30.406  0.0775 -0.3510  0.0861
 1795W        W 3945   8.838   2.675   9.806  0.0259  0.3002  0.0080
 1796W        W 3946  19.288   0.872  14.001 -0.0376  0.2337  0.2838
 1797W        W 3947  11.237   3.829  17.077 -0.1329  0.1903 -0.4101
 1798W        W 3948   9.890   1.376  30.888  0.0191  0.2289  0.1570
 1799W        W 3949   7.018   0.429  38.822  0.1407  0.0901 -0.1742
 1800W        W 3950  12.602   2.929  11.512 -0.1969 -0.0713 -0.0763
 1801W        W 3951  17.564   4.545  18.053 -0.2119 -0.1838 -0.2857
 1802W        W 3952   0.029   2.877  28.289  0.0378  0.1044 -0.1088
 1803W        W 3953  16.114   2.340  36.629  0.0025  0.0673  0.2133
 1804W        W 3954  17.272   1.407  16.498 -0.0719  0.0217  0.1760
 1805W        W 3955  18.709   4.576   1.181 -0.1514 -0.0894  0.2139
 1806W        W 3956  19.313   4.963   5.600  0.0113 -0.2690 -0.1062
 1807W        W 3957   5.704   0.047  12.854  0.1462  0.2014  0.1389
 1808W        W 3958  10.044   1.184  34.261 -0.0650 -0.2527 -0.0878
 1809W        W 3959  19.928   6.593  32.969  0.1521 -0.1520  0.3851
 1810W        W 3960   9.009   6.097  37.942  0.0436 -0.2532 -0.1263
 1811W        W 3961  18.418   0.296  10.610  0.1587 -0.1295  0.0477
 1812W        W 3962   5.209   2.815  22.077  0.2087 -0.2315  0.3507
 1813W        W 3963  16.130   0.575  13.450  0.1587 -0.1140  0.0421
 1814W        W 3964  19.285   4.296  38.102 -0.0360  0.1064  0.0350
 1815W        W 3965  13.764   5.420   3.267  0.1792 -0.3979  0.3196
 1816W        W 3966   5.157   4.024  42.449 -0.0125  0.1545  0.0094
 1817W        W 3967  12.198   1.199  17.507 -0.0207 -0.0541 -0.1413
 1818W        W 3968   3.399   1.494  22.589 -0.1554  0.0290 -0.2553
 1819W        W 3969  18.966   1.814  11.172 -0.0054  0.0257  0.3186
 1820W        W 3970  10.085   5.651  30.134 -0.0801 -0.2750 -0.1181
 1821W        W 3971   4.842   1.104  16.391  0.2876  0.3218 -0.0879
 1822W        W 3972  13.146   0.383  42.346 -0.0013  0.2130 -0.1888
 1823W        W 3973   7.198   6.202  10.504 -0.0664  0.1865 -0.1156
 1824W        W 3974  15.848   0.756   9.497 -0.3868  0.1709 -0.2806
 1825W        W 3975   8.979   3.789   8.873  0.0976  0.0258 -0.1339
 1826W        W 3976   2.413   6.094   4.929 -0.3045  0.0932  0.2499
 1827W        W 3977   3.461   0.104  25.885 -0.2808 -0.1019 -0.0510
 1828W        W 3978  17.270   1.846   9.217  0.1095 -0.1616 -0.0905
 1829W        W 3979   8.553   4.052   0.524  0.0087  0.1178 -0.1424
 1830W        W 3980  11.366   5.231  18.626 -0.0111  0.3825 -0.0266
 1831W        W 3981   1.238   6.585   4.790 -0.0878 -0.0310 -0.1413
 1832W        W 3982  11.785   4.089  16.645  0.1272  0.0493 -0.2380
 1833W        W 3983   6.687   0.178  15.507 -0.0173  0.1594 -0.0360
 1834W        W 3984   7.487   4.051  40.009 -0.3323 -0.0128  0.2529
 1835W        W 3985  10.031   2.170  11.654 -0.0855 -0.0890  0.0714
 1836W        W 3986  19.386   1.174   4.419 -0.0908  0.4622  0.0367
 1837W        W 3987  14.971   0.941   2.184 -0.2900  0.1022  0.1415
 1838W        W 3988   3.470   1.965  39.134 -0.1228 -0.3123  0.0581
 1839W        W 3989  14.495   1.492  14.024 -0.0822  0.1542  0.2515
 1840W        W 3990   3.679   6.154  12.484  0.1456  0.1264 -0.3608
 1841W        W 3991   8.672   6.108  41.425  0.1686 -0.0572 -0.0945
 1842W        W 3992  16.871   2.196  44.281 -0.0287 -0.2257  0.0493
 1843W        W 3993  15.521   2.672  35.739  0.2314 -0.2364 -0.0321
 1844W        W 3994   5.428   3.645  13.295 -0.0823  0.0247  0.3148
 1845W        W 3995   6.011   3.679  29.657  0.1463 -0.1068 -0.0907
 1846W        W 3996   2.612   5.614  26.902 -0.1271  0.0448 -0.0714
 1847W        W 3997   3.762   6.571  38.226  0.0131 -0.0485 -0.2855
 1848W        W 3998   9.819   0.197  31.688 -0.1769  0.0927  0.0043
 1849W        W 3999   0.930   3.516  40.539  0.0490 -0.1077 -0.2352
 1850W        W 4000  16.429   3.378  15.373  0.2150  0.3253 -0.0120
 1851W        W 4001   6.659   1.430  38.047  0.4223  0.0204 -0.2121
 1852W        W 4002   7.395   0.849  35.259 -0.0557 -0.1873 -0.1166
 1853W        W 4003   7.612   2.224  42.291 -0.2810  0.2492  0.3097
 1854W        W 4004   6.673   3.410  13.585 -0.0259 -0.2016 -0.3169
 1855W        W 4005  12.670   2.591  11.874 -0.1803  0.0912 -0.0625
 1856W        W 4006  15.193   5.207  34.130  0.2016 -0.2873 -0.2689
 1857W        W 4007  16.363   2.091  11.283  0.0642 -0.1375  0.2002
 1858W        W 4008   3.865   5.309  14.250 -0.0709  0.2403  0.3571
 1859W        W 4009  19.490   5.703   4.937 -0.3307 -0.0133 -0.1839
 1860W        W 4010  10.225   2.924   4.176  0.3227 -0.0244  0.1529
 1861W        W 4011  10.580   2.542  43.406 -0.0836 -0.0173  0.3307
 1862W        W 4012   9.328   0.670  16.320  0.1662 -0.3141  0.0306
 1863W        W 4013  20.163   1.204  42.065  0.3937  0.1104 -0.3703
 1864W        W 4014  15.041   0.309  16.438  0.1002  0.0398 -0.1868
 1865W        W 4015   8.757   4.612  24.900 -0.2703 -0.0403  0.0548
 1866W        W 4016  10.055   3.352  12.996  0.1578 -0.0063 -0.0527
 1867W        W 4017  14.145   0.101   3.473  0.2926 -0.0067  0.0144
 1868W        W 4018  21.146   2.681  39.290 -0.0786  0.5258  0.0245
 1869W        W 4019   0.000   2.583   3.822 -0.2661  0.1402 -0.2204
 1870W        W 4020  18.095   6.478  30.980  0.1899  0.2629  0.0965
 1871W        W 4021   5.629   0.337  11.550  0.0021  0.1099 -0.2406
 1872W        W 4022   0.823   0.931  39.584  0.1225  0.1408  0.0109
 1873W        W 4023   3.514   0.207   9.179  0.4103  0.4570 -0.0435
 1874W        W 4024   2.141   0.419  31.477 -0.3333 -0.2076 -0.0224
 1875W        W 4025  10.559   1.563   5.138 -0.2376  0.1043 -0.3391
 1876W        W 4026  12.419   0.407  43.085  0.1984  0.2400 -0.0946
 1877W        W 4027  19.638   5.356  15.947  0.0028 -0.1814  0.0956
 1878W        W 4028  16.025   0.481   7.257  0.4098 -0.0229  0.1128
 1879W        W 4029   1.843   5.162  13.521  0.3428  0.0711  0.2011
 1880W        W 4030  20.164   1.084  29.345  0.0828  0.1610 -0.2315
 1881W        W 4031   9.793   4.035   3.084  0.0714 -0.0190  0.0826
 1882W        W 4032   1.078   2.956  38.837 -0.2952 -0.0857 -0.2622
 1883W        W 4033   0.674   1.103  31.101  0.2005 -0.0243  0.1055
 1884W        W 4034   1.998   0.622  44.629  0.1727  0.0111  0.3395
 1885W        W 4035  12.677   4.818  17.438  0.1075 -0.1128 -0.1600
 1886W        W 4036  19.242   3.627  44.003 -0.1710  0.3208  0.0298
 1887W        W 4037   2.311   4.384  26.318 -0.1906 -0.1606  0.1782
 1888W        W 4038  14.427   3.378  38.319  0.0883  0.1697 -0.0300
 1889W        W 4039   4.310   4.323  25.384  0.1196  0.1230  0.1446
 1890W        W 4040  12.860   3.473   4.899 -0.1457  0.3970  0.2875
 1891W        W 4041   1.666   1.451  40.715 -0.1608 -0.1333  0.0616
 1892W        W 4042  20.876   1.895  17.413  0.0177 -0.1236 -0.1389
 1893W        W 4043   7.759   5.822  15.751 -0.0717 -0.0399 -0.1291
 1894W        W 4044   8.559   3.347  34.136  0.2788 -0.0957 -0.0040
 1895W        W 4045   0.864   1.267  13.887  0.1286 -0.2749 -0.1690
 1896W        W 4046   6.301   4.330   3.780  0.0899  0.1949 -0.4664
 1897W        W 4047  11.147   5.212   7.563  0.3392 -0.1564  0.0814
 1898W        W 4048   7.420   2.830  38.983  0.0018 -0.2410 -0.1139
 1899W        W 4049   7.992   1.818  16.988 -0.1817  0.1281 -0.3518
 1900W        W 4050   5.385   3.518  35.870  0.0234 -0.2664  0.2317
 1901W        W 4051  14.426   4.381  42.213  0.2971 -0.0934  0.1570
 1902W        W 4052  20.362   6.117  37.439  0.0852  0.0095  0.3165
 1903W        W 4053   8.021   2.302  33.277 -0.0795 -0.1143 -0.2196
 1904W        W 4054   7.023   0.340  34.199  0.3734  0.1527 -0.0780
 1905W        W 4055  19.800   5.800  40.607  0.1600  0.0304 -0.0050
 1906W        W 4056  10.223   4.053   1.686 -0.1207 -0.2023 -0.1033
 1907W        W 4057  20.992   4.961   0.824  0.2649 -0.2216 -0.1106
 1908W        W 4058  11.838   2.903  35.497 -0.1154  0.0640 -0.0246
 1909W        W 4059  20.732   5.425  36.629  0.0748  0.1537  0.1468
 1910W        W 4060   1.727   0.303  41.510 -0.0212  0.0619 -0.2315
 1911W        W 4061  16.238   6.223  10.089  0.0861  0.1752 -0.2383
 1912W        W 4062   9.185   3.299  40.793  0.3016 -0.1526  0.1818
 1913W        W 4063   5.711   2.907   2.556 -0.0514  0.0692 -0.1495
 1914W        W 4064  17.152   3.703   4.058  0.0970  0.0792  0.0966
 1915W        W 4065   9.457   5.326  13.968 -0.3109 -0.0667 -0.0499
 1916W        W 4066  12.662   3.360  40.701 -0.2404 -0.0380  0.0774
 1917W        W 4067  15.555   3.633   6.255 -0.1039  0.1435 -0.5361
 1918W        W 4068  11.719   4.723  28.755 -0.1747 -0.0052  0.0958
 1919W        W 4069   1.224   1.297  39.395  0.1017 -0.1497  0.0484
 1920W        W 4070  12.254   1.642  29.757 -0.0978 -0.1158 -0.1561
 1921W        W 4071  11.394   4.280  10.911 -0.0430  0.0390 -0.3246
 1922W        W 4072  18.226   2.081  37.580  0.1435  0.2642 -0.0254
 1923W        W 4073  17.106   3.040  19.403 -0.0323 -0.3116  0.2016
 1924W        W 4074   1.659   0.861   6.777  0.1729  0.4801 -0.0646
 1925W        W 4075  11.220   2.740  16.199 -0.1394 -0.0091  0.0380
 1926W        W 4076   8.169   3.254   5.876 -0.2069 -0.1550 -0.0104
 1927W        W 4077  20.463   1.736   0.330  0.1599 -0.2304  0.0431
 1928W        W 4078   7.764   4.144  35.098  0.0793 -0.2575 -0.1371
 1929W        W 4079  19.865   1.458   4.781 -0.1919  0.1391 -0.0373
 1930W        W 4080  18.174   0.555   1.725 -0.3465 -0.0421  0.3354
 1931W        W 4081  13.034   1.697  11.858  0.1473  0.1304 -0.1716
 1932W        W 4082   2.655   0.670  37.571  0.1306 -0.0055  0.0765
 1933W        W 4083  18.954   3.082  33.029  0.0355  0.2094 -0.0213
 1934W        W 4084   7.710   3.138   7.394  0.0421  0.0754 -0.1002
 1935W        W 4085  13.514   2.829  40.588  0.3501  0.3674 -0.0165
 1936W        W 4086  18.829   2.297  30.628  0.1979  0.3380 -0.0553
 1937W        W 4087  19.215   5.042  39.932 -0.2050  0.0464  0.0681
 1938W        W 4088   1.721   0.461  37.786 -0.1964  0.0667  0.0742
 1939W        W 4089  20.786   5.145  33.204 -0.2379  0.1679 -0.4247
 1940W        W 4090  20.144   0.641  32.079 -0.0819 -0.1004 -0.2264
 1941W        W 4091  17.328   5.589   4.797  0.0766  0.1177  0.1276
 1942W        W 4092  19.423   2.881   5.573  0.0841  0.0923  0.0886
 1943W        W 4093   5.385   3.724  45.002 -0.1310 -0.2453  0.1499
 1944W        W 4094  12.561   2.824  42.878 -0.0972 -0.0989  0.1000
 1945W        W 4095  18.213   0.338  37.288 -0.0105 -0.2870  0.2031
 1946W        W 4096   0.369   2.315  13.082  0.0290 -0.2528 -0.0427
 1947W        W 4097   3.118   3.329  26.066  0.0241  0.1125  0.3340
 1948W        W 4098   8.827   4.213   7.903 -0.2241 -0.2070 -0.2155
 1949W        W 4099   5.698   2.699  39.522  0.2007 -0.2166 -0.0368
 1950W        W 4100  17.738   3.265  38.192  0.0007 -0.1649 -0.0541
 1951W        W 4101   6.670   4.475  33.859 -0.0699  0.0764  0.0241
 1952W        W 4102  17.323   3.435  44.629  0.1910 -0.0731 -0.0806
 1953W        W 4103   1.044   3.667  16.541 -0.0890  0.1330  0.0611
 1954W        W 4104  11.093   6.565  37.934 -0.1495 -0.1009  0.0657
 1955W        W 4105  13.050   1.140  29.389 -0.1502 -0.1083 -0.0640
 1956W        W 4106   6.690   4.013  26.052  0.3181  0.3765  0.0700
 1957W        W 4107  19.799   1.100  34.456 -0.2071  0.0331 -0.0668
 1958W        W 4108   8.890   0.807  11.269 -0.3495 -0.2595 -0.0727
 1959W        W 4109   3.413   3.948  26.936  0.1799  0.2631  0.0283
 1960W        W 4110  20.282   3.472  37.277 -0.0198 -0.0575 -0.1833
 1961W        W 4111  16.002   6.545  43.683 -0.0676 -0.3490  0.2031
 1962W        W 4112   6.406   3.479   6.313  0.1699 -0.2021  0.0928
 1963W        W 4113   9.201   4.976  28.311 -0.0848 -0.1195  0.0445
 1964W        W 4114  18.034   2.956  33.709  0.4243 -0.2313  0.1096
 1965W        W 4115   1.657   5.704  39.298 -0.1605 -0.0893 -0.1181
 1966W        W 4116   8.360   0.883  25.158  0.0920  0.1245 -0.1451
 1967W        W 4117  14.156   4.060   1.107 -0.4714  0.6245 -0.0950
 1968W        W 4118  19.435   1.480  39.276 -0.2380  0.0670 -0.0650
 1969W        W 4119  20.950   4.257  29.126 -0.0819 -0.2745  0.0291
 1970W        W 4120  12.475   4.117  44.316  0.1869 -0.1006  0.2785
 1971W        W 4121   1.918   5.888  41.370 -0.0552 -0.0947  0.0914
 1972W        W 4122  13.806   5.723   1.181  0.0433 -0.0873 -0.1193
 1973W        W 4123  18.302   0.285   5.447 -0.1453 -0.0015  0.0752
 1974W        W 4124   4.249   4.767  28.301  0.0873  0.1816  0.1167
 1975W        W 4125  14.944   5.207  38.002  0.1299  0.1046 -0.0495
 1976W        W 4126   7.232   6.453  40.708  0.0910 -0.0850 -0.1307
 1977W        W 4127  14.013   5.716  37.855  0.1958  0.1469 -0.1282
 1978W        W 4128  15.941   0.254  36.592 -0.2100  0.1958 -0.0946
 1979W        W 4129   5.742   3.529   7.624  0.0241  0.0317 -0.2240
 1980W        W 4130   3.496   0.625  44.321 -0.0871  0.3447 -0.1471
 1981W        W 4131  18.618   3.352  43.575 -0.0565 -0.2666  0.3550
 1982W        W 4132  13.577   6.335  15.041 -0.0964 -0.0085  0.1343
 1983W        W 4133   3.777   1.917  40.407 -0.2293 -0.0138  0.0644
 1984W        W 4134  15.562   3.610  35.594 -0.4545 -0.1708  0.1968
 1985W        W 4135  15.107   2.829  30.764  0.1234 -0.4862  0.0017
 1986W        W 4136   7.430   1.480  40.041  0.0108 -0.2732  0.2247
 1987W        W 4137   6.951   1.147   9.224  0.1610 -0.1210 -0.1410
 1988W        W 4138   4.627   0.962  44.180 -0.0973  0.0049  0.3722
 1989W        W 4139  10.935   3.840   5.683  0.1544  0.0090  0.1017
 1990W        W 4140   7.938   0.250  29.314  0.1225  0.1352  0.0786
 1991W        W 4141   4.431   5.537  30.640 -0.0493 -0.0667 -0.0755
 1992W        W 4142  15.700   4.352   8.877  0.1014  0.2076 -0.0063
 1993W        W 4143  20.551   0.391   7.307  0.2086 -0.0635  0.2859
 1994W        W 4144   5.805   1.759  23.450  0.3211  0.0973 -0.2097
 1995W        W 4145   8.922   0.507  12.375 -0.1770 -0.3159  0.1657
 1996W        W 4146  13.238   4.408  41.496 -0.2890 -0.1287 -0.2177
 1997W        W 4147   6.287   1.660  44.272  0.1560 -0.2865 -0.1950
 1998W        W 4148  17.949   1.599   7.963  0.1933 -0.3040 -0.1005
 1999W        W 4149   4.662   1.886  21.458 -0.2476  0.0767  0.0686
 2000W        W 4150  20.519   0.332   2.996  0.0140 -0.1185  0.0032
 2001W        W 4151   4.914   3.751  35.716 -0.0413  0.0325  0.0721
 2002W        W 4152   9.124   6.012  44.116 -0.3463  0.1006 -0.0548
 2003W        W 4153  16.891   2.094   9.958  0.0864  0.1088  0.0025
 2004W        W 4154   4.903   6.498  12.128  0.0672  0.2913 -0.1881
 2005W        W 4155   4.885   1.534  13.136 -0.2016  0.0875  0.2224
 2006W        W 4156   8.114   1.324  43.410 -0.2589  0.1785 -0.0821
 2007W        W 4157  20.101   4.164  41.922  0.2089 -0.1377  0.2724
 2008W        W 4158   4.927   2.112  41.623  0.2010  0.0893  0.0166
 2009W        W 4159  11.815   5.048  33.851  0.0847  0.2052 -0.1691
 2010W        W 4160   9.717   1.596  26.661  0.1480  0.3968 -0.0408
 2011W        W 4161   2.246   5.696  26.489 -0.0201  0.0873  0.0452
 2012W        W 4162  14.845   0.036   2.506  0.3770 -0.0656 -0.1409
 2013W        W 4163   2.997   6.493   0.989 -0.0073 -0.1374 -0.0828
 2014W        W 4164   0.292   5.632   9.038  0.2770 -0.2092 -0.0779
 2015W        W 4165   4.356   5.452  29.108 -0.0647  0.0080  0.1183
 2016W        W 4166  11.335   0.685  39.278  0.2811  0.0215  0.0710
 2017W        W 4167  21.106   0.727  35.627  0.1668 -0.0668  0.0867
 2018W        W 4168   6.213   2.115  21.365  0.1893 -0.0812 -0.2553
 2019W        W 4169   0.325   3.490  28.281  0.1468 -0.4416  0.0460
 2020W        W 4170   7.303   6.210   0.625  0.0060  0.1268 -0.1748
 2021W        W 4171  19.176   3.843   9.626 -0.1531 -0.1622  0.0772
 2022W        W 4172  15.565   2.238  11.824  0.0152  0.1831 -0.2825
 2023W        W 4173   7.135   3.299  33.833 -0.3802  0.1719  0.0227
 2024W        W 4174  13.376   3.517  34.201  0.4194  0.3339  0.2843
 2025W        W 4175   1.916   4.924  40.588 -0.1640 -0.0276  0.0226
 2026W        W 4176   6.894   0.274  37.553  0.0518  0.0424  0.0985
 2027W        W 4177   0.669   0.436  44.083  0.2201  0.0965  0.2828
 2028W        W 4178  18.225   2.837  36.833 -0.0151  0.2801  0.0195
 2029W        W 4179   3.571   6.192  41.215 -0.3669 -0.3361  0.0312
 2030W        W 4180  15.836   6.057  29.628  0.2663  0.0686  0.1449
 2031W        W 4181  18.231   5.655  29.695 -0.0031 -0.3820  0.3282
 2032W        W 4182   4.984   4.814  11.383 -0.0599 -0.3653 -0.0400
 2033W        W 4183   8.439   5.226  35.550  0.3591 -0.0191  0.0098
 2034W        W 4184   7.840   4.979   3.930  0.2888 -0.2826  0.0947
 2035W        W 4185   2.277   0.800  42.971 -0.6177  0.1620  0.2129
 2036W        W 4186  10.042   4.244  40.259  0.0862  0.1720  0.1325
 2037W        W 4187  17.028   0.519  37.938 -0.2118  0.2665  0.2255
 2038W        W 4188  11.511   4.176  33.867  0.1768  0.0128  0.2184
 2039W        W 4189   9.636   3.787  39.722 -0.1076  0.1516  0.0670
 2040W        W 4190  12.892   5.529  13.077  0.1471 -0.0702 -0.4778
 2041W        W 4191   2.343   6.301   5.399 -0.1146 -0.1891  0.0721
 2042W        W 4192  16.500   4.993  41.327  0.1367  0.2165 -0.0315
 2043W        W 4193  11.992   6.318  42.505 -0.1316  0.0743  0.2917
 2044W        W 4194   4.648   3.751  36.685 -0.0974  0.1124  0.1299
 2045W        W 4195   2.410   0.828   7.530  0.1579  0.0206 -0.2089
 2046W        W 4196   0.836   4.398  27.159 -0.1216  0.3628  0.0332
 2047W        W 4197   3.387   3.022  13.854 -0.0844 -0.0392 -0.2574
 2048W        W 4198  17.751   2.546  22.193 -0.0495  0.3288  0.0884
 2049W        W 4199   9.740   1.652  43.112  0.2059  0.2372 -0.1449
 2050W        W 4200   2.646   0.382  41.137 -0.0969 -0.2528  0.1178
 2051W        W 4201  10.067   0.033   6.359  0.2066  0.0157 -0.0098
 2052W        W 4202   7.017   0.269  31.475  0.3316  0.0984  0.2303
 2053W        W 4203   3.992   1.656  28.547 -0.2418 -0.1069 -0.2622
 2054W        W 4204  13.670   4.360  16.452 -0.0168 -0.1467 -0.1450
 2055W        W 4205   9.223   5.171  35.865  0.1447  0.1429 -0.1748
 2056W        W 4206  17.196   3.931   8.690  0.1153 -0.1100  0.0800
 2057W        W 4207  19.439   6.302  36.190 -0.0035 -0.3056 -0.1196
 2058W        W 4208  17.773   0.135   7.603 -0.1576  0.0091  0.0355
 2059W        W 4209   0.320   1.781  36.985  0.3019  0.2144 -0.0477
 2060W        W 4210   3.425   4.504  44.120 -0.0137 -0.0272 -0.2608
 2061W        W 4211   2.482   5.990  41.184  0.1943 -0.3418 -0.0321
 2062W        W 4212  20.765   2.651   4.178 -0.0419 -0.2298 -0.3084
 2063W        W 4213  19.341   5.844   2.969  0.2029  0.1801 -0.0797
 2064W        W 4214  20.522   2.162  37.686 -0.0466 -0.0890 -0.0876
 2065W        W 4215  11.108   5.957  17.497 -0.0358  0.1800  0.0200
 2066W        W 4216  18.642   2.742  12.393 -0.1816 -0.1662  0.0093
 2067W        W 4217  13.671   3.719   8.423 -0.4464 -0.0242 -0.0852
 2068W        W 4218  14.943   5.992  14.788 -0.2811 -0.0036  0.3093
 2069W        W 4219  17.234   1.304   3.198 -0.1685  0.1425 -0.1742
 2070W        W 4220   1.971   6.086  43.415 -0.2000 -0.1675  0.0614
 2071W        W 4221  18.777   5.491  33.481  0.0747 -0.0536  0.0953
 2072W        W 4222  18.433   0.533  40.320 -0.0487  0.1874 -0.1463
 2073W        W 4223  15.287   0.222  11.562  0.1612  0.0372  0.0715
 2074W        W 4224   4.664   6.246  39.324  0.3635 -0.2583  0.1233
 2075W        W 4225   5.737   3.191   3.486 -0.1913  0.2015 -0.1333
 2076W        W 4226  10.468   6.411  28.143 -0.0166  0.1601  0.0939
 2077W        W 4227   6.463   0.192  27.368 -0.1977 -0.0019 -0.1129
 2078W        W 4228   4.694   2.837  38.983  0.1097  0.0383  0.2360
 2079W        W 4229   8.422   3.947   4.592  0.1267 -0.1400 -0.1435
 2080W        W 4230   4.606   4.541  10.106  0.3055 -0.1092  0.0142
 2081W        W 4231   2.520   3.638   7.260  0.0759  0.0070 -0.1240
 2082W        W 4232  18.487   5.643  35.998 -0.0349  0.2301  0.0894
 2083W        W 4233   4.296   2.558  21.922 -0.0406 -0.1001  0.1755
 2084W        W 4234  14.544   2.703   4.847 -0.1333  0.1101  0.2163
 2085W        W 4235  11.977   4.551  33.196  0.3321  0.0467 -0.1570
 2086W        W 4236   1.859   6.442  41.292 -0.0626 -0.0793  0.4126
 2087W        W 4237   7.136   1.000  15.482  0.3242  0.2316  0.2041
 2088W        W 4238  17.194   4.040  32.035 -0.1550  0.1669  0.1017
 2089W        W 4239   9.295   1.839  35.710  0.3838 -0.1032  0.1922
 2090W        W 4240   8.535   1.177  35.666  0.2023  0.2321 -0.0436
 2091W        W 4241  12.475   4.238   2.608 -0.0037 -0.1696  0.1901
 2092W        W 4242  12.452   0.027  35.854 -0.1095  0.0363 -0.1537
 2093W        W 4243  16.373   6.394   7.777  0.1486  0.2649  0.0248
 2094W        W 4244  15.911   1.356  31.558  0.1999  0.1254  0.1835
 2095W        W 4245   5.263   1.329  27.266  0.1867  0.2264  0.0221
 2096W        W 4246  18.483   6.246  18.766  0.2747 -0.1996  0.0467
 2097W        W 4247   5.052   3.980   8.224  0.0872  0.1041 -0.1709
 2098W        W 4248   6.764   4.484  14.809  0.1262  0.1338  0.1751
 2099W        W 4249  20.311   0.097  33.816 -0.2186  0.2068  0.5328
 2100W        W 4250   9.759   2.678  43.415  0.0422  0.1524  0.0176
 2101W        W 4251  14.392   1.351   6.462  0.1688  0.2467  0.1007
 2102W        W 4252   9.427   1.925  34.921  0.1705 -0.0528  0.0115
 2103W        W 4253   8.998   4.404   2.105  0.2685  0.1250  0.1887
 2104W        W 4254   6.069   6.249  30.141 -0.0399  0.0352  0.1515
 2105W        W 4255  10.841   3.001   4.681  0.1242  0.1454 -0.0926
 2106W        W 4256   9.906   3.053  34.343 -0.2242  0.0528 -0.0556
 2107W        W 4257   4.671   5.107  44.368  0.1493 -0.0812  0.2118
 2108W        W 4258   0.329   5.391  38.537  0.1578 -0.1277 -0.1313
 2109W        W 4259   8.590   6.172  25.273  0.1603 -0.1962  0.0825
 2110W        W 4260  20.842   3.500  11.323 -0.0193 -0.3842  0.1575
 2111W        W 4261   0.101   4.900  45.084 -0.0651 -0.1289  0.1160
 2112W        W 4262   5.430   6.361   2.452 -0.0933  0.0648 -0.1293
 2113W        W 4263  19.837   2.323  32.358  0.0712  0.1117  0.1634
 2114W        W 4264  18.253   2.858  39.204 -0.0349  0.1609  0.1918
 2115W        W 4265   4.765   3.859  35.283  0.1772  0.0020  0.2478
 2116W        W 4266  19.700   2.941  15.698  0.0342  0.2443  0.4133
 2117W        W 4267   7.883   5.225  40.623  0.1797  0.2553 -0.0724
 2118W        W 4268  11.971   4.799  41.808 -0.0288  0.0492 -0.2315
 2119W        W 4269   6.274   2.872  34.704 -0.1570  0.1163  0.0772
 2120W        W 4270   3.463   0.551  35.112  0.2169  0.5365  0.1917
 2121W        W 4271   4.485   4.841   3.126 -0.1393 -0.1370  0.1499
 2122W        W 4272  17.530   3.128  41.209  0.0530 -0.1399  0.1388
 2123W        W 4273   7.453   6.029  12.892 -0.2393  0.3113  0.0380
 2124W        W 4274   2.290   0.730  43.724  0.0329  0.1918  0.0390
 2125W        W 4275   9.357   4.352  11.825  0.1845  0.2279 -0.1160
 2126W        W 4276   6.235   3.011  10.470 -0.2473  0.2542 -0.0584
 2127W        W 4277   4.090   6.488  10.189 -0.0634 -0.3117  0.0573
 2128W        W 4278  14.468   6.320   0.306 -0.1652 -0.3535 -0.0520
 2129W        W 4279   7.180   6.435   1.660  0.1316  0.1582  0.4093
 2130W        W 4280   0.968   2.916   5.354  0.0009  0.1530 -0.3800
 2131W        W 4281  11.274   4.175  30.063 -0.0317  0.0214  0.4301
 2132W        W 4282   4.539   3.680   9.148  0.1330  0.1341 -0.1203
 2133W        W 4283   4.346   2.955  13.933  0.2842 -0.0733  0.0653
 2134W        W 4284   5.577   5.676  40.488  0.0252  0.2416  0.0075
 2135W        W 4285  18.830   2.309  39.037 -0.2816  0.2262 -0.3119
 2136W        W 4286  12.876   0.241   2.644 -0.1787 -0.2062  0.2476
 2137W        W 4287   7.178   5.896   3.646  0.0416  0.1649  0.1341
 2138W        W 4288  17.192   2.957   0.697  0.1405  0.1561  0.1732
 2139W        W 4289   7.268   2.473  41.466 -0.1515  0.1875  0.0449
 2140W        W 4290  20.930   0.732  38.424 -0.0211  0.2444 -0.1318
 2141W        W 4291   3.756   2.100  24.629  0.2670  0.0055 -0.0590
 2142W        W 4292  19.762   5.280  35.923  0.0860  0.0388 -0.1874
 2143W        W 4293   0.456   6.238  41.825  0.0566 -0.1162 -0.0523
 2144W        W 4294   6.306   1.131  13.762  0.0279 -0.1939  0.1033
 2145W        W 4295   4.879   0.371  31.329 -0.1270  0.1521  0.2612
 2146W        W 4296   2.448   1.499   2.051  0.2390 -0.2585 -0.0140
 2147W        W 4297  10.430   3.755  38.540 -0.3455 -0.1736  0.0975
 2148W        W 4298   7.569   0.910  33.628 -0.2559 -0.2209 -0.0647
 2149W        W 4299  14.146   6.271  37.748  0.1137 -0.2380 -0.0412
 2150W        W 4300   1.582   2.080   5.416 -0.3803  0.1157 -0.0701
 2151W        W 4301  15.849   0.608  40.357  0.1271 -0.1410  0.2177
 2152W        W 4302  21.077   5.671  15.339  0.1112  0.1927  0.1472
 2153W        W 4303  17.606   3.493  39.078 -0.2229 -0.0395 -0.2745
 2154W        W 4304  11.061   2.460  41.481 -0.0049  0.1117 -0.1980
 2155W        W 4305   5.616   4.067  32.267 -0.2430  0.0886  0.0005
 2156W        W 4306   8.295   5.495  40.885 -0.2419  0.0426 -0.5393
 2157W        W 4307   0.786   5.692  29.631 -0.0334  0.0069 -0.0201
 2158W        W 4308   8.334   3.699  40.943  0.6030 -0.0522 -0.0137
 2159W        W 4309  16.625   5.059  42.459  0.2153  0.0141  0.0127
 2160W        W 4310  20.943   0.950   0.695  0.0412 -0.0640  0.0387
 2161W        W 4311  11.449   0.184  14.583  0.2845  0.0478 -0.0960
 2162W        W 4312  17.930   0.826  39.668  0.3063 -0.0069 -0.0343
 2163W        W 4313   0.752   6.006   7.368 -0.1081 -0.2134 -0.0620
 2164W        W 4314  18.591   0.306  43.669 -0.1712 -0.1573  0.1916
 2165W        W 4315  12.857   5.686   0.651 -0.1469  0.3189  0.2432
 2166W        W 4316  11.077   2.672  12.238  0.0490  0.0467  0.1716
 2167W        W 4317  16.915   6.008  41.270  0.0985 -0.2559 -0.0807
 2168W        W 4318   3.193   3.544  38.256  0.1939 -0.1656  0.0434
 2169W        W 4319   0.817   2.046  13.688 -0.2575  0.1376  0.1951
 2170W        W 4320  10.085   5.827  12.933  0.0189 -0.3702  0.3028
 2171W        W 4321   6.001   0.899  31.363  0.3256 -0.0610 -0.1469
 2172W        W 4322  13.296   4.348  14.909 -0.2000 -0.2476  0.0869
 2173W        W 4323   9.994   3.766  33.276  0.0638 -0.3311 -0.0536
 2174W        W 4324   9.420   5.907   5.631  0.0139 -0.0345 -0.0142
 2175W        W 4325   3.368   0.200  15.207  0.1817 -0.0395  0.2733
 2176W        W 4326  10.315   5.935  42.816  0.0597 -0.2687  0.0302
 2177W        W 4327  12.222   4.650  28.497 -0.0679  0.0895 -0.2988
 2178W        W 4328   3.904   4.110   8.408 -0.2378  0.1155  0.0437
 2179W        W 4329   8.530   1.409  31.605 -0.0622 -0.0051  0.0660
 2180W        W 4330   8.643   5.093  37.552  0.1413 -0.0833  0.2797
 2181W        W 4331  14.858   4.478  14.744  0.4105  0.2057 -0.0984
 2182W        W 4332   6.474   5.417  35.560  0.0612 -0.2354 -0.1873
 2183W        W 4333  16.835   6.373   4.522 -0.1851  0.2919 -0.1794
 2184W        W 4334  17.670   6.297   0.785 -0.0508  0.2165 -0.1430
 2185W        W 4335   7.802   5.177   9.268  0.1364  0.1709 -0.2785
 2186W        W 4336   6.454   1.144  30.210 -0.2817  0.1181  0.2508
 2187W        W 4337   1.974   4.668  29.144 -0.2970 -0.0104  0.0825
 2188W        W 4338  20.066   4.319   8.850  0.1189 -0.0150 -0.1127
 2189W        W 4339   0.216   5.736  31.484  0.2896 -0.2536 -0.0564
 2190W        W 4340  11.227   1.665   5.917 -0.0539 -0.0165 -0.1103
 2191W        W 4341  17.850   4.782  39.354  0.0381  0.0655 -0.1308
 2192W        W 4342   2.556   2.445  39.203 -0.0766  0.0657  0.0015
 2193W        W 4343  18.132   6.226  12.574 -0.0435  0.5359  0.0776
 2194W        W 4344  20.944   0.308  33.322 -0.2588  0.0081  0.2653
 2195W        W 4345  13.152   2.655  38.770  0.0797  0.1408 -0.0781
 2196W        W 4346  12.978   6.383  38.062 -0.2343  0.2446  0.4388
 2197W        W 4347   1.224   0.840  36.828  0.0188  0.2868 -0.2386
 2198W        W 4348   4.347   4.953  26.520 -0.1658  0.1796 -0.0928
 2199W        W 4349   3.600   0.836   3.991 -0.1682  0.0571  0.0620
 2200W        W 4350  11.777   5.594  36.568 -0.2651  0.3435  0.0679
 2201W        W 4351  17.501   5.428  10.751  0.1476 -0.0743  0.0183
 2202W        W 4352  13.964   4.781  12.477  0.1556 -0.1110 -0.4196
 2203W        W 4353   5.248   3.282  34.556 -0.1300  0.1178  0.2341
 2204W        W 4354  13.572   4.676   7.023 -0.1258  0.0218 -0.2427
 2205W        W 4355  17.674   4.089  44.509  0.1753 -0.0089  0.1588
 2206W        W 4356   7.723   2.892  40.089 -0.0564 -0.2169  0.0509
 2207W        W 4357  17.689   2.513  33.605  0.2062 -0.0666 -0.1380
 2208W        W 4358  12.971   6.285  34.859  0.0726  0.1302 -0.0454
 2209W        W 4359   3.230   2.288  10.362  0.1417  0.1517 -0.1070
 2210W        W 4360  19.331   0.043   7.455 -0.1883  0.0586 -0.0330
 2211W        W 4361  16.683   4.936   0.010 -0.0482  0.4311 -0.1886
 2212W        W 4362   7.379   1.800  29.728 -0.2663 -0.0656 -0.2123
 2213W        W 4363   7.334   1.502  28.334 -0.0121 -0.2067 -0.1941
 2214W        W 4364  19.250   1.559   8.291 -0.0906  0.2448  0.1022
 2215W        W 4365   1.814   2.270  14.821 -0.2215  0.1146  0.4944
 2216W        W 4366  12.442   3.651   0.706  0.2891  0.0084 -0.0390
 2217W        W 4367  13.452   1.368  30.138 -0.0864  0.1137 -0.1212
 2218W        W 4368  10.861   2.282  17.652 -0.1291 -0.1611 -0.1699
 2219W        W 4369  19.360   4.393  39.065 -0.2634  0.0657 -0.1811
 2220W        W 4370  20.912   5.501  35.183  0.1278 -0.3432 -0.5243
 2221W        W 4371   6.219   1.338  36.026 -0.0492  0.1337  0.3180
 2222W        W 4372  17.474   2.518  29.249 -0.3030 -0.2198  0.2599
 2223W        W 4373   6.081   1.383  26.645 -0.0492  0.0792  0.0277
 2224W        W 4374  16.506   0.289  44.254 -0.2336 -0.1109 -0.1986
 2225W        W 4375   8.781   1.071   2.435  0.2803 -0.1401  0.0681
 2226W        W 4376  14.220   3.910   6.420  0.1441 -0.0851 -0.0084
 2227W        W 4377   9.637   0.914  29.637 -0.0863 -0.2190  0.2135
 2228W        W 4378   4.830   5.824  10.074  0.2840 -0.1325 -0.1241
 2229W        W 4379  17.381   0.945  15.810  0.1006  0.1716 -0.1355
 2230W        W 4380  13.142   4.902  16.188  0.3038 -0.1148  0.2912
 2231W        W 4381  14.113   3.061  17.212  0.2802  0.0128 -0.3832
 2232W        W 4382  11.281   0.450  36.282  0.1376 -0.0097 -0.1634
 2233W        W 4383  10.215   3.613   4.626 -0.0243 -0.0445  0.2399
 2234W        W 4384  18.267   4.192   3.856  0.0615  0.0673  0.0678
 2235W        W 4385  17.911   5.104  32.435 -0.0617 -0.1342 -0.4572
 2236W        W 4386  14.527   1.254  10.053  0.0081 -0.1451 -0.4022
 2237W        W 4387  14.427   2.082   3.440 -0.1496  0.2835  0.0198
 2238W        W 4388   0.754   2.171  38.761 -0.0815 -0.1332  0.0767
 2239W        W 4389  18.789   1.249  38.007  0.0505  0.0929 -0.3052
 2240W        W 4390   0.124   2.887   6.223 -0.0847 -0.0675  0.0662
 2241W        W 4391  14.581   1.820  30.698 -0.0505  0.0094  0.1982
 2242W        W 4392  12.004   2.257   1.994 -0.0615 -0.4926 -0.0338
 2243W        W 4393  14.613   3.513  42.235  0.0498  0.3104 -0.0287
 2244W        W 4394  17.463   0.591  32.927  0.2719  0.0199 -0.1661
 2245W        W 4395  21.030   4.852  12.146 -0.1848  0.1824 -0.1524
 2246W        W 4396  10.362   6.209  35.621 -0.0068 -0.0120 -0.3123
 2247W        W 4397   1.327   1.277  43.883 -0.0493 -0.0625  0.0092
 2248W        W 4398  15.712   4.963  33.788 -0.2430 -0.5058 -0.0935
 2249W        W 4399   1.289   1.963  36.635 -0.1069  0.1797  0.0835
 2250W        W 4400  20.278   1.137  33.232  0.0101 -0.0954 -0.0735
 2251W        W 4401  20.395   6.586  35.234  0.3821  0.1134 -0.0401
 2252W        W 4402   3.339   4.213   4.294 -0.1949  0.0713 -0.1000
 2253W        W 4403  12.711   1.040  37.899  0.1968  0.2418  0.1364
 2254W        W 4404   4.643   4.606  25.126 -0.2044  0.1372 -0.0792
 2255W        W 4405   0.674   6.467   4.123 -0.0161  0.2474 -0.1623
 2256W        W 4406   6.512   5.149   2.082 -0.0181 -0.2713 -0.0797
 2257W        W 4407   9.337   6.183  12.123  0.1002 -0.0639  0.1232
 2258W        W 4408   8.549   3.914  25.667 -0.0494 -0.0361  0.0088
 2259W        W 4409  13.663   5.360  13.966 -0.0284 -0.1636  0.1949
 2260W        W 4410  21.108   0.817  16.936  0.2013 -0.0322 -0.1164
 2261W        W 4411   9.190   1.649  10.043 -0.0067 -0.2719  0.0733
 2262W        W 4412   5.268   1.532  25.278  0.0545  0.0381  0.0950
 2263W        W 4413  16.715   1.109  35.638 -0.0144  0.1407 -0.0681
 2264W        W 4414   5.134   3.157   1.419  0.1343  0.1147 -0.1740
 2265W        W 4415   7.097   4.816  23.314 -0.0753 -0.0604 -0.0013
 2266W        W 4416   3.003   0.019  33.076 -0.2895  0.0160  0.4174
 2267W        W 4417  20.907   4.991  28.889  0.2911 -0.0846 -0.1294
 2268W        W 4418   0.159   3.504  29.807  0.1319  0.1159  0.2361
 2269W        W 4419  15.091   2.566  43.766  0.0198  0.2545  0.0266
 2270W        W 4420  13.572   1.269  18.781 -0.3487  0.2614  0.0302
 2271W        W 4421   8.663   3.802   3.292  0.1710 -0.1045  0.2101
 2272W        W 4422  14.239   1.810  41.344 -0.0268 -0.2195  0.0027
 2273W        W 4423  16.566   0.679  34.417 -0.0594  0.0226 -0.1236
 2274W        W 4424  13.307   0.138  14.305  0.1043  0.1329 -0.2200
 2275W        W 4425   2.227   3.128  11.546 -0.2565  0.3438 -0.0147
 2276W        W 4426  15.142   0.114  22.412  0.1416 -0.0723 -0.0511
 2277W        W 4427   0.158   2.429  11.474 -0.0558 -0.2417  0.3183
 2278W        W 4428   2.803   1.779  24.960  0.0204  0.1036 -0.1177
 2279W        W 4429   2.579   4.179  27.182 -0.1500  0.0767 -0.2765
 2280W        W 4430   4.095   4.808  11.386  0.1783  0.1659  0.1265
 2281W        W 4431   9.922   3.401  44.101 -0.3137  0.1419  0.2429
 2282W        W 4432   2.245   2.651   5.701  0.1562 -0.0227 -0.0953
 2283W        W 4433   8.992   5.531  32.706 -0.1007  0.0054 -0.2953
 2284W        W 4434  20.344   4.605   5.565  0.3632 -0.2100  0.1680
 2285W        W 4435  15.719   4.450  28.719 -0.1838  0.0242  0.4071
 2286W        W 4436   2.397   5.891  36.583  0.3023  0.2395  0.2182
 2287W        W 4437   0.651   5.717   9.499  0.3536 -0.2768 -0.1933
 2288W        W 4438  19.014   5.174   7.373  0.1543 -0.1274 -0.0453
 2289W        W 4439  19.434   3.411  37.437 -0.0971 -0.2298  0.4576
 2290W        W 4440  12.921   1.285  14.332  0.1100 -0.2629 -0.1836
 2291W        W 4441  13.982   0.934  15.659 -0.2394  0.0448  0.0813
 2292W        W 4442  12.795   3.906   4.113  0.1565 -0.2586 -0.2837
 2293W        W 4443  16.450   2.886   1.097  0.2527  0.3458  0.3496
 2294W        W 4444  10.138   4.259  15.666 -0.0195 -0.0083 -0.1389
 2295W        W 4445   9.057   4.903   2.799 -0.0532  0.1340  0.2400
 2296W        W 4446  15.349   1.632   7.215 -0.1186  0.3191  0.0677
 2297W        W 4447  18.888   2.129   1.553 -0.1548 -0.2233  0.0112
 2298W        W 4448   2.048   2.746   4.435  0.1254  0.0879 -0.0375
 2299W        W 4449   7.412   1.593  16.302  0.0596 -0.5042  0.4385
 2300W        W 4450  16.749   3.388   6.419 -0.2087  0.2305 -0.1400
 2301W        W 4451   0.886   6.205  27.561  0.0231  0.1739 -0.6653
 2302W        W 4452  17.187   5.440  22.449  0.5691 -0.2011  0.2009
 2303W        W 4453  18.106   1.740  15.022  0.2823 -0.2432 -0.2077
 2304W        W 4454   3.253   3.027  15.192 -0.1770  0.0722  0.2349
 2305W        W 4455  18.620   2.818  40.110 -0.1835  0.0346  0.1637
 2306W        W 4456  17.221   4.887  22.163 -0.1961 -0.3153 -0.0049
 2307W        W 4457  21.077   1.796   4.608  0.0580  0.3087 -0.4748
 2308W        W 4458  18.961   2.783   3.846 -0.1155  0.0021  0.0799
 2309W        W 4459   9.006   3.417  23.621  0.2682  0.3739  0.0981
 2310W        W 4460  20.387   1.259  30.151  0.2758  0.1318 -0.1134
 2311W        W 4461  16.112   5.846  16.838 -0.0774  0.4303 -0.2021
 2312W        W 4462  11.078   2.512   3.541 -0.1278 -0.1824 -0.3046
 2313W        W 4463   6.367   4.848   1.012 -0.1628 -0.2296 -0.3238
 2314W        W 4464  19.694   4.689  35.055  0.4213 -0.0834 -0.2959
 2315W        W 4465   7.608   0.588  26.756 -0.0257  0.1044 -0.0388
 2316W        W 4466   3.493   6.443   1.066 -0.2387 -0.3286 -0.0523
 2317W        W 4467   1.831   2.154  26.768  0.0158 -0.0680 -0.1796
 2318W        W 4468   9.450   1.959  25.861 -0.1217 -0.0135  0.0240
 2319W        W 4469  14.653   3.106   3.562 -0.1344  0.1040 -0.0981
 2320W        W 4470  11.683   0.530  35.213 -0.2137 -0.0231 -0.1550
 2321W        W 4471  15.287   4.569  12.190  0.0421 -0.0609 -0.1404
 2322W        W 4472  15.959   2.263   9.267 -0.0636 -0.1704  0.1550
 2323W        W 4473  20.861   4.626  38.262 -0.0569 -0.2207  0.0712
 2324W        W 4474   5.808   4.740  21.417  0.0383  0.2083 -0.0814
 2325W        W 4475  14.918   0.487  32.844 -0.2193 -0.1745  0.0156
 2326W        W 4476   6.689   0.860   3.321 -0.1778 -0.0005 -0.2426
 2327W        W 4477  18.775   0.761  37.621 -0.2457 -0.1030 -0.1460
 2328W        W 4478  20.719   4.073  31.810  0.0625 -0.0046  0.0991
 2329W        W 4479  12.610   2.636  30.980  0.2302 -0.0926 -0.2349
 2330W        W 4480  12.022   5.761  43.730  0.0788  0.0533  0.0455
 2331W        W 4481   9.172   2.820   9.037 -0.0553 -0.0162 -0.2463
 2332W        W 4482   5.177   2.351   4.374  0.0513 -0.0719  0.2086
 2333W        W 4483   3.442   3.932   8.789 -0.0826  0.4051 -0.2124
 2334W        W 4484   1.784   6.365  29.320  0.0840 -0.0838  0.0445
 2335W        W 4485  20.366   5.244  39.819 -0.0674  0.0837  0.1010
 2336W        W 4486  19.895   3.998  32.919  0.0173 -0.0054 -0.1610
 2337W        W 4487  12.164   1.102  12.064  0.3280  0.1432 -0.0163
 2338W        W 4488   4.792   3.583   5.693  0.1918 -0.0256  0.0230
 2339W        W 4489  17.506   0.978   3.455 -0.1544 -0.0754 -0.1450
 2340W        W 4490  19.411   5.149   3.668  0.1350 -0.1542 -0.1262
 2341W        W 4491  16.769   6.493   9.421 -0.0106 -0.1288  0.0800
 2342W        W 4492  18.446   0.223  41.932 -0.1014 -0.1451  0.0960
 2343W        W 4493   2.607   2.481   8.954  0.2046 -0.0778  0.0950
 2344W        W 4494  14.561   2.438  11.062 -0.0584 -0.0741  0.2490
 2345W        W 4495   4.374   0.647   5.646  0.0666  0.2706  0.0874
 2346W        W 4496  21.040   6.525  31.209 -0.1963  0.0632  0.2747
 2347W        W 4497  19.725   1.245  44.578  0.2075  0.1993  0.1760
 2348W        W 4498  14.309   3.089  33.395  0.2652 -0.1538  0.0593
 2349W        W 4499  18.352   0.732  31.511  0.2027  0.2993  0.2639
 2350W        W 4500   3.941   0.760   2.585  0.0411  0.1949 -0.1074
 2351W        W 4501  10.068   3.601   0.969 -0.1328  0.2314 -0.0153
 2352W        W 4502  19.219   3.417   5.412  0.0195 -0.0853 -0.1966
 2353W        W 4503  17.218   4.408  19.542 -0.0323 -0.0512 -0.0129
 2354W        W 4504   9.348   0.159  37.491 -0.0521  0.1519  0.0096
 2355W        W 4505  13.155   2.778   7.922 -0.1357 -0.1040  0.0033
 2356W        W 4506   7.401   3.285  40.021 -0.2148 -0.2840 -0.0049
 2357W        W 4507  19.996   1.781  28.820 -0.2904  0.2614 -0.2757
 2358W        W 4508  21.028   4.639   3.235 -0.0034 -0.3569  0.2419
 2359W        W 4509   7.114   0.819  38.470  0.0209 -0.1634  0.0503
 2360W        W 4510  20.572   0.671   0.479 -0.2805  0.1536  0.1928
 2361W        W 4511   0.971   0.831  39.100 -0.2151 -0.2530 -0.0158
 2362W        W 4512   1.541   6.253   1.018 -0.0921  0.1298  0.2918
 2363W        W 4513  16.079   0.302   0.547 -0.2212 -0.1037  0.1473
 2364W        W 4514   9.828   1.058   0.963 -0.0944 -0.0213  0.0896
 2365W        W 4515   0.130   3.758   9.038 -0.0090  0.0367 -0.1242
 2366W        W 4516   4.134   0.522  28.741 -0.0287 -0.1230  0.1323
 2367W        W 4517  12.712   4.439  16.475 -0.5093  0.1603 -0.2371
 2368W        W 4518   3.391   2.824  24.078  0.0395  0.0011  0.1035
 2369W        W 4519   6.015   1.453  37.171 -0.0672  0.1786 -0.0456
 2370W        W 4520  17.315   2.124  43.998 -0.1192 -0.0919 -0.2713
 2371W        W 4521   0.963   1.902   6.180  0.1805  0.0576  0.0007
 2372W        W 4522  16.630   5.246  33.798  0.0887 -0.2153  0.0488
 2373W        W 4523   2.093   5.915   5.273  0.3233  0.1146 -0.1365
 2374W        W 4524   5.813   4.930   8.998 -0.0412 -0.1086 -0.0771
 2375W        W 4525   7.139   2.812  28.623  0.2428 -0.0332 -0.1826
 2376W        W 4526  16.238   0.962   9.698  0.0473 -0.1120  0.3249
 2377W        W 4527  13.716   6.044   4.978  0.0835 -0.1460  0.1927
 2378W        W 4528  16.204   5.866  20.483 -0.0977  0.0190  0.1134
 2379W        W 4529  16.805   0.051  24.072  0.0933  0.0713  0.1315
 2380W        W 4530   4.899   0.860  11.667 -0.0856  0.0618 -0.2699
 2381W        W 4531  14.577   0.871  44.944  0.0574  0.2832  0.1241
 2382W        W 4532   0.120   4.248  32.766  0.0429 -0.0856  0.1549
 2383W        W 4533   4.181   3.748  43.389  0.2240  0.0631 -0.0118
 2384W        W 4534   6.204   2.390  39.273 -0.1194 -0.1784  0.1196
 2385W        W 4535   9.544   2.764  12.957 -0.1312 -0.0750 -0.1304
 2386W        W 4536  11.682   1.777  30.615  0.1228 -0.0806 -0.2159
 2387W        W 4537  19.315   5.534  41.750  0.1944  0.0502 -0.0339
 2388W        W 4538  10.083   0.442  34.284 -0.0935 -0.1314 -0.0412
 2389W        W 4539  11.421   2.202   9.642  0.0390 -0.4395 -0.1076
 2390W        W 4540  12.709   5.013  44.525  0.3443 -0.0346 -0.2796
 2391W        W 4541  20.028   2.618  39.346 -0.1053 -0.2770 -0.2402
 2392W        W 4542  11.983   4.408  39.198 -0.2145 -0.5047 -0.1969
 2393W        W 4543  11.371   2.639  39.930  0.0532  0.3089 -0.1194
 2394W        W 4544   5.328   3.747  14.923 -0.0303  0.0079  0.0139
 2395W        W 4545   7.663   4.932  43.438  0.1704 -0.0959 -0.0441
 2396W        W 4546   1.103   1.341  31.096 -0.1161  0.3778 -0.0403
 2397W        W 4547   1.531   5.747  41.708 -0.0642 -0.1089 -0.1074
 2398W        W 4548  15.455   5.846  44.234  0.1269  0.1823 -0.0328
 2399W        W 4549   4.963   6.451   2.669 -0.1731 -0.3580  0.1711
 2400W        W 4550  12.139   5.088  14.518 -0.0327  0.2572 -0.1695
 2401W        W 4551   7.498   6.417  23.129  0.0743 -0.0664  0.0743
 2402W        W 4552  20.122   0.692  10.326 -0.1338 -0.4734  0.3237
 2403W        W 4553   6.254   6.597  42.493  0.2442 -0.0319  0.3121
 2404W        W 4554  15.179   3.388  10.617  0.0148 -0.1919  0.0146
 2405W        W 4555  13.635   0.356   0.735  0.1602  0.1128  0.0272
 2406W        W 4556  16.432   3.802  13.645 -0.0872  0.2776  0.0202
 2407W        W 4557  14.405   2.126   1.387 -0.2163  0.1751 -0.0516
 2408W        W 4558  16.224   1.079  34.564 -0.0944 -0.2653  0.4487
 2409W        W 4559   5.769   0.221  44.032  0.0739  0.2617 -0.0145
 2410W        W 4560  17.330   1.834   4.165 -0.1627  0.0196  0.0248
 2411W        W 4561  21.145   1.952  14.708 -0.2313  0.0241 -0.1228
 2412W        W 4562  17.131   5.794  43.130  0.0303 -0.3323  0.0626
 2413W        W 4563  18.898   1.465  18.828 -0.1043  0.2201  0.2168
 2414W        W 4564  10.558   5.723  31.559 -0.1067  0.0502  0.1074
 2415W        W 4565   2.264   6.281   8.002 -0.4338 -0.1910 -0.2155
 2416W        W 4566   2.200   0.034  35.749 -0.0848  0.0830 -0.0043
 2417W        W 4567  20.326   3.845  27.836  0.3650 -0.1660 -0.0870
 2418W        W 4568   7.209   4.737   1.338  0.1481  0.2468  0.0327
 2419W        W 4569  14.563   6.243  15.089  0.2512  0.0309  0.1204
 2420W        W 4570  10.502   0.753  39.639  0.0643  0.1877 -0.2460
 2421W        W 4571  14.695   0.976  34.599 -0.2596 -0.0704 -0.0362
 2422W        W 4572  19.512   3.069  11.468  0.2151 -0.0384  0.0833
 2423W        W 4573  13.287   4.240  19.321  0.0634  0.1418  0.3190
 2424W        W 4574   2.306   3.716  10.457  0.2909 -0.0580 -0.1529
 2425W        W 4575   6.169   2.975   5.107 -0.4808 -0.0761  0.0421
 2426W        W 4576  16.768   5.980  39.206  0.2996  0.4318 -0.2221
 2427W        W 4577  19.635   5.013  31.291 -0.1224  0.1641  0.0342
 2428W        W 4578   4.454   5.350  15.910 -0.0556 -0.1648  0.0008
 2429W        W 4579   8.793   3.543   2.119  0.2764 -0.1182 -0.1206
 2430W        W 4580   4.930   6.393  37.944 -0.1219 -0.2892  0.0331
 2431W        W 4581   6.284   4.548  31.179 -0.1201 -0.0177 -0.2182
 2432W        W 4582   3.047   2.721  14.786 -0.2315  0.0455  0.3312
 2433W        W 4583   7.284   0.510  44.553 -0.0481  0.1855  0.0817
 2434W        W 4584   2.900   1.970  36.920  0.0921 -0.1719  0.1839
 2435W        W 4585  15.526   1.452  12.355  0.5342 -0.2085 -0.1630
 2436W        W 4586  11.383   1.640  28.008 -0.0774 -0.1959 -0.1018
 2437W        W 4587   1.706   2.501  14.299  0.1452 -0.3474 -0.1060
 2438W        W 4588   7.113   5.071  37.723  0.1541 -0.4071  0.2714
 2439W        W 4589  14.219   5.286  38.539 -0.0840  0.1575  0.1243
 2440W        W 4590   6.584   6.450  30.875  0.1968 -0.0898  0.0862
 2441W        W 4591  20.115   6.337   3.352 -0.1456  0.3154 -0.1448
 2442W        W 4592   3.066   1.202  38.240  0.0449 -0.2607  0.1242
 2443W        W 4593  19.090   2.856   2.180 -0.1531  0.1684  0.1046
 2444W        W 4594  15.742   2.084  10.539  0.0001 -0.0211  0.3391
 2445W        W 4595  11.480   3.087  43.297 -0.0898 -0.1697  0.0425
 2446W        W 4596   4.941   5.327  13.527  0.2138 -0.4505  0.1415
 2447W        W 4597  21.058   4.850  44.641 -0.1056 -0.2359 -0.3162
 2448W        W 4598  13.999   3.389   4.650 -0.2929  0.3453 -0.1756
 2449W        W 4599   2.990   2.402  40.310 -0.0376  0.2546  0.1179
 2450W        W 4600   8.852   4.957  30.767 -0.1749  0.1212  0.1636
 2451W        W 4601   7.121   3.657  25.114 -0.0699  0.1403 -0.0530
 2452W        W 4602  20.445   5.493   3.437 -0.1442 -0.0834 -0.0410
 2453W        W 4603   8.335   1.917  31.303  0.0284  0.1346  0.0724
 2454W        W 4604  15.149   4.717  36.554 -0.1095  0.1418  0.0452
 2455W        W 4605   7.172   4.295  27.421  0.1513 -0.0670 -0.0357
 2456W        W 4606  17.395   2.006  10.043 -0.0532 -0.0723 -0.0183
 2457W        W 4607  21.059   6.159   5.907  0.2255  0.1180  0.3247
 2458W        W 4608  17.923   1.051   2.396  0.1161 -0.2866  0.3877
 2459W        W 4609  12.124   0.186  17.408 -0.2611 -0.0658 -0.0328
 2460W        W 4610  14.088   6.033   8.704 -0.0761 -0.0353  0.0504
 2461W        W 4611  11.009   4.840  15.789  0.0688 -0.1275 -0.1233
 2462W        W 4612  10.088   4.075  16.822  0.3302 -0.2587 -0.0520
 2463W        W 4613  11.765   4.954   5.076  0.3020 -0.0742 -0.2405
 2464W        W 4614   5.165   2.353  41.047 -0.0083 -0.0528 -0.0180
 2465W        W 4615  18.790   0.225  10.941 -0.1972 -0.0890  0.1976
 2466W        W 4616  13.851   3.397  20.647 -0.1698 -0.2474 -0.4758
 2467W        W 4617  13.325   2.644  37.184  0.0882  0.2787  0.2901
 2468W        W 4618   6.206   4.679  42.261  0.1885  0.2240  0.1664
 2469W        W 4619   0.284   1.466  28.247 -0.4977 -0.0669  0.2132
 2470W        W 4620   3.468   4.228  33.886 -0.1066  0.1444  0.3745
 2471W        W 4621   8.572   3.456  31.835 -0.0674  0.0450 -0.4442
 2472W        W 4622   7.617   0.120  43.525 -0.0234 -0.2308 -0.1225
 2473W        W 4623  15.877   0.337  35.077 -0.1290  0.1406  0.0555
 2474W        W 4624  10.071   3.309  16.628 -0.0810  0.0171 -0.0875
 2475W        W 4625  17.443   4.329  10.064 -0.1448 -0.0341  0.0260
 2476W        W 4626  13.381   6.020  15.456  0.2393 -0.0940  0.1985
 2477W        W 4627  14.334   0.440   4.643  0.0195 -0.1105 -0.2938
 2478W        W 4628  17.601   3.009  12.896 -0.0270  0.2880  0.2750
 2479W        W 4629   4.517   2.150  15.805  0.0337 -0.0733  0.0810
 2480W        W 4630   5.047   2.381   8.575 -0.2487 -0.0314  0.0102
 2481W        W 4631   0.391   6.201  43.297 -0.0210  0.0145 -0.2959
 2482W        W 4632  20.998   3.450  11.824 -0.1448  0.2371 -0.0697
 2483W        W 4633   9.041   2.766  13.245  0.2238 -0.0723 -0.0376
 2484W        W 4634   1.101   1.237   5.657 -0.0287 -0.1688 -0.3693
 2485W        W 4635   8.630   6.553  43.308 -0.2912 -0.0205 -0.0907
 2486W        W 4636  16.215   0.938  23.519  0.1486 -0.2019  0.1403
 2487W        W 4637  15.649   4.678  14.364 -0.0126 -0.2601  0.0438
 2488W        W 4638   5.683   3.168  30.539  0.1801 -0.0148  0.2496
 2489W        W 4639  14.466   4.335  30.275 -0.1277  0.2743  0.2000
 2490W        W 4640  20.393   3.436   7.796 -0.3219 -0.2111 -0.0869
 2491W        W 4641   0.749   3.307  31.814  0.0024 -0.2081 -0.0921
 2492W        W 4642   9.574   1.940  33.003 -0.0427 -0.2963  0.2127
 2493W        W 4643   8.403   1.683  42.101 -0.1997  0.2013  0.0021
 2494W        W 4644   6.459   4.702  27.530 -0.0882  0.1132 -0.1900
 2495W        W 4645  18.050   3.477   4.437 -0.0140 -0.0012 -0.2779
 2496W        W 4646   1.843   0.488  42.774 -0.0389 -0.0754  0.1588
 2497W        W 4647  11.398   2.691   5.002  0.0243 -0.0334  0.3779
 2498W        W 4648   5.379   3.794   6.771 -0.0865  0.2284 -0.0479
 2499W        W 4649   4.836   3.606  38.510  0.0085  0.2566 -0.0224
 2500W        W 4650  15.077   2.879  39.653  0.1426  0.0204  0.0358
 2501W        W 4651  17.522   4.533  34.520  0.1167  0.1490 -0.0759
 2502W        W 4652   9.637   3.789   0.936 -0.0240  0.1391 -0.0638
 2503W        W 4653  20.221   0.442  39.910 -0.2398 -0.0235 -0.1693
 2504W        W 4654  11.579   0.142  15.569 -0.0130 -0.0775 -0.0750
 2505W        W 4655   3.347   1.840   1.665 -0.2702  0.0478  0.0032
 2506W        W 4656   8.096   4.553   7.114  0.2287  0.2297 -0.4719
 2507W        W 4657   2.941   4.321  27.439  0.2067  0.0713 -0.2123
 2508W        W 4658  20.140   2.440   9.850  0.0015  0.3182 -0.2375
 2509W        W 4659  12.992   6.113  40.305 -0.0732 -0.1776 -0.0197
 2510W        W 4660   1.952   5.404   5.466 -0.2523 -0.0167 -0.0602
 2511W        W 4661   6.919   5.427  24.514  0.1646  0.0439  0.1922
 2512W        W 4662   8.200   3.832  34.918  0.2824 -0.0187 -0.0673
 2513W        W 4663  14.008   0.053  31.878  0.1831 -0.3135  0.1298
 2514W        W 4664  16.404   2.151  14.322  0.2460  0.1571  0.1852
 2515W        W 4665  17.963   0.775  39.065  0.0978 -0.0377  0.2714
 2516W        W 4666  19.734   5.794  15.724  0.0341  0.0366 -0.1627
 2517W        W 4667   9.985   3.937  27.513  0.1744 -0.0962 -0.0633
 2518W        W 4668  18.265   6.180  34.241 -0.2046 -0.1406 -0.0367
 2519W        W 4669  15.299   1.765  16.386 -0.1808 -0.0549  0.1774
 2520W        W 4670  11.367   6.026  34.151  0.2403  0.1351 -0.0202
 2521W        W 4671  15.621   3.125  31.519 -0.2088  0.1004  0.0837
 2522W        W 4672  14.119   1.194  35.061 -0.1904  0.0701  0.2515
 2523W        W 4673  12.564   0.359  35.453  0.1073  0.1023 -0.1063
 2524W        W 4674   6.914   6.572  27.007  0.3952 -0.0844  0.2118
 2525W        W 4675   0.258   2.873  33.298 -0.0218  0.0915  0.1368
 2526W        W 4676   3.037   6.457  38.029  0.0567  0.1848  0.1976
 2527W        W 4677  19.315   2.742   3.416  0.0422  0.0147 -0.0727
 2528W        W 4678   8.305   2.693  33.015 -0.0387  0.3087 -0.0924
 2529W        W 4679   1.294   3.813  40.385 -0.0015  0.0904 -0.0276
 2530W        W 4680   9.399   1.517   6.460 -0.0203  0.1124 -0.0885
 2531W        W 4681  14.138   4.884  23.200  0.1510  0.3177 -0.0407
 2532W        W 4682  12.635   4.962  28.258 -0.1815 -0.1000  0.2340
 2533W        W 4683  20.529   5.834  33.992 -0.1470  0.1726  0.0837
 2534W        W 4684  20.522   1.198  17.553 -0.2300 -0.3668  0.0261
 2535W        W 4685  14.307   1.215  35.939  0.0992 -0.0755  0.1197
 2536W        W 4686  14.950   1.101  11.421 -0.0030 -0.0704 -0.1513
 2537W        W 4687  17.722   0.641  31.033  0.0909 -0.0838  0.0603
 2538W        W 4688  10.826   3.549  10.732 -0.0044 -0.0039 -0.1386
 2539W        W 4689  12.832   3.469  38.686 -0.0051  0.2139  0.0461
 2540W        W 4690   5.289   0.945  23.645  0.1964 -0.0806 -0.0210
 2541W        W 4691   9.949   0.912   8.141 -0.1412  0.1026 -0.1578
 2542W        W 4692  18.311   0.112  21.592 -0.0890  0.2148 -0.2818
 2543W        W 4693  16.438   5.873  15.806 -0.0484  0.2608 -0.0278
 2544W        W 4694   7.525   2.867   0.183 -0.1338 -0.0019 -0.1187
 2545W        W 4695  18.247   2.099   6.774  0.1415 -0.1443 -0.1625
 2546W        W 4696  18.987   2.610  38.274  0.1362  0.0600  0.0670
 2547W        W 4697   8.363   4.290  36.797  0.1689  0.0825  0.0509
 2548W        W 4698   8.392   6.081   7.878  0.1369 -0.1504  0.0462
 2549W        W 4699  19.849   0.084  18.546 -0.1661 -0.0657  0.0777
 2550W        W 4700   9.078   6.058  32.733 -0.0415 -0.1505 -0.0794
 2551W        W 4701   9.417   6.493  44.788  0.0414  0.2158 -0.0872
 2552W        W 4702   7.112   1.868  37.513 -0.3573  0.0684  0.4061
 2553W        W 4703  15.915   4.798  32.899 -0.1264 -0.1577 -0.1515
 2554W        W 4704  19.484   4.244   6.040 -0.0468 -0.1211  0.1095
 2555W        W 4705  14.986   1.979  42.622  0.2475  0.2537 -0.1826
 2556W        W 4706  13.497   1.234  36.306 -0.0404  0.1688  0.0797
 2557W        W 4707  10.331   1.379   0.577 -0.0404 -0.1293  0.0392
 2558W        W 4708  14.060   5.851  28.338 -0.1125  0.0653  0.1813
 2559W        W 4709  17.936   1.119  22.315  0.3786  0.3679 -0.3080
 2560W        W 4710  17.631   3.089  17.430 -0.2403 -0.0837 -0.0471
 2561W        W 4711  14.694   1.334  12.161  0.1417  0.0931  0.2558
 2562W        W 4712   8.193   0.091  25.955 -0.0488  0.0468 -0.2212
 2563W        W 4713   6.261   0.879  22.113 -0.0393 -0.1129  0.0404
 2564W        W 4714   5.594   1.953   7.185 -0.0309  0.2460  0.1073
 2565W        W 4715   6.432   2.657   7.780 -0.0284 -0.1169  0.1417
 2566W        W 4716  19.092   3.487   9.301  0.2871  0.1468  0.1852
 2567W        W 4717   1.736   0.476  38.844  0.2416 -0.0976 -0.2287
 2568W        W 4718  12.665   5.105  42.129 -0.3163 -0.0456  0.1425
 2569W        W 4719   9.614   0.537  28.606  0.0884  0.0758  0.0906
 2570W        W 4720   1.092   5.003  27.501  0.1069 -0.1450  0.2877
 2571W        W 4721   9.827   0.228  40.070 -0.3277 -0.0322 -0.0155
 2572W        W 4722   6.441   0.420  28.457 -0.0844 -0.1018  0.1016
 2573W        W 4723  13.842   3.685   3.327 -0.0746  0.1265 -0.0641
 2574W        W 4724   0.648   3.234  36.202  0.1953 -0.0737  0.0374
 2575W        W 4725  18.840   3.835  40.155  0.1255  0.0696  0.2930
 2576W        W 4726  19.524   1.996  18.183 -0.0561 -0.5715  0.0598
 2577W        W 4727   4.088   1.998  44.304 -0.0298 -0.1619 -0.2419
 2578W        W 4728  16.112   1.686  16.154 -0.1586  0.2360 -0.0848
 2579W        W 4729   9.398   1.929  42.301  0.1814 -0.0430 -0.0747
 2580W        W 4730  15.838   0.251   3.775 -0.0527 -0.1137 -0.2708
 2581W        W 4731  20.770   6.267  42.272 -0.1281  0.1561 -0.3434
 2582W        W 4732   4.685   2.607  30.431  0.0635  0.0487  0.0066
 2583W        W 4733   3.282   6.124   1.441  0.0037  0.0239 -0.0926
 2584W        W 4734  11.955   4.108  29.370 -0.0864 -0.1625 -0.0023
 2585W        W 4735   3.386   5.911   2.208 -0.2496  0.3218  0.0035
 2586W        W 4736  15.490   1.064  30.229 -0.3009  0.2438  0.2688
 2587W        W 4737  11.704   4.372  12.295  0.0078  0.0564 -0.0032
 2588W        W 4738  15.486   2.308  37.569  0.0389 -0.4553 -0.3340
 2589W        W 4739   9.108   0.077  35.926  0.2012 -0.0699 -0.0867
 2590W        W 4740   0.089   4.144  41.465 -0.2049  0.1069 -0.0176
 2591W        W 4741  13.717   1.905  10.491  0.0095 -0.0363  0.0272
 2592W        W 4742  18.734   2.217  35.041 -0.0953  0.0817 -0.0411
 2593W        W 4743  13.120   3.059   2.582  0.0858 -0.2386 -0.2265
 2594W        W 4744   0.627   6.129  17.432  0.1212  0.1333  0.0746
 2595W        W 4745   7.457   6.067  26.874 -0.2130  0.1250 -0.3663
 2596W        W 4746   8.555   5.873   9.356 -0.2325 -0.0674 -0.0063
 2597W        W 4747   8.040   3.302  13.085  0.0838 -0.1448 -0.2915
 2598W        W 4748  14.221   5.520  20.931 -0.0979 -0.0935 -0.3552
 2599W        W 4749   1.051   4.211  10.984  0.0378 -0.1495  0.3201
 2600W        W 4750   2.510   4.565  31.438 -0.2177 -0.0587  0.0053
 2601W        W 4751  19.746   2.400  10.691  0.1073  0.0626  0.1863
 2602W        W 4752  20.895   2.009  30.426 -0.1841 -0.1463  0.0087
 2603W        W 4753  16.094   3.367  21.839 -0.2687  0.1173 -0.0954
 2604W        W 4754  20.994   5.077   6.110  0.0328 -0.0296 -0.1881
 2605W        W 4755  19.601   4.911  15.760  0.1762 -0.0662  0.2247
 2606W        W 4756  11.942   0.194   6.471 -0.0034 -0.0066 -0.0009
 2607W        W 4757   0.117   2.233  41.087 -0.3001 -0.0520  0.1098
 2608W        W 4758   4.072   2.500  35.846  0.0262  0.3545  0.0455
 2609W        W 4759   6.217   4.910  24.906 -0.4720 -0.0676  0.2363
 2610W        W 4760  12.656   3.108   7.275 -0.0571  0.1514  0.1771
 2611W        W 4761  17.367   3.201  14.617 -0.0919 -0.1979 -0.0850
 2612W        W 4762  14.235   2.849   5.642  0.0766  0.1506 -0.2013
 2613W        W 4763   2.016   3.638  29.393  0.1562  0.0715 -0.0351
 2614W        W 4764  17.841   0.550  44.770 -0.1665  0.0792 -0.2252
 2615W        W 4765  15.078   3.063   3.925  0.2378  0.2002 -0.0434
 2616W        W 4766   2.401   6.416  38.581  0.1800 -0.0725 -0.1909
 2617W        W 4767  12.999   6.399  17.879  0.0990  0.1304  0.0136
 2618W        W 4768  15.148   1.068  32.091  0.0830  0.1995 -0.0467
 2619W        W 4769   2.773   4.833   7.091 -0.0769  0.0662 -0.1517
 2620W        W 4770  19.039   2.933  12.151  0.1703  0.1432 -0.1964
 2621W        W 4771  11.180   2.918   5.967 -0.0362 -0.1676  0.1112
 2622W        W 4772  19.574   3.231  43.749  0.0269  0.1421  0.2638
 2623W        W 4773  15.817   4.433   6.744 -0.0229 -0.1274 -0.2973
 2624W        W 4774   7.675   6.033  44.212 -0.0234 -0.0139  0.1185
 2625W        W 4775  12.629   6.397  29.467  0.1581 -0.1974 -0.0101
 2626W        W 4776   9.354   2.374  40.650 -0.0143 -0.1986  0.1992
 2627W        W 4777   7.109   5.712   5.151  0.1931 -0.0566 -0.1135
 2628W        W 4778   1.413   5.622  12.529  0.1719 -0.2555 -0.1802
 2629W        W 4779  19.686   4.908  20.255 -0.0708  0.0224  0.0434
 2630W        W 4780  19.987   0.572  35.880  0.2147  0.0467 -0.1031
 2631W        W 4781   4.246   5.595  42.380  0.0806  0.2493  0.0537
 2632W        W 4782  15.868   2.815   7.994 -0.1175 -0.0905 -0.1894
 2633W        W 4783   9.756   3.726  36.142  0.2550  0.0932 -0.0687
 2634W        W 4784   8.676   5.130  16.465 -0.2224 -0.0420 -0.1174
 2635W        W 4785   4.060   3.655  38.243  0.0874 -0.1427  0.0662
 2636W        W 4786  13.149   3.203  37.604  0.1498  0.1466  0.0339
 2637W        W 4787   2.640   1.351  38.050 -0.0849 -0.1335 -0.1418
 2638W        W 4788   1.289   2.804  35.362 -0.3490  0.0278 -0.1427
 2639W        W 4789  20.471   4.738  17.974  0.1151 -0.2029 -0.2644
 2640W        W 4790  10.670   2.481   7.813 -0.2697  0.1109  0.2396
 2641W        W 4791  16.943   1.983  24.026  0.2595 -0.1316  0.0184
 2642W        W 4792   4.465   2.809   1.309  0.1241 -0.0434 -0.2532
 2643W        W 4793  14.116   6.343  39.969  0.2073 -0.1183  0.0080
 2644W        W 4794   0.859   1.821  36.892 -0.3049  0.2601 -0.1724
 2645W        W 4795  18.603   5.361  32.144  0.2148  0.0757 -0.1367
 2646W        W 4796  19.036   6.366  40.345  0.0249  0.2139 -0.1009
 2647W        W 4797  15.037   4.931   4.390 -0.0956 -0.2945 -0.1183
 2648W        W 4798  10.502   6.441  32.133 -0.1663  0.0320  0.4062
 2649W        W 4799   4.797   0.312  22.467 -0.1013  0.1012 -0.0181
 2650W        W 4800  16.541   2.885   4.438  0.1957  0.0028  0.2098
 2651W        W 4801  10.049   1.822   3.331  0.1316  0.0178  0.3978
 2652W        W 4802  13.707   1.096  10.023 -0.0996 -0.1232 -0.2735
 2653W        W 4803  17.281   3.550  34.172 -0.1640  0.1162 -0.0409
 2654W        W 4804  12.600   0.171  33.646 -0.2372  0.0174  0.0559
 2655W        W 4805  12.807   1.434  34.650  0.1447  0.0151 -0.0421
 2656W        W 4806   2.618   4.329   2.679  0.2960 -0.0174  0.1894
 2657W        W 4807   2.505   6.314   2.402 -0.0783  0.0580 -0.3644
 2658W        W 4808   8.204   5.446   8.646 -0.1916 -0.1855  0.0208
 2659W        W 4809   1.540   1.558  41.277 -0.0206  0.3964  0.0760
 2660W        W 4810  13.442   2.159   4.482  0.3181  0.2554  0.0991
 2661W        W 4811   1.999   3.242  33.590 -0.3783  0.0744  0.0368
 2662W        W 4812   7.922   1.907  16.051 -0.0110  0.0673  0.0954
 2663W        W 4813   7.396   0.720  12.033 -0.0894  0.2171  0.2545
 2664W        W 4814   9.627   6.217   2.730 -0.2046  0.0447  0.0718
 2665W        W 4815   4.817   6.253   4.461  0.0111  0.0389  0.4645
 2666W        W 4816  15.819   5.985   9.448 -0.0820 -0.3555 -0.0618
 2667W        W 4817   8.413   2.916  38.786 -0.1862 -0.0601  0.1203
 2668W        W 4818   5.954   2.246  44.977 -0.0176 -0.2338 -0.1043
 2669W        W 4819  19.217   0.936   4.790 -0.0258  0.3477 -0.1671
 2670W        W 4820  15.603   0.422  14.006  0.2450 -0.0335  0.1826
 2671W        W 4821  17.941   6.500  11.677 -0.0003  0.1064  0.2635
 2672W        W 4822  15.887   2.515  20.952 -0.0372 -0.0293  0.2241
 2673W        W 4823   9.835   3.538   3.144 -0.4018  0.2556  0.3313
 2674W        W 4824  10.403   2.313  15.384 -0.2662 -0.0977 -0.2437
 2675W        W 4825  15.986   2.619  39.273  0.0978 -0.0885  0.1876
 2676W        W 4826   0.186   1.353   9.283 -0.0401 -0.0148  0.0104
 2677W        W 4827   8.456   0.065  45.078  0.0316 -0.3517 -0.2017
 2678W        W 4828   3.430   0.955  32.401  0.6044  0.0047  0.0193
 2679W        W 4829  16.700   5.675  42.509 -0.3809  0.1408  0.2074
 2680W        W 4830   5.935   1.422  11.518  0.1655  0.2587 -0.1894
 2681W        W 4831   0.053   4.658   4.705  0.0640 -0.0893 -0.0750
 2682W        W 4832   8.184   3.137  34.492  0.0957 -0.1970 -0.0596
 2683W        W 4833  18.933   2.858  33.527  0.0177  0.0293  0.0428
 2684W        W 4834   5.291   5.767  27.326 -0.1867  0.1035 -0.1121
 2685W        W 4835   8.092   5.638   1.907  0.1225 -0.0077  0.0501
 2686W        W 4836  19.008   2.873  30.482  0.1736 -0.1339  0.0242
 2687W        W 4837   4.514   1.184  38.400 -0.0202  0.0350  0.0698
 2688W        W 4838  11.271   4.374   0.549 -0.0427 -0.0787  0.1076
 2689W        W 4839  15.593   2.412   9.607 -0.0829 -0.0061  0.0184
 2690W        W 4840   9.388   5.222  15.459  0.1713 -0.3172  0.1823
 2691W        W 4841   3.505   3.660  40.906 -0.0310 -0.3096  0.3163
 2692W        W 4842   7.546   3.010  41.346  0.0743  0.0460  0.0562
 2693W        W 4843  13.772   2.597  22.388  0.2191 -0.0298  0.0632
 2694W        W 4844   6.860   2.736   7.381  0.2350  0.1804  0.0051
 2695W        W 4845  15.771   1.901  42.785 -0.0202 -0.2084  0.2823
 2696W        W 4846  18.721   4.451  18.934  0.0187  0.1631  0.1046
 2697W        W 4847  18.640   2.317  15.362 -0.0599  0.0143 -0.0229
 2698W        W 4848  13.665   5.272  41.566 -0.2083  0.2581  0.1461
 2699W        W 4849  14.309   5.913   0.041  0.0230  0.0290  0.0971
 2700W        W 4850  10.454   4.694  41.341  0.3419  0.1498  0.1257
 2701W        W 4851  19.458   4.398  41.186  0.1999  0.0199 -0.0526
 2702W        W 4852  14.017   1.719  40.523  0.2339  0.2915 -0.3788
 2703W        W 4853  16.711   5.292  20.332  0.1176 -0.1900  0.1628
 2704W        W 4854  12.929   4.072  13.187 -0.4036 -0.2253  0.3089
 2705W        W 4855  18.233   3.294   1.772 -0.0028 -0.1418 -0.1350
 2706W        W 4856   1.691   3.543  28.117  0.0805 -0.0535  0.0006
 2707W        W 4857   1.233   0.438  35.954 -0.0268 -0.0009  0.0042
 2708W        W 4858  10.362   1.477  39.878  0.1576  0.1495  0.0110
 2709W        W 4859   0.583   0.147   1.520  0.1633  0.0451  0.0970
 2710W        W 4860   0.736   3.178  32.368 -0.0525  0.0133 -0.3972
 2711W        W 4861  11.109   1.228   1.486 -0.1268  0.1749 -0.1364
 2712W        W 4862   9.282   6.127  14.643  0.1011  0.0053  0.0937
 2713W        W 4863  16.540   0.587  16.410  0.2396 -0.1479  0.1353
 2714W        W 4864   0.924   1.387  14.417 -0.0337  0.6014  0.1879
 2715W        W 4865  12.246   1.729   0.487  0.0791  0.0050  0.0073
 2716W        W 4866   6.256   3.041  40.998  0.0492 -0.0075 -0.1008
 2717W        W 4867   0.540   3.978  17.485 -0.3339  0.2443  0.1936
 2718W        W 4868   0.262   3.607  33.949  0.1281 -0.2607  0.2101
 2719W        W 4869   2.734   2.869  10.174 -0.2644  0.0088  0.2511
 2720W        W 4870  13.271   1.721  36.718  0.1648  0.1683 -0.1738
 2721W        W 4871  14.946   6.509  12.373 -0.2818  0.2133  0.1655
 2722W        W 4872  16.960   5.801  16.551  0.2599  0.1479 -0.0720
 2723W        W 4873   0.681   6.353   6.142  0.1804 -0.0607  0.2219
 2724W        W 4874   7.441   1.705   7.121 -0.0554 -0.1470 -0.0284
 2725W        W 4875   7.000   5.740  14.628  0.0362  0.1456  0.0843
 2726W        W 4876   1.487   2.278  25.442  0.0146 -0.0800  0.0334
 2727W        W 4877   0.413   1.132  35.249  0.0767 -0.1774 -0.1314
 2728W        W 4878  13.423   3.110  13.677  0.5078  0.0392  0.2662
 2729W        W 4879   9.126   2.362  42.866 -0.0829  0.2120  0.3004
 2730W        W 4880   3.200   5.814   4.580  0.0512 -0.1184  0.0675
 2731W        W 4881   1.717   4.996   3.722  0.0493  0.2684 -0.3331
 2732W        W 4882  15.486   3.043  16.330 -0.2410 -0.0617 -0.4424
 2733W        W 4883  10.822   2.104  40.976  0.2898 -0.0205 -0.0301
 2734W        W 4884  12.468   4.681   0.724 -0.0252 -0.0287  0.2298
 2735W        W 4885   7.420   6.290  31.879  0.0719  0.0692  0.3307
 2736W        W 4886  15.515   4.644  34.625  0.1741  0.0700 -0.1131
 2737W        W 4887   9.155   2.763  24.288  0.4066  0.2192 -0.2604
 2738W        W 4888  12.756   5.939  18.050 -0.2352 -0.4393  0.3120
 2739W        W 4889  20.755   3.727   2.088 -0.3316 -0.0131 -0.2882
 2740W        W 4890   2.026   2.697  34.025  0.1852  0.1022 -0.0525
 2741W        W 4891   2.095   2.890  13.977  0.1295  0.2510  0.0605
 2742W        W 4892   2.684   6.049  13.773 -0.2326 -0.0657  0.1708
 2743W        W 4893   1.980   3.721  35.519  0.2923 -0.1425  0.1174
 2744W        W 4894  13.558   3.185  44.485 -0.0490  0.0338  0.0103
 2745W        W 4895  19.034   4.621  21.185 -0.0669  0.0111  0.1930
 2746W        W 4896  12.936   0.503   5.700 -0.0368  0.3713  0.0110
 2747W        W 4897   0.319   0.736  18.637  0.1139  0.0173  0.4063
 2748W        W 4898  13.969   0.692   9.955  0.3465  0.0400 -0.1148
 2749W        W 4899   3.630   5.528  15.882  0.1640 -0.0666  0.1179
 2750W        W 4900  18.090   0.445  44.274 -0.0453  0.1213  0.0627
 2751W        W 4901   0.245   2.450  10.097  0.2265  0.0281  0.0598
 2752W        W 4902  19.485   5.453  40.851  0.0914  0.1789  0.0608
 2753W        W 4903   7.215   4.136  40.416  0.2745 -0.0975  0.1891
 2754W        W 4904   6.658   2.165  20.548 -0.0163 -0.1446 -0.0639
 2755W        W 4905  12.579   0.711  20.252  0.0251  0.1163 -0.3153
 2756W        W 4906   8.330   4.786   8.400 -0.2786 -0.0223 -0.0881
 2757W        W 4907  12.640   5.462  18.210  0.0716 -0.1310  0.0674
 2758W        W 4908  16.188   4.162   8.467  0.3593 -0.0412  0.1062
 2759W        W 4909   4.901   1.303  29.845  0.0072 -0.0849  0.2163
 2760W        W 4910   1.114   6.410  34.571  0.0799 -0.3441  0.1315
 2761W        W 4911   5.511   6.035  10.938  0.1207  0.0629 -0.0655
 2762W        W 4912   4.773   2.353   6.490 -0.0518 -0.2243  0.0374
 2763W        W 4913  10.883   5.169   0.932  0.1648 -0.0738 -0.0861
 2764W        W 4914   9.734   1.386   6.863 -0.0345  0.0541 -0.1812
 2765W        W 4915  12.496   5.424  41.014 -0.0746  0.0236 -0.0543
 2766W        W 4916   1.872   4.488  34.216  0.1600 -0.0268 -0.0022
 2767W        W 4917   3.875   4.585  38.468  0.0671 -0.0798  0.2532
 2768W        W 4918  15.774   3.878   4.554  0.0173 -0.0066  0.2520
 2769W        W 4919   5.634   5.981   0.053 -0.1263 -0.1821 -0.1687
 2770W        W 4920   7.838   1.261  31.426 -0.1176 -0.0090  0.0401
 2771W        W 4921   9.090   5.801  23.650 -0.0150  0.1557 -0.1110
 2772W        W 4922   0.218   6.384  28.771  0.0380  0.2075 -0.1280
 2773W        W 4923  18.364   6.155  45.111 -0.0290 -0.1008 -0.0249
 2774W        W 4924  10.701   6.161   4.243  0.1491  0.2681 -0.0680
 2775W        W 4925   2.987   6.167  14.180 -0.0368 -0.2079  0.0393
 2776W        W 4926  20.449   3.337   5.695  0.1054  0.3624 -0.2330
 2777W        W 4927  13.880   1.932  37.065 -0.1282  0.3919 -0.2252
 2778W        W 4928  17.016   0.820  23.716 -0.4001  0.1253  0.4283
 2779W        W 4929  20.574   1.636   9.355  0.1958  0.1442 -0.1595
 2780W        W 4930  16.272   5.186  44.168 -0.2280 -0.1313  0.0380
 2781W        W 4931  10.317   6.132  29.322  0.1455  0.2201 -0.0206
 2782W        W 4932   8.133   2.910  38.346  0.0950 -0.0229 -0.2346
 2783W        W 4933  10.309   4.566   7.024  0.6837  0.2770  0.1550
 2784W        W 4934   3.811   4.410  10.197  0.0976  0.0919 -0.1743
 2785W        W 4935   6.930   1.407  22.368 -0.1723  0.2400 -0.1640
 2786W        W 4936  10.177   3.995  12.438  0.4169 -0.2522 -0.0773
 2787W        W 4937  16.594   0.822  30.016 -0.0704 -0.0579 -0.0083
 2788W        W 4938  17.353   2.322  43.054  0.4918  0.2163  0.3003
 2789W        W 4939   7.969   5.815  13.668 -0.1939 -0.2071 -0.1368
 2790W        W 4940  15.459   5.634  29.564 -0.2101 -0.1508 -0.1092
 2791W        W 4941  14.412   5.317  30.331 -0.2541 -0.0933  0.1229
 2792W        W 4942  13.449   6.272  43.565 -0.3453 -0.2255  0.6346
 2793W        W 4943   2.301   1.143  40.152  0.1640  0.0307  0.2638
 2794W        W 4944   5.754   4.927  30.396 -0.0827 -0.0693  0.2357
 2795W        W 4945  18.473   2.043   7.726 -0.3259  0.0836  0.0594
 2796W        W 4946  12.879   5.621  38.455  0.0350  0.1293 -0.0626
 2797W        W 4947   5.003   4.296  41.401 -0.0549 -0.2666 -0.0500
 2798W        W 4948  12.299   3.663  15.929 -0.2685 -0.0139  0.1393
 2799W        W 4949  14.385   2.646   6.094 -0.0951  0.1370 -0.0467
 2800W        W 4950  20.315   0.958  12.593 -0.0350 -0.0355 -0.1191
 2801W        W 4951  19.742   2.306   2.567  0.0541 -0.0802 -0.2267
 2802W        W 4952   2.089   0.650   8.415 -0.2667 -0.2943 -0.1900
 2803W        W 4953  18.522   1.548  11.299  0.0732  0.1986  0.0581
 2804W        W 4954   5.262   2.359   7.090 -0.2936  0.0420  0.0961
 2805W        W 4955  10.000   1.532  32.284 -0.0092  0.2878  0.1826
 2806W        W 4956  17.507   5.977   9.202 -0.2541 -0.0782  0.2891
 2807W        W 4957  17.902   5.020  13.142 -0.1404 -0.0865 -0.1751
 2808W        W 4958  17.757   0.310  11.158 -0.1273 -0.2670 -0.1405
 2809W        W 4959  16.219   2.975  14.617  0.1608 -0.0709 -0.2881
 2810W        W 4960  20.596   0.618  12.296  0.0545  0.0418 -0.1043
 2811W        W 4961  16.178   2.378   4.369 -0.1426  0.2085  0.0839
 2812W        W 4962   9.573   5.720  11.326  0.0003 -0.1022 -0.0331
 2813W        W 4963   8.970   0.903  13.419  0.1370 -0.1314 -0.0632
 2814W        W 4964   4.238   0.387   6.873 -0.4105 -0.1966 -0.1749
 2815W        W 4965   5.320   4.339  28.095  0.2416  0.2710 -0.1836
 2816W        W 4966  20.197   4.015  15.825  0.2067  0.2063 -0.0602
 2817W        W 4967   1.934   2.756  30.390 -0.1523 -0.0690 -0.0028
 2818W        W 4968   7.595   2.691  28.319 -0.1630 -0.0173  0.2114
 2819W        W 4969   0.416   3.406  37.161 -0.1628 -0.1201 -0.0022
 2820W        W 4970  15.108   6.067  41.384 -0.2340 -0.0121  0.0053
 2821W        W 4971  12.774   5.171  12.095  0.1608 -0.1908  0.0610
 2822W        W 4972  18.121   0.208  40.442 -0.2970  0.2267 -0.0491
 2823W        W 4973  11.785   5.253  13.626 -0.0203 -0.0182 -0.3498
 2824W        W 4974   5.662   2.322  31.872  0.0863  0.0436 -0.0608
 2825W        W 4975  12.694   5.147  34.825  0.2381 -0.1409  0.5008
 2826W        W 4976   1.598   4.275  15.555 -0.4255 -0.1382  0.0690
 2827W        W 4977   5.410   4.091   3.692  0.1081 -0.1598  0.4501
 2828W        W 4978  11.484   4.038  15.629 -0.2444 -0.0336  0.3461
 2829W        W 4979   6.799   5.625  42.991 -0.0062  0.0395 -0.1831
 2830W        W 4980   7.370   5.025  41.949  0.2341 -0.0303  0.0905
 2831W        W 4981  19.160   2.452  15.550 -0.1957  0.5244  0.1084
 2832W        W 4982   8.721   0.212  15.833  0.1441  0.0010 -0.1203
 2833W        W 4983  19.788   2.290  14.658 -0.0105 -0.0109 -0.1028
 2834W        W 4984  12.100   0.009   8.020 -0.0745 -0.0816 -0.3809
 2835W        W 4985  15.248   2.940  20.638  0.0260 -0.0058  0.1537
 2836W        W 4986  13.546   1.291   7.113  0.1734 -0.0950 -0.1181
 2837W        W 4987  18.584   3.822  20.906  0.1063  0.0229 -0.3434
 2838W        W 4988   6.541   3.819  39.492  0.0107 -0.2252  0.1029
 2839W        W 4989   4.948   1.222   3.429  0.0263  0.0768  0.1947
 2840W        W 4990  16.391   0.047   9.720  0.0469 -0.2206 -0.1023
 2841W        W 4991  13.990   4.972  40.713  0.1874 -0.0243  0.1690
 2842W        W 4992  14.462   4.802  30.608  0.3223 -0.1709 -0.4489
 2843W        W 4993  16.981   5.171  18.137 -0.1030  0.1040  0.2950
 2844W        W 4994  14.955   2.454  19.776 -0.1611  0.1398  0.2204
 2845W        W 4995  18.119   0.798  10.521  0.0243 -0.1668 -0.0844
 2846W        W 4996   9.962   1.964  28.158 -0.1156 -0.3099  0.5345
 2847W        W 4997   6.134   3.044  32.103  0.0276 -0.0171 -0.0306
 2848W        W 4998   5.477   5.745  41.876 -0.1158 -0.4570 -0.0679
 2849W        W 4999  16.806   6.129  20.928  0.0542  0.1431  0.3240
 2850W        W 5000   6.880   4.216   8.737 -0.0335  0.3141 -0.0082
 2851W        W 5001  20.294   5.283  33.303  0.1263  0.4350 -0.0274
 2852W        W 5002   5.988   3.493  11.164 -0.0667  0.2364 -0.1572
 2853W        W 5003   4.836   3.986   8.738 -0.1293  0.0754  0.1783
 2854W        W 5004  20.289   3.600   0.798 -0.2800  0.1087  0.0339
 2855W        W 5005   9.656   6.559  14.320  0.0942  0.0675  0.2459
 2856W        W 5006   2.349   2.847  12.379  0.2718  0.3237  0.0349
 2857W        W 5007   3.830   1.575   0.063  0.0113  0.0294 -0.0335
 2858W        W 5008   4.187   5.228  37.890 -0.0304 -0.2418 -0.1822
 2859W        W 5009   4.726   0.038  33.110  0.0830  0.3505 -0.1163
 2860W        W 5010   4.018   4.606   1.888 -0.2301 -0.2203  0.0806
 2861W        W 5011   6.700   0.699  36.582 -0.2810  0.0596  0.1504
 2862W        W 5012  13.759   6.027   5.833  0.2571  0.4331 -0.0368
 2863W        W 5013  20.244   5.861  15.769  0.0049 -0.4236  0.0004
 2864W        W 5014   8.155   6.124  38.356 -0.3261 -0.0249  0.1096
 2865W        W 5015  10.724   3.701  34.462  0.0984  0.0333  0.0670
 2866W        W 5016   3.765   3.902  26.588 -0.2070 -0.0886  0.4361
 2867W        W 5017  21.058   4.309  26.849 -0.1078 -0.3551  0.1598
 2868W        W 5018  10.184   2.056  29.232 -0.0289  0.0523 -0.2749
 2869W        W 5019  13.661   4.127  37.192  0.1935 -0.4916  0.1250
 2870W        W 5020   2.666   3.137  35.124  0.0236 -0.1395  0.1709
 2871W        W 5021   6.745   4.392  10.849  0.0315 -0.1892 -0.2045
 2872W        W 5022   1.576   2.241  42.438  0.1111 -0.1876  0.1847
 2873W        W 5023  14.847   3.818  32.625  0.1981  0.0747 -0.1477
 2874W        W 5024  13.359   2.448  28.885 -0.0276 -0.1031 -0.1068
 2875W        W 5025   8.427   4.888  38.319 -0.0333 -0.1618 -0.0820
 2876W        W 5026  11.336   3.316  10.996 -0.0035  0.2849 -0.0469
 2877W        W 5027  12.597   1.638  19.692  0.0970 -0.0110  0.0707
 2878W        W 5028   8.734   0.645   9.077  0.0755  0.2543  0.0980
 2879W        W 5029  17.637   0.694  42.553 -0.2050  0.1510 -0.2769
 2880W        W 5030   4.638   5.871  36.573 -0.4216 -0.0867  0.1818
 2881W        W 5031   5.756   5.781  28.057 -0.1897  0.0783 -0.1162
 2882W        W 5032   8.720   2.418   8.337  0.2335 -0.0288  0.1771
 2883W        W 5033  19.669   6.359  42.995  0.0551  0.0691 -0.2576
 2884W        W 5034  10.237   6.249   5.424 -0.2199  0.0018  0.0391
 2885W        W 5035  13.195   2.909  41.431 -0.4207 -0.0007  0.0075
 2886W        W 5036  20.704   5.692  37.385 -0.2723  0.1380  0.0798
 2887W        W 5037   8.628   1.437  34.184  0.2025 -0.0919 -0.2294
 2888W        W 5038  16.150   3.373  44.142 -0.0884  0.0533  0.0942
 2889W        W 5039  17.231   3.095  40.729 -0.0231  0.0689 -0.0593
 2890W        W 5040  18.748   2.370  29.868 -0.1442  0.2308  0.2190
 2891W        W 5041  21.022   0.326  10.654  0.1849  0.1560 -0.0332
 2892W        W 5042   8.089   2.595  13.592 -0.0130  0.0373 -0.0104
 2893W        W 5043   3.339   1.315  27.783 -0.1549  0.3522 -0.2104
 2894W        W 5044   6.209   3.047  28.410 -0.3627  0.2152  0.2052
 2895W        W 5045  18.868   1.720  21.754 -0.0668 -0.1641 -0.1756
 2896W        W 5046   9.519   2.657  37.488  0.4106  0.0579  0.0258
 2897W        W 5047   1.877   2.016  14.359 -0.2690  0.0339  0.1710
 2898W        W 5048   6.068   3.071   1.940 -0.0506  0.1247 -0.0419
 2899W        W 5049   4.621   1.618  13.526  0.1854 -0.0148 -0.0013
 2900W        W 5050  16.945   4.213  10.001  0.0031  0.5205  0.0631
 2901W        W 5051   3.124   2.754  36.672  0.1654 -0.1183  0.1481
 2902W        W 5052   6.686   2.508  11.778  0.2111  0.2106 -0.2226
 2903W        W 5053   6.667   2.679  39.264  0.1323  0.2470  0.0327
 2904W        W 5054   4.728   6.585  27.300 -0.0479 -0.2039  0.0723
 2905W        W 5055  14.114   0.635  11.149  0.0615 -0.0126 -0.2900
 2906W        W 5056  16.789   0.904  13.978  0.0733 -0.0187 -0.0377
 2907W        W 5057   7.063   4.378   7.194 -0.1327 -0.1430 -0.2278
 2908W        W 5058  17.865   2.044  20.643 -0.2640  0.3989  0.0564
 2909W        W 5059   7.708   1.939  22.613  0.0792 -0.1080 -0.0801
 2910W        W 5060  14.054   3.074   1.572 -0.0994  0.0752 -0.1090
 2911W        W 5061  18.380   2.771  31.372 -0.1323 -0.0983 -0.1190
 2912W        W 5062  14.982   4.559  37.632 -0.2162  0.0608  0.1702
 2913W        W 5063   1.230   3.185  32.237  0.1160 -0.1672  0.0928
 2914W        W 5064   1.311   4.165  28.893  0.0686 -0.0639  0.1265
 2915W        W 5065  11.989   5.709  43.018  0.2737 -0.2294 -0.0322
 2916W        W 5066  10.735   3.760  36.593  0.0327 -0.3278 -0.2867
 2917W        W 5067  17.151   4.525  34.046 -0.0356  0.2313  0.0469
 2918W        W 5068  11.635   2.392  17.878  0.5535  0.0672  0.3480
 2919W        W 5069  20.338   5.915  40.937  0.1506 -0.1417  0.0957
 2920W        W 5070   6.623   1.984  15.540 -0.1220 -0.3399  0.0476
 2921W        W 5071  13.442   5.719  28.571  0.0637  0.0373  0.2652
 2922W        W 5072  15.804   0.158  14.851 -0.0938  0.0474  0.1299
 2923W        W 5073   0.585   6.078  35.324  0.1442  0.2302 -0.2950
 2924W        W 5074   5.270   2.185  32.262  0.1483 -0.2642 -0.1838
 2925W        W 5075  11.422   0.695  37.610 -0.4371 -0.1277  0.0072
 2926W        W 5076  20.091   4.339  39.961  0.0717 -0.1934 -0.0343
 2927W        W 5077  11.570   3.478   9.655  0.1319  0.1514 -0.0510
 2928W        W 5078  15.887   1.118  45.087  0.0691 -0.0753  0.0679
 2929W        W 5079  10.123   1.097  39.680  0.2000 -0.4619 -0.0545
 2930W        W 5080   7.477   1.238  34.764 -0.1341  0.2015 -0.3318
 2931W        W 5081  10.296   4.896   6.192  0.0903 -0.0752 -0.0955
 2932W        W 5082   1.018   6.194  28.741 -0.0729  0.0244  0.1920
 2933W        W 5083   7.734   1.701  23.512 -0.2294  0.0173 -0.0798
 2934W        W 5084  16.185   1.533  23.913 -0.0778  0.2361 -0.2600
 2935W        W 5085  19.404   2.161  12.434 -0.0460  0.1857  0.0307
 2936W        W 5086   5.599   5.446  11.247  0.1196  0.3415 -0.2785
 2937W        W 5087   6.732   2.210  10.011  0.3134  0.1524 -0.2480
 2938W        W 5088  20.851   3.644  17.227  0.0986  0.1047 -0.2275
 2939W        W 5089   0.278   3.064  32.213  0.0324  0.0231  0.3887
 2940W        W 5090   2.671   0.586  13.647 -0.0673 -0.2329 -0.3429
 2941W        W 5091  18.058   4.987  21.222 -0.0887 -0.0195 -0.2252
 2942W        W 5092  18.963   3.785  35.596 -0.0751 -0.0078  0.2433
 2943W        W 5093   2.861   0.677   8.666  0.1125 -0.4207  0.0741
 2944W        W 5094  18.117   1.131   6.622 -0.2476 -0.3212  0.1016
 2945W        W 5095   2.102   0.787  27.785 -0.0256  0.0654  0.2415
 2946W        W 5096  18.412   5.534  33.868  0.2733 -0.0212 -0.0866
 2947W        W 5097  15.930   4.115  17.238  0.1606  0.1348 -0.1751
 2948W        W 5098   5.299   4.103   8.877  0.1477  0.0052  0.1967
 2949W        W 5099  12.759   5.885  18.595  0.3073  0.1671  0.0204
 2950W        W 5100  13.891   6.385  10.360 -0.0252  0.0658  0.0690
 2951W        W 5101  14.705   4.881   8.479  0.2638 -0.0310  0.0706
 2952W        W 5102   8.872   0.779  30.298  0.1749  0.1391  0.1538
 2953W        W 5103   8.913   5.133  24.977 -0.2218  0.3257  0.0154
 2954W        W 5104   1.272   1.642  41.833  0.0090  0.1422 -0.0681
 2955W        W 5105   1.112   6.230  12.070  0.3450 -0.1503  0.2589
 2956W        W 5106  13.128   0.322   3.400 -0.0426 -0.1012  0.1453
 2957W        W 5107  15.926   0.235  22.836 -0.1687  0.0047  0.2591
 2958W        W 5108  12.772   2.817   5.551 -0.0308  0.1224  0.2010
 2959W        W 5109   6.369   0.749   8.624 -0.2878  0.2080  0.3923
 2960W        W 5110   0.479   3.022  44.196 -0.0781  0.0319 -0.1278
 2961W        W 5111  13.178   1.839  20.967  0.0843  0.0064  0.2881
 2962W        W 5112  17.407   6.056  11.452 -0.1488 -0.0572 -0.2400
 2963W        W 5113   8.421   3.349  42.106  0.2340  0.3518 -0.0549
 2964W        W 5114   6.565   6.009  30.056 -0.0298  0.0146 -0.1216
 2965W        W 5115   7.951   4.119  29.812  0.2363  0.3967  0.3916
 2966W        W 5116   9.087   3.196  34.220  0.2437  0.1110 -0.0569
 2967W        W 5117  17.707   5.788  41.171 -0.0719  0.1654  0.4233
 2968W        W 5118  17.497   0.198  17.868 -0.0114  0.0817  0.0612
 2969W        W 5119  18.721   1.004   4.952 -0.0442  0.3439 -0.0823
 2970W        W 5120  16.725   4.146  32.274  0.1247  0.1902  0.2917
 2971W        W 5121   5.849   6.361  43.754  0.1615  0.2819 -0.3063
 2972W        W 5122   7.649   4.765  34.469  0.0756 -0.1193 -0.1357
 2973W        W 5123  16.056   5.876  19.350  0.1351 -0.1906 -0.2182
 2974W        W 5124   5.195   2.509  30.275  0.0791 -0.0432  0.1110
 2975W        W 5125   2.048   4.891  38.290 -0.0785  0.1614 -0.1359
 2976W        W 5126  20.285   1.419  11.083  0.1131  0.1152 -0.1802
 2977W        W 5127   4.060   5.815  42.827  0.1520  0.2374 -0.2072
 2978W        W 5128   5.794   6.364  42.644 -0.1814  0.0446 -0.1651
 2979W        W 5129  11.728   0.880   0.412  0.0303  0.0087 -0.1441
 2980W        W 5130   6.424   3.584  34.558  0.1424 -0.1565 -0.1530
 2981W        W 5131   9.636   0.688  31.666  0.0006 -0.0577 -0.0829
 2982W        W 5132  10.943   4.851   5.264 -0.3235 -0.1250  0.0659
 2983W        W 5133   6.295   1.868  38.558 -0.1747 -0.0719  0.0278
 2984W        W 5134  15.045   4.784   5.684  0.1668 -0.1545  0.1232
 2985W        W 5135   6.660   3.368  36.613 -0.0114  0.0094  0.1819
 2986W        W 5136  15.524   1.627  39.157  0.1624 -0.0170  0.2663
 2987W        W 5137  15.646   6.184  30.427 -0.1144 -0.1720 -0.1338
 2988W        W 5138  21.047   1.433   9.697 -0.1594  0.0039  0.0858
 2989W        W 5139  10.514   5.111  42.752  0.1424 -0.1514 -0.0332
 2990W        W 5140  12.982   5.877   6.636 -0.2041 -0.0996 -0.2133
 2991W        W 5141  14.802   3.501  29.792 -0.0880 -0.1532 -0.0594
 2992W        W 5142  12.661   1.696   4.143  0.0939 -0.2958 -0.1793
 2993W        W 5143  19.520   3.575  37.918  0.1771 -0.0057  0.0411
 2994W        W 5144  17.360   0.297  14.907  0.2039  0.2001  0.0900
 2995W        W 5145   3.910   0.041  35.587  0.1112 -0.0509  0.2611
 2996W        W 5146  11.376   4.823   7.368  0.1136  0.2474 -0.0577
 2997W        W 5147   5.868   3.212  42.784  0.0149 -0.1126  0.1722
 2998W        W 5148   1.328   3.892  13.248  0.0991 -0.0807  0.0530
 2999W        W 5149   3.178   4.904   7.488  0.1711 -0.1935 -0.0542
 3000W        W 5150  10.219   4.049  41.718 -0.0352  0.1059  0.0981
 3001W        W 5151   5.431   3.567  32.352 -0.1522  0.1235  0.0201
 3002W        W 5152   0.529   4.449  10.251  0.0685  0.0316  0.1230
 3003W        W 5153  17.899   4.708  31.079  0.1595 -0.0313 -0.3498
 3004W        W 5154   7.101   1.682  29.235  0.0804  0.1641  0.2040
 3005W        W 5155  20.531   0.519   6.759 -0.0439 -0.1829 -0.1486
 3006W        W 5156  18.233   2.980  35.303  0.0237  0.1982  0.3892
 3007W        W 5157   1.040   2.340  25.699 -0.0822 -0.1513  0.2909
 3008W        W 5158  12.645   5.158   8.640 -0.1134  0.0009 -0.0981
 3009W        W 5159  12.053   1.812  19.658  0.1616 -0.1467 -0.1577
 3010W        W 5160  20.264   1.879   5.811  0.0147  0.0774 -0.1003
 3011W        W 5161  19.500   4.741   4.652 -0.3035 -0.3012  0.2779
 3012W        W 5162  21.000   0.917  36.625 -0.0330 -0.0561 -0.1410
 3013W        W 5163  12.944   6.069  33.957  0.0879  0.1881  0.0925
 3014W        W 5164   4.459   2.848  29.472 -0.0627  0.0602 -0.0900
 3015W        W 5165  10.370   3.202  13.813  0.5526 -0.0699  0.0467
 3016W        W 5166  17.510   3.093   0.340 -0.1188 -0.0377 -0.1198
 3017W        W 5167   6.968   0.164  41.022  0.3362 -0.1582  0.2343
 3018W        W 5168   6.472   5.410  44.023  0.3470  0.1626  0.0609
 3019W        W 5169   6.385   1.792  39.068 -0.3158  0.0111  0.0100
 3020W        W 5170  16.103   6.588   4.685  0.3354 -0.3398 -0.1782
 3021W        W 5171  17.571   0.798   5.186  0.0536  0.0983 -0.2267
 3022W        W 5172  14.225   4.513  45.077 -0.3526  0.0611  0.0714
 3023W        W 5173   2.154   3.791  34.390  0.2394 -0.1839 -0.0663
 3024W        W 5174  19.849   2.885  14.766 -0.0099  0.2135  0.1130
 3025W        W 5175   9.367   6.324  32.097 -0.0353 -0.1840 -0.3012
 3026W        W 5176  19.408   2.166  18.691 -0.1930  0.1239  0.1884
 3027W        W 5177   5.992   1.264  22.190  0.2482 -0.1391 -0.2678
 3028W        W 5178   1.354   4.340  43.710  0.0775 -0.1028 -0.2255
 3029W        W 5179   8.341   4.141  36.263  0.0642 -0.0139  0.2132
 3030W        W 5180  17.390   3.172  11.317  0.0682 -0.1449 -0.0916
 3031W        W 5181   0.499   3.948   4.578 -0.0009  0.0223  0.0563
 3032W        W 5182  16.331   4.427  30.310  0.1459  0.3221 -0.1184
 3033W        W 5183  11.286   1.482  17.296 -0.1548  0.0547 -0.2524
 3034W        W 5184   3.500   2.340  33.208 -0.4032 -0.0935 -0.0115
 3035W        W 5185  19.969   6.251  39.990 -0.0101  0.0335  0.1810
 3036W        W 5186  10.058   3.628  38.978 -0.1634 -0.3146 -0.1864
 3037W        W 5187  13.065   5.806  10.996  0.1696  0.0260  0.1994
 3038W        W 5188  21.001   4.006   0.024  0.1417 -0.1192  0.0889
 3039W        W 5189   8.582   0.726  39.969 -0.0074 -0.0652 -0.1631
 3040W        W 5190   4.243   4.002   1.237 -0.1615 -0.2678 -0.3718
 3041W        W 5191  20.671   3.297  30.017  0.4390 -0.0981 -0.0926
 3042W        W 5192   3.130   2.678  24.474 -0.3504 -0.0934 -0.1064
 3043W        W 5193   2.259   0.188   1.763 -0.2608  0.0561  0.2966
 3044W        W 5194  20.568   6.255  32.234 -0.0434  0.2570  0.0834
 3045W        W 5195   6.563   5.773  41.161 -0.1273 -0.0951  0.1889
 3046W        W 5196  14.404   4.983  29.622  0.3830  0.1214  0.0750
 3047W        W 5197  18.688   1.901  32.493  0.1513 -0.2405  0.2242
 3048W        W 5198   5.022   2.680   3.263 -0.0530 -0.1625  0.1813
 3049W        W 5199  12.519   6.551  15.857  0.2113  0.0652 -0.1167
 3050W        W 5200   3.505   1.386  23.206 -0.1985 -0.1998 -0.0439
 3051W        W 5201   4.494   0.184  28.612  0.1208  0.3508  0.4144
 3052W        W 5202  15.309   4.896   1.924 -0.1837 -0.1491  0.3271
 3053W        W 5203   6.608   3.152   2.853  0.1279 -0.1065 -0.2005
 3054W        W 5204  11.093   2.347   8.121 -0.0785 -0.2793 -0.2702
 3055W        W 5205  14.704   5.146  11.513 -0.1023  0.0723  0.2122
 3056W        W 5206  11.752   0.231  37.198 -0.0267  0.0271 -0.0591
 3057W        W 5207   7.381   3.653  25.540 -0.1491  0.1062 -0.0923
 3058W        W 5208  15.131   4.871   9.770 -0.3470  0.2934 -0.4760
 3059W        W 5209   0.200   2.001  26.755 -0.1381 -0.2556 -0.0481
 3060W        W 5210   6.476   3.828  29.575 -0.1639  0.0058 -0.1271
 3061W        W 5211  10.748   3.689  43.611  0.2565 -0.2297 -0.1562
 3062W        W 5212  19.591   1.600   4.383 -0.1408  0.0929  0.1263
 3063W        W 5213  14.469   1.472  31.189  0.1298  0.0496 -0.1748
 3064W        W 5214  18.395   5.168  42.869  0.0838 -0.0966  0.0338
 3065W        W 5215  12.250   0.409  44.558  0.0109 -0.2854  0.0251
 3066W        W 5216  16.690   4.401  43.092  0.0155 -0.1079 -0.2980
 3067W        W 5217  10.684   6.050  44.435  0.2070  0.3377  0.1510
 3068W        W 5218   0.516   3.323  17.615 -0.0874 -0.2206 -0.0433
 3069W        W 5219   1.712   2.310  36.572  0.0924 -0.1009 -0.3724
 3070W        W 5220  15.886   5.095  40.272  0.1037 -0.0780 -0.3059
 3071W        W 5221  13.593   6.247  39.106  0.1384 -0.0306 -0.5436
 3072W        W 5222  10.017   1.172  43.171 -0.1313 -0.3672 -0.2765
 3073W        W 5223   9.077   5.394  43.418 -0.2179 -0.0901 -0.0399
 3074W        W 5224  10.532   5.749  15.516 -0.4060 -0.1090 -0.1518
 3075W        W 5225  20.504   6.269  11.182  0.0149  0.0488  0.2025
 3076W        W 5226  12.699   6.336  30.052 -0.3055 -0.2351 -0.1294
 3077W        W 5227   2.326   1.441  33.011  0.1451 -0.1556  0.1314
 3078W        W 5228  21.048   2.965  35.870  0.1112 -0.0618  0.1344
 3079W        W 5229   1.144   3.417  13.357  0.2107 -0.0535 -0.0363
 3080W        W 5230   4.634   6.097   7.042 -0.1693 -0.1401 -0.1989
 3081W        W 5231   4.876   3.829  36.182  0.1931  0.2701 -0.0258
 3082W        W 5232   8.444   2.644  10.111 -0.1331 -0.1015 -0.4803
 3083W        W 5233  12.563   5.161  42.622  0.3222  0.1291 -0.2370
 3084W        W 5234   1.564   5.089  31.463  0.1005  0.0646 -0.1480
 3085W        W 5235  10.405   4.790  39.395 -0.2755  0.0111 -0.1534
 3086W        W 5236  11.906   3.858   6.114  0.0667 -0.0203 -0.2466
 3087W        W 5237   1.366   0.129  16.293  0.1161 -0.0899 -0.2077
 3088W        W 5238  18.222   1.176  33.554 -0.3175  0.0057 -0.0713
 3089W        W 5239   6.116   4.523   5.194 -0.0470  0.0247  0.1826
 3090W        W 5240   3.860   3.978  35.224 -0.0071 -0.0740 -0.2319
 3091W        W 5241   1.002   1.593  12.901 -0.0050  0.2424 -0.0817
 3092W        W 5242  10.651   1.231  43.911  0.1286 -0.1911  0.1614
 3093W        W 5243   5.078   6.394  27.601 -0.1573 -0.1300  0.0687
 3094W        W 5244  12.920   1.111  12.955 -0.1939  0.1762  0.1264
 3095W        W 5245  16.952   2.634   2.767 -0.1785 -0.2134 -0.2677
 3096W        W 5246  17.970   2.730   9.012  0.1897 -0.0148  0.1280
 3097W        W 5247  20.003   4.425   2.138 -0.0107  0.2687 -0.1655
 3098W        W 5248   0.126   1.691  17.091  0.1869 -0.4068  0.1171
 3099W        W 5249   3.489   3.976   4.751 -0.2000 -0.0699  0.0652
 3100W        W 5250   8.510   2.426  28.864  0.3257  0.1919  0.2260
 3101W        W 5251   1.266   3.734   4.077 -0.0065  0.1335  0.0891
 3102W        W 5252   7.935   0.761  27.565 -0.1497 -0.3971  0.1185
 3103W        W 5253   6.663   0.888  13.538  0.0995  0.0018 -0.0070
 3104W        W 5254  18.544   0.296  12.123  0.1283  0.2686 -0.0766
 3105W        W 5255   5.095   2.100  31.346  0.2588  0.1898 -0.1970
 3106W        W 5256   2.029   2.020  34.747  0.1031 -0.1741 -0.0754
 3107W        W 5257  14.483   5.942  11.265 -0.1319  0.1224  0.0882
 3108W        W 5258   6.060   3.059  42.244 -0.1382  0.3868  0.0786
 3109W        W 5259  12.868   2.472  41.440 -0.2625 -0.0107 -0.0016
 3110W        W 5260   6.472   3.702  26.496 -0.1112 -0.1974 -0.1569
 3111W        W 5261  18.887   0.343  36.720  0.0404 -0.1518 -0.1855
 3112W        W 5262   3.866   5.998  28.976 -0.0771  0.2425  0.1212
 3113W        W 5263  19.026   2.271  19.937 -0.0646  0.1219 -0.0150
 3114W        W 5264  18.260   5.335   1.461  0.2458  0.2163  0.0439
 3115W        W 5265   4.656   1.427   2.028 -0.0043  0.2278 -0.2001
 3116W        W 5266  18.199   3.598  20.107 -0.1876 -0.0104  0.0728
 3117W        W 5267  11.185   2.225   0.256 -0.3396 -0.0897  0.1814
 3118W        W 5268   6.764   0.555  39.281 -0.3499 -0.2378 -0.1423
 3119W        W 5269   6.845   0.904   6.309  0.1904  0.0511 -0.1739
 3120W        W 5270   4.031   1.010  31.972 -0.3703 -0.1658 -0.3105
 3121W        W 5271  14.522   3.876  21.888  0.0262 -0.0600  0.2959
 3122W        W 5272   6.878   5.540  30.414 -0.1155 -0.1240 -0.4805
 3123W        W 5273  19.603   5.932  37.121  0.0014 -0.2898  0.1333
 3124W        W 5274  18.627   1.420  12.649  0.0977  0.2250 -0.2543
 3125W        W 5275   6.192   2.968  21.914  0.0579 -0.2169  0.0526
 3126W        W 5276   8.574   0.216   6.733  0.1262 -0.0059 -0.3594
 3127W        W 5277   8.121   4.657  42.987  0.2238  0.3317  0.2259
 3128W        W 5278  19.776   5.193  16.456 -0.1298 -0.0081  0.2047
 3129W        W 5279  14.330   6.017  20.945  0.2233  0.1183  0.0799
 3130W        W 5280   1.336   1.555  40.345  0.0017 -0.0266  0.1665
 3131W        W 5281   9.146   5.543  24.721  0.3133  0.0145  0.0649
 3132W        W 5282   9.684   6.508   6.983  0.0637  0.1173 -0.0576
 3133W        W 5283  16.779   2.400  15.014  0.1165  0.0421  0.0867
 3134W        W 5284  18.026   3.219  12.547 -0.0138  0.0460  0.3177
 3135W        W 5285   1.416   0.810  25.500 -0.1201  0.1251 -0.0889
 3136W        W 5286   3.878   1.730  25.003 -0.3362 -0.0901 -0.1526
 3137W        W 5287  16.831   2.421   8.142  0.2475  0.1381 -0.0092
 3138W        W 5288   0.143   4.080   3.044  0.3264 -0.3215  0.0320
 3139W        W 5289   6.097   2.627  28.110  0.0802  0.0285  0.1413
 3140W        W 5290  20.164   5.281  12.706 -0.1601 -0.2307  0.1689
 3141W        W 5291  13.506   6.522   8.519  0.1236  0.0250 -0.2866
 3142W        W 5292  19.091   1.286   7.537  0.2199 -0.0678 -0.0150
 3143W        W 5293  19.655   0.105  40.883 -0.0629  0.4397 -0.1639
 3144W        W 5294   1.206   1.375  36.370 -0.1746 -0.0692  0.3031
 3145W        W 5295   1.370   1.665  32.861  0.1264  0.1464  0.1879
 3146W        W 5296   4.436   1.890  39.794 -0.1495  0.6389  0.0613
 3147W        W 5297   3.159   4.752  36.767 -0.1267 -0.0952  0.0424
 3148W        W 5298  10.454   1.316  33.030  0.1585  0.1048  0.0677
 3149W        W 5299   0.981   1.382   6.348 -0.0852 -0.0316  0.1704
 3150W        W 5300   3.616   0.841  43.855 -0.3371  0.1023 -0.0725
 3151W        W 5301   0.420   2.372   0.230  0.2331  0.0120  0.0855
 3152W        W 5302  12.602   3.686  40.014 -0.1103  0.2217 -0.3339
 3153W        W 5303  16.363   0.812   1.837 -0.3522  0.1692  0.0912
 3154W        W 5304  16.201   0.056  20.505 -0.0263 -0.1674 -0.0560
 3155W        W 5305  12.153   4.089   2.212  0.0227  0.0887  0.1736
 3156W        W 5306  10.863   2.524  42.957 -0.2472  0.0527  0.3000
 3157W        W 5307  18.794   1.623  29.476 -0.0916 -0.0494 -0.1611
 3158W        W 5308   4.188   4.795  44.195  0.1840  0.0218 -0.1620
 3159W        W 5309  16.006   2.828  32.629  0.0741 -0.0501  0.2379
 3160W        W 5310  18.366   0.094  19.938  0.0173  0.0912  0.1357
 3161W        W 5311  18.958   6.250  38.163 -0.3540  0.1907  0.0125
 3162W        W 5312  18.403   1.925  33.879  0.3291  0.0844  0.0768
 3163W        W 5313  12.175   0.420  38.948 -0.3733  0.0270  0.0853
 3164W        W 5314   6.314   1.554  11.183  0.1978  0.0554 -0.0681
 3165W        W 5315  14.535   4.931  34.626  0.0769 -0.3046 -0.0558
 3166W        W 5316   5.023   3.828  31.075  0.2179  0.2471  0.2874
 3167W        W 5317   2.412   1.499   2.611 -0.1515 -0.0114 -0.0001
 3168W        W 5318   2.102   1.054   7.104 -0.0044 -0.1414  0.1013
 3169W        W 5319  19.069   4.995  10.310 -0.2090  0.0530  0.1116
 3170W        W 5320   0.099   4.497   7.528 -0.1215  0.1802  0.2761
 3171W        W 5321   8.019   6.017  32.454 -0.2732 -0.0585 -0.2931
 3172W        W 5322   1.636   6.368  34.133  0.1344 -0.1531  0.0489
 3173W        W 5323  10.069   1.959  26.021  0.2370 -0.1556 -0.1227
 3174W        W 5324  10.748   4.807  43.150  0.1000  0.1904  0.0118
 3175W        W 5325   3.630   3.716  40.026  0.0411 -0.1401  0.2970
 3176W        W 5326   2.535   0.240  33.071 -0.2969  0.1005  0.0794
 3177W        W 5327  20.939   2.704  11.251 -0.0051 -0.1559 -0.1789
 3178W        W 5328   3.787   4.827  41.500  0.1887 -0.0546 -0.2300
 3179W        W 5329   0.042   0.653  32.212 -0.0700  0.1436 -0.0251
 3180W        W 5330   4.114   3.324  43.641  0.0309  0.0776 -0.0852
 3181W        W 5331  15.218   3.348  33.784 -0.1967  0.3026 -0.3884
 3182W        W 5332  18.706   3.405  11.019 -0.2092 -0.1066 -0.5702
 3183W        W 5333  18.186   0.982   1.503 -0.0595 -0.1912 -0.0390
 3184W        W 5334  15.392   4.849   4.084 -0.1460  0.4506  0.0733
 3185W        W 5335  11.633   5.956   4.998  0.3171 -0.1266  0.2211
 3186W        W 5336   7.030   4.869  36.843 -0.0357  0.1920  0.1348
 3187W        W 5337   5.943   2.812   0.761 -0.1544  0.1545  0.2399
 3188W        W 5338   3.425   1.478   0.358  0.0711  0.1203  0.3819
 3189W        W 5339   8.830   0.975  34.110 -0.2992 -0.1368 -0.0227
 3190W        W 5340   0.401   5.251  41.474 -0.2627  0.0362  0.0724
 3191W        W 5341   3.841   3.684   8.607 -0.2535  0.2006  0.2032
 3192W        W 5342   1.051   0.131  36.905 -0.0739 -0.1073 -0.2082
 3193W        W 5343  14.270   2.356   7.168 -0.1144 -0.0439  0.2173
 3194W        W 5344  11.193   5.600  27.903  0.3959  0.0493 -0.0947
 3195W        W 5345  19.769   0.937   4.706  0.0916  0.0717 -0.0651
 3196W        W 5346   6.639   0.070  34.400 -0.2104  0.2252  0.1029
 3197W        W 5347   9.820   3.191  39.075 -0.1007  0.1678  0.0083
 3198W        W 5348   0.201   0.413   1.163 -0.1366  0.1556 -0.1360
 3199W        W 5349  16.937   5.360  37.066  0.3105  0.3023  0.2514
 3200W        W 5350   8.289   3.068  41.674  0.0280 -0.0055  0.0110
 3201W        W 5351  16.185   4.387  23.691  0.1811 -0.1872  0.3227
 3202W        W 5352  10.869   2.282  32.686 -0.1670 -0.3624  0.2952
 3203W        W 5353   5.870   5.175  25.403  0.1137  0.3875  0.0334
 3204W        W 5354   9.703   5.104  23.898  0.0272 -0.0247  0.0192
 3205W        W 5355  19.125   5.461  35.191 -0.0816 -0.0243  0.0871
 3206W        W 5356  11.981   1.014  19.165 -0.2670 -0.2453 -0.1020
 3207W        W 5357  20.505   5.206   6.238  0.1457  0.1026 -0.0135
 3208W        W 5358   6.985   6.384  32.630  0.1742 -0.1325  0.0949
 3209W        W 5359  19.906   0.001  40.414 -0.1225 -0.3753  0.0900
 3210W        W 5360  16.524   2.578  25.303  0.0174  0.0789  0.2346
 3211W        W 5361   3.735   5.706  34.060 -0.1203  0.1479 -0.2203
 3212W        W 5362   0.704   5.931  39.080  0.2014 -0.2035 -0.2657
 3213W        W 5363   6.277   1.564   0.588 -0.0132 -0.1530 -0.0342
 3214W        W 5364  10.806   4.981   3.428 -0.2375 -0.0674 -0.0538
 3215W        W 5365  16.397   1.388  23.428 -0.2303  0.0644  0.1459
 3216W        W 5366  18.149   3.718  19.094 -0.1134  0.2794  0.2054
 3217W        W 5367   7.376   3.532  29.983 -0.0758 -0.0700  0.1352
 3218W        W 5368  12.491   3.644   2.867  0.2677  0.0824 -0.1180
 3219W        W 5369  14.271   4.907  20.920 -0.2390 -0.1207  0.1249
 3220W        W 5370   8.136   1.284  12.061  0.1497  0.1528  0.1377
 3221W        W 5371  17.874   2.848  29.778 -0.0952 -0.1463  0.0844
 3222W        W 5372  19.615   0.572  12.868 -0.0416  0.2154 -0.2209
 3223W        W 5373  18.064   0.163  16.124 -0.1346 -0.0204  0.0646
 3224W        W 5374   1.749   6.421  17.224  0.2867  0.1703 -0.0155
 3225W        W 5375   5.331   1.365  15.915 -0.2211 -0.1989 -0.0778
 3226W        W 5376   0.040   1.116  29.084 -0.2759 -0.1189 -0.0241
 3227W        W 5377   6.832   2.034  36.969 -0.1990 -0.2847  0.0712
 3228W        W 5378  12.662   4.646  42.495 -0.2858  0.1857 -0.1531
 3229W        W 5379  12.129   3.424   2.556 -0.0313  0.1460 -0.2212
 3230W        W 5380   4.588   1.280  31.692 -0.0411 -0.0500 -0.0906
 3231W        W 5381  17.639   0.381  11.712 -0.0105 -0.1244 -0.3337
 3232W        W 5382   4.983   2.727  29.337  0.3277  0.0883  0.0389
 3233W        W 5383  13.533   0.158   5.068 -0.1581 -0.0011  0.4791
 3234W        W 5384   3.339   6.335  38.440 -0.0718 -0.0688  0.0250
 3235W        W 5385   6.266   2.001   3.606 -0.0548 -0.0354 -0.0950
 3236W        W 5386  14.378   3.840  35.111 -0.1200  0.2511  0.2601
 3237W        W 5387   7.955   4.040  33.938 -0.0603  0.0305 -0.1141
 3238W        W 5388   5.108   5.721  25.463  0.0545 -0.1117  0.1038
 3239W        W 5389  19.750   4.592  37.574  0.1411  0.0586  0.2645
 3240W        W 5390  20.247   6.454  29.962 -0.0703 -0.2244  0.2576
 3241W        W 5391  14.551   5.266  41.193  0.1202 -0.0658  0.0713
 3242W        W 5392   1.107   6.543  35.066 -0.1538 -0.2304  0.2062
 3243W        W 5393   1.066   0.566  27.705 -0.0301 -0.1450  0.2215
 3244W        W 5394  16.191   0.645  23.109  0.2220  0.2112  0.2539
 3245W        W 5395   3.421   4.156  27.335 -0.2966 -0.1906 -0.2960
 3246W        W 5396  12.958   5.833  30.674 -0.0601  0.0761  0.1256
 3247W        W 5397   9.201   0.374  30.184  0.3012  0.1239  0.1079
 3248W        W 5398   7.627   4.935   7.071 -0.1128 -0.1895 -0.0603
 3249W        W 5399  13.234   4.097   4.331 -0.1991  0.3170  0.2116
 3250W        W 5400   4.116   1.509  41.198  0.0206 -0.0731 -0.2910
 3251W        W 5401  14.450   5.373  34.179  0.2611  0.0964  0.1185
 3252W        W 5402  17.822   3.914   7.065  0.2267 -0.0436  0.0084
 3253W        W 5403   7.831   2.621  42.481  0.0913  0.2366 -0.2003
 3254W        W 5404   8.651   5.108  24.070  0.2984 -0.1403 -0.2913
 3255W        W 5405   3.656   0.363   0.429  0.1711  0.0206 -0.2169
 3256W        W 5406   4.953   4.421  39.080  0.0171  0.2328 -0.1523
 3257W        W 5407   2.275   5.731  15.042 -0.0203  0.1474 -0.1564
 3258W        W 5408  20.026   3.814  37.880  0.0087 -0.0055  0.0083
 3259W        W 5409   7.302   1.920  35.286  0.0137 -0.2269 -0.0435
 3260W        W 5410   1.277   5.059  15.237  0.2690  0.1142  0.1943
 3261W        W 5411  19.604   0.530  37.343  0.1587  0.0270  0.1753
 3262W        W 5412   6.571   3.453   3.307  0.1551  0.1451  0.1247
 3263W        W 5413  11.273   3.829  28.059 -0.0888  0.0495  0.0998
 3264W        W 5414  11.518   5.682  30.471 -0.0650  0.0022  0.3456
 3265W        W 5415  18.784   0.704   8.352 -0.1588  0.0384  0.0562
 3266W        W 5416  17.211   4.117  35.716  0.2485  0.1583  0.1051
 3267W        W 5417  11.431   2.137   6.571  0.2328  0.0688 -0.0875
 3268W        W 5418   9.628   3.608  13.311  0.2852  0.1625 -0.3373
 3269W        W 5419  14.925   6.291  43.588 -0.1330  0.0904  0.1538
 3270W        W 5420  14.638   5.359  12.584 -0.0353  0.0026  0.1482
 3271W        W 5421   7.162   2.562   5.354 -0.1040  0.0545 -0.0077
 3272W        W 5422  17.399   2.499   8.308 -0.1825 -0.0099  0.2322
 3273W        W 5423  10.605   1.550  44.372  0.1469 -0.0005  0.0074
 3274W        W 5424  12.583   3.662  11.406  0.0375  0.0161  0.0881
 3275W        W 5425  17.497   3.248  12.346  0.3084 -0.0752  0.1053
 3276W        W 5426  18.936   3.758  18.238 -0.0493  0.0201  0.2164
 3277W        W 5427  14.027   5.882  38.613 -0.2613  0.1189 -0.0309
 3278W        W 5428  19.370   6.016  18.183 -0.0299  0.1872  0.0460
 3279W        W 5429   2.336   3.658  39.328 -0.0681  0.0509 -0.1419
 3280W        W 5430   9.480   0.171  26.448  0.0401  0.1648 -0.0238
 3281W        W 5431   8.572   3.096  32.848  0.1842  0.0470 -0.1243
 3282W        W 5432  20.805   6.289  34.681  0.1520  0.1748  0.0330
 3283W        W 5433  13.889   2.720   6.982  0.1695 -0.1415  0.0778
 3284W        W 5434   8.393   3.795  44.681  0.0646 -0.1468  0.3034
 3285W        W 5435  19.517   3.782   5.670  0.0343  0.4740  0.3103
 3286W        W 5436  12.076   2.301  18.926  0.0424 -0.1263 -0.0614
 3287W        W 5437  20.353   1.402   4.020 -0.0470  0.0269  0.0235
 3288W        W 5438  18.288   3.634  22.087  0.0883 -0.0726 -0.2794
 3289W        W 5439  19.839   1.149  13.320  0.1806 -0.0386 -0.0745
 3290W        W 5440  13.064   2.579  35.154  0.4449 -0.1218  0.1862
 3291W        W 5441   6.230   3.558   5.065 -0.2515 -0.4148  0.1211
 3292W        W 5442  11.578   6.493  29.479 -0.0275 -0.1642  0.0642
 3293W        W 5443   0.909   5.499  30.980  0.0411  0.0230  0.0984
 3294W        W 5444   2.465   0.467   6.212  0.0001  0.0730 -0.0039
 3295W        W 5445  11.015   2.501  39.034  0.3019 -0.1952 -0.0178
 3296W        W 5446  16.345   1.581  36.588 -0.0355  0.0151  0.1538
 3297W        W 5447  16.413   0.066  23.782  0.1010 -0.1564  0.2394
 3298W        W 5448  13.349   3.235  17.978  0.0860 -0.2891 -0.1551
 3299W        W 5449   5.193   3.343  34.023  0.0755 -0.0476  0.0929
 3300W        W 5450   9.746   5.840  26.233  0.1748 -0.0094  0.0616
 3301W        W 5451  11.169   4.700   6.337  0.0939 -0.0202  0.0215
 3302W        W 5452  12.137   2.123  45.024 -0.1014  0.0543  0.0030
 3303W        W 5453   3.490   1.710  12.279  0.2696 -0.2090 -0.0801
 3304W        W 5454  16.123   3.364  30.806 -0.1870 -0.0866 -0.2876
 3305W        W 5455   9.403   4.932  36.754  0.1461 -0.2654 -0.0467
 3306W        W 5456  20.690   1.732  35.430  0.0418 -0.0177 -0.1951
 3307W        W 5457  12.349   6.063   2.581 -0.2669  0.0227 -0.1030
 3308W        W 5458   0.549   5.993   6.521 -0.0392 -0.0215  0.3239
 3309W        W 5459  17.571   4.076  11.779 -0.0703 -0.0696  0.3189
 3310W        W 5460   7.851   2.043  35.147  0.1511  0.0105  0.0126
 3311W        W 5461   7.409   3.948   7.232 -0.2002  0.1032  0.2100
 3312W        W 5462  18.331   0.475   8.307 -0.1669  0.2954 -0.1403
 3313W        W 5463   8.217   0.457   0.123  0.0112 -0.0082 -0.2714
 3314W        W 5464   1.882   0.457  26.502  0.3569  0.0221 -0.3000
 3315W        W 5465  18.578   3.636  44.901  0.1797  0.1454 -0.1284
 3316W        W 5466  14.349   2.644   1.588  0.0417 -0.0766 -0.0676
 3317W        W 5467  15.939   6.385  29.152 -0.2461 -0.0710  0.0186
 3318W        W 5468  10.281   6.568  34.684  0.3297 -0.3814 -0.1267
 3319W        W 5469  12.947   5.280  31.617 -0.1361 -0.0252  0.1107
 3320W        W 5470   7.086   4.691  30.554  0.0963  0.3425  0.1932
 3321W        W 5471  12.819   4.659  18.502 -0.1210  0.0400  0.2209
 3322W        W 5472  14.717   3.106   9.434 -0.2094  0.2264  0.0067
 3323W        W 5473  12.667   5.667  11.402 -0.0688 -0.2742  0.1144
 3324W        W 5474   9.677   0.606  44.374 -0.0244 -0.2436  0.0846
 3325W        W 5475  20.010   1.577  38.638 -0.1161 -0.0903 -0.0353
 3326W        W 5476   2.586   3.202  42.781 -0.0687  0.1498  0.0071
 3327W        W 5477  13.465   4.009  15.261  0.0715  0.0207  0.3148
 3328W        W 5478  20.066   3.842   7.855 -0.0310 -0.1070 -0.0293
 3329W        W 5479   3.820   3.496  24.538 -0.1334  0.1703 -0.1245
 3330W        W 5480  16.697   0.937  43.041 -0.1311 -0.2398 -0.1103
 3331W        W 5481   6.616   5.778  23.171 -0.0932 -0.1771 -0.0221
 3332W        W 5482   3.140   1.264  23.463 -0.2470 -0.3271  0.1652
 3333W        W 5483   2.764   1.844  38.013  0.2418 -0.0700  0.3216
 3334W        W 5484  16.954   0.137  18.925  0.1414  0.0976  0.1998
 3335W        W 5485  16.372   0.032  24.307  0.0973  0.0485 -0.1507
 3336W        W 5486   6.885   5.966  16.286 -0.0902 -0.1726  0.0473
 3337W        W 5487  17.042   6.304  23.817 -0.3360  0.1356 -0.1027
 3338W        W 5488  20.136   3.265  32.838 -0.1856 -0.0191  0.0723
 3339W        W 5489   6.197   1.539   5.407  0.1322  0.0390 -0.0179
 3340W        W 5490   1.113   4.228  12.244  0.3211 -0.0477  0.3178
 3341W        W 5491  20.750   5.837   9.850  0.0890  0.0787 -0.2362
 3342W        W 5492   6.306   3.003  22.741 -0.1998  0.2606  0.1802
 3343W        W 5493   7.628   5.449  31.548  0.0494 -0.4007  0.0019
 3344W        W 5494  11.303   2.618  28.807  0.0447 -0.1040  0.2121
 3345W        W 5495  15.464   5.612  14.114  0.1182  0.1060 -0.2342
 3346W        W 5496  13.620   0.558  40.934 -0.2781  0.0165  0.1503
 3347W        W 5497  19.884   0.018   7.751 -0.0987 -0.1826  0.2773
 3348W        W 5498  17.257   4.918  43.481 -0.1878 -0.3036 -0.1234
 3349W        W 5499   2.027   4.533  12.240 -0.1333 -0.2213  0.3135
 3350W        W 5500   1.369   2.179   0.371  0.1311  0.1529 -0.1142
 3351W        W 5501   3.462   1.607  30.912  0.0157 -0.0561  0.2023
 3352W        W 5502  17.427   2.583  33.117 -0.2767  0.2815 -0.1712
 3353W        W 5503   0.828   1.601  35.946  0.1024 -0.1851 -0.0304
 3354W        W 5504   0.525   3.087  38.537 -0.0148 -0.4574  0.0975
 3355W        W 5505   7.912   0.182  31.076  0.0075 -0.2065 -0.2106
 3356W        W 5506   5.642   3.768  14.525  0.0545  0.0459 -0.0377
 3357W        W 5507   5.230   2.687  39.091 -0.0965  0.2426 -0.1808
 3358W        W 5508   9.275   3.086  40.216 -0.1237 -0.1779  0.0811
 3359W        W 5509  15.408   5.688  25.360  0.0425  0.2787  0.0827
 3360W        W 5510   2.613   2.661  24.712  0.0583 -0.0822  0.1038
 3361W        W 5511  10.334   5.031  37.083  0.3785  0.0769 -0.0114
 3362W        W 5512   9.306   2.046  41.461  0.4294  0.3432 -0.0033
 3363W        W 5513   5.263   5.316   2.242  0.1031  0.0497  0.1088
 3364W        W 5514  11.024   0.501   1.767  0.0818 -0.0346  0.2062
 3365W        W 5515  21.021   1.416  18.718  0.2865 -0.2623 -0.2187
 3366W        W 5516  19.514   3.294  36.421 -0.2320  0.0471  0.0602
 3367W        W 5517   6.910   3.598  10.693  0.1218  0.1993 -0.3379
 3368W        W 5518   1.763   6.515  15.078 -0.0245 -0.1581 -0.1636
 3369W        W 5519  14.258   4.449   6.346  0.2076 -0.2024 -0.5378
 3370W        W 5520  16.471   5.516  21.854  0.3536 -0.2468  0.0184
 3371W        W 5521   4.462   5.541  25.289  0.1850  0.1419  0.0913
 3372W        W 5522   2.161   5.595  36.257  0.0687 -0.0293  0.1093
 3373W        W 5523  14.435   6.193  36.047  0.2065  0.1133  0.1963
 3374W        W 5524   8.533   5.931  31.108 -0.1646 -0.0931  0.2372
 3375W        W 5525  16.619   3.434   2.885 -0.2369 -0.0032  0.1389
 3376W        W 5526  18.352   1.732  40.682 -0.0431  0.1423  0.0060
 3377W        W 5527   1.370   4.236  16.004  0.1973  0.0820 -0.3118
 3378W        W 5528  17.480   5.790  10.398 -0.0333  0.0085 -0.3864
 3379W        W 5529  20.350   0.544  34.496  0.1103 -0.3368  0.0461
 3380W        W 5530   9.576   5.153  15.951  0.2431  0.6594 -0.0283
 3381W        W 5531   1.592   1.059  39.754  0.1457 -0.1429  0.2374
 3382W        W 5532   8.469   5.277   2.294 -0.0077 -0.4734  0.1206
 3383W        W 5533   2.138   6.433  43.079 -0.1710 -0.0013  0.2554
 3384W        W 5534   8.118   0.748   2.942 -0.0369  0.2772 -0.0504
 3385W        W 5535  11.973   0.749  33.030 -0.0534 -0.0208  0.2875
 3386W        W 5536   7.058   1.542  14.835  0.2096 -0.1862  0.1046
 3387W        W 5537  15.387   4.281  31.980  0.0549  0.0028  0.4152
 3388W        W 5538  17.912   5.883  11.468  0.2038 -0.3880  0.3444
 3389W        W 5539  17.493   4.081  35.276 -0.4478  0.0560 -0.0596
 3390W        W 5540   9.748   5.693  28.550 -0.1776 -0.0032 -0.1706
 3391W        W 5541  18.404   2.473  42.957 -0.1018  0.4349  0.2886
 3392W        W 5542   3.632   6.362   5.669 -0.0236  0.3664  0.0683
 3393W        W 5543   9.044   6.452  34.561 -0.0922  0.1486 -0.2506
 3394W        W 5544  18.721   3.211  32.092 -0.0309  0.2143  0.1181
 3395W        W 5545   4.873   1.113  42.635 -0.0067 -0.0277  0.1718
 3396W        W 5546   1.761   3.718  12.596  0.0251 -0.3383  0.0289
 3397W        W 5547  14.495   1.379  15.408 -0.0649  0.0989  0.1507
 3398W        W 5548   8.199   2.739  11.647 -0.1290  0.1746  0.0020
 3399W        W 5549  13.807   3.702  11.284  0.1044 -0.4255  0.1187
 3400W        W 5550   6.203   2.364   8.117  0.0259 -0.1163  0.0422
 3401W        W 5551   5.445   0.782  25.920 -0.1160 -0.1062  0.0859
 3402W        W 5552  15.072   2.431  33.598  0.3354  0.6316 -0.3407
 3403W        W 5553  18.938   3.577  17.259 -0.0270  0.0120 -0.0541
 3404W        W 5554  11.842   4.992   2.366 -0.0910  0.0264  0.2616
 3405W        W 5555   2.254   4.524   4.408  0.0138 -0.0879 -0.1229
 3406W        W 5556  17.279   5.525  44.775  0.0079 -0.1158  0.0375
 3407W        W 5557  19.951   0.150  43.686  0.0803  0.1135 -0.3823
 3408W        W 5558   7.747   0.880  23.505  0.1953 -0.1679 -0.0264
 3409W        W 5559   3.317   1.635   3.407 -0.0035  0.1850  0.1787
 3410W        W 5560   6.042   1.489  36.618 -0.1845 -0.1112  0.1501
 3411W        W 5561  16.515   4.648  32.680  0.2099 -0.0870  0.1498
 3412W        W 5562  14.334   5.334  44.086 -0.1336 -0.0802 -0.1048
 3413W        W 5563  13.636   4.198  37.718 -0.2245  0.1935 -0.1536
 3414W        W 5564  18.544   4.582   9.582 -0.1112 -0.0372  0.2229
 3415W        W 5565  21.106   2.008   1.642 -0.3034 -0.0143  0.1797
 3416W        W 5566  16.655   1.019  18.823 -0.0909  0.4436 -0.0726
 3417W        W 5567  11.677   2.946  13.537 -0.1727 -0.0180  0.3974
 3418W        W 5568   1.900   6.436   6.610  0.1675 -0.2514  0.0101
 3419W        W 5569  15.916   2.794  40.199  0.2365  0.1243 -0.1228
 3420W        W 5570  15.837   1.602  19.211  0.0179 -0.2409  0.0120
 3421W        W 5571   4.839   2.706  15.769 -0.1025  0.4078 -0.0271
 3422W        W 5572   5.423   5.337  12.650  0.1289 -0.1846 -0.1987
 3423W        W 5573   0.414   5.797   6.972  0.1068 -0.3908  0.1712
 3424W        W 5574  19.371   6.600   6.929 -0.1303  0.0556  0.0073
 3425W        W 5575   1.486   4.811  11.086 -0.0354 -0.1527 -0.1333
 3426W        W 5576   2.322   2.340  12.263 -0.4138 -0.3513  0.0258
 3427W        W 5577  15.773   2.198  39.231 -0.3918  0.0634  0.3148
 3428W        W 5578   8.393   0.374  13.312 -0.1898 -0.0583  0.0066
 3429W        W 5579  11.226   3.211   4.419  0.0261  0.0172  0.1847
 3430W        W 5580   2.652   6.479  14.002 -0.1294 -0.2449  0.0337
 3431W        W 5581   7.603   1.152   3.112  0.0199  0.1810  0.0738
 3432W        W 5582   6.941   0.612  12.203  0.1816 -0.0955  0.2254
 3433W        W 5583  16.641   2.908   9.568  0.0100  0.0185 -0.0790
 3434W        W 5584   4.010   3.291   3.924 -0.5532 -0.0796 -0.0773
 3435W        W 5585  21.079   3.615  15.902  0.1227 -0.0393 -0.0940
 3436W        W 5586  16.836   3.346  30.279  0.0884 -0.0420  0.1911
 3437W        W 5587  15.651   6.575  17.197 -0.0147  0.2492 -0.0131
 3438W        W 5588  16.984   0.502  43.278  0.3961  0.1765 -0.0041
 3439W        W 5589   1.229   3.383  35.500 -0.0089  0.1885 -0.0952
 3440W        W 5590  14.071   1.966  21.677  0.2149  0.0373 -0.1501
 3441W        W 5591   7.308   3.085  21.905  0.4424  0.2989 -0.3543
 3442W        W 5592  11.445   4.601  37.238  0.0872  0.1981  0.3779
 3443W        W 5593   6.549   5.558  33.312 -0.0412 -0.0392  0.0585
 3444W        W 5594  12.066   5.106  17.961 -0.2187 -0.0762  0.0203
 3445W        W 5595   6.417   1.894  43.797 -0.3931  0.0512 -0.0394
 3446W        W 5596  18.124   6.438   5.337  0.0382 -0.3449  0.0579
 3447W        W 5597  13.292   0.072  14.833  0.0288 -0.0197 -0.1535
 3448W        W 5598   4.632   0.036  35.943  0.2701  0.2072  0.0410
 3449W        W 5599   4.586   4.019  32.388  0.3531 -0.1540  0.0675
 3450W        W 5600  15.859   1.109  10.231  0.0106 -0.2870  0.0150
 3451W        W 5601  10.213   5.697  34.237 -0.2572 -0.0857  0.0305
 3452W        W 5602  15.022   2.841  13.703  0.0537  0.0184  0.0410
 3453W        W 5603  18.267   3.039   9.277 -0.0141 -0.1454 -0.1696
 3454W        W 5604   1.113   4.360  31.185  0.3977  0.1981  0.1434
 3455W        W 5605  16.358   4.562  19.287  0.1369  0.1432  0.0741
 3456W        W 5606  15.021   0.238  33.783 -0.0471  0.1326  0.2608
 3457W        W 5607  16.011   4.251  39.995 -0.1386  0.2547 -0.0587
 3458W        W 5608  13.441   3.771  16.253  0.1243  0.0560  0.0125
 3459W        W 5609   0.049   5.661  41.417 -0.2769  0.1755 -0.1777
 3460W        W 5610  12.072   0.096  27.138 -0.0785 -0.2147  0.2349
 3461W        W 5611   5.137   2.302  43.553 -0.0667 -0.1591 -0.0025
 3462W        W 5612  11.587   4.255   8.958 -0.1443 -0.0190  0.0809
 3463W        W 5613   7.551   5.195  13.950 -0.1285 -0.0376  0.1692
 3464W        W 5614  16.889   3.256  44.467 -0.0911 -0.2038 -0.1470
 3465W        W 5615  12.863   5.854  30.155  0.1830  0.0382 -0.0476
 3466W        W 5616   7.593   1.404   8.421 -0.3101  0.1191 -0.2263
 3467W        W 5617   6.163   3.560  39.748 -0.1142 -0.2538  0.2694
 3468W        W 5618  13.645   1.205   2.032  0.0634  0.0500  0.4866
 3469W        W 5619   4.272   3.589   5.562  0.1720  0.2669  0.2722
 3470W        W 5620  20.114   4.023  28.591  0.4772  0.1012 -0.0618
 3471W        W 5621  16.773   6.514  29.335  0.1060 -0.0715 -0.2814
 3472W        W 5622  18.974   0.881  17.535  0.0167  0.0922  0.0252
 3473W        W 5623  17.406   3.847  13.413  0.2125 -0.1279 -0.2479
 3474W        W 5624  19.729   4.870   9.212  0.1253  0.0843 -0.1603
 3475W        W 5625  14.324   4.472   1.341  0.2022  0.0939 -0.1634
 3476W        W 5626  14.079   1.633  41.766 -0.1235 -0.1787  0.0434
 3477W        W 5627  21.021   6.111   0.010 -0.0740 -0.0805 -0.0414
 3478W        W 5628  16.465   2.029   6.480 -0.0159  0.1508 -0.1142
 3479W        W 5629   5.318   4.017  35.112  0.1097  0.1447 -0.0839
 3480W        W 5630   3.575   2.390  14.352 -0.0418 -0.0579 -0.1412
 3481W        W 5631  13.046   1.244  36.078  0.0740 -0.1630  0.4391
 3482W        W 5632  14.970   3.334  11.105 -0.1060  0.1398  0.0687
 3483W        W 5633  19.178   0.810  29.405 -0.0614 -0.2357 -0.0059
 3484W        W 5634  17.853   2.769   8.528 -0.0231  0.0867  0.0678
 3485W        W 5635   2.395   2.980  36.329  0.2884  0.2159 -0.0752
 3486W        W 5636   2.519   5.556  37.039 -0.0776 -0.2650 -0.1880
 3487W        W 5637  16.835   5.757  17.020 -0.0486  0.0929 -0.2384
 3488W        W 5638  10.037   0.329  35.676  0.1253 -0.1713 -0.3681
 3489W        W 5639  18.780   1.152  19.644 -0.0284  0.0461  0.1393
 3490W        W 5640  14.167   0.287  14.447 -0.1829  0.0223 -0.0434
 3491W        W 5641  12.884   5.483  34.525 -0.0022  0.4331 -0.1026
 3492W        W 5642   5.378   3.186  11.585  0.0321  0.1349 -0.0475
 3493W        W 5643  17.256   4.545   5.525  0.0790  0.1770 -0.0330
 3494W        W 5644  13.347   3.147  35.935  0.2604  0.5264 -0.1274
 3495W        W 5645   0.542   5.869  18.601  0.0613  0.1082  0.1041
 3496W        W 5646  20.681   1.925  36.764 -0.1368 -0.1000 -0.0283
 3497W        W 5647  19.582   3.457  44.866 -0.2087  0.0970 -0.1284
 3498W        W 5648  19.827   4.641   7.480 -0.1694 -0.0589  0.1794
 3499W        W 5649  19.038   5.094  38.108  0.1921 -0.3452 -0.2885
 3500W        W 5650  12.096   0.499   7.750 -0.0249 -0.0679  0.1028
 3501W        W 5651  20.324   2.694   4.486 -0.0188 -0.0763 -0.1118
 3502W        W 5652   8.695   4.767  28.673  0.1818 -0.0175  0.3393
 3503W        W 5653  20.573   3.701  30.278  0.2250 -0.2393 -0.1967
 3504W        W 5654   2.505   1.178  36.939 -0.3480  0.1617  0.0121
 3505W        W 5655   1.813   3.855  37.013 -0.2469  0.0108  0.1554
 3506W        W 5656  16.318   2.815  40.481  0.2795  0.4300  0.2364
 3507W        W 5657  18.899   5.344  31.755 -0.2269  0.5097  0.0555
 3508W        W 5658  11.648   3.298  14.292  0.2620 -0.0964 -0.1617
 3509W        W 5659   1.750   5.566   4.951 -0.1815 -0.0323  0.2230
 3510W        W 5660   2.373   4.431  31.920  0.0372 -0.1230 -0.0261
 3511W        W 5661   9.010   0.388  26.497  0.1489 -0.0876 -0.2259
 3512W        W 5662  20.422   0.246   8.170  0.0951 -0.1058  0.1207
 3513W        W 5663   7.648   4.702  43.877 -0.1627 -0.3056  0.2094
 3514W        W 5664   3.408   3.939   1.836 -0.0711  0.1814  0.0584
 3515W        W 5665   1.770   4.998  41.402  0.0596 -0.0241  0.0105
 3516W        W 5666  15.811   3.693  29.040  0.0395 -0.0806  0.2203
 3517W        W 5667  12.161   3.390  35.676 -0.0247 -0.0795 -0.0930
 3518W        W 5668   1.582   4.576   7.406 -0.0291  0.1585 -0.0406
 3519W        W 5669   7.606   3.105  30.846 -0.3066 -0.1574 -0.1124
 3520W        W 5670  17.522   1.776  31.033 -0.1889 -0.0694 -0.0542
 3521W        W 5671  12.882   1.432  18.787 -0.0341 -0.0703 -0.1331
 3522W        W 5672   0.781   3.200  42.789 -0.1462 -0.2265  0.1836
 3523W        W 5673   9.099   2.945  26.684 -0.0791 -0.0628  0.0873
 3524W        W 5674   7.214   2.835  38.534  0.0024  0.1083  0.2462
 3525W        W 5675   8.186   0.719  10.528  0.0778 -0.2811 -0.1547
 3526W        W 5676   8.194   2.188  10.006 -0.2133  0.0194  0.0914
 3527W        W 5677   4.006   4.706  13.574  0.0343  0.0916  0.0732
 3528W        W 5678   6.023   5.021  27.360  0.1098 -0.2179  0.0418
 3529W        W 5679  20.002   1.956  40.889 -0.0316  0.1227 -0.0531
 3530W        W 5680  14.716   5.139   5.424  0.2242 -0.0050 -0.2367
 3531W        W 5681  20.632   5.210  20.453  0.1456 -0.2264 -0.0625
 3532W        W 5682   4.824   0.448   8.418 -0.0740  0.5218  0.0731
 3533W        W 5683  11.221   4.508  32.328  0.0683  0.0248  0.1222
 3534W        W 5684  19.204   5.769  14.538 -0.0168  0.0841  0.1552
 3535W        W 5685   4.458   0.250   1.426 -0.1330 -0.0038  0.0343
 3536W        W 5686  14.624   6.189  34.316 -0.1490  0.0836 -0.1121
 3537W        W 5687  12.668   1.952  12.170  0.0352 -0.2709  0.0883
 3538W        W 5688   5.175   2.303   9.959  0.2604  0.1899 -0.0089
 3539W        W 5689   8.628   3.509  39.383 -0.2329  0.0478  0.3194
 3540W        W 5690   1.566   4.402   2.055  0.3210 -0.0633 -0.2222
 3541W        W 5691  11.786   0.357  37.751 -0.0308  0.1748  0.0424
 3542W        W 5692  16.296   5.276  32.201  0.2475 -0.3235 -0.0446
 3543W        W 5693  13.774   4.360  15.674  0.0303 -0.0944 -0.2791
 3544W        W 5694  12.287   5.160  33.583  0.0188  0.0709  0.0761
 3545W        W 5695   0.915   2.890  32.003  0.0691  0.2757  0.0819
 3546W        W 5696  13.553   0.718   1.657 -0.1919  0.0696 -0.1647
 3547W        W 5697  10.499   1.921  28.079  0.0147 -0.3696 -0.0179
 3548W        W 5698   2.436   5.864  16.632 -0.0099 -0.1631  0.0693
 3549W        W 5699   2.565   2.144  36.032 -0.1604  0.0708  0.1480
 3550W        W 5700  11.264   4.308   8.147  0.0324 -0.2492  0.0392
 3551W        W 5701   6.951   4.642  11.486  0.1057  0.1619  0.1152
 3552W        W 5702  13.368   6.601  35.245  0.0451  0.1041  0.0205
 3553W        W 5703   3.252   6.436  35.771  0.1643  0.0789  0.2453
 3554W        W 5704  15.402   5.636   3.700 -0.1293  0.1358 -0.2200
 3555W        W 5705  18.204   0.350   5.989 -0.1839  0.3299  0.1314
 3556W        W 5706   8.232   3.043  40.088  0.4258  0.3193  0.2254
 3557W        W 5707  13.042   6.305   8.558  0.1396 -0.2120  0.0928
 3558W        W 5708  19.647   3.645  40.816 -0.1540 -0.1647 -0.1356
 3559W        W 5709  12.603   4.424  17.074 -0.1785  0.1970 -0.1055
 3560W        W 5710  20.313   5.296  29.158  0.0239  0.4148  0.0695
 3561W        W 5711  15.702   4.958  13.419  0.1106 -0.0881  0.1932
 3562W        W 5712   0.099   1.823  15.640  0.1245 -0.1571  0.0376
 3563W        W 5713   9.114   0.745  35.564 -0.0064 -0.0619  0.0747
 3564W        W 5714   1.156   0.493   6.027  0.3100  0.3460 -0.1699
 3565W        W 5715  16.275   3.885   2.542 -0.3139  0.0586  0.1780
 3566W        W 5716  12.309   1.706  34.850 -0.1595 -0.2549  0.0608
 3567W        W 5717   0.051   4.937   1.397  0.1115  0.0425 -0.1440
 3568W        W 5718  12.678   2.840  16.773  0.0397 -0.0187  0.0696
 3569W        W 5719   2.453   0.308  29.660  0.0415  0.2779  0.1722
 3570W        W 5720   3.243   1.134  30.791 -0.1215  0.2612 -0.0019
 3571W        W 5721   4.302   1.991  40.314 -0.2368 -0.0517  0.4007
 3572W        W 5722   8.378   0.207  38.868 -0.2606  0.0246  0.0125
 3573W        W 5723   2.248   3.688  14.292  0.2039  0.3389 -0.0184
 3574W        W 5724   0.497   1.112  42.124 -0.0549 -0.3567  0.0819
 3575W        W 5725   8.569   0.517   7.753 -0.0808  0.0169  0.0395
 3576W        W 5726  20.379   4.339  34.933 -0.2546 -0.2498 -0.0394
 3577W        W 5727  14.317   0.319   5.877 -0.3506  0.2819 -0.1176
 3578W        W 5728  18.369   2.410  29.176  0.1498 -0.0990 -0.2835
 3579W        W 5729   5.900   5.161  39.841  0.0222 -0.0813 -0.1206
 3580W        W 5730  14.171   5.702  44.634  0.2118  0.2701 -0.1256
 3581W        W 5731  12.675   2.524  31.521 -0.1275  0.0020 -0.1635
 3582W        W 5732   5.355   4.867  21.289 -0.3220 -0.0861  0.0055
 3583W        W 5733   6.872   5.177  33.090  0.2534 -0.1653 -0.0501
 3584W        W 5734   9.812   2.277  40.405  0.0080  0.0279 -0.0909
 3585W        W 5735  13.975   2.051  18.255 -0.3109 -0.0926  0.3788
 3586W        W 5736  13.473   3.599  37.855  0.0204 -0.0981 -0.1102
 3587W        W 5737   2.847   0.093  38.423 -0.0758 -0.2981  0.0492
 3588W        W 5738   9.241   1.118  28.080  0.0251 -0.2952 -0.0209
 3589W        W 5739   1.811   4.326  16.466 -0.2917  0.3599  0.3301
 3590W        W 5740  16.366   1.373  19.038  0.1526 -0.2674  0.3202
 3591W        W 5741   1.416   4.341  10.661 -0.0471 -0.3090 -0.0951
 3592W        W 5742   9.747   2.829  27.378  0.2280  0.0269  0.2362
 3593W        W 5743  13.040   2.402  43.627  0.2196  0.2784 -0.2847
 3594W        W 5744  12.639   2.280  15.678 -0.4237 -0.2049  0.0242
 3595W        W 5745   6.634   4.156  44.578 -0.1092  0.1047 -0.2855
 3596W        W 5746   6.884   5.402  34.178 -0.1590  0.0850  0.4063
 3597W        W 5747  14.095   2.214   6.080 -0.1467 -0.3531  0.0759
 3598W        W 5748   7.606   1.614  29.346 -0.2979  0.0561  0.0495
 3599W        W 5749   7.324   6.447  21.371 -0.0244 -0.1920 -0.0952
 3600W        W 5750  12.672   3.139  35.904  0.1151  0.0702  0.2149
 3601W        W 5751   1.891   6.473  14.593 -0.0879 -0.1604  0.0185
 3602W        W 5752  10.020   1.820  42.167  0.2999  0.2030 -0.2198
 3603W        W 5753  20.489   6.351   8.445 -0.2544 -0.0893  0.0223
 3604W        W 5754   6.896   0.764  31.431 -0.1048  0.0634 -0.1452
 3605W        W 5755   7.012   1.544   1.527 -0.1266 -0.0026 -0.0425
 3606W        W 5756  14.038   0.730  10.591 -0.1930 -0.0989  0.0211
 3607W        W 5757   8.274   3.761   3.594 -0.2613 -0.0041 -0.1877
 3608W        W 5758   2.706   0.435   1.593 -0.1811 -0.1630  0.0103
 3609W        W 5759   2.399   4.325  13.226  0.0735  0.1248 -0.2350
 3610W        W 5760  18.865   5.941  15.436 -0.0196  0.0942  0.0575
 3611W        W 5761   0.367   2.963  42.694  0.1128  0.3876  0.0119
 3612W        W 5762  18.451   4.121   2.275  0.3202 -0.1486  0.5111
 3613W        W 5763  13.296   5.209  17.040  0.1168 -0.0333 -0.1280
 3614W        W 5764  19.507   4.887   0.112 -0.3029  0.1148  0.3360
 3615W        W 5765   1.484   4.969  28.792 -0.0888  0.0373  0.0208
 3616W        W 5766   8.847   3.183  31.290  0.1898  0.1973  0.0058
 3617W        W 5767  15.376   0.086  15.438 -0.2820  0.2851  0.0194
 3618W        W 5768  16.470   4.424  14.759 -0.3439  0.3658  0.3382
 3619W        W 5769   8.441   3.162  14.103 -0.1431  0.0477  0.0780
 3620W        W 5770   8.908   4.958  25.847  0.1425  0.1286 -0.0399
 3621W        W 5771  15.595   0.739   8.378  0.0236 -0.0040  0.1852
 3622W        W 5772  20.818   3.028  38.779 -0.0266  0.0964  0.1525
 3623W        W 5773  16.792   5.958   7.099  0.0026 -0.0369 -0.5093
 3624W        W 5774  20.473   3.945  18.191 -0.2133  0.4549  0.0766
 3625W        W 5775  17.783   1.946   3.678 -0.1637 -0.3940 -0.1644
 3626W        W 5776  18.887   4.459  10.368  0.1151 -0.1368  0.0263
 3627W        W 5777  19.106   3.286   7.168 -0.0535  0.1139  0.2681
 3628W        W 5778   3.756   2.351   6.079 -0.2443 -0.0952 -0.0011
 3629W        W 5779   4.822   4.482   2.089 -0.1561 -0.1887  0.1546
 3630W        W 5780   4.975   2.547  14.481  0.0586  0.0043 -0.1473
 3631W        W 5781  17.979   6.042  17.436  0.0100  0.1747  0.1397
 3632W        W 5782  19.013   6.360  22.241  0.1649  0.2064 -0.0947
 3633W        W 5783  15.312   5.978  42.460 -0.0653  0.1049 -0.0808
 3634W        W 5784  16.116   2.574   2.632 -0.2538 -0.0945  0.1413
 3635W        W 5785   6.546   1.483  20.891 -0.1787 -0.0995  0.3655
 3636W        W 5786   9.891   4.486  42.579 -0.2483 -0.0789  0.1887
 3637W        W 5787  17.167   0.973  18.837 -0.0558  0.2737  0.1305
 3638W        W 5788  18.482   6.016  32.678  0.2424 -0.2528 -0.0206
 3639W        W 5789  21.100   2.319  17.164  0.2376 -0.1191 -0.0965
 3640W        W 5790  16.310   4.731   4.123 -0.2534  0.1884 -0.1179
 3641W        W 5791  15.873   0.908   1.920  0.2399 -0.2552  0.1816
 3642W        W 5792  19.327   2.110   7.669  0.2092 -0.1231  0.0968
 3643W        W 5793  11.716   6.549   5.222  0.1616 -0.1231 -0.0539
 3644W        W 5794   9.159   3.813  14.000 -0.0612  0.0577 -0.0212
 3645W        W 5795   0.397   3.161  17.136  0.0387 -0.1289 -0.0710
 3646W        W 5796   5.648   6.391   0.369  0.0320  0.1052 -0.2880
 3647W        W 5797   0.020   2.244   8.269  0.0403  0.1454 -0.1549
 3648W        W 5798   9.118   2.349  33.991  0.0495  0.0900 -0.1318
 3649W        W 5799   0.803   1.184  17.275 -0.1103  0.3433  0.2218
 3650W        W 5800  10.288   2.289   8.153  0.0196 -0.0498 -0.0231
 3651W        W 5801  19.661   3.192  34.645 -0.0330  0.1760  0.2532
 3652W        W 5802  16.418   2.433   3.532 -0.3436  0.2607 -0.2360
 3653W        W 5803   6.673   0.360  33.392 -0.1457 -0.1076 -0.1089
 3654W        W 5804  14.283   3.666   5.951  0.1636  0.2775 -0.0317
 3655W        W 5805  10.916   0.528  34.211 -0.0789 -0.0024 -0.2970
 3656W        W 5806  10.669   2.407   4.886 -0.1619 -0.3688 -0.1021
 3657W        W 5807   2.814   0.517  36.433  0.0701 -0.3106  0.2751
 3658W        W 5808   2.946   5.777   3.044 -0.0363  0.0428  0.1698
 3659W        W 5809  15.770   2.859  21.513 -0.2125  0.0228 -0.0959
 3660W        W 5810  19.068   4.196  14.592  0.1214 -0.2028 -0.0206
 3661W        W 5811  18.534   3.728   1.665  0.2179 -0.0496  0.0932
 3662W        W 5812   7.687   2.950  12.320  0.1502 -0.1470  0.0006
 3663W        W 5813  18.242   1.954   0.204 -0.1994 -0.0943 -0.2057
 3664W        W 5814  19.842   3.482   5.411  0.2032 -0.0503 -0.0244
 3665W        W 5815  15.016   5.393   3.285 -0.1033  0.0372 -0.2451
 3666W        W 5816   6.484   4.113  33.523 -0.1548 -0.1371 -0.2028
 3667W        W 5817  15.200   4.152  31.537  0.0121  0.2118 -0.0887
 3668W        W 5818   5.681   5.263  13.162  0.0305  0.0304  0.2082
 3669W        W 5819  17.148   3.603  39.875 -0.0014  0.2840 -0.2033
 3670W        W 5820   4.055   1.977   0.325  0.1573 -0.0456  0.0761
 3671W        W 5821   3.957   0.238   1.685 -0.0544 -0.0292  0.2141
 3672W        W 5822  17.181   3.339   0.017  0.2259 -0.1734 -0.1004
 3673W        W 5823  16.884   2.571  12.064  0.0134 -0.2514 -0.0420
 3674W        W 5824   4.095   1.403  44.267  0.1816  0.0004 -0.0522
 3675W        W 5825  20.361   4.266  10.548 -0.2007 -0.1909  0.0444
 3676W        W 5826   7.169   4.207  32.324  0.2659 -0.1611 -0.1354
 3677W        W 5827  12.125   2.194  41.748  0.2404  0.0371 -0.0543
 3678W        W 5828   9.156   3.503  28.837 -0.0233  0.1665 -0.0697
 3679W        W 5829   9.916   3.759  36.667 -0.4749 -0.2647 -0.0879
 3680W        W 5830  13.424   0.140  17.856  0.1283  0.0179  0.1522
 3681W        W 5831  20.684   4.266  37.248  0.1115  0.0925 -0.0243
 3682W        W 5832  19.091   3.139  43.902 -0.0468  0.2786  0.1615
 3683W        W 5833  10.650   2.562  26.569  0.2840 -0.0107  0.0747
 3684W        W 5834   8.175   0.248  35.117 -0.1214 -0.2791  0.0336
 3685W        W 5835  15.508   2.853  29.595 -0.0736  0.0205  0.0660
 3686W        W 5836  14.014   3.693  44.773 -0.2490  0.2207  0.1591
 3687W        W 5837  14.524   0.490  41.882 -0.0656  0.1681  0.2760
 3688W        W 5838   6.594   1.474  41.638 -0.3974  0.2005 -0.3128
 3689W        W 5839   4.568   4.136  24.349  0.0834  0.0235  0.0533
 3690W        W 5840  13.552   3.304   6.565  0.1894 -0.0314 -0.2061
 3691W        W 5841  16.450   0.456  33.855 -0.0726 -0.1731 -0.2228
 3692W        W 5842   6.464   4.452  38.886 -0.3682  0.1154 -0.3345
 3693W        W 5843  16.265   0.988  38.641  0.1411  0.2837 -0.1183
 3694W        W 5844  19.437   5.005  36.254  0.0299 -0.2267  0.0938
 3695W        W 5845   9.209   1.907   8.004  0.2429 -0.0580 -0.1127
 3696W        W 5846   0.334   0.701   3.258  0.1036 -0.1567  0.1307
 3697W        W 5847   2.347   1.563   6.863  0.1940  0.0001 -0.1822
 3698W        W 5848   4.186   2.225  42.960 -0.1313  0.0458 -0.0216
 3699W        W 5849  12.143   5.207   8.427  0.2641  0.1486 -0.2511
 3700W        W 5850   5.954   0.921  25.755 -0.2703 -0.2958  0.0429
 3701W        W 5851  18.533   4.726  21.250  0.2793  0.1152  0.1547
 3702W        W 5852  12.942   5.609  42.013 -0.0951 -0.1113 -0.1288
 3703W        W 5853  13.839   2.269  33.830  0.1140  0.0120  0.0236
 3704W        W 5854  11.501   1.681  26.855 -0.0911  0.1791 -0.2051
 3705W        W 5855   9.370   4.080   1.411 -0.1315 -0.0973 -0.0913
 3706W        W 5856  20.394   4.897  13.985 -0.1163 -0.2346 -0.1744
 3707W        W 5857   6.235   6.286  21.614 -0.0919  0.2349 -0.1105
 3708W        W 5858   8.898   2.972   2.923  0.0277 -0.1590 -0.2189
 3709W        W 5859  11.891   4.460  18.628  0.2218 -0.0351  0.0982
 3710W        W 5860  11.351   0.441   7.307 -0.1242 -0.0941 -0.1203
 3711W        W 5861   0.333   0.222   5.999  0.1175  0.0536  0.0694
 3712W        W 5862  11.389   6.513  43.919  0.0919  0.0948  0.2461
 3713W        W 5863   2.835   1.457  41.201 -0.2352 -0.0089 -0.2915
 3714W        W 5864  16.706   0.216  17.780  0.0984 -0.0465 -0.1252
 3715W        W 5865   5.508   5.307  39.576  0.1619  0.1800  0.3734
 3716W        W 5866  19.643   2.889  20.529 -0.3987  0.2168  0.0375
 3717W        W 5867   4.372   0.639   2.781 -0.0188 -0.0660 -0.2910
 3718W        W 5868   8.084   2.062  32.802 -0.1091  0.0763  0.3794
 3719W        W 5869   1.084   1.711  39.586  0.3147 -0.1891  0.0362
 3720W        W 5870  14.875   5.986  35.899 -0.1547 -0.0342 -0.1561
 3721W        W 5871   8.358   0.037   3.491 -0.1405  0.0819 -0.1197
 3722W        W 5872   5.473   0.677   5.423 -0.2284  0.0373  0.2686
 3723W        W 5873  11.652   2.528  13.178 -0.1835  0.0523 -0.0536
 3724W        W 5874  10.100   1.688  36.795  0.1249  0.0326  0.2076
 3725W        W 5875  16.784   6.054  22.480 -0.0798 -0.0216  0.1992
 3726W        W 5876  17.019   1.776   3.275 -0.0350 -0.0494 -0.0514
 3727W        W 5877  17.329   3.900  36.923  0.0216 -0.1293 -0.0419
 3728W        W 5878  18.500   1.782  13.848 -0.1365  0.2478  0.0815
 3729W        W 5879  19.922   2.722   5.343  0.0164  0.0962  0.0757
 3730W        W 5880   1.389   6.206  42.985 -0.2172 -0.0287 -0.0548
 3731W        W 5881  15.828   4.917   7.827 -0.0471 -0.1758 -0.0026
 3732W        W 5882  17.637   1.124   9.706  0.1894 -0.2458 -0.0603
 3733W        W 5883  19.292   4.468  34.895  0.2302  0.0341 -0.1146
 3734W        W 5884  12.054   0.147  35.471  0.1476  0.0333  0.0253
 3735W        W 5885  10.919   5.267  39.194  0.0864  0.1556 -0.0902
 3736W        W 5886   4.837   1.458  43.095 -0.1746  0.4605 -0.0481
 3737W        W 5887   1.992   1.643  26.881  0.0274  0.0064 -0.0731
 3738W        W 5888  10.455   2.709  12.048  0.2094  0.0287 -0.0731
 3739W        W 5889  12.009   1.532  36.869 -0.1652  0.0028  0.0969
 3740W        W 5890  12.863   4.929  39.700  0.0414  0.1962 -0.2790
 3741W        W 5891   0.566   2.684  37.488 -0.4179 -0.0061  0.0805
 3742W        W 5892   6.796   1.918  14.222  0.1735 -0.0879  0.2223
 3743W        W 5893  16.425   2.647  18.694 -0.2740 -0.2096  0.2268
 3744W        W 5894   5.478   0.860  12.881 -0.1051  0.0264  0.0155
 3745W        W 5895   3.388   3.082   5.907  0.1499 -0.0275 -0.0824
 3746W        W 5896  14.614   0.852   4.977 -0.2455 -0.0217  0.0998
 3747W        W 5897   8.980   4.620  10.384  0.0120  0.0868 -0.1711
 3748W        W 5898  11.778   1.575  12.373 -0.3144 -0.1207  0.0286
 3749W        W 5899   7.107   1.693  32.445 -0.0808  0.3340  0.1151
 3750W        W 5900  20.964   3.623  16.741  0.0324 -0.1055 -0.0880
 3751W        W 5901   8.409   2.114  28.540  0.1157 -0.0237 -0.0179
 3752W        W 5902  12.457   1.666  37.339  0.0111  0.0445 -0.0931
 3753W        W 5903   3.163   1.450  36.122 -0.3776 -0.1588 -0.1177
 3754W        W 5904  19.849   2.726  16.903  0.0575  0.0474 -0.2243
 3755W        W 5905  10.398   5.640  44.246  0.0907 -0.2312  0.0593
 3756W        W 5906   2.137   1.764   8.530 -0.0214  0.2648  0.0107
 3757W        W 5907  15.938   6.529  24.566 -0.0769  0.0391  0.1629
 3758W        W 5908  16.235   0.316  44.765 -0.1792  0.1558  0.1384
 3759W        W 5909   1.743   2.098  29.011  0.0543  0.0750  0.0900
 3760W        W 5910   6.636   5.159   8.908 -0.0691 -0.0670  0.2213
 3761W        W 5911   2.589   0.498  30.127  0.2602 -0.2412 -0.3360
 3762W        W 5912  15.048   0.294  40.069  0.0108  0.2365  0.0463
 3763W        W 5913  13.144   3.671   9.239  0.0978  0.0346 -0.0756
 3764W        W 5914  19.461   2.672   5.068  0.1676  0.2296  0.0203
 3765W        W 5915   1.953   4.146  33.167  0.0709  0.4119  0.0375
 3766W        W 5916   0.321   5.876  38.424 -0.3069  0.2801  0.3720
 3767W        W 5917   1.479   5.248  39.494  0.1011 -0.0932 -0.0168
 3768W        W 5918  11.794   0.830   8.724  0.0352  0.0704 -0.0915
 3769W        W 5919  20.860   0.658  39.289 -0.2170 -0.1966  0.0052
 3770W        W 5920  11.407   4.981  43.134 -0.0508 -0.1693 -0.0453
 3771W        W 5921  20.878   2.462  13.868  0.1254 -0.1367 -0.0024
 3772W        W 5922   6.584   4.248  25.463 -0.1802  0.2531 -0.0902
 3773W        W 5923   0.712   1.987  39.796  0.2340  0.3614 -0.1004
 3774W        W 5924  14.496   4.864   1.543  0.0275 -0.0123 -0.1032
 3775W        W 5925   5.559   6.356  38.728 -0.3737  0.0299  0.0659
 3776W        W 5926  11.007   4.532   2.482  0.2200  0.0235  0.0323
 3777W        W 5927   1.819   2.107   6.372  0.1919 -0.1173 -0.0321
 3778W        W 5928  20.708   5.612  17.863  0.1984  0.2652  0.2105
 3779W        W 5929   1.771   6.596   5.224 -0.1523  0.0870  0.1544
 3780W        W 5930   0.999   4.155  16.463 -0.2637  0.3426  0.1133
 3781W        W 5931   7.734   0.872  26.228  0.2097 -0.1364 -0.1440
 3782W        W 5932   3.816   0.557  39.416 -0.0455 -0.0143  0.0037
 3783W        W 5933  20.385   0.479  19.248  0.0117 -0.0831 -0.1485
 3784W        W 5934   9.952   1.823  37.566  0.2601  0.0997  0.2343
 3785W        W 5935  17.709   0.624  13.196  0.2612 -0.1948  0.4701
 3786W        W 5936  14.940   4.439  33.831  0.2165 -0.2321  0.1658
 3787W        W 5937   4.662   0.171  34.193  0.0313  0.0313  0.0807
 3788W        W 5938  16.792   0.942   2.916  0.0225 -0.0024 -0.0931
 3789W        W 5939   1.311   3.772  15.238 -0.1008  0.0207  0.0596
 3790W        W 5940  13.769   0.060  42.486 -0.0590 -0.0919 -0.0610
 3791W        W 5941  18.299   5.449   4.081  0.0442 -0.1191 -0.0538
 3792W        W 5942  14.425   5.111  36.723 -0.2771 -0.0648 -0.0364
 3793W        W 5943   0.417   0.744  40.416  0.1950  0.0618  0.1629
 3794W        W 5944   7.120   6.137  42.105  0.0174  0.1430  0.1191
 3795W        W 5945   9.935   0.775  36.074  0.1438  0.2767 -0.0250
 3796W        W 5946  17.747   3.956  16.663 -0.1153  0.1141  0.0810
 3797W        W 5947  20.546   2.287  19.615  0.3003  0.2193  0.1154
 3798W        W 5948   4.957   3.098  33.565 -0.2900  0.1388  0.0508
 3799W        W 5949  19.619   1.415  38.384 -0.0729 -0.0640 -0.2386
 3800W        W 5950   4.392   2.382  38.413  0.0826 -0.2712  0.1587
 3801W        W 5951  10.612   2.487  41.236  0.2672 -0.4091  0.2357
 3802W        W 5952  17.536   5.733  21.530  0.0979  0.0723 -0.0924
 3803W        W 5953  12.197   0.909  16.654 -0.1736  0.1412 -0.2122
 3804W        W 5954   4.546   6.359  36.648 -0.3961  0.2715 -0.0012
 3805W        W 5955   9.671   0.921  33.447 -0.1103  0.0446  0.4385
 3806W        W 5956  17.939   4.598  29.959 -0.1308  0.2863  0.0167
 3807W        W 5957   4.557   6.378   1.249  0.0289  0.1135 -0.1044
 3808W        W 5958   2.576   5.209  15.010 -0.4076 -0.2069 -0.1854
 3809W        W 5959   8.069   0.837  33.432  0.0237 -0.0434  0.2860
 3810W        W 5960  16.956   3.453   2.477  0.0131 -0.0132  0.3170
 3811W        W 5961  20.242   5.533   7.496 -0.0074 -0.3887 -0.0220
 3812W        W 5962  17.330   2.736  18.289 -0.1824 -0.1937  0.0694
 3813W        W 5963   7.543   0.968   6.833  0.2490  0.0941  0.0683
 3814W        W 5964   3.943   4.332  12.509 -0.1502 -0.2400  0.1211
 3815W        W 5965  16.036   6.584   6.074 -0.2043 -0.1491  0.1201
 3816W        W 5966   2.351   5.313  13.586  0.0255  0.2266  0.0082
 3817W        W 5967   4.359   2.438   6.947  0.3924 -0.0707  0.1852
 3818W        W 5968   6.225   6.118  42.605 -0.1229  0.2272 -0.3563
 3819W        W 5969   0.076   2.805   9.116 -0.1118 -0.1568  0.1915
 3820W        W 5970   4.507   4.900  12.253  0.1169 -0.3472 -0.0762
 3821W        W 5971  16.368   0.064   9.138  0.0931  0.0139  0.0047
 3822W        W 5972  14.695   5.200  39.794  0.0908  0.1628  0.0204
 3823W        W 5973   3.272   6.020   0.844  0.1691 -0.2166 -0.3177
 3824W        W 5974  18.535   3.163  31.080 -0.1707 -0.3904 -0.0188
 3825W        W 5975   2.403   1.487  43.382 -0.3980 -0.0317  0.1101
 3826W        W 5976   7.763   2.894   3.572 -0.0926  0.0366 -0.0979
 3827W        W 5977   7.525   3.673  35.215  0.1420  0.3081  0.0128
 3828W        W 5978  14.154   1.278  14.279  0.1586 -0.2312  0.1363
 3829W        W 5979   1.832   3.293  16.535 -0.0392  0.0464 -0.0511
 3830W        W 5980   6.790   0.996  29.852 -0.3757 -0.0312 -0.3526
 3831W        W 5981  13.039   3.320  34.943 -0.0892 -0.0965 -0.0250
 3832W        W 5982   3.677   4.180   6.251  0.1668  0.0696  0.1951
 3833W        W 5983   1.586   4.990  26.671  0.2359  0.2937 -0.0793
 3834W        W 5984   0.973   3.507   6.002  0.0131 -0.2320 -0.1594
 3835W        W 5985  16.947   2.437   1.871 -0.1805 -0.1172 -0.1175
 3836W        W 5986   8.281   5.652  30.810  0.1382  0.0169  0.1196
 3837W        W 5987   8.017   4.238  30.340  0.0896  0.0012  0.1819
 3838W        W 5988   6.949   3.072  14.879 -0.0880 -0.0912 -0.0668
 3839W        W 5989   0.048   4.427  37.434  0.1675 -0.2143  0.2514
 3840W        W 5990   8.420   3.254  43.990 -0.1190 -0.0065 -0.1058
 3841W        W 5991  20.712   3.912  16.141  0.0628 -0.0134 -0.0254
 3842W        W 5992  20.547   1.405  34.134  0.0023 -0.0332  0.1126
 3843W        W 5993  10.560   4.177  28.325 -0.0391  0.0806 -0.0951
 3844W        W 5994  12.019   2.141  10.327 -0.0988 -0.4113  0.0340
 3845W        W 5995   3.036   4.775  25.780 -0.0825 -0.0440 -0.1024
 3846W        W 5996   9.020   5.511  16.616  0.1185  0.1556  0.0048
 3847W        W 5997  19.025   0.869   9.675  0.0841  0.1199 -0.1421
 3848W        W 5998   7.042   2.704  37.700  0.3794  0.0364 -0.1103
 3849W        W 5999   1.814   3.651   8.722 -0.0726 -0.0574  0.0790
 3850W        W 6000  15.157   4.938  19.288 -0.1626  0.0846 -0.1480
 3851W        W 6001   4.261   5.184  11.903  0.0537  0.0558  0.1455
 3852W        W 6002  16.517   0.788  33.078 -0.0184  0.2118  0.2731
 3853W        W 6003  10.116   0.149  36.191  0.1155 -0.0387 -0.2547
 3854W        W 6004  19.077   1.709  36.562 -0.0772 -0.1115  0.2240
 3855W        W 6005   9.411   1.850  37.648 -0.0073  0.0527 -0.0062
 3856W        W 6006   2.897   2.249  23.589 -0.1201  0.2743  0.1859
 3857W        W 6007  13.652   5.476  21.004  0.0722 -0.1546  0.0208
 3858W        W 6008  21.035   0.401  39.709 -0.2684 -0.1192  0.1611
 3859W        W 6009   2.234   3.472  12.795 -0.0502  0.2527  0.0831
 3860W        W 6010  14.111   0.640   7.600  0.2409  0.1797  0.1061
 3861W        W 6011   6.771   6.282  35.785 -0.0118 -0.3565 -0.2444
 3862W        W 6012  12.445   4.670  11.145  0.2598  0.2086  0.2698
 3863W        W 6013  18.206   5.809  35.138 -0.1016 -0.0268 -0.0891
 3864W        W 6014   2.423   5.411  10.598  0.3946  0.0469  0.2925
 3865W        W 6015   1.205   0.588  34.118  0.0081 -0.4904  0.2016
 3866W        W 6016   0.379   3.856  38.020  0.2289  0.2020  0.0815
 3867W        W 6017   1.166   0.272  32.525  0.0088  0.1822  0.0802
 3868W        W 6018  19.475   5.266   5.249 -0.2510 -0.0329 -0.0745
 3869W        W 6019   0.738   4.127  13.138  0.0200 -0.0260  0.0856
 3870W        W 6020   4.594   4.471  29.982  0.0682  0.1755  0.2247
 3871W        W 6021  10.988   6.304  16.549 -0.0787  0.0758  0.0351
 3872W        W 6022  17.591   3.944  21.983  0.2777  0.0875  0.2950
 3873W        W 6023  15.956   5.362  16.774 -0.1528 -0.0709  0.0851
 3874W        W 6024   2.926   2.363  41.981  0.0781 -0.1187 -0.1954
 3875W        W 6025  18.823   0.570  14.079 -0.1608 -0.0824  0.3142
 3876W        W 6026   6.561   6.165  37.387 -0.0523 -0.0748  0.3550
 3877W        W 6027  16.342   0.900  13.823  0.0950  0.3482  0.0120
 3878W        W 6028   1.063   4.279   0.703  0.2086  0.0737 -0.1720
 3879W        W 6029  12.227   1.810   9.621  0.1250 -0.1071 -0.1702
 3880W        W 6030   1.567   3.499   7.289  0.0588  0.0132  0.0041
 3881W        W 6031   4.373   4.820   3.999  0.0193 -0.1329  0.1296
 3882W        W 6032   4.231   2.142  21.649 -0.0536  0.0613 -0.1495
 3883W        W 6033   2.512   6.424  25.910  0.0088  0.0971 -0.2672
 3884W        W 6034  10.551   5.211  28.723 -0.0078 -0.2700  0.2404
 3885W        W 6035   5.719   1.218  34.289 -0.0440  0.1516 -0.0813
 3886W        W 6036  20.686   3.605  35.226 -0.0895  0.2691 -0.0736
 3887W        W 6037  11.785   2.366  15.833 -0.0715 -0.0169 -0.2588
 3888W        W 6038  11.054   5.275  41.932 -0.2560  0.1593  0.1495
 3889W        W 6039  18.871   2.466  19.516  0.2472  0.0968  0.1300
 3890W        W 6040   7.627   6.589   0.773 -0.0479  0.2797  0.2790
 3891W        W 6041   7.289   3.567  12.141 -0.1899 -0.2859  0.0510
 3892W        W 6042   8.582   1.345  43.300 -0.1456  0.0484  0.1569
 3893W        W 6043   3.480   3.717  14.358 -0.2497 -0.1136  0.0337
 3894W        W 6044   7.740   5.815   3.609  0.1146  0.1121 -0.3962
 3895W        W 6045  15.185   4.021   7.904  0.1844  0.1561 -0.0445
 3896W        W 6046  17.087   4.426  35.286 -0.2387  0.2137  0.2337
 3897W        W 6047  15.451   1.971  10.911 -0.1119 -0.2852  0.2755
 3898W        W 6048   8.018   6.597  23.048  0.2036 -0.1103  0.1055
 3899W        W 6049  15.214   4.253  43.470  0.1632  0.1409 -0.1159
 3900W        W 6050   8.120   3.660  39.468 -0.0616  0.1328  0.1026
 3901W        W 6051   6.636   0.660  21.800  0.1433  0.1644  0.0643
 3902W        W 6052  20.309   0.668  44.451 -0.1548 -0.0264  0.1024
 3903W        W 6053  14.563   6.359   1.303 -0.1110  0.1633  0.0510
 3904W        W 6054  12.176   3.226  14.107  0.1737  0.2314  0.0831
 3905W        W 6055   4.632   3.726   7.477  0.1076 -0.0325 -0.4885
 3906W        W 6056  19.143   6.294  15.115 -0.3183 -0.1748 -0.2127
 3907W        W 6057  19.917   2.799   0.470  0.1270 -0.2301  0.1514
 3908W        W 6058   5.637   5.311  38.192  0.0372  0.2106 -0.0899
 3909W        W 6059  20.202   6.584  13.983 -0.0392  0.2328 -0.0286
 3910W        W 6060  12.213   3.985  16.309  0.1798  0.0415  0.0585
 3911W        W 6061   8.460   5.162  10.315  0.0462 -0.1247 -0.1604
 3912W        W 6062  19.096   0.400   6.665 -0.0495 -0.1495  0.0348
 3913W        W 6063   5.181   0.222  27.845  0.1032 -0.1858  0.2151
 3914W        W 6064  19.316   0.284  44.275 -0.0450  0.2467 -0.0529
 3915W        W 6065  18.750   0.339  39.246  0.0291 -0.0482 -0.2644
 3916W        W 6066  10.006   5.691   4.627  0.0705 -0.0749 -0.1371
 3917W        W 6067  18.445   4.264  13.532 -0.1832 -0.0839  0.0811
 3918W        W 6068   6.748   4.066  29.222  0.0113 -0.0046 -0.1365
 3919W        W 6069  14.251   0.785  33.209 -0.2373  0.0588  0.0072
 3920W        W 6070  17.933   0.603   5.565  0.2218  0.0806 -0.0782
 3921W        W 6071   8.352   6.493  10.118  0.0109 -0.0548  0.1164
 3922W        W 6072  13.046   4.491   8.290 -0.2397 -0.2433  0.3200
 3923W        W 6073   8.119   2.403  12.045 -0.2626 -0.0102 -0.0131
 3924W        W 6074  11.428   3.681  38.686 -0.0361  0.0558  0.2550
 3925W        W 6075  15.369   0.001  42.607 -0.3122 -0.1005 -0.0415
 3926W        W 6076  19.165   4.744  43.745 -0.1656 -0.0410  0.4211
 3927W        W 6077   8.217   0.969  31.590  0.0177  0.5690 -0.1898
 3928W        W 6078  13.680   1.046  41.120  0.2438  0.0788 -0.2589
 3929W        W 6079   8.205   0.722  24.717  0.1048 -0.1981 -0.1117
 3930W        W 6080   0.496   5.678  17.246 -0.3596 -0.0403 -0.1031
 3931W        W 6081  16.437   2.075  34.721 -0.3094  0.0601 -0.0872
 3932W        W 6082  11.023   4.301  15.749 -0.2592  0.0891 -0.0784
 3933W        W 6083  19.325   0.370   0.407  0.2403 -0.2293 -0.0620
 3934W        W 6084   1.153   1.038  26.546 -0.1316 -0.1989  0.0033
 3935W        W 6085   5.029   4.203  35.803  0.0854  0.1512  0.0297
 3936W        W 6086  18.496   4.319   6.888 -0.0935  0.1593 -0.1646
 3937W        W 6087  16.406   0.541  41.655 -0.1584 -0.2073  0.4590
 3938W        W 6088  17.857   0.316  30.189  0.2199 -0.0776  0.1376
 3939W        W 6089   3.368   6.386  13.099  0.1623  0.0896  0.1498
 3940W        W 6090   2.450   6.341  37.230 -0.2087 -0.0365 -0.2751
 3941W        W 6091  16.017   4.936  29.889  0.3399  0.0689 -0.0148
 3942W        W 6092  15.876   5.447  38.222  0.0689 -0.1500  0.1145
 3943W        W 6093   2.175   2.981  10.319 -0.0594 -0.0777  0.3308
 3944W        W 6094   4.913   1.723  37.362  0.0404  0.1922  0.0742
 3945W        W 6095  19.409   0.616   9.622 -0.1875  0.1979 -0.1892
 3946W        W 6096  17.153   1.397   8.432  0.0241  0.2209 -0.1186
 3947W        W 6097   4.865   6.354  31.199 -0.0391 -0.1145  0.1083
 3948W        W 6098  18.259   2.757   8.200 -0.0395  0.1486  0.0985
 3949W        W 6099  13.192   0.402  29.743 -0.1296  0.0312  0.0316
 3950W        W 6100   9.395   3.091  33.469 -0.1423 -0.2861 -0.2681
 3951W        W 6101   7.284   2.875  32.862 -0.0012 -0.0382 -0.0989
 3952W        W 6102  18.058   4.833   8.097  0.0272 -0.1637  0.0808
 3953W        W 6103  19.565   4.908  14.599 -0.0595  0.0043  0.1169
 3954W        W 6104   0.917   4.214   9.996  0.1733 -0.1775  0.0350
 3955W        W 6105  16.066   3.018  13.285 -0.0826 -0.0967  0.1094
 3956W        W 6106   9.359   3.613   7.475 -0.0062 -0.0737  0.0817
 3957W        W 6107   0.729   0.497  27.228  0.1722 -0.2237  0.0009
 3958W        W 6108  15.768   1.427   6.378  0.1928 -0.1368  0.0220
 3959W        W 6109   4.299   0.983  32.937  0.0661 -0.1808 -0.1482
 3960W        W 6110  10.165   1.459  14.709 -0.1304 -0.1688 -0.2563
 3961W        W 6111  12.439   0.631  43.548  0.2397 -0.1522 -0.0362
 3962W        W 6112  11.922   5.255  29.598  0.1168 -0.1058 -0.0244
 3963W        W 6113   0.412   4.132   9.902  0.1127 -0.1015  0.0687
 3964W        W 6114   8.247   5.303   4.020 -0.0332  0.1400  0.0943
 3965W        W 6115   1.230   5.494   5.227 -0.1023 -0.1884 -0.1857
 3966W        W 6116   2.592   2.851   6.355  0.1960 -0.0538 -0.1631
 3967W        W 6117   5.390   3.232  28.912 -0.0175 -0.1416 -0.2540
 3968W        W 6118   8.882   6.266  39.294 -0.1057 -0.0073 -0.2285
 3969W        W 6119   1.213   6.012  17.499 -0.1242 -0.2552 -0.0572
 3970W        W 6120  20.847   1.765  32.838 -0.1809  0.2482 -0.2426
 3971W        W 6121   8.637   1.183  13.734 -0.1665 -0.3343  0.2126
 3972W        W 6122  11.474   2.299  43.611 -0.0864 -0.1929  0.3095
 3973W        W 6123   1.688   4.809  39.615 -0.1563 -0.1286  0.1319
 3974W        W 6124  15.304   3.638   1.386 -0.3655 -0.0472 -0.1637
 3975W        W 6125  19.526   5.841  12.535  0.2628 -0.1264 -0.1988
 3976W        W 6126  12.593   0.933  34.643 -0.0460  0.0125 -0.1750
 3977W        W 6127  15.594   6.307   5.677  0.2780 -0.1855 -0.1537
 3978W        W 6128   0.730   3.574  28.548 -0.2230  0.1125 -0.0785
 3979W        W 6129   9.014   3.838  12.246  0.0006  0.1483  0.2997
 3980W        W 6130   1.311   1.347  33.316 -0.0044 -0.1141 -0.2358
 3981W        W 6131  13.678   3.824  33.886  0.0156  0.2319  0.0366
 3982W        W 6132   5.057   6.267  42.331  0.2736 -0.0731  0.1566
 3983W        W 6133   7.628   5.304  36.684  0.3236 -0.1249 -0.1922
 3984W        W 6134   2.006   3.806  44.806 -0.1291 -0.1009  0.1406
 3985W        W 6135  10.018   0.986  10.686  0.3367  0.3005 -0.0905
 3986W        W 6136   1.814   1.458  33.018 -0.0214  0.0230 -0.0336
 3987W        W 6137   2.389   4.205   2.179 -0.1031 -0.2359  0.0464
 3988W        W 6138  10.937   4.009   2.399  0.2232 -0.4302 -0.0864
 3989W        W 6139  11.560   0.992  41.995 -0.0447 -0.2201  0.0221
 3990W        W 6140   9.243   3.828  26.800  0.0350 -0.2825  0.2254
 3991W        W 6141  21.000   5.692   6.852  0.1230 -0.0191 -0.1521
 3992W        W 6142  17.193   4.487  43.819 -0.0229 -0.2089  0.1755
 3993W        W 6143   0.810   6.206   1.535  0.3101  0.1940  0.0842
 3994W        W 6144   2.390   1.450  41.943  0.0862 -0.3380  0.2274
 3995W        W 6145   6.062   0.797  39.940 -0.0578  0.2028 -0.2212
 3996W        W 6146  20.720   2.677  31.347 -0.1638  0.2688 -0.1216
 3997W        W 6147  19.799   3.789   1.556  0.0017  0.0998  0.0453
 3998W        W 6148  20.703   3.620   4.174  0.2038  0.1233 -0.0536
 3999W        W 6149   9.729   1.227  36.896 -0.1839  0.0702  0.2143
 4000W        W 6150  16.030   3.343  34.129 -0.3138 -0.0206 -0.0130
 4001W        W 6151  17.506   1.178  11.539  0.2440 -0.0175  0.0661
 4002W        W 6152   0.955   6.052  41.760 -0.2237 -0.0567 -0.3488
 4003W        W 6153  16.829   2.262   9.124  0.0107  0.0512  0.2137
 4004W        W 6154  20.525   0.744  37.878  0.2311 -0.0420  0.1623
 4005W        W 6155  16.718   4.779   1.040  0.2811  0.0043 -0.0857
 4006W        W 6156   8.711   2.915  41.147  0.2044  0.0879  0.1492
 4007W        W 6157   2.625   1.290   7.719 -0.0726  0.0977 -0.2302
 4008W        W 6158  17.102   1.751  43.250 -0.3736 -0.0834 -0.0838
 4009W        W 6159   5.111   3.456  39.697  0.0344  0.0486  0.2419
 4010W        W 6160  12.800   1.365  28.027  0.0631  0.1453 -0.0715
 4011W        W 6161  17.165   2.936  44.682 -0.1603  0.0790 -0.0825
 4012W        W 6162  14.961   5.715  13.171 -0.2723 -0.0067  0.2741
 4013W        W 6163  20.079   5.804  19.293  0.0728  0.0959 -0.0672
 4014W        W 6164  20.861   1.019  30.223 -0.4714  0.2411 -0.3341
 4015W        W 6165   6.817   2.494  41.620  0.0837 -0.0701  0.1881
 4016W        W 6166   3.156   2.538  15.313 -0.2136  0.0011  0.1378
 4017W        W 6167   4.411   4.098  11.883 -0.0083 -0.2366 -0.2238
 4018W        W 6168   4.627   0.440   7.898  0.1175  0.1123  0.1407
 4019W        W 6169  15.465   2.547   5.458  0.0923  0.1050 -0.0583
 4020W        W 6170   1.500   3.005  12.591  0.0948  0.0573  0.0159
 4021W        W 6171   7.257   0.431   2.866  0.0369 -0.1429  0.1123
 4022W        W 6172   2.481   2.657  16.351  0.0774 -0.1015  0.1408
 4023W        W 6173   7.212   0.382   8.049  0.4818  0.0367  0.1358
 4024W        W 6174  15.354   0.308  43.584 -0.0705  0.1859  0.0847
 4025W        W 6175   0.226   4.625   6.699  0.0726 -0.2734  0.0832
 4026W        W 6176  10.499   2.348  28.860 -0.3805  0.1217 -0.1893
 4027W        W 6177  20.693   6.020   5.580 -0.2056 -0.0948 -0.1880
 4028W        W 6178   7.386   5.419  24.332 -0.2400 -0.3949 -0.2339
 4029W        W 6179   3.558   0.735  30.984  0.2902  0.1890 -0.0469
 4030W        W 6180   0.706   0.588  30.951  0.0969 -0.2655  0.1746
 4031W        W 6181   8.939   2.636  43.680  0.0888  0.0118 -0.0185
 4032W        W 6182   7.545   4.242   9.303 -0.1472 -0.0626 -0.4892
 4033W        W 6183   3.899   3.767  30.312 -0.1562  0.2320  0.2203
 4034W        W 6184   0.578   4.569   3.461  0.0064 -0.3520 -0.0864
 4035W        W 6185  11.837   4.750  30.556  0.2938  0.1957  0.3998
 4036W        W 6186  18.182   3.123   2.341 -0.0172  0.4225 -0.3364
 4037W        W 6187  20.562   2.832  28.916  0.0312 -0.2897 -0.1997
 4038W        W 6188  12.703   6.606   6.405 -0.0540 -0.1457  0.1358
 4039W        W 6189  11.530   1.501  44.219 -0.0819 -0.1586  0.1226
 4040W        W 6190  13.898   5.906   3.193 -0.0773 -0.0301 -0.2192
 4041W        W 6191   4.297   1.929  10.596 -0.0844  0.1452 -0.1568
 4042W        W 6192   8.699   4.264  38.903 -0.1382  0.1326 -0.2165
 4043W        W 6193  12.381   5.293   1.413  0.2908  0.0998  0.1773
 4044W        W 6194   3.744   6.068  11.746  0.1059 -0.0702  0.0793
 4045W        W 6195  20.093   1.472  29.721 -0.0133  0.0551  0.2151
 4046W        W 6196   7.521   1.832  32.122 -0.1787  0.2902 -0.0611
 4047W        W 6197  15.506   4.043  35.987  0.0871 -0.0607  0.1664
 4048W        W 6198   5.181   4.978  35.650 -0.3629 -0.0309 -0.3560
 4049W        W 6199   2.267   3.159  14.343  0.1566  0.0472 -0.2784
 4050W        W 6200  19.006   3.791  14.950 -0.3034  0.0126 -0.0911
 4051W        W 6201  11.619   2.060  28.742  0.0696 -0.0930  0.0671
 4052W        W 6202  11.065   0.372  35.414 -0.1318  0.1294  0.0935
 4053W        W 6203   8.798   5.418   5.572  0.3536 -0.2017 -0.1641
 4054W        W 6204  13.062   0.030   2.222  0.0979  0.0808  0.1164
 4055W        W 6205  12.429   2.377   8.834  0.1486 -0.0764  0.2044
 4056W        W 6206   9.816   6.200  13.916  0.1122  0.0581  0.1987
 4057W        W 6207  17.009   6.041   2.737 -0.1631 -0.0484 -0.1154
 4058W        W 6208   4.167   2.730  24.284  0.1506  0.0654 -0.0210
 4059W        W 6209   3.512   2.688  42.559 -0.0253 -0.1220 -0.0297
 4060W        W 6210  12.937   5.549  31.099 -0.1722 -0.1168  0.3751
 4061W        W 6211   8.759   5.349  36.055 -0.3729 -0.0291  0.1381
 4062W        W 6212  14.146   2.358  42.158 -0.1707 -0.2714 -0.2029
 4063W        W 6213   5.213   4.848  30.455  0.2480 -0.2838 -0.0154
 4064W        W 6214  18.587   3.079  15.924  0.0721 -0.1443 -0.0792
 4065W        W 6215   9.561   3.399  31.864 -0.0470 -0.0094  0.0917
 4066W        W 6216   1.897   5.205  37.674 -0.0941 -0.1676 -0.1297
 4067W        W 6217   8.322   0.502  31.275  0.0341 -0.3334 -0.1151
 4068W        W 6218   8.932   1.700  35.043  0.1739 -0.0807 -0.0972
 4069W        W 6219  15.369   5.458  40.823 -0.0814 -0.0266 -0.1908
 4070W        W 6220  14.116   0.402   1.568 -0.1354  0.0382 -0.0140
 4071W        W 6221   4.041   0.899  37.415 -0.0933  0.0290  0.1777
 4072W        W 6222   6.042   2.628  15.261  0.2499  0.2540 -0.0548
 4073W        W 6223  19.777   3.048  38.753 -0.1381  0.2359  0.1097
 4074W        W 6224   2.845   2.317   0.758  0.0500  0.1212 -0.1573
 4075W        W 6225   5.961   5.166  22.169 -0.1165 -0.1414  0.1412
 4076W        W 6226  12.984   5.298   9.413 -0.1936  0.2236  0.0011
 4077W        W 6227   7.082   5.414   1.813  0.2890  0.0948 -0.0293
 4078W        W 6228   1.266   3.056  42.614  0.1328  0.1338 -0.0027
 4079W        W 6229  18.733   1.991  36.744  0.0065 -0.1856 -0.1357
 4080W        W 6230   7.393   4.258  39.589 -0.0624  0.0810  0.1084
 4081W        W 6231  11.844   2.975  30.891  0.1624 -0.2223  0.1354
 4082W        W 6232  11.745   6.231  42.924  0.2327  0.2645 -0.1945
 4083W        W 6233  18.386   4.102  29.869  0.3614 -0.1438 -0.1285
 4084W        W 6234  15.604   6.597  41.291 -0.1710 -0.2255 -0.0035
 4085W        W 6235   0.427   4.056  31.546  0.1696  0.1250 -0.0665
 4086W        W 6236  15.294   4.855  39.055 -0.0711 -0.0984 -0.2124
 4087W        W 6237  12.185   6.053  38.021 -0.2370  0.1230  0.1371
 4088W        W 6238   4.388   3.425  41.208 -0.1946 -0.3304 -0.0788
 4089W        W 6239   6.454   1.544  12.331  0.2937  0.0791 -0.4630
 4090W        W 6240  10.603   1.093  15.480 -0.0781 -0.3685 -0.5207
 4091W        W 6241   2.471   5.133   4.312 -0.0110  0.1319  0.1862
 4092W        W 6242   8.651   0.557  23.247 -0.1146 -0.0279 -0.0285
 4093W        W 6243  14.662   0.839  21.066  0.0379  0.3651 -0.1852
 4094W        W 6244   9.954   2.790  15.371  0.2045 -0.3112 -0.0710
 4095W        W 6245   8.713   2.699  39.538 -0.0917  0.3667  0.1068
 4096W        W 6246  16.099   6.077  17.733  0.1260 -0.1100 -0.2053
 4097W        W 6247   0.316   1.025  36.563 -0.0929 -0.0739  0.0117
 4098W        W 6248  14.881   4.958  35.716  0.1559  0.0371 -0.2512
 4099W        W 6249   3.083   4.531   5.817  0.1738  0.0211  0.1577
 4100W        W 6250   4.518   2.677  36.666  0.0066 -0.0583 -0.0583
 4101W        W 6251   6.014   1.075  41.811  0.1056  0.2522  0.2997
 4102W        W 6252  15.008   1.190  43.702  0.1196 -0.0644  0.2170
 4103W        W 6253   7.967   4.774  24.118 -0.3331 -0.1820 -0.1954
 4104W        W 6254   7.911   0.459  24.424 -0.3263  0.0905 -0.0298
 4105W        W 6255  11.384   4.270  27.877 -0.2763  0.1270  0.4028
 4106W        W 6256  12.177   6.275  16.236  0.1852 -0.0673  0.2963
 4107W        W 6257  20.335   5.370  30.930 -0.1618  0.0593 -0.0019
 4108W        W 6258  14.120   0.281  36.164 -0.4617 -0.0031 -0.0515
 4109W        W 6259  17.214   0.381  17.170  0.0204  0.0117 -0.2097
 4110W        W 6260   4.140   4.725  25.109  0.0895  0.1986 -0.0665
 4111W        W 6261  13.119   5.917   5.082 -0.1602 -0.1246 -0.2420
 4112W        W 6262  20.889   1.166  28.276 -0.1089 -0.2392 -0.0173
 4113W        W 6263   2.018   5.236   5.920 -0.1278 -0.0638  0.0824
 4114W        W 6264   0.423   3.728   5.327  0.0023 -0.0284  0.3922
 4115W        W 6265  18.581   6.249  21.619 -0.0982 -0.1761  0.0275
 4116W        W 6266  13.052   4.709  11.927  0.0521 -0.1195  0.2799
 4117W        W 6267  11.433   0.850  11.816 -0.2426 -0.2173 -0.0910
 4118W        W 6268   6.302   2.207  15.103  0.2083 -0.1490 -0.2245
 4119W        W 6269  11.047   4.352   9.017  0.1870 -0.1942  0.1752
 4120W        W 6270  11.243   6.110   1.006 -0.0624 -0.1621  0.0353
 4121W        W 6271  13.839   1.337  44.541  0.1188  0.0885  0.0073
 4122W        W 6272   5.905   5.503  34.776  0.3288 -0.0650  0.0095
 4123W        W 6273   2.655   0.273  41.653 -0.1457  0.0313  0.0504
 4124W        W 6274   7.658   6.529   5.361  0.2512 -0.1651  0.1376
 4125W        W 6275   1.320   4.523  34.994 -0.0144 -0.0458 -0.0043
 4126W        W 6276   0.730   0.853  16.274  0.0544  0.0827  0.0004
 4127W        W 6277  18.420   6.320  18.271  0.1209  0.2116  0.2337
 4128W        W 6278  18.425   3.499   2.648 -0.0184  0.0809 -0.0133
 4129W        W 6279   5.515   5.857  12.421  0.1912 -0.0937  0.2148
 4130W        W 6280   6.803   3.047  32.879  0.2655 -0.3116  0.2073
 4131W        W 6281   7.422   5.553  15.449 -0.2657 -0.2077 -0.1820
 4132W        W 6282  17.801   0.141  21.681  0.2050  0.0220 -0.0946
 4133W        W 6283  14.155   1.960  31.578  0.1156  0.1267  0.0462
 4134W        W 6284   7.244   3.692  12.840 -0.0853  0.0882  0.2209
 4135W        W 6285  15.742   6.324   8.563 -0.1604  0.2292 -0.3987
 4136W        W 6286  15.581   4.291  18.658  0.0261  0.2819 -0.1090
 4137W        W 6287   2.972   2.294  41.187  0.0335 -0.0973 -0.3237
 4138W        W 6288   2.648   3.198  26.260 -0.1945  0.0421 -0.1058
 4139W        W 6289  14.947   5.731  12.654  0.0070 -0.0651 -0.0459
 4140W        W 6290   4.515   0.521  12.094 -0.0185  0.1840  0.0984
 4141W        W 6291   8.430   1.009  34.410  0.3142 -0.0676 -0.2778
 4142W        W 6292   9.207   1.124  10.696 -0.2702  0.1188 -0.0017
 4143W        W 6293  10.677   4.086  13.021 -0.1913 -0.0277 -0.2337
 4144W        W 6294  19.073   1.547   2.789  0.0906 -0.1467 -0.0391
 4145W        W 6295  16.432   4.793  37.767 -0.1095  0.0503  0.0205
 4146W        W 6296   4.529   2.898  24.633 -0.1775 -0.1111  0.0214
 4147W        W 6297   9.327   3.221  41.667  0.0941 -0.0136 -0.0920
 4148W        W 6298   0.688   5.720  10.117 -0.0162  0.0785 -0.0419
 4149W        W 6299  13.608   4.795  38.898  0.4642  0.1545 -0.2387
 4150W        W 6300  13.557   0.041  33.362  0.0271 -0.2852 -0.0962
 4151W        W 6301  10.443   6.125  13.233 -0.2260 -0.0410 -0.2094
 4152W        W 6302  19.759   6.373  18.100 -0.0449 -0.1835  0.0685
 4153W        W 6303   3.968   5.089   2.108  0.2905 -0.3198 -0.1896
 4154W        W 6304   4.652   4.627  33.006 -0.0048 -0.2117  0.2377
 4155W        W 6305   3.388   5.818  34.473 -0.1291  0.0452 -0.2220
 4156W        W 6306  12.513   2.926  13.221 -0.0814  0.5615  0.2381
 4157W        W 6307  18.072   0.555   2.573 -0.1516 -0.0288 -0.0536
 4158W        W 6308   2.107   4.033  12.594 -0.2098 -0.3996  0.0091
 4159W        W 6309  14.470   3.792  31.452 -0.2986  0.1226 -0.2142
 4160W        W 6310  15.158   3.004  24.213 -0.1676 -0.0160  0.0884
 4161W        W 6311  11.996   5.833   5.830  0.1236 -0.1026 -0.0967
 4162W        W 6312   4.086   5.408  12.303  0.1592  0.0900  0.0746
 4163W        W 6313  20.720   1.159  38.266  0.0984  0.1015 -0.2453
 4164W        W 6314  17.027   0.385   8.746 -0.1085 -0.2094 -0.0184
 4165W        W 6315  20.556   2.299  32.502 -0.0232  0.0138 -0.1659
 4166W        W 6316   0.647   4.586  39.392 -0.0381  0.0924 -0.1650
 4167W        W 6317  16.623   4.116  36.890 -0.0446  0.1651  0.0387
 4168W        W 6318   6.876   4.500  43.713 -0.1980  0.1131  0.2998
 4169W        W 6319   1.577   3.700  29.017  0.4002 -0.1998 -0.1728
 4170W        W 6320  12.608   5.634  17.670 -0.0186  0.2256 -0.0553
 4171W        W 6321  19.056   1.197   3.581 -0.1406  0.0781  0.1668
 4172W        W 6322   2.397   1.512  24.751 -0.1259 -0.3964  0.1800
 4173W        W 6323   1.285   1.338  43.344  0.0691 -0.0125  0.0835
 4174W        W 6324   4.780   1.852  28.138  0.3552 -0.2152  0.1530
 4175W        W 6325   1.606   4.605  25.954 -0.1913  0.0934  0.1355
 4176W        W 6326  16.946   3.228  21.191 -0.1444  0.1363 -0.0596
 4177W        W 6327   4.290   3.009  13.433 -0.0664  0.1243 -0.1231
 4178W        W 6328   6.056   2.513   2.496 -0.2732  0.0342 -0.1424
 4179W        W 6329  12.008   1.153   5.848  0.3132 -0.0455 -0.1277
 4180W        W 6330  17.889   4.060  38.457  0.1617  0.1890 -0.1394
 4181W        W 6331   3.676   4.907  33.648  0.0137  0.1071 -0.2142
 4182W        W 6332  19.172   0.465   5.658  0.2103  0.0615 -0.0198
 4183W        W 6333  18.280   2.670  43.892 -0.0320  0.1028 -0.1774
 4184W        W 6334  19.250   4.609  42.901  0.1085  0.1536  0.0348
 4185W        W 6335   1.359   0.253  29.082 -0.1206  0.1562 -0.0367
 4186W        W 6336   4.251   4.334  37.887  0.2711 -0.0454  0.0621
 4187W        W 6337   9.804   1.482  40.509  0.2714 -0.0338 -0.0613
 4188W        W 6338   0.268   0.424   2.659  0.2231 -0.0752  0.1640
 4189W        W 6339  13.453   1.877  12.037  0.0358  0.0753 -0.0032
 4190W        W 6340   4.131   2.273  42.112 -0.2444 -0.0417 -0.1537
 4191W        W 6341  15.282   4.669  44.243  0.3776  0.0907 -0.3082
 4192W        W 6342   4.966   3.800  21.694 -0.0757  0.0357  0.0607
 4193W        W 6343   5.686   0.409   7.323 -0.4125  0.0343 -0.0371
 4194W        W 6344   0.797   0.253   5.797 -0.1601  0.0365 -0.1598
 4195W        W 6345  19.714   5.183  30.436 -0.1383  0.0712 -0.0950
 4196W        W 6346   8.852   4.159  16.540  0.0254  0.2764 -0.3340
 4197W        W 6347  15.827   1.798   5.952  0.3524 -0.2369  0.0943
 4198W        W 6348  20.684   2.620  40.583  0.1535 -0.1442  0.0863
 4199W        W 6349   5.772   4.800  44.483  0.0926  0.2587 -0.0059
 4200W        W 6350  17.561   1.962  33.547 -0.2457 -0.2516 -0.0262
 4201W        W 6351   7.664   4.759  24.602 -0.0527 -0.0922  0.0989
 4202W        W 6352  21.131   6.161  33.667 -0.0495  0.0684 -0.4216
 4203W        W 6353  11.609   0.493  40.412 -0.2387 -0.0986 -0.0494
 4204W        W 6354   4.728   1.435  16.039  0.2485  0.0051  0.0791
 4205W        W 6355  14.550   0.682   7.252  0.2335  0.2628 -0.1375
 4206W        W 6356  20.024   6.184  11.770 -0.2089 -0.2612  0.0504
 4207W        W 6357   2.467   5.237  24.184 -0.0802  0.1305  0.0016
 4208W        W 6358  17.436   5.617  15.722  0.0247  0.2794  0.0296
 4209W        W 6359   5.319   2.031   7.633  0.1718 -0.1719 -0.0857
 4210W        W 6360   2.453   3.978   2.925 -0.1309 -0.0493 -0.0037
 4211W        W 6361   9.193   5.200  33.122  0.0167  0.0463  0.1350
 4212W        W 6362  20.522   3.654  41.335  0.2027  0.2603  0.3089
 4213W        W 6363  16.538   6.447   6.065 -0.0957 -0.0763  0.3046
 4214W        W 6364  16.454   5.236  36.960  0.1931  0.4177  0.1364
 4215W        W 6365   6.605   0.476  40.550 -0.2260 -0.0486 -0.2197
 4216W        W 6366   2.615   2.065   5.703 -0.4568  0.1472 -0.0656
 4217W        W 6367  13.934   5.751  42.877 -0.0383 -0.2051  0.3045
 4218W        W 6368  10.210   5.034  14.639  0.3740 -0.2083 -0.0421
 4219W        W 6369   3.366   3.896  43.193  0.3951  0.0325 -0.0287
 4220W        W 6370   5.999   2.113  38.937  0.2453  0.1652 -0.1818
 4221W        W 6371  19.509   1.675  39.786 -0.1381  0.1087 -0.0272
 4222W        W 6372   0.558   2.646   8.877 -0.0196  0.3431  0.0588
 4223W        W 6373   7.720   5.880  29.061 -0.1274  0.0367  0.2473
 4224W        W 6374  20.357   5.800  10.916 -0.0298  0.2858  0.2024
 4225W        W 6375   6.749   0.369  22.219  0.1253  0.1040  0.1671
 4226W        W 6376   4.370   4.268   2.113 -0.0415  0.3058  0.0877
 4227W        W 6377   7.887   1.275  26.542  0.1873 -0.2945 -0.2386
 4228W        W 6378   3.101   5.759  30.057  0.0416  0.0244 -0.3056
 4229W        W 6379  17.082   4.003  30.089  0.0179 -0.0139  0.0825
 4230W        W 6380   2.384   4.599  42.490  0.0423  0.2851 -0.0357
 4231W        W 6381  11.707   4.910   8.377  0.1063 -0.3831  0.1158
 4232W        W 6382   3.770   4.952  39.585  0.0953 -0.1012  0.1765
 4233W        W 6383   8.668   5.586  24.931  0.0339  0.1720 -0.2907
 4234W        W 6384  15.343   3.652  20.790 -0.2444 -0.0469  0.1520
 4235W        W 6385   2.648   6.041  24.425  0.1080  0.0890  0.2022
 4236W        W 6386   4.122   5.516   1.767 -0.0561  0.1743 -0.0776
 4237W        W 6387  15.947   0.980  17.971 -0.3740  0.0982 -0.1503
 4238W        W 6388  19.467   0.867  44.792  0.0024 -0.1762  0.0374
 4239W        W 6389  10.898   3.772  15.765  0.0494  0.1079 -0.0882
 4240W        W 6390  10.622   2.171  12.817  0.0742 -0.0480 -0.0257
 4241W        W 6391   7.969   1.402  40.138  0.0531 -0.1051  0.3220
 4242W        W 6392   7.562   1.815  32.628 -0.2635  0.0325  0.2788
 4243W        W 6393   5.238   0.551  11.854  0.0724  0.0009  0.1166
 4244W        W 6394   2.909   2.095  10.691 -0.0718 -0.2150  0.0255
 4245W        W 6395   0.998   0.407  31.451  0.2129 -0.3522 -0.3437
 4246W        W 6396   8.015   6.465  23.561 -0.0917  0.1783 -0.1186
 4247W        W 6397   8.489   2.568   3.254 -0.0269 -0.2297 -0.2215
 4248W        W 6398   8.765   5.442  39.675  0.1556  0.1382  0.0881
 4249W        W 6399  20.126   2.614  28.839 -0.0305 -0.0119 -0.0963
 4250W        W 6400   4.284   4.817  12.683  0.0383  0.1195 -0.0668
 4251W        W 6401  10.960   0.541  43.435  0.2682  0.1379  0.0062
 4252W        W 6402   2.214   5.262  28.446 -0.0009 -0.0436 -0.3345
 4253W        W 6403  19.693   4.663  19.801  0.0076  0.0236 -0.1679
 4254W        W 6404   0.265   6.139  10.942 -0.1445 -0.1964  0.0753
 4255W        W 6405   7.619   2.644  30.027 -0.1994  0.1026  0.1321
 4256W        W 6406  10.234   3.204   0.676  0.2932 -0.0272 -0.1701
 4257W        W 6407   5.513   5.701  22.219 -0.1390 -0.0032 -0.1670
 4258W        W 6408  15.958   1.090  16.207 -0.0308 -0.1779 -0.1579
 4259W        W 6409  12.291   2.615  38.606  0.3830 -0.1024  0.2437
 4260W        W 6410   7.468   2.655   4.514 -0.1864 -0.1289 -0.1429
 4261W        W 6411   1.996   3.045  44.165 -0.1561  0.0825 -0.0327
 4262W        W 6412   7.715   1.962  43.124  0.0382 -0.1976 -0.0189
 4263W        W 6413   7.900   5.502  10.557  0.0935  0.1189  0.0265
 4264W        W 6414  20.171   4.268  42.436 -0.2321 -0.1939 -0.1195
 4265W        W 6415  16.356   5.792  44.809  0.0193  0.1833  0.1478
 4266W        W 6416   7.583   4.128   1.462  0.2561  0.1390 -0.0430
 4267W        W 6417  17.174   3.160  15.088 -0.2234  0.0585 -0.0203
 4268W        W 6418  15.963   2.006  18.889  0.1961  0.0553  0.1270
 4269W        W 6419   8.052   0.460  32.408 -0.1205 -0.1145 -0.1441
 4270W        W 6420   6.885   2.330  15.286 -0.1810  0.1900 -0.1289
 4271W        W 6421  18.120   2.700  18.553  0.2654  0.1454 -0.1637
 4272W        W 6422  14.189   2.158  12.686 -0.2759  0.1625 -0.1848
 4273W        W 6423   6.116   4.377  20.243 -0.2601  0.0450  0.1550
 4274W        W 6424  17.324   1.046  21.579 -0.0460  0.0716  0.0397
 4275W        W 6425  20.031   6.283  44.968 -0.1052 -0.0087 -0.0582
 4276W        W 6426  10.814   4.748  42.614 -0.1241 -0.2016 -0.3046
 4277W        W 6427  11.033   5.265  28.649 -0.0596  0.1077 -0.1570
 4278W        W 6428  11.677   2.213  42.114 -0.0772 -0.0276  0.3636
 4279W        W 6429  13.608   4.582   6.118  0.0498 -0.0056  0.1161
 4280W        W 6430   4.985   5.352  43.275 -0.1449 -0.0293  0.0146
 4281W        W 6431  10.587   1.913  16.907 -0.1703  0.1761 -0.0165
 4282W        W 6432  21.023   1.241  44.897 -0.0444  0.2607 -0.0935
 4283W        W 6433  12.923   2.156   5.338 -0.0371  0.0680 -0.3061
 4284W        W 6434   6.818   5.520  29.935  0.2320  0.1983 -0.1055
 4285W        W 6435  10.070   4.994  16.817  0.2878 -0.0880  0.2531
 4286W        W 6436  21.146   1.583  37.333 -0.2692  0.2640  0.1267
 4287W        W 6437  18.656   3.303   0.809 -0.0117  0.2281  0.1617
 4288W        W 6438   4.429   2.715  30.853 -0.2217  0.1987  0.0647
 4289W        W 6439  10.613   0.406   6.967 -0.0714 -0.1549  0.0328
 4290W        W 6440  13.293   0.980   0.871  0.0385 -0.0099 -0.0494
 4291W        W 6441  13.064   2.044   4.835  0.1831 -0.0810 -0.3028
 4292W        W 6442  10.767   3.205  17.251 -0.2647 -0.3543 -0.5076
 4293W        W 6443  16.534   5.969   8.298 -0.0426 -0.1626  0.2711
 4294W        W 6444   5.567   1.341  12.789  0.0331 -0.0340  0.0427
 4295W        W 6445   1.204   6.548  42.573  0.0430 -0.1989  0.0981
 4296W        W 6446  14.493   5.545   5.583 -0.0656  0.4755 -0.0059
 4297W        W 6447  17.478   3.204  38.603 -0.2691  0.0739 -0.0860
 4298W        W 6448  17.125   4.577  14.721  0.1282 -0.2475 -0.0671
 4299W        W 6449  17.308   4.215  19.003 -0.0481 -0.2218 -0.3597
 4300W        W 6450  15.494   3.162   5.341  0.0989  0.2848  0.0140
 4301W        W 6451  10.883   4.859  41.170 -0.2562  0.0762  0.1418
 4302W        W 6452   5.675   3.675  41.406 -0.2491  0.0968 -0.1763
 4303W        W 6453   3.951   4.643  32.284  0.2947 -0.0465  0.0773
 4304W        W 6454  10.333   5.030  36.589  0.1176  0.0474 -0.1664
 4305W        W 6455  15.597   1.342  17.132 -0.0133 -0.0246  0.3278
 4306W        W 6456  13.760   4.800  15.387  0.0110 -0.0375 -0.1242
 4307W        W 6457   7.057   4.437  44.718  0.1517  0.1654  0.3722
 4308W        W 6458   7.449   2.879   4.962  0.0232 -0.0590 -0.1089
 4309W        W 6459   0.786   3.974   7.711  0.0523 -0.1261  0.1544
 4310W        W 6460   3.806   1.465  27.654 -0.0693  0.1332  0.1037
 4311W        W 6461  16.161   5.228  15.048 -0.0525  0.0936 -0.0226
 4312W        W 6462  20.729   1.986  12.788 -0.0183 -0.0815  0.1917
 4313W        W 6463   5.085   2.239   3.549 -0.3377  0.0975 -0.5169
 4314W        W 6464   6.047   5.543  32.166  0.0048  0.2099  0.0344
 4315W        W 6465  21.130   1.329  16.350 -0.2699 -0.3126  0.1211
 4316W        W 6466   7.102   3.052  31.636 -0.0848  0.3373  0.1204
 4317W        W 6467   2.302   2.001  27.193 -0.0930 -0.0383 -0.0057
 4318W        W 6468   0.679   3.593   6.977  0.1762  0.0244  0.0994
 4319W        W 6469   0.159   0.352  27.995  0.1703  0.0329  0.0431
 4320W        W 6470   7.278   5.504  26.864  0.2044  0.0697 -0.0120
 4321W        W 6471   0.819   2.590   2.987 -0.3410 -0.2522 -0.0089
 4322W        W 6472   8.489   5.240  44.666 -0.2480 -0.2885  0.1173
 4323W        W 6473  20.622   5.480   1.491 -0.0215  0.0702  0.2520
 4324W        W 6474   4.368   0.688  34.270  0.2907  0.0258 -0.2317
 4325W        W 6475   6.174   0.274  31.151 -0.2800 -0.2901  0.3995
 4326W        W 6476  14.283   4.334  22.197 -0.0951  0.2113  0.2487
 4327W        W 6477  11.092   2.358   2.783 -0.1528  0.1614 -0.3748
 4328W        W 6478  10.058   1.830  39.621  0.1599  0.0048  0.0180
 4329W        W 6479   5.148   2.786  20.738 -0.0264  0.1738  0.3437
 4330W        W 6480  19.873   3.374  44.512 -0.3149  0.1388  0.3090
 4331W        W 6481  11.064   4.940  29.424  0.2381 -0.1219 -0.0764
 4332W        W 6482   4.219   1.683  25.939 -0.1563 -0.1150 -0.2472
 4333W        W 6483   0.016   3.350   6.399 -0.1469  0.4414  0.0815
 4334W        W 6484   5.038   5.005  27.972 -0.2626 -0.1881  0.0761
 4335W        W 6485   4.004   2.994   1.209  0.0135 -0.1100 -0.0391
 4336W        W 6486   6.641   4.288  27.336  0.0123  0.0375 -0.0880
 4337W        W 6487   1.266   4.148  26.319  0.0627 -0.2820 -0.1807
 4338W        W 6488  20.952   0.602   9.174  0.0233 -0.3216  0.3590
 4339W        W 6489  16.193   2.881  35.855 -0.2487 -0.0315  0.0055
 4340W        W 6490  16.471   0.121  32.020 -0.3869  0.0702  0.0103
 4341W        W 6491  15.180   3.939  41.999  0.0088 -0.1780  0.0658
 4342W        W 6492   4.071   4.468  35.432 -0.2790  0.1592  0.1285
 4343W        W 6493  13.404   4.441   1.042  0.0781  0.0936  0.0024
 4344W        W 6494   6.272   3.086   1.479 -0.0043 -0.2381  0.0457
 4345W        W 6495  17.158   0.232  22.522 -0.0817 -0.1432  0.0848
 4346W        W 6496   7.765   5.276  34.511  0.2658 -0.0173 -0.0034
 4347W        W 6497  14.765   4.456  28.771  0.0002  0.0338 -0.1005
 4348W        W 6498  16.980   0.434   4.263  0.0395  0.1616  0.2014
 4349W        W 6499   4.435   2.937   9.825 -0.2461  0.0553  0.0699
 4350W        W 6500  13.593   0.903   2.529  0.0359  0.0701 -0.0396
 4351W        W 6501   9.393   1.563  39.188 -0.0444  0.0700 -0.2413
 4352W        W 6502   9.276   2.407  16.950  0.1333 -0.0412  0.1101
 4353W        W 6503  18.893   2.214   7.930 -0.0887 -0.1244  0.3264
 4354W        W 6504  19.201   6.456  13.286 -0.2761  0.1103 -0.1709
 4355W        W 6505  17.213   0.110   9.108 -0.1876 -0.1159  0.0316
 4356W        W 6506   8.070   6.079  28.741  0.1427  0.1161 -0.0750
 4357W        W 6507  15.599   4.658  10.695 -0.0566  0.1052 -0.1448
 4358W        W 6508  14.639   1.968  32.934  0.0886  0.1416  0.1683
 4359W        W 6509   0.696   5.810   0.381  0.0525 -0.1501  0.2124
 4360W        W 6510  17.177   3.624  37.317  0.1807 -0.0794 -0.2853
 4361W        W 6511   0.721   5.298  37.750  0.2664 -0.3019 -0.2324
 4362W        W 6512  13.646   3.597  40.970  0.2595 -0.2249  0.1624
 4363W        W 6513  17.626   1.611  20.815 -0.1548 -0.2563  0.0460
 4364W        W 6514   7.392   3.549  22.120  0.4272  0.0147 -0.2010
 4365W        W 6515   8.289   3.656  36.235  0.1964 -0.1549 -0.3459
 4366W        W 6516   5.924   1.652  32.617 -0.0136 -0.0939 -0.0266
 4367W        W 6517  17.081   3.034  33.943  0.0489  0.1036  0.2884
 4368W        W 6518   6.278   3.574  39.105  0.1740  0.0897 -0.1144
 4369W        W 6519   4.241   3.683  39.735 -0.2076 -0.2738 -0.0985
 4370W        W 6520   6.948   3.241  14.407  0.0407  0.0104  0.1740
 4371W        W 6521   7.511   4.698   8.445  0.2655 -0.2744  0.0430
 4372W        W 6522  19.543   6.176  14.786  0.3753  0.1582 -0.1973
 4373W        W 6523  17.511   4.203  12.696  0.3385 -0.0127 -0.0134
 4374W        W 6524  21.059   2.350  16.636 -0.4351  0.1304 -0.0642
 4375W        W 6525   0.863   0.627  11.882 -0.0718  0.0092  0.2777
 4376W        W 6526  15.026   3.909  29.936 -0.0497 -0.0300  0.1007
 4377W        W 6527  15.095   3.044  33.359  0.1884 -0.0203 -0.0492
 4378W        W 6528   9.423   6.451   3.098 -0.0788  0.1111 -0.1184
 4379W        W 6529  16.730   3.689  38.284 -0.0386 -0.2007 -0.3555
 4380W        W 6530  16.881   5.920   8.699 -0.1251  0.0350 -0.0774
 4381W        W 6531   0.376   2.124   8.812  0.1246 -0.0756  0.3060
 4382W        W 6532   5.406   6.597  35.255 -0.1075  0.0062 -0.0697
 4383W        W 6533   7.367   2.356  43.831  0.2534 -0.1374 -0.1212
 4384W        W 6534  18.254   4.784  29.517  0.0674  0.0642 -0.0936
 4385W        W 6535   4.827   5.713  45.051  0.0640 -0.1710 -0.1547
 4386W        W 6536  17.029   5.871  22.833 -0.0481  0.1733  0.0987
 4387W        W 6537  15.312   2.840  33.688 -0.0438 -0.2717 -0.2397
 4388W        W 6538   6.706   2.048  13.362  0.2005 -0.3757 -0.3599
 4389W        W 6539   7.784   6.142  25.967 -0.0086  0.1370  0.3045
 4390W        W 6540  11.051   4.150  11.387 -0.2968 -0.3927  0.0418
 4391W        W 6541  10.688   2.020  45.111  0.0147  0.2837  0.1091
 4392W        W 6542  10.049   1.978   8.516 -0.0300  0.0365 -0.2215
 4393W        W 6543  18.186   6.290  14.760 -0.0155  0.2160 -0.1164
 4394W        W 6544   6.696   0.429   6.016 -0.1336  0.0126  0.1503
 4395W        W 6545  12.675   0.627   4.011  0.0705 -0.0136  0.2546
 4396W        W 6546  12.358   4.704  38.155 -0.5054 -0.1034  0.2940
 4397W        W 6547   9.783   3.501  41.643  0.0384  0.2633 -0.0960
 4398W        W 6548   1.326   4.842  44.436 -0.3685 -0.1877  0.0838
 4399W        W 6549   9.382   4.474  43.376 -0.0925  0.0387  0.0911
 4400W        W 6550  10.032   0.595  29.963  0.2743  0.1222  0.0824
 4401W        W 6551   7.535   3.396  12.559  0.2667 -0.1309  0.2806
 4402W        W 6552  19.400   5.740   2.171  0.1111 -0.1587  0.0024
 4403W        W 6553   2.228   0.682  35.605 -0.0793 -0.2515  0.2864
 4404W        W 6554  13.516   5.373  28.929 -0.1644 -0.2552 -0.0691
 4405W        W 6555   7.132   3.921   4.113 -0.1509 -0.0222  0.1195
 4406W        W 6556   7.076   3.179  37.438 -0.1121 -0.2894 -0.0672
 4407W        W 6557   5.006   0.752   3.119 -0.2435  0.0090 -0.1646
 4408W        W 6558  12.312   2.258  35.239 -0.0542 -0.0312  0.0281
 4409W        W 6559  13.437   3.678   0.815 -0.2175 -0.0707  0.0753
 4410W        W 6560  20.153   5.729  17.666 -0.1263 -0.2705 -0.0126
 4411W        W 6561  16.492   2.246  24.198  0.1339 -0.2301  0.0327
 4412W        W 6562  15.341   4.039  34.554  0.0972  0.1626  0.1408
 4413W        W 6563  11.653   6.560  28.293 -0.3602  0.0665 -0.0703
 4414W        W 6564  16.642   2.315  41.355 -0.0058  0.1646 -0.0299
 4415W        W 6565  11.431   5.865  26.261  0.2042  0.1548  0.2495
 4416W        W 6566  15.714   0.292   2.794 -0.0393 -0.0771  0.2693
 4417W        W 6567  15.666   3.769  18.525 -0.1304 -0.0670  0.0320
 4418W        W 6568  16.054   2.871  36.349  0.1201  0.0160 -0.1041
 4419W        W 6569  19.508   3.395   1.564 -0.0891  0.1047 -0.1492
 4420W        W 6570  19.750   1.667   1.849  0.0400 -0.0971 -0.2185
 4421W        W 6571   3.886   4.152   8.935  0.2769 -0.0756 -0.0766
 4422W        W 6572  20.632   5.126  15.518 -0.0778 -0.1308  0.1025
 4423W        W 6573   8.067   3.948   8.471  0.3790 -0.1082 -0.1666
 4424W        W 6574  10.743   1.211  11.140 -0.1340 -0.2024  0.1311
 4425W        W 6575  11.515   1.044  15.357 -0.2446  0.1651  0.2042
 4426W        W 6576  14.038   4.103  36.775  0.1565 -0.3379 -0.3810
 4427W        W 6577  16.738   3.950  10.324 -0.0921  0.2532 -0.1991
 4428W        W 6578  12.470   1.358  15.619 -0.0176  0.1348  0.0887
 4429W        W 6579   0.978   0.459  43.253 -0.1186  0.2994  0.1727
 4430W        W 6580  15.686   4.607  32.251 -0.0780 -0.2952  0.2169
 4431W        W 6581   4.778   6.120   5.174 -0.3816 -0.3398 -0.0526
 4432W        W 6582  17.209   2.357   2.387 -0.1470 -0.0887 -0.5037
 4433W        W 6583   1.462   3.873  37.413 -0.3221  0.2346  0.1941
 4434W        W 6584  13.912   2.664  39.447  0.1558  0.0765  0.0340
 4435W        W 6585  12.594   4.948   9.133 -0.0489 -0.0300 -0.0400
 4436W        W 6586  12.534   5.733  31.811 -0.2388 -0.2202 -0.1616
 4437W        W 6587   6.196   5.428   6.397  0.1439  0.0943  0.0622
 4438W        W 6588  17.988   1.620  14.428  0.0404  0.0360 -0.2121
 4439W        W 6589   5.033   1.045  40.052 -0.2683 -0.2459 -0.1001
 4440W        W 6590   7.720   3.343  29.308 -0.0209  0.0077 -0.0125
 4441W        W 6591  15.993   5.990  10.443 -0.0194 -0.0059 -0.1287
 4442W        W 6592   1.924   5.609  27.755 -0.1618 -0.1151  0.0097
 4443W        W 6593  12.296   5.543  38.499 -0.1919 -0.1544  0.0032
 4444W        W 6594  14.729   1.399  34.177  0.1682 -0.2961 -0.0339
 4445W        W 6595  14.237   2.528  33.994 -0.1500  0.3574  0.0396
 4446W        W 6596   3.216   3.001  38.381  0.1391  0.0417 -0.0175
 4447W        W 6597  15.751   6.060   0.680  0.2592  0.1250 -0.2478
 4448W        W 6598   9.299   6.106  24.016  0.2804 -0.0660 -0.2269
 4449W        W 6599  10.326   5.645  37.545  0.1129 -0.2868  0.2095
 4450W        W 6600  11.153   0.177  10.139  0.2920 -0.0495  0.2726
 4451W        W 6601   0.467   5.772  30.992 -0.1468 -0.3471 -0.2071
 4452W        W 6602  19.296   4.097  10.100 -0.1144 -0.0730  0.1390
 4453W        W 6603  11.472   3.410  42.902  0.0753 -0.0497 -0.0088
 4454W        W 6604   7.335   4.872  27.994 -0.2080  0.1845  0.0675
 4455W        W 6605   8.807   1.070  12.891 -0.2364  0.0927 -0.0220
 4456W        W 6606   5.337   3.559  43.779 -0.2478 -0.2976 -0.0280
 4457W        W 6607  17.544   2.573  12.607 -0.6536 -0.2042 -0.2951
 4458W        W 6608   0.210   1.114  27.553 -0.0831  0.0102  0.1664
 4459W        W 6609   1.317   5.270  44.044 -0.3911 -0.0138  0.1129
 4460W        W 6610   5.723   1.264  34.788 -0.2274  0.4197  0.0392
 4461W        W 6611  16.252   0.039  15.185 -0.2845  0.0327 -0.3573
 4462W        W 6612  10.918   3.155  30.543  0.1213 -0.3244  0.0031
 4463W        W 6613  17.028   1.169   1.962  0.0259  0.0610 -0.0033
 4464W        W 6614   0.013   2.855  41.675  0.1329 -0.0230 -0.2594
 4465W        W 6615  16.794   3.772  15.571 -0.2395  0.3203 -0.1012
 4466W        W 6616   8.920   4.675  38.078 -0.0797 -0.0788 -0.4476
 4467W        W 6617   0.922   3.235  36.710 -0.0326 -0.1139 -0.0763
 4468W        W 6618  14.422   5.516  42.616 -0.1526  0.0197 -0.1154
 4469W        W 6619   7.083   4.449  10.465 -0.0793  0.1281  0.0802
 4470W        W 6620   9.446   6.400   9.271 -0.0293  0.2041 -0.2853
 4471W        W 6621   6.840   1.227  13.200  0.1535 -0.0526  0.2932
 4472W        W 6622  19.916   5.032   4.406 -0.1902  0.1716 -0.2059
 4473W        W 6623  14.279   1.685   7.645 -0.0532  0.0214  0.2868
 4474W        W 6624  12.519   1.942   6.533 -0.0781 -0.0140 -0.0559
 4475W        W 6625  10.366   0.411   8.460 -0.0168  0.2533 -0.0693
 4476W        W 6626  16.029   6.368   7.050  0.1645 -0.0536 -0.2277
 4477W        W 6627   9.274   1.864  28.738 -0.1068 -0.1514  0.0828
 4478W        W 6628   4.960   0.591  33.012  0.1821 -0.0772  0.3181
 4479W        W 6629  16.381   5.371  18.892  0.0788  0.0277  0.2574
 4480W        W 6630  13.191   6.006   2.693  0.2657 -0.4531  0.2298
 4481W        W 6631  12.581   1.598  41.265 -0.0945  0.0236 -0.1640
 4482W        W 6632  13.167   6.230   7.414  0.1106  0.0036 -0.1717
 4483W        W 6633   3.104   2.033  31.794  0.4642 -0.1258 -0.1092
 4484W        W 6634   3.184   0.647  36.868 -0.3338 -0.2611 -0.1448
 4485W        W 6635   5.190   4.784   7.185  0.3210 -0.0840  0.0952
 4486W        W 6636   7.149   5.333   0.839 -0.2140 -0.2068 -0.0296
 4487W        W 6637   8.619   2.469   4.465 -0.2000  0.0751 -0.0271
 4488W        W 6638   2.728   2.980  24.258 -0.1594  0.3682 -0.0090
 4489W        W 6639  12.334   1.535   7.411 -0.1842 -0.1944  0.1669
 4490W        W 6640  18.491   5.781   2.284 -0.0880  0.0116 -0.2176
 4491W        W 6641  17.163   0.679   9.134  0.1393 -0.0942  0.1181
 4492W        W 6642  11.157   4.550  28.679 -0.0170  0.3145  0.1068
 4493W        W 6643   2.870   1.177  44.625  0.0964  0.1179 -0.1266
 4494W        W 6644  14.733   2.270  32.389 -0.2944  0.1667 -0.1162
 4495W        W 6645  18.915   0.562  44.253  0.2884  0.1529 -0.0326
 4496W        W 6646  19.623   6.568  41.908  0.1151  0.3303 -0.1448
 4497W        W 6647   6.398   6.515  36.438  0.2270  0.0737  0.0880
 4498W        W 6648   0.717   4.661  15.647 -0.0611 -0.2872  0.2487
 4499W        W 6649   0.525   1.415  30.369 -0.0264 -0.1473 -0.1188
 4500W        W 6650   6.036   1.009  30.014  0.0257  0.0651 -0.0518
 4501W        W 6651   3.648   2.015   2.656 -0.0660  0.1723  0.0640
 4502W        W 6652   7.634   5.665   4.459 -0.0099  0.0331  0.1306
 4503W        W 6653  11.172   6.103  11.439 -0.1819 -0.2177 -0.0093
 4504W        W 6654   8.201   3.697  44.190  0.0387 -0.1505 -0.1495
 4505W        W 6655   1.439   1.278  31.475 -0.0882 -0.1006 -0.1298
 4506W        W 6656   4.509   0.814  31.983 -0.0441  0.0988  0.0938
 4507W        W 6657  13.900   2.043   7.354  0.1826 -0.0556  0.0486
 4508W        W 6658   5.264   4.006   1.702  0.3364 -0.1154  0.1731
 4509W        W 6659   3.707   1.233  39.687 -0.0083 -0.0088 -0.0031
 4510W        W 6660  14.612   6.058  21.990  0.2892  0.2458 -0.1363
 4511W        W 6661  15.703   5.296  18.222  0.1616 -0.0596 -0.1938
 4512W        W 6662  13.448   6.428  19.373 -0.0064 -0.1120  0.1427
 4513W        W 6663   9.598   2.413   9.845 -0.0208 -0.0928  0.2927
 4514W        W 6664   5.548   4.640  10.442  0.2086 -0.2004 -0.2966
 4515W        W 6665   3.046   1.059  28.164 -0.0493 -0.1108 -0.0166
 4516W        W 6666   7.433   6.483  38.491  0.2794  0.2618 -0.0762
 4517W        W 6667  18.322   3.436   6.433  0.0943 -0.0458 -0.1541
 4518W        W 6668   3.867   2.213  30.406 -0.0684  0.3456  0.0624
 4519W        W 6669   7.310   6.390  43.351 -0.1306  0.1607  0.1265
 4520W        W 6670  11.908   2.437  14.334  0.1701 -0.1717  0.0532
 4521W        W 6671  14.772   4.040  43.550 -0.2602  0.0884  0.0862
 4522W        W 6672   1.073   1.194  27.064 -0.2086 -0.0870 -0.0006
 4523W        W 6673  10.261   2.833   8.250  0.2660  0.0063  0.0198
 4524W        W 6674   3.574   6.279  28.623  0.2160  0.1009  0.2976
 4525W        W 6675  12.364   2.352  12.900  0.0331 -0.1571  0.1151
 4526W        W 6676  10.477   4.753  40.874  0.2046 -0.0914  0.0404
 4527W        W 6677   5.634   4.633  23.732  0.1811  0.0310 -0.0447
 4528W        W 6678  14.953   6.094  42.836  0.0454  0.0254  0.1141
 4529W        W 6679  18.265   0.348  31.129 -0.3133 -0.2033  0.0334
 4530W        W 6680   7.208   1.925   9.230  0.0789  0.1421  0.0736
 4531W        W 6681  10.094   2.463  41.398  0.2060  0.0668  0.0232
 4532W        W 6682  10.875   1.900  15.192 -0.1154 -0.0759 -0.2733
 4533W        W 6683  10.266   0.619  27.386 -0.1411 -0.2869 -0.2580
 4534W        W 6684   0.712   5.133  14.361 -0.1042 -0.1391 -0.0356
 4535W        W 6685  15.825   3.621  44.430 -0.0290 -0.1249  0.0754
 4536W        W 6686   6.006   5.821  31.343  0.0195  0.0936 -0.1871
 4537W        W 6687  15.572   0.299  33.611  0.0535  0.1191  0.0050
 4538W        W 6688  19.227   5.608  11.670  0.0213 -0.0610  0.0315
 4539W        W 6689   8.148   3.990  26.005  0.0227  0.3605  0.1100
 4540W        W 6690  10.033   2.917  11.765  0.0150 -0.2775 -0.0837
 4541W        W 6691   8.624   1.750  17.024 -0.0739 -0.2825 -0.1494
 4542W        W 6692  17.294   4.690  36.471  0.1592 -0.3342  0.4649
 4543W        W 6693   1.355   3.973  31.437 -0.0067 -0.1362 -0.0861
 4544W        W 6694   9.100   4.260  33.095 -0.3858  0.3248 -0.2375
 4545W        W 6695   9.288   5.702   7.285 -0.0205  0.1667 -0.2909
 4546W        W 6696   8.612   5.662  34.284  0.0384  0.3860 -0.2072
 4547W        W 6697   2.329   3.845   9.358  0.3527 -0.2718 -0.2661
 4548W        W 6698   5.614   0.170  27.661  0.1437  0.1580  0.0628
 4549W        W 6699  14.545   2.377  44.279  0.0229 -0.1017 -0.0112
 4550W        W 6700  15.146   0.942  29.937 -0.2325  0.0552  0.0841
 4551W        W 6701   1.500   5.793  30.261  0.0796  0.1444 -0.1583
 4552W        W 6702   0.235   6.152  19.421  0.0807  0.0666 -0.0693
 4553W        W 6703  12.732   2.300  32.199  0.0592  0.0216 -0.0413
 4554W        W 6704   4.347   5.631   5.892  0.0628  0.0566 -0.1248
 4555W        W 6705  16.478   2.601  10.415  0.3117 -0.2188  0.0866
 4556W        W 6706   6.316   1.001  34.476 -0.0430  0.0022  0.1350
 4557W        W 6707   4.064   2.163  41.359 -0.3401 -0.1844 -0.0984
 4558W        W 6708  16.648   3.677  40.070 -0.1098  0.0090  0.1500
 4559W        W 6709  16.478   2.871   8.320  0.0392 -0.1092 -0.0367
 4560W        W 6710  11.948   1.759  13.755  0.3147  0.1277 -0.1962
 4561W        W 6711   4.711   0.227  28.122  0.2778  0.1636  0.2363
 4562W        W 6712  12.576   3.975  42.250  0.1333  0.2048 -0.0673
 4563W        W 6713   7.182   0.040   2.537 -0.2082 -0.2607  0.1200
 4564W        W 6714   8.225   2.178  43.107  0.2292  0.2216 -0.2104
 4565W        W 6715  16.154   5.929  14.519  0.2178 -0.0658 -0.1209
 4566W        W 6716   0.850   0.589  11.245 -0.1138  0.0755 -0.2880
 4567W        W 6717  20.290   2.844  31.615  0.0448 -0.0113 -0.2553
 4568W        W 6718   6.666   2.151   0.448  0.2567 -0.1136 -0.1826
 4569W        W 6719  11.231   2.767  31.513 -0.0193  0.0882  0.0621
 4570W        W 6720   7.472   4.871  11.778  0.0200  0.1370  0.2200
 4571W        W 6721  20.388   2.709  18.357  0.3014 -0.1269  0.1137
 4572W        W 6722   1.690   5.804  12.048  0.0309  0.1296  0.1472
 4573W        W 6723   7.372   3.879   8.932 -0.1371 -0.2210  0.2395
 4574W        W 6724   0.361   3.086  33.811 -0.2464 -0.1161  0.1293
 4575W        W 6725  17.766   6.108  34.347  0.0669  0.2164  0.2944
 4576W        W 6726  11.650   2.639  17.474  0.0385 -0.1398  0.2920
 4577W        W 6727   6.545   0.755  42.706 -0.0137  0.0416 -0.1902
 4578W        W 6728   2.332   3.667  31.166 -0.1030  0.0387 -0.1099
 4579W        W 6729   6.035   6.445  38.341  0.1291  0.0800 -0.1336
 4580W        W 6730   1.080   3.327  33.448 -0.0993  0.2224 -0.1097
 4581W        W 6731  10.590   1.147  38.504 -0.2033  0.0270  0.2690
 4582W        W 6732   5.532   4.944  44.007 -0.2843 -0.2260  0.2157
 4583W        W 6733   0.446   6.543  39.206 -0.0458 -0.0116  0.0924
 4584W        W 6734   4.222   0.841  29.908  0.2175 -0.1130  0.0754
 4585W        W 6735   3.649   0.900  35.388 -0.0025  0.0050 -0.0061
 4586W        W 6736   2.197   1.875  42.076  0.0881 -0.1115  0.1389
 4587W        W 6737   5.881   6.584  40.006  0.2058 -0.0519  0.2505
 4588W        W 6738   6.606   5.158  27.328 -0.0312 -0.1544  0.1427
 4589W        W 6739  20.522   2.419  14.376  0.0181 -0.0462 -0.1243
 4590W        W 6740  14.226   4.743   8.564  0.2626  0.0377  0.0990
 4591W        W 6741   4.257   2.315  32.505 -0.1258  0.0161  0.5681
 4592W        W 6742  11.138   6.545  36.315  0.3446 -0.0692  0.1966
 4593W        W 6743  14.208   5.816   5.078  0.1059 -0.0521 -0.0872
 4594W        W 6744  16.951   1.403  10.812 -0.1678 -0.1822 -0.3312
 4595W        W 6745  12.935   1.566  42.997 -0.0211 -0.0763  0.0771
 4596W        W 6746   7.744   2.855  34.420  0.2170  0.2514  0.1326
 4597W        W 6747   4.081   1.072  23.959 -0.0867  0.0524 -0.1509
 4598W        W 6748  11.364   2.447  11.661  0.2113  0.0755  0.0068
 4599W        W 6749  20.439   4.274   0.831  0.0007  0.0298 -0.0239
 4600W        W 6750  10.277   4.333  34.760 -0.2147 -0.1212  0.2798
 4601W        W 6751  11.913   2.010   6.734 -0.0139  0.2234 -0.0681
 4602W        W 6752  11.581   6.462  27.228 -0.2914  0.1770 -0.1120
 4603W        W 6753   8.211   3.455  26.449 -0.0013 -0.1108  0.1949
 4604W        W 6754   4.696   2.562  41.002  0.3488 -0.1177 -0.2520
 4605W        W 6755   2.043   3.174  34.085  0.1441 -0.3439  0.0791
 4606W        W 6756  10.677   0.014   0.998 -0.1574 -0.2510  0.0106
 4607W        W 6757  16.053   0.080  44.166 -0.0791  0.1037 -0.0475
 4608W        W 6758  20.702   0.026  17.952 -0.0057 -0.4658  0.0929
 4609W        W 6759  17.204   5.173  12.389 -0.2009 -0.1734 -0.2626
 4610W        W 6760  10.454   3.972  30.982 -0.2359 -0.5588  0.0540
 4611W        W 6761  10.049   4.438   6.097 -0.1019  0.0420 -0.2183
 4612W        W 6762  12.098   2.281  36.168 -0.0458 -0.3240 -0.0937
 4613W        W 6763  10.418   2.290  44.737 -0.4028 -0.1080 -0.4562
 4614W        W 6764  20.498   2.519  10.219 -0.1315  0.1204  0.0146
 4615W        W 6765   8.603   6.329   3.197 -0.2589 -0.0340 -0.2161
 4616W        W 6766  13.381   2.301  10.508  0.0847 -0.1614 -0.4455
 4617W        W 6767   1.268   1.655  16.342  0.1096 -0.1107  0.1086
 4618W        W 6768   5.491   3.132   5.568 -0.0250  0.0338  0.0308
 4619W        W 6769   6.853   2.006  24.153  0.0867 -0.1047  0.0136
 4620W        W 6770   7.866   3.117  13.890 -0.1010 -0.2752 -0.1847
 4621W        W 6771  10.469   6.102  27.250 -0.1850  0.0841 -0.1865
 4622W        W 6772  14.502   2.168  17.373 -0.3387 -0.2473 -0.0743
 4623W        W 6773   3.189   6.386  44.314  0.0546  0.1871  0.1513
 4624W        W 6774   5.679   5.043   8.516 -0.1450 -0.1475  0.0813
 4625W        W 6775   1.985   0.731  34.254  0.0259 -0.3828  0.1640
 4626W        W 6776  18.262   1.487  35.685 -0.0195  0.2038  0.0755
 4627W        W 6777  12.900   0.547  27.946  0.0333  0.0623 -0.2538
 4628W        W 6778   5.177   1.103  30.197  0.2153 -0.0054  0.0208
 4629W        W 6779   4.383   4.612  24.340  0.3480 -0.0841 -0.2493
 4630W        W 6780   9.802   2.197  34.858 -0.1865  0.1581  0.2409
 4631W        W 6781   4.830   3.423   2.157  0.5814 -0.1647  0.0274
 4632W        W 6782  14.496   0.188  39.354  0.2977 -0.0484 -0.1769
 4633W        W 6783   1.487   4.268  27.679 -0.0102  0.1510  0.1804
 4634W        W 6784  16.483   6.059  19.664 -0.1454  0.1164  0.1591
 4635W        W 6785  19.289   2.977   1.710  0.0145 -0.1411  0.0650
 4636W        W 6786  19.969   4.479   3.111  0.1391 -0.3197  0.0474
 4637W        W 6787  11.803   0.282   8.811 -0.3214  0.3254  0.3450
 4638W        W 6788  11.930   0.134  44.057  0.1074  0.1490 -0.0107
 4639W        W 6789   7.437   0.581   6.537 -0.2668 -0.0623 -0.1648
 4640W        W 6790  14.939   2.969  36.196  0.0311 -0.1895 -0.1636
 4641W        W 6791  11.105   2.099   2.312 -0.1808 -0.0775 -0.2872
 4642W        W 6792   9.167   2.031  45.048  0.1022 -0.0751  0.0897
 4643W        W 6793   0.872   3.845  38.249 -0.1595  0.0536  0.0085
 4644W        W 6794   2.048   1.135  44.589 -0.0608  0.2503 -0.2176
 4645W        W 6795  10.077   2.375  38.750 -0.2759 -0.0165  0.1171
 4646W        W 6796   1.069   1.839  37.429  0.0336  0.1596 -0.0179
 4647W        W 6797   0.651   4.756  29.660 -0.0344  0.0802 -0.1138
 4648W        W 6798  19.359   4.736  39.552 -0.0032  0.0957 -0.2228
 4649W        W 6799   2.101   2.632  28.539  0.0675 -0.0953 -0.4917
 4650W        W 6800  12.722   5.205  35.339 -0.0291  0.0539  0.3620
 4651W        W 6801   6.000   4.435   1.341 -0.0175 -0.2959  0.3858
 4652W        W 6802  10.682   6.513   5.250  0.2393 -0.1728 -0.0192
 4653W        W 6803   8.257   0.517   0.696 -0.2060  0.0098 -0.0528
 4654W        W 6804  17.205   4.646   9.748 -0.1336 -0.1264  0.2114
 4655W        W 6805   8.188   0.322   2.666 -0.1122  0.2822  0.0815
 4656W        W 6806   9.946   3.140  42.066 -0.0419 -0.1568  0.1360
 4657W        W 6807   4.891   2.240  38.001  0.0889  0.1814 -0.2160
 4658W        W 6808   2.089   5.128  36.485  0.2370 -0.1533 -0.0257
 4659W        W 6809  13.548   4.245  28.924  0.1652  0.0207  0.0197
 4660W        W 6810  15.586   6.576   6.440 -0.1095 -0.3540  0.0364
 4661W        W 6811  14.399   1.798  36.477  0.2639 -0.1554 -0.1774
 4662W        W 6812   9.631   5.515  45.054  0.1804  0.3516 -0.2295
 4663W        W 6813  19.912   0.798  41.287  0.0884  0.1618 -0.0334
 4664W        W 6814   0.406   2.316  29.648  0.0693  0.0738  0.0861
 4665W        W 6815   9.013   1.408  31.799  0.0315  0.0075  0.1139
 4666W        W 6816  12.478   4.656  40.053 -0.0387  0.0485 -0.1633
 4667W        W 6817   6.052   1.902  34.221 -0.0801 -0.0413  0.0974
 4668W        W 6818  19.099   1.403   9.944  0.1389 -0.1401  0.1338
 4669W        W 6819   0.027   1.587   1.310  0.1877  0.1762 -0.1766
 4670W        W 6820  16.010   5.418   3.814 -0.0647 -0.0743 -0.0144
 4671W        W 6821   0.772   5.248   1.730  0.0644  0.1127 -0.1919
 4672W        W 6822   1.380   4.125  33.455 -0.0898 -0.1474 -0.0988
 4673W        W 6823  13.283   3.922  31.589 -0.2425  0.2992  0.2182
 4674W        W 6824   5.405   2.804   3.533  0.1667  0.0094  0.1606
 4675W        W 6825   5.715   0.187   2.796  0.0682  0.1349  0.1531
 4676W        W 6826  17.483   6.178  15.959  0.0799  0.1488 -0.1986
 4677W        W 6827  14.609   2.782  44.974 -0.2310  0.0054  0.4221
 4678W        W 6828  14.704   6.454  17.036 -0.0560  0.2879 -0.3815
 4679W        W 6829   4.465   4.694   7.766 -0.2544 -0.0720 -0.1195
 4680W        W 6830  13.869   5.129  15.810  0.2219  0.1212  0.1547
 4681W        W 6831   9.717   2.990  41.493 -0.2795  0.0565  0.0093
 4682W        W 6832   7.605   5.184   2.949  0.1242 -0.0235  0.0151
 4683W        W 6833  16.200   4.167   6.653  0.1737  0.1346  0.1247
 4684W        W 6834   3.936   3.864  28.457  0.0219 -0.1500 -0.0152
 4685W        W 6835   4.727   3.976   1.386 -0.2238  0.0249 -0.1180
 4686W        W 6836  21.069   1.180  43.098 -0.2463  0.3040  0.0747
 4687W        W 6837  13.803   4.347  17.561 -0.0798  0.1428  0.1259
 4688W        W 6838  19.046   2.893  11.620  0.0589  0.1643 -0.1356
 4689W        W 6839  18.773   1.457  30.454 -0.3225 -0.0300  0.1509
 4690W        W 6840   7.287   4.469  31.901 -0.0338 -0.1977 -0.1872
 4691W        W 6841   8.509   4.903  14.523 -0.0691 -0.0597 -0.2939
 4692W        W 6842   9.266   2.861   9.587 -0.1962 -0.1006 -0.1195
 4693W        W 6843  13.152   5.388  12.535  0.0826  0.0404  0.2665
 4694W        W 6844  11.054   0.447  33.204  0.2167 -0.3048 -0.0813
 4695W        W 6845  17.483   4.533  44.214  0.0156 -0.1412 -0.1889
 4696W        W 6846   1.410   5.767   3.238 -0.1153  0.0777 -0.0724
 4697W        W 6847   7.579   6.164  40.462 -0.2827 -0.3735  0.0037
 4698W        W 6848   4.868   0.855  38.369 -0.0295  0.0966 -0.0751
 4699W        W 6849  16.386   1.164   8.817  0.0275 -0.1698 -0.1375
 4700W        W 6850   9.979   4.635  13.601 -0.0881 -0.0302  0.2295
 4701W        W 6851  13.361   1.427   7.583 -0.0723  0.1548 -0.0673
 4702W        W 6852   2.655   0.752  29.699 -0.0199  0.3174  0.2560
 4703W        W 6853   5.904   3.168  39.369 -0.0395  0.0033  0.1879
 4704W        W 6854  16.247   0.843  29.257 -0.0103 -0.0778  0.0405
 4705W        W 6855   7.998   5.832   4.859 -0.0619 -0.2933  0.0699
 4706W        W 6856  18.620   4.778  11.426  0.1791  0.2082  0.4632
 4707W        W 6857  17.254   2.732  16.260  0.0297  0.1797  0.0437
 4708W        W 6858  10.196   4.603  10.968 -0.0277  0.1026  0.1195
 4709W        W 6859  19.462   5.693  28.596 -0.1486 -0.0762  0.2629
 4710W        W 6860  11.369   0.615  34.037  0.1354 -0.2205 -0.1040
 4711W        W 6861  16.483   4.980  14.393 -0.1528  0.1929 -0.0073
 4712W        W 6862   3.777   4.024   7.515 -0.0146  0.0055 -0.0495
 4713W        W 6863  20.173   4.144   1.761  0.0591 -0.1666 -0.2023
 4714W        W 6864   8.157   3.139  12.591  0.1216  0.0165 -0.2846
 4715W        W 6865  17.669   2.263   4.826  0.3533  0.0430  0.0203
 4716W        W 6866  11.453   2.376   7.781 -0.1296  0.1650 -0.2007
 4717W        W 6867   4.031   0.398  12.526  0.2592  0.2054 -0.2267
 4718W        W 6868   4.209   5.121   5.895 -0.4049  0.0977  0.1371
 4719W        W 6869  20.497   1.829  29.972  0.2303  0.0780  0.0749
 4720W        W 6870   3.122   5.159  11.162  0.0769  0.2465 -0.2573
 4721W        W 6871   4.610   5.880  24.670 -0.0506 -0.1127 -0.3095
 4722W        W 6872  11.263   5.928   7.887  0.2899  0.2556  0.2582
 4723W        W 6873  19.481   3.161  12.341  0.2340 -0.0113  0.0052
 4724W        W 6874   1.200   2.418  27.760 -0.0246 -0.0210 -0.1113
 4725W        W 6875   1.774   4.192   0.474  0.0099  0.0926  0.1376
 4726W        W 6876   9.127   6.295  41.541 -0.0813 -0.1187  0.1152
 4727W        W 6877  14.327   4.094   5.009  0.0317 -0.4812  0.3469
 4728W        W 6878   5.083   4.834   0.632 -0.3935  0.0491 -0.2012
 4729W        W 6879   1.510   0.155  44.516  0.4118 -0.0197 -0.1825
 4730W        W 6880  20.180   2.150   1.232 -0.2437  0.2005  0.1042
 4731W        W 6881  16.078   1.414  22.137  0.0773  0.0781 -0.0415
 4732W        W 6882  20.370   0.400  42.708 -0.2572 -0.2275 -0.1009
 4733W        W 6883  13.979   2.148  10.910  0.0701  0.2443  0.2161
 4734W        W 6884  13.973   3.913  15.494 -0.0352 -0.0199  0.2576
 4735W        W 6885  18.760   5.441  20.487  0.1545  0.2577 -0.0369
 4736W        W 6886   9.143   0.487  14.495  0.0849  0.0440 -0.1066
 4737W        W 6887  15.223   0.558  14.614  0.1725 -0.0806 -0.0796
 4738W        W 6888   4.880   6.004   7.490  0.1094 -0.2381  0.0910
 4739W        W 6889  13.864   0.180  31.064  0.0887  0.2245 -0.2615
 4740W        W 6890  20.587   0.085  14.696  0.0040  0.2696 -0.1417
 4741W        W 6891   7.164   0.666   3.323 -0.2104  0.1781 -0.0507
 4742W        W 6892   6.372   1.820  14.421  0.2354  0.0264 -0.1106
 4743W        W 6893   5.514   4.766  11.786  0.0546  0.1474  0.1216
 4744W        W 6894   6.014   3.092  15.502 -0.0048 -0.0517 -0.0997
 4745W        W 6895  11.288   2.816  11.294  0.0836 -0.2038 -0.0400
 4746W        W 6896   5.639   3.671  34.934 -0.2274  0.1721  0.0904
 4747W        W 6897  10.702   3.604  36.123 -0.0054  0.2539 -0.1716
 4748W        W 6898  13.815   4.083  44.974  0.1270 -0.1164  0.3335
 4749W        W 6899  20.283   3.212  12.086 -0.0343 -0.1563  0.0937
 4750W        W 6900  14.556   6.206  42.127  0.1244 -0.0183 -0.0403
 4751W        W 6901   9.663   3.827  27.135  0.0187  0.0722 -0.2535
 4752W        W 6902  17.902   1.419  42.261 -0.0210 -0.3054 -0.2095
 4753W        W 6903  14.161   5.223  17.952 -0.1054 -0.0343 -0.0032
 4754W        W 6904   4.441   1.193  42.839 -0.0369  0.2208 -0.1241
 4755W        W 6905  10.005   1.700   7.562 -0.3618  0.1685  0.2072
 4756W        W 6906   9.660   0.814  13.942 -0.0890  0.0547  0.0381
 4757W        W 6907  12.687   1.420  40.152  0.1384  0.0538  0.1014
 4758W        W 6908  16.472   3.889  44.846 -0.0941 -0.3298 -0.1987
 4759W        W 6909  16.467   5.682  42.056  0.0793  0.0870  0.1016
 4760W        W 6910  17.083   6.031  21.302 -0.0905 -0.0689 -0.3412
 4761W        W 6911   2.606   5.905  41.864 -0.3561 -0.1817  0.1521
 4762W        W 6912   1.094   5.620   1.813 -0.0189  0.0129 -0.0855
 4763W        W 6913   7.789   2.067  11.026 -0.0763  0.1314 -0.2318
 4764W        W 6914   5.224   5.097   8.303 -0.1067 -0.1693  0.0372
 4765W        W 6915   5.525   3.548  13.748 -0.1553  0.0295 -0.1430
 4766W        W 6916   5.876   5.352  27.714 -0.0399 -0.0986 -0.2707
 4767W        W 6917   6.035   5.964  34.960 -0.3454 -0.0538  0.0293
 4768W        W 6918   5.427   5.405  30.684  0.3061  0.0753 -0.0244
 4769W        W 6919   5.400   3.094  21.455 -0.2988 -0.0919  0.3127
 4770W        W 6920  21.019   6.549  37.839  0.3663 -0.0318  0.0475
 4771W        W 6921  19.022   3.492   1.625 -0.1904 -0.0460 -0.0244
 4772W        W 6922   9.449   6.385  36.758  0.0432  0.2394  0.1573
 4773W        W 6923   1.584   1.664  43.688 -0.0759  0.2500 -0.2687
 4774W        W 6924  15.179   1.129  15.078 -0.2845  0.0962  0.0554
 4775W        W 6925   1.089   1.123  16.056  0.1333  0.3041 -0.2818
 4776W        W 6926   1.497   6.270   7.030  0.0906  0.1598  0.2746
 4777W        W 6927   8.315   5.196  11.491  0.0324 -0.2383  0.0671
 4778W        W 6928  13.318   0.986  10.360  0.1045 -0.1102 -0.3204
 4779W        W 6929  12.652   2.515   4.575  0.2333  0.0709  0.1154
 4780W        W 6930   3.891   3.851   0.979 -0.2783  0.0128  0.4397
 4781W        W 6931  20.262   4.855  31.454 -0.0068  0.0660 -0.0206
 4782W        W 6932  13.906   0.041  16.746 -0.1442 -0.2960  0.1589
 4783W        W 6933  12.171   0.774   3.869  0.0191  0.0672  0.3774
 4784W        W 6934   4.378   3.728  43.864 -0.1755  0.0401 -0.1534
 4785W        W 6935  16.898   2.141  29.262 -0.3491 -0.1379  0.1508
 4786W        W 6936   9.952   4.881   7.188 -0.1106  0.0365 -0.0206
 4787W        W 6937  13.422   4.267  38.894 -0.1670 -0.0070  0.0273
 4788W        W 6938   2.241   3.100   7.935 -0.3968  0.0695 -0.0498
 4789W        W 6939  13.967   2.192  28.159  0.1417 -0.1549  0.1166
 4790W        W 6940   6.993   5.557  12.694  0.2241 -0.0490 -0.0209
 4791W        W 6941  16.131   4.522   1.633 -0.1510 -0.3219 -0.0436
 4792W        W 6942   4.270   4.328  11.453  0.0812 -0.0764 -0.0786
 4793W        W 6943   5.604   3.884  35.561 -0.2801 -0.0029 -0.2632
 4794W        W 6944   7.093   6.365  21.847  0.3235 -0.0303 -0.2575
 4795W        W 6945   3.789   1.756  32.653  0.5040 -0.0811  0.0558
 4796W        W 6946   6.958   3.579   2.727 -0.3292 -0.0466 -0.0525
 4797W        W 6947   7.094   5.242   7.558 -0.1457 -0.1040  0.0193
 4798W        W 6948   6.168   1.062  12.269  0.1311  0.4120 -0.3024
 4799W        W 6949  15.486   3.292  18.797  0.0473  0.2177  0.1443
 4800W        W 6950   8.572   0.852  27.792 -0.2115 -0.1583  0.0669
 4801W        W 6951   2.828   3.848  40.410 -0.0148  0.2153  0.2295
 4802W        W 6952  16.817   6.541  32.881  0.1877  0.0793 -0.0691
 4803W        W 6953  15.870   3.698  20.641 -0.0716  0.0709  0.1698
 4804W        W 6954  18.382   2.073  38.047  0.4616 -0.1109  0.0444
 4805W        W 6955   7.996   0.251   8.561  0.0111  0.0659 -0.0783
 4806W        W 6956  20.258   2.100  36.403 -0.1991  0.0203 -0.0579
 4807W        W 6957   2.356   4.595  41.797  0.0484 -0.0620  0.1835
 4808W        W 6958   6.879   6.175   6.460  0.2785  0.3019  0.2090
 4809W        W 6959   0.689   2.449  15.373  0.0468 -0.1825  0.1530
 4810W        W 6960  11.904   2.057  12.387  0.0652 -0.1917 -0.0518
 4811W        W 6961   4.696   0.256  25.399 -0.1420 -0.0201 -0.0219
 4812W        W 6962  10.958   0.524   6.367 -0.1017 -0.0868 -0.3223
 4813W        W 6963   0.621   5.684  13.393  0.3304 -0.3091 -0.1754
 4814W        W 6964  20.475   2.367   8.336 -0.3100  0.0463 -0.1815
 4815W        W 6965  17.992   4.530  23.795  0.0626 -0.0729  0.0522
 4816W        W 6966   2.827   0.166   0.588  0.0390  0.1007 -0.2278
 4817W        W 6967  20.670   5.544   7.214 -0.4910  0.0129  0.0532
 4818W        W 6968   5.189   2.233  21.412  0.0841  0.0459  0.2999
 4819W        W 6969  15.429   0.655  42.163 -0.3223 -0.3094 -0.0833
 4820W        W 6970  19.021   3.998  10.535 -0.2400  0.0029 -0.2569
 4821W        W 6971  20.954   0.069   2.001 -0.1581 -0.0738  0.1418
 4822W        W 6972   6.245   0.072  42.035 -0.1443  0.0785 -0.0397
 4823W        W 6973  12.244   6.330  17.155 -0.0739  0.1145 -0.1442
 4824W        W 6974  10.689   4.082  36.042 -0.1832 -0.2249  0.0807
 4825W        W 6975  16.667   1.614   0.034 -0.0744 -0.0787  0.0091
 4826W        W 6976  15.273   0.748   8.774  0.1742  0.2444  0.1808
 4827W        W 6977   6.817   3.313  27.667  0.0318  0.3251  0.0245
 4828W        W 6978   4.227   3.405  28.315  0.1243  0.0946  0.0585
 4829W        W 6979   1.818   3.030  14.508 -0.0676 -0.1139 -0.3997
 4830W        W 6980   2.717   0.148   6.574  0.0244  0.1373  0.0714
 4831W        W 6981   5.106   4.561  14.233  0.0024 -0.0697 -0.0082
 4832W        W 6982   6.891   4.923  25.022  0.1487  0.0370 -0.0447
 4833W        W 6983  14.199   6.558   6.856  0.0011 -0.1216 -0.4619
 4834W        W 6984  13.212   1.869  10.663 -0.2530  0.0058  0.1009
 4835W        W 6985   0.021   6.267   6.891  0.0431  0.0889 -0.0564
 4836W        W 6986   3.604   2.745   3.182  0.2331  0.1779  0.3936
 4837W        W 6987   1.322   1.134  17.091  0.4031  0.2709 -0.0483
 4838W        W 6988   7.610   2.234   9.321 -0.1118 -0.3836 -0.0153
 4839W        W 6989   7.179   1.636  42.620  0.1744  0.0289  0.1779
 4840W        W 6990   5.535   1.133  43.346 -0.2019 -0.0483  0.0542
 4841W        W 6991   7.574   2.679   1.550  0.1153 -0.0670 -0.2984
 4842W        W 6992   5.233   2.917  24.640 -0.1859  0.1282  0.0285
 4843W        W 6993   9.793   0.105  13.877  0.0081 -0.2931 -0.0516
 4844W        W 6994  11.235   6.599  40.424  0.1438 -0.0808  0.0758
 4845W        W 6995  19.427   0.415   3.888  0.2712 -0.1255 -0.2620
 4846W        W 6996   6.559   0.403   4.643 -0.0438  0.0266 -0.1118
 4847W        W 6997  19.480   0.178  32.808 -0.1588 -0.1512  0.1221
 4848W        W 6998  11.503   1.952  11.048 -0.2887  0.1735  0.1896
 4849W        W 6999  16.965   4.941  14.306 -0.1963 -0.0258 -0.4366
 4850W        W 7000   1.042   0.941  15.184  0.1088  0.0368 -0.1734
 4851W        W 7001  20.833   6.145  37.158  0.0878 -0.2833  0.0631
 4852W        W 7002  11.915   6.596  39.727 -0.0096  0.2085 -0.1123
 4853W        W 7003   5.352   6.423   9.551 -0.1271  0.0982 -0.1525
 4854W        W 7004  16.877   1.071  37.930  0.1086 -0.3000 -0.0488
 4855W        W 7005  11.608   4.032   2.193 -0.0372 -0.0567 -0.0891
 4856W        W 7006   1.625   0.003   8.906  0.0816 -0.2084 -0.1058
 4857W        W 7007   7.108   2.438  12.026 -0.0580 -0.0110  0.0574
 4858W        W 7008  12.423   6.354  32.846 -0.0970  0.2314 -0.0647
 4859W        W 7009   3.737   2.459  37.246  0.0725  0.0385  0.1329
 4860W        W 7010  17.629   2.301  16.359  0.1621  0.1331 -0.0520
 4861W        W 7011  15.789   1.401   0.380 -0.0208 -0.0495 -0.0387
 4862W        W 7012   1.677   2.610  15.442  0.2237  0.0550  0.0888
 4863W        W 7013   3.453   2.171   4.036  0.1428  0.0908  0.0361
 4864W        W 7014  18.212   4.107  35.037 -0.1319 -0.2152 -0.1711
 4865W        W 7015   8.516   2.184   8.710  0.0175  0.2659 -0.0452
 4866W        W 7016  13.792   0.937  33.379  0.0735  0.1678  0.0107
 4867W        W 7017  12.953   0.859  15.723 -0.2658 -0.2703  0.0543
 4868W        W 7018   7.861   6.386  11.076 -0.2948  0.0711  0.2626
 4869W        W 7019   1.943   6.147  16.816 -0.2933  0.1722  0.0771
 4870W        W 7020   1.335   1.865  40.956  0.0311  0.0542  0.0268
 4871W        W 7021  16.164   0.397  11.837  0.1005  0.0514  0.2492
 4872W        W 7022   9.746   6.448   2.328 -0.4159  0.0891  0.0550
 4873W        W 7023  18.107   2.754  12.686  0.2869  0.2508 -0.0574
 4874W        W 7024  14.749   3.331  33.518  0.0683  0.0251 -0.0241
 4875W        W 7025  10.132   3.813   7.973  0.2626  0.0147 -0.4081
 4876W        W 7026   3.230   2.126  44.727 -0.0076  0.2291  0.1473
 4877W        W 7027  19.754   4.327  44.254  0.1024 -0.2285  0.0937
 4878W        W 7028  17.154   1.515  30.034 -0.1321  0.2262  0.2714
 4879W        W 7029   5.863   1.464  12.411 -0.1001  0.0301  0.1302
 4880W        W 7030  11.725   1.471   9.205  0.1997  0.2556  0.4140
 4881W        W 7031  10.895   2.258  26.906 -0.0904  0.1671 -0.1249
 4882W        W 7032  19.747   4.334  17.657 -0.2144  0.1016 -0.0719
 4883W        W 7033  17.981   0.721  13.677  0.0764 -0.0881 -0.0803
 4884W        W 7034  20.966   6.285  32.551  0.0695  0.1330  0.0259
 4885W        W 7035  12.037   6.014  32.000 -0.2725 -0.2096  0.0101
 4886W        W 7036   2.772   3.013   1.044  0.0664  0.0954 -0.3885
 4887W        W 7037  16.397   0.253   8.108  0.1501  0.3190  0.1893
 4888W        W 7038  16.171   3.455  21.016 -0.0993 -0.1256  0.2110
 4889W        W 7039   1.404   6.528  17.589 -0.1191 -0.0717 -0.0237
 4890W        W 7040   3.988   5.615  40.023 -0.1339  0.1936 -0.0437
 4891W        W 7041  18.143   1.581  41.105  0.3710 -0.2344 -0.0809
 4892W        W 7042  20.876   4.051   3.880  0.1157 -0.0067 -0.0799
 4893W        W 7043  13.864   5.785  34.779 -0.2629  0.0862 -0.1156
 4894W        W 7044  10.824   2.944  31.017  0.1900 -0.1316 -0.2813
 4895W        W 7045   8.441   6.125  10.471  0.0174  0.1574 -0.3484
 4896W        W 7046  15.985   4.185  31.226  0.0697 -0.0947  0.2110
 4897W        W 7047   9.454   0.047  28.675 -0.0595 -0.2691  0.2351
 4898W        W 7048  11.533   4.318  14.698 -0.1608  0.0070 -0.3064
 4899W        W 7049   1.427   5.489   0.998  0.1847  0.1066 -0.0343
 4900W        W 7050  11.533   6.502  30.864 -0.0037 -0.0551  0.0224
 4901W        W 7051   3.474   5.572  15.114  0.3788  0.0274 -0.0987
 4902W        W 7052  16.004   3.237   5.370 -0.2314 -0.0386 -0.0711
 4903W        W 7053   7.738   5.509  38.487 -0.1496  0.0830 -0.2076
 4904W        W 7054   4.632   3.275  42.080 -0.0884  0.3162  0.0371
 4905W        W 7055  17.805   0.846  11.869  0.1365  0.0507  0.2383
 4906W        W 7056  15.617   4.862  35.683 -0.4543  0.1354 -0.0868
 4907W        W 7057  12.250   4.243  37.172  0.1848  0.0028 -0.0661
 4908W        W 7058   2.413   0.454   4.793 -0.0064 -0.0085  0.1829
 4909W        W 7059   2.688   0.775  45.065 -0.1221  0.0813 -0.0538
 4910W        W 7060   4.565   4.079  44.705  0.0530 -0.3310 -0.2312
 4911W        W 7061  10.124   3.044  29.916  0.0729 -0.0528  0.3659
 4912W        W 7062   2.597   5.322  36.553  0.0610 -0.3792  0.0283
 4913W        W 7063   2.774   0.975  43.914  0.2864  0.2995 -0.0200
 4914W        W 7064  10.714   3.446   0.043  0.5176  0.1633 -0.0550
 4915W        W 7065   9.659   0.091  44.357  0.2959  0.2569 -0.0181
 4916W        W 7066   4.174   4.013   9.285  0.2174 -0.1844 -0.1805
 4917W        W 7067  14.681   1.529  10.703  0.1105  0.2961 -0.1342
 4918W        W 7068  20.846   3.472   7.572  0.1838 -0.0950  0.2282
 4919W        W 7069   5.579   5.153   0.757  0.1580  0.0061 -0.1265
 4920W        W 7070  19.244   5.517  18.981  0.2169 -0.1658  0.1474
 4921W        W 7071   2.610   6.481  33.957 -0.0248 -0.3837 -0.0499
 4922W        W 7072   6.343   3.978  16.566  0.0685 -0.0367  0.0303
 4923W        W 7073  16.879   0.382   8.276 -0.0444 -0.1324 -0.3247
 4924W        W 7074   2.831   0.279  12.622 -0.0660 -0.1688 -0.2107
 4925W        W 7075  19.324   6.436  17.371 -0.0177  0.2270  0.0111
 4926W        W 7076  10.371   3.142   4.561  0.0501 -0.1805  0.1321
 4927W        W 7077  10.427   5.729  16.869 -0.0932 -0.2670  0.0174
 4928W        W 7078   7.810   4.113   3.000 -0.2570 -0.0325  0.2173
 4929W        W 7079   9.622   2.183   3.428  0.0779  0.1049 -0.0732
 4930W        W 7080   7.086   2.380  44.966  0.0245  0.3101 -0.1412
 4931W        W 7081   1.361   5.008  16.270 -0.1990 -0.3083 -0.1826
 4932W        W 7082  20.452   3.574  28.704 -0.0417 -0.2462 -0.0004
 4933W        W 7083  18.178   3.151  10.089  0.0132  0.2473  0.1471
 4934W        W 7084  20.815   4.100  12.897  0.2740  0.0546  0.0201
 4935W        W 7085   1.115   6.404  32.631 -0.1937 -0.0942 -0.0165
 4936W        W 7086   7.670   2.525  41.912  0.0219  0.0837 -0.2891
 4937W        W 7087   7.071   0.687  14.206  0.2597  0.3279 -0.0300
 4938W        W 7088   9.702   2.348  27.294  0.1011  0.3598  0.0201
 4939W        W 7089  12.230   6.181  30.781  0.0945 -0.2385 -0.0835
 4940W        W 7090  15.688   5.692  22.889  0.2021 -0.0863 -0.3293
 4941W        W 7091  20.354   3.968  18.697  0.1702 -0.0587  0.2687
 4942W        W 7092  16.789   2.351  37.589  0.1758  0.0017 -0.1301
 4943W        W 7093   6.454   2.622   1.664  0.0528 -0.1472 -0.0548
 4944W        W 7094  19.556   1.594   9.930 -0.0396 -0.0843 -0.3376
 4945W        W 7095   4.510   2.827  36.204 -0.2620 -0.0137  0.3090
 4946W        W 7096   3.274   2.423   0.578  0.0647 -0.4647  0.0607
 4947W        W 7097  12.357   1.145  43.428  0.0015 -0.1915  0.2630
 4948W        W 7098  13.834   2.661   5.893 -0.0654  0.0376 -0.0907
 4949W        W 7099   1.927   6.213  11.732 -0.0937  0.0096 -0.3820
 4950W        W 7100  16.096   1.516  18.585 -0.2199 -0.1156 -0.1078
 4951W        W 7101  16.683   1.574   1.946 -0.2113  0.1965  0.0035
 4952W        W 7102  17.126   1.655  23.087  0.1101  0.1518  0.3252
 4953W        W 7103  20.683   2.163  13.433 -0.1774 -0.1433  0.0337
 4954W        W 7104   9.855   5.267  31.490  0.0247  0.3074 -0.2388
 4955W        W 7105  18.205   4.738  38.415 -0.2581  0.0988  0.1006
 4956W        W 7106  17.442   3.162  37.697  0.0457 -0.1016 -0.2414
 4957W        W 7107   0.290   2.093  34.147  0.0621  0.1803  0.2227
 4958W        W 7108   3.329   4.402  14.068  0.2681  0.1450  0.1947
 4959W        W 7109  13.546   4.231  13.199  0.0217  0.0623  0.3096
 4960W        W 7110  21.072   0.510   9.701 -0.0997 -0.0516 -0.3117
 4961W        W 7111  17.392   0.984  31.363 -0.1143  0.1911  0.0429
 4962W        W 7112   0.005   3.340  31.352  0.1855  0.1230 -0.2801
 4963W        W 7113   4.567   1.329  34.094 -0.1891 -0.0162 -0.1228
 4964W        W 7114   2.713   5.139  25.668 -0.0500  0.0744 -0.0439
 4965W        W 7115   4.670   5.387   8.960  0.1041 -0.2393  0.0151
 4966W        W 7116   0.305   3.730   7.918  0.0101 -0.4201 -0.0430
 4967W        W 7117  19.766   3.584   6.552 -0.0907 -0.0377  0.0861
 4968W        W 7118   6.156   4.241   6.323 -0.1316  0.1814  0.1204
 4969W        W 7119   0.624   1.003  30.623  0.1840 -0.1298 -0.0832
 4970W        W 7120   0.026   0.241  11.662 -0.0193 -0.0649  0.2940
 4971W        W 7121   6.543   1.509  32.435  0.2992  0.2026 -0.1140
 4972W        W 7122  14.313   4.601   7.629 -0.1443  0.1273  0.3350
 4973W        W 7123  10.653   4.351   2.150 -0.1932 -0.2362 -0.0583
 4974W        W 7124   6.117   2.933  14.094 -0.2170 -0.1281  0.2700
 4975W        W 7125   8.662   2.091   6.631  0.0884  0.1940 -0.2334
 4976W        W 7126   0.121   3.840  38.450 -0.1863 -0.2074  0.0519
 4977W        W 7127  12.535   2.847  29.447  0.0952 -0.0682  0.1520
 4978W        W 7128  12.528   3.092   5.951  0.0961  0.0148 -0.0876
 4979W        W 7129  16.474   2.251  42.548 -0.2108 -0.1718 -0.3937
 4980W        W 7130   7.173   3.711   9.332  0.0275 -0.0125 -0.0024
 4981W        W 7131  18.305   1.680  42.052  0.0792 -0.1557  0.2131
 4982W        W 7132  17.567   1.867  43.019  0.3689  0.4032 -0.1208
 4983W        W 7133  10.081   2.500  33.164  0.2962  0.1133  0.0431
 4984W        W 7134  12.115   5.722   8.334 -0.1169  0.0967  0.0707
 4985W        W 7135  20.448   2.251  20.558 -0.0182 -0.0084 -0.0150
 4986W        W 7136  18.753   2.795  42.153  0.0010 -0.2807  0.2890
 4987W        W 7137  17.533   2.751   1.689 -0.1277 -0.0259  0.0082
 4988W        W 7138   0.358   4.304   4.897  0.1749  0.1663 -0.0293
 4989W        W 7139  17.773   3.166   1.552 -0.2042 -0.0345  0.1198
 4990W        W 7140  14.311   3.339   9.700 -0.0894 -0.0455 -0.1280
 4991W        W 7141  12.487   4.247   4.734  0.2143  0.2131  0.1342
 4992W        W 7142   5.511   0.470  12.516  0.2514  0.0087 -0.1985
 4993W        W 7143  21.022   3.337   4.399 -0.1907  0.2255 -0.3412
 4994W        W 7144  12.534   4.266  39.092 -0.0697 -0.1092 -0.1951
 4995W        W 7145   2.130   0.414  15.812  0.3620 -0.1802  0.0485
 4996W        W 7146  10.438   5.242  17.092 -0.0676 -0.0379  0.1601
 4997W        W 7147   4.296   3.305  42.590 -0.1136  0.1593 -0.0493
 4998W        W 7148  19.294   0.722  12.523  0.1460 -0.0317 -0.2079
 4999W        W 7149  17.189   3.972  23.953 -0.2237 -0.3021  0.0544
 5000W        W 7150   1.244   5.475  30.581  0.3130 -0.1051 -0.1736
 5001W        W 7151   0.132   1.737   8.041 -0.3510 -0.1232  0.1097
 5002W        W 7152   5.246   1.395  32.360 -0.0470  0.2092 -0.2026
 5003W        W 7153  20.743   1.449  41.855  0.1208  0.1971 -0.0779
 5004W        W 7154  12.188   2.137  16.416  0.1775 -0.1017 -0.1576
 5005W        W 7155   3.789   2.892  39.159  0.0537  0.0496  0.3350
 5006W        W 7156  10.284   5.491  37.060  0.1227  0.2148 -0.0839
 5007W        W 7157  10.850   1.737  37.850  0.1084 -0.4700 -0.1676
 5008W        W 7158   9.867   6.503  28.942 -0.2333 -0.1057 -0.1503
 5009W        W 7159   6.280   1.106  23.447  0.0321  0.0859 -0.1418
 5010W        W 7160  11.358   0.558  13.175  0.0367  0.4188  0.1185
 5011W        W 7161   3.569   5.702  24.269 -0.3251  0.2854  0.0048
 5012W        W 7162   5.564   5.532  37.667  0.0049  0.0277  0.0040
 5013W        W 7163  20.995   0.113   5.139  0.1022  0.3342 -0.2777
 5014W        W 7164  17.280   3.859  12.474  0.0556  0.0417 -0.0496
 5015W        W 7165   2.345   0.675   8.943  0.0922 -0.0760  0.0899
 5016W        W 7166   6.787   0.781  37.518 -0.2348 -0.0460 -0.0831
 5017W        W 7167   7.044   0.193   6.995  0.0674 -0.2829 -0.1247
 5018W        W 7168   1.717   6.234  11.250  0.1640  0.0269  0.1321
 5019W        W 7169  17.950   0.180   0.677  0.0204 -0.1840  0.0405
 5020W        W 7170  16.835   0.764  41.548  0.2063 -0.3253 -0.0818
 5021W        W 7171  11.510   0.902  15.987 -0.0638 -0.2485  0.0758
 5022W        W 7172   5.781   2.984  14.488  0.2489 -0.0586  0.3507
 5023W        W 7173  16.565   1.394  38.466  0.0764  0.0582  0.0460
 5024W        W 7174  15.069   5.019  42.933 -0.1605  0.4351  0.3716
 5025W        W 7175  15.118   1.763   9.073 -0.1026 -0.3995 -0.2068
 5026W        W 7176  10.012   0.373  41.967 -0.1034  0.2629 -0.3193
 5027W        W 7177   0.347   0.702  34.791 -0.2854 -0.2475 -0.0983
 5028W        W 7178   4.354   1.145  25.336 -0.1422  0.1648  0.1795
 5029W        W 7179   6.672   2.078  31.222  0.1643 -0.0755 -0.0132
 5030W        W 7180   9.104   3.121   3.761 -0.0804 -0.1116  0.0980
 5031W        W 7181   0.143   0.452  40.105 -0.1469  0.0770  0.1183
 5032W        W 7182  10.293   5.654  32.394  0.0492 -0.0235  0.1072
 5033W        W 7183   4.518   1.210   8.773  0.1037 -0.4395 -0.1724
 5034W        W 7184  17.294   0.667  22.774  0.0794  0.3935 -0.0729
 5035W        W 7185   3.121   6.601  25.081 -0.1896  0.3740 -0.1250
 5036W        W 7186   8.101   4.146   5.781  0.3947 -0.3611  0.2990
 5037W        W 7187   0.261   1.347  41.508 -0.0220 -0.1210  0.0122
 5038W        W 7188  15.520   6.269  33.122  0.0119  0.3694  0.0181
 5039W        W 7189  18.044   5.789  14.729  0.0891  0.0031  0.2000
 5040W        W 7190  20.105   3.268  16.599 -0.0514 -0.1245  0.0784
 5041W        W 7191   9.272   3.600  16.802 -0.0482 -0.1513  0.1019
 5042W        W 7192   7.116   0.651  33.515 -0.3000 -0.1365 -0.0957
 5043W        W 7193   1.424   2.158   6.774 -0.3358 -0.0762  0.1930
 5044W        W 7194   8.121   6.436  35.446 -0.2224  0.0301 -0.2442
 5045W        W 7195  20.981   0.868  15.635  0.0618  0.0321  0.0344
 5046W        W 7196  11.015   0.255  43.853  0.0436 -0.1924  0.0492
 5047W        W 7197  15.687   0.882  42.947 -0.1460 -0.0445 -0.1880
 5048W        W 7198   0.365   1.537  16.642  0.1960  0.1194 -0.1038
 5049W        W 7199  11.344   3.081  13.887  0.0030 -0.1365 -0.0093
 5050W        W 7200  11.623   5.847  38.599  0.1000 -0.0224  0.4469
 5051W        W 7201  14.633   2.470  30.071  0.1519 -0.0005 -0.0538
 5052W        W 7202   8.394   3.071   4.407  0.1339 -0.0997 -0.1091
 5053W        W 7203   5.931   2.209  33.864 -0.0227  0.1638  0.0257
 5054W        W 7204  13.251   3.292  14.197  0.2270 -0.0931 -0.1882
 5055W        W 7205  13.468   4.525  40.463  0.0103  0.1011 -0.1919
 5056W        W 7206   3.990   6.594   5.975 -0.1302  0.2279  0.1916
 5057W        W 7207   9.054   4.485  13.333 -0.0290 -0.0158 -0.0866
 5058W        W 7208   7.581   5.546  40.808  0.1639  0.0300 -0.2204
 5059W        W 7209  15.312   2.764  19.555 -0.3470  0.1594 -0.1897
 5060W        W 7210  12.071   3.513  34.950 -0.0700  0.0253  0.0360
 5061W        W 7211  16.467   1.111  15.260 -0.2760  0.0547  0.2173
 5062W        W 7212   0.403   0.004  36.798  0.2098  0.1966 -0.0366
 5063W        W 7213   4.794   5.926  43.340 -0.0889 -0.1862  0.0959
 5064W        W 7214  14.097   4.851  37.565  0.4418  0.0314 -0.2014
 5065W        W 7215  15.743   1.323  21.485 -0.1224 -0.3389  0.1615
 5066W        W 7216  14.023   2.087  29.519  0.1307  0.1021  0.0297
 5067W        W 7217  10.360   3.854  34.825 -0.2490  0.3111 -0.3782
 5068W        W 7218   5.014   1.772  38.068  0.0454  0.0575  0.2908
 5069W        W 7219  12.415   0.865  38.780  0.0089 -0.1294  0.2309
 5070W        W 7220   7.931   3.985  32.963  0.1576  0.1358  0.1434
 5071W        W 7221   3.524   5.723  35.342  0.0073 -0.1811  0.0567
 5072W        W 7222  20.525   0.908   1.012  0.1265 -0.0207  0.1858
 5073W        W 7223   9.002   2.053   0.677 -0.0456 -0.0909 -0.1213
 5074W        W 7224  11.409   3.384  43.749 -0.0219  0.0723 -0.2325
 5075W        W 7225   4.299   2.757  38.731  0.1851  0.2446  0.1782
 5076W        W 7226   5.890   1.915  11.368  0.1611 -0.1590 -0.2514
 5077W        W 7227   5.487   1.946  43.726 -0.3418  0.0912  0.1877
 5078W        W 7228  18.471   6.453  41.424  0.2784 -0.1780 -0.0272
 5079W        W 7229   2.214   4.550  29.634  0.0362  0.0320 -0.1000
 5080W        W 7230  19.092   1.220  34.201  0.0799 -0.0455 -0.0282
 5081W        W 7231   0.842   5.573  32.010  0.2295 -0.0611  0.0711
 5082W        W 7232   4.818   4.363  25.520 -0.2042  0.3492 -0.0833
 5083W        W 7233  11.920   4.256  11.834 -0.1596  0.1362 -0.1301
 5084W        W 7234   9.609   1.803  30.831  0.0286 -0.2568  0.4687
 5085W        W 7235   0.983   4.946   0.007  0.4153 -0.0559  0.2634
 5086W        W 7236   2.734   1.764  12.671 -0.0388 -0.1935  0.1729
 5087W        W 7237   4.804   2.442  14.967  0.0720 -0.3120  0.2976
 5088W        W 7238   6.405   4.515   4.805  0.0091 -0.1196  0.1095
 5089W        W 7239  20.815   2.195  34.359 -0.2394  0.2581  0.1822
 5090W        W 7240   4.447   6.408   7.454 -0.2788  0.0705  0.2011
 5091W        W 7241   2.590   3.154  13.081 -0.0277 -0.3717 -0.5823
 5092W        W 7242  16.247   2.920  19.160 -0.3455  0.1924  0.3102
 5093W        W 7243  11.648   0.076  17.265 -0.1368  0.0285  0.2955
 5094W        W 7244  15.649   1.712  21.784  0.0992  0.2791 -0.2915
 5095W        W 7245  20.104   3.427  42.637 -0.0789  0.1779 -0.1845
 5096W        W 7246   4.802   1.304  13.969  0.0485  0.2618 -0.0328
 5097W        W 7247   5.394   2.224   0.684 -0.2184 -0.2628  0.0190
 5098W        W 7248  10.417   0.365  26.987  0.2696 -0.0795  0.0925
 5099W        W 7249   1.690   4.129  13.512  0.0875 -0.2892 -0.0226
 5100W        W 7250   9.331   2.822  16.691 -0.1790  0.0696  0.0883
 5101W        W 7251   2.404   3.853  41.267  0.3150 -0.3560 -0.2527
 5102W        W 7252  10.815   3.158   6.269  0.0447 -0.0636  0.0548
 5103W        W 7253  17.259   5.657  31.049 -0.1322  0.0776  0.0062
 5104W        W 7254  19.325   4.228  44.438  0.0027  0.1592  0.4204
 5105W        W 7255   4.173   5.032  33.271 -0.1530 -0.0015  0.0922
 5106W        W 7256   3.602   1.610  41.953 -0.0350  0.3925 -0.2983
 5107W        W 7257   9.164   3.498  13.166  0.2291 -0.1465  0.0502
 5108W        W 7258   9.148   5.986  27.278  0.1650 -0.0449  0.0643
 5109W        W 7259   7.762   5.163   6.583  0.0951  0.1540 -0.0049
 5110W        W 7260   4.349   1.723  23.619 -0.0838  0.0524 -0.2382
 5111W        W 7261  15.195   5.170  32.315 -0.0832  0.0972 -0.1604
 5112W        W 7262  16.873   1.366  23.381 -0.2729 -0.2062 -0.0423
 5113W        W 7263  19.661   0.894  36.142 -0.2606  0.0478 -0.0150
 5114W        W 7264  14.147   3.393  33.723  0.0130 -0.1006  0.0273
 5115W        W 7265  20.520   5.707  16.142  0.3562  0.0536  0.4488
 5116W        W 7266  15.332   2.835  11.353 -0.1834  0.0242  0.1231
 5117W        W 7267  19.535   5.925  33.540 -0.3501  0.0158 -0.2358
 5118W        W 7268   3.282   2.544  13.934 -0.0493 -0.0746  0.0263
 5119W        W 7269  10.498   2.986   7.089 -0.2749  0.0521 -0.0058
 5120W        W 7270  15.691   0.470  38.292 -0.1254 -0.2438  0.1462
 5121W        W 7271  17.767   3.486  15.937  0.0988 -0.2506 -0.6155
 5122W        W 7272  15.202   4.377   0.233 -0.2494 -0.0462  0.1103
 5123W        W 7273  14.912   4.801  43.350 -0.1294 -0.3769  0.0191
 5124W        W 7274  16.416   1.834  18.774 -0.3359  0.2261 -0.1823
 5125W        W 7275  12.532   3.745  17.096  0.3126 -0.2906 -0.1040
 5126W        W 7276   4.365   3.988  29.029 -0.0784 -0.0057  0.5991
 5127W        W 7277  11.076   1.239  15.978 -0.0499  0.0180 -0.0316
 5128W        W 7278   6.528   6.561   7.771  0.2104 -0.1547  0.3443
 5129W        W 7279   7.217   1.895  22.112 -0.0264 -0.1211  0.0322
 5130W        W 7280   8.152   3.160  27.505 -0.0423 -0.0695  0.0621
 5131W        W 7281  10.296   0.080  11.963  0.2139 -0.2773 -0.0977
 5132W        W 7282   6.469   0.995  32.268 -0.1599  0.0583  0.0059
 5133W        W 7283   9.432   5.501  14.479  0.1347  0.0608 -0.1518
 5134W        W 7284  20.763   2.865   6.964 -0.2763  0.1782  0.0106
 5135W        W 7285   3.093   0.813   5.219 -0.0346 -0.0119  0.2476
 5136W        W 7286   8.054   6.530   4.142 -0.0361  0.0553  0.0268
 5137W        W 7287  13.028   4.412  17.429  0.0390  0.0252  0.0597
 5138W        W 7288  10.279   1.691  32.703 -0.2140  0.0704 -0.2324
 5139W        W 7289   8.004   1.383  30.747  0.0782  0.0408  0.0590
 5140W        W 7290   0.138   4.365  40.545  0.0206  0.4570  0.2474
 5141W        W 7291   5.635   5.565  10.629 -0.1648  0.0625  0.1688
 5142W        W 7292   1.861   0.860  40.550 -0.0953 -0.1238 -0.0277
 5143W        W 7293   0.278   1.718  27.192  0.0020  0.0729  0.1423
 5144W        W 7294  12.538   3.409  44.949 -0.0446  0.3127 -0.0731
 5145W        W 7295  11.866   3.472  41.014 -0.2036 -0.0720 -0.1895
 5146W        W 7296  19.979   0.458   7.921 -0.1526 -0.1899  0.0508
 5147W        W 7297  11.397   6.541  12.665 -0.0654  0.1231  0.0061
 5148W        W 7298  12.253   3.818  17.459  0.1739 -0.0280  0.2892
 5149W        W 7299  17.282   6.341  24.749 -0.1811  0.1394 -0.0408
 5150W        W 7300   0.510   2.501   0.733  0.1326  0.3451 -0.2061
 5151W        W 7301   4.621   6.040  40.796  0.0774  0.0016 -0.1830
 5152W        W 7302  13.696   2.341   2.205  0.1979  0.2024 -0.1224
 5153W        W 7303  11.950   4.984  19.486  0.0116  0.1424 -0.0446
 5154W        W 7304   1.092   5.056  30.247 -0.2634  0.1137  0.0184
 5155W        W 7305  15.855   1.505  43.892  0.2339  0.0219  0.1417
 5156W        W 7306   8.606   4.492   7.446  0.2022 -0.1420  0.3281
 5157W        W 7307  19.174   6.196  20.689 -0.0873 -0.1401  0.1378
 5158W        W 7308  16.819   0.828   1.520 -0.1011 -0.2156  0.0292
 5159W        W 7309   6.327   0.353  40.120 -0.0930 -0.1208  0.0594
 5160W        W 7310   9.787   0.747  27.702  0.1648  0.0817  0.0757
 5161W        W 7311  12.050   0.259  34.984  0.3279 -0.0019 -0.0759
 5162W        W 7312  15.589   2.076  39.731  0.0266  0.0116 -0.2526
 5163W        W 7313   0.408   3.505   4.787 -0.1900  0.1304  0.1405
 5164W        W 7314   5.683   3.497  40.070  0.1883  0.1089 -0.0438
 5165W        W 7315   0.758   5.679  43.681  0.0463 -0.0735 -0.3218
 5166W        W 7316   5.766   3.597  28.975 -0.3182 -0.0119 -0.2771
 5167W        W 7317   2.132   4.523  10.964 -0.1456 -0.2058  0.0963
 5168W        W 7318   1.109   1.425   3.113  0.0319 -0.1284 -0.3380
 5169W        W 7319   3.304   1.118  27.335  0.2028 -0.0019 -0.1652
 5170W        W 7320   9.143   2.896  16.166  0.0628  0.1680 -0.0986
 5171W        W 7321  10.562   1.907  39.608 -0.2615  0.3938 -0.1210
 5172W        W 7322   7.010   2.774  29.349 -0.2158  0.1723 -0.0582
 5173W        W 7323  10.398   1.154  13.905  0.3104  0.0248 -0.1952
 5174W        W 7324  19.344   3.066   3.813 -0.0081  0.0408 -0.2014
 5175W        W 7325  19.000   2.334   4.261  0.0020  0.3559  0.1660
 5176W        W 7326  15.262   1.152  39.941  0.3570 -0.0126 -0.1464
 5177W        W 7327  19.392   2.360  19.125  0.2091  0.2742  0.1446
 5178W        W 7328  17.301   4.536  10.911  0.1748 -0.1566  0.1434
 5179W        W 7329  14.743   4.921  13.898  0.2174 -0.0969 -0.0738
 5180W        W 7330  14.659   4.886  31.483  0.3127  0.1368 -0.2020
 5181W        W 7331   8.179   3.382   1.593 -0.1622  0.0662  0.1275
 5182W        W 7332   3.117   4.377  30.043  0.0732  0.1294 -0.1820
 5183W        W 7333   7.951   3.178  42.539 -0.1859 -0.0273  0.2945
 5184W        W 7334   6.427   5.371  31.777  0.0221  0.1199  0.0624
 5185W        W 7335   4.338   6.329   8.950 -0.0836 -0.0555  0.0931
 5186W        W 7336  18.211   3.508  13.824  0.0453 -0.0276  0.0905
 5187W        W 7337  16.135   6.135  37.940  0.3591  0.1271  0.2923
 5188W        W 7338  18.286   5.564   6.919  0.0550 -0.2241 -0.1683
 5189W        W 7339  14.631   0.969   0.312 -0.0051  0.1825 -0.0278
 5190W        W 7340   3.437   2.973  25.865  0.3732 -0.0708  0.2295
 5191W        W 7341   9.752   1.552  12.945 -0.1106  0.1646 -0.0726
 5192W        W 7342  20.183   1.419  17.281 -0.1087 -0.0061  0.0597
 5193W        W 7343   8.369   4.567  40.673  0.0649 -0.1004 -0.0810
 5194W        W 7344  14.892   2.907  20.009  0.0615 -0.1777 -0.0626
 5195W        W 7345   9.956   6.532  41.025 -0.2953 -0.0323 -0.1685
 5196W        W 7346   4.922   6.430  22.553  0.1727  0.0755 -0.3330
 5197W        W 7347  14.964   5.138   2.811  0.1626  0.0491 -0.0984
 5198W        W 7348  18.346   4.287  34.212  0.3816 -0.2421 -0.3798
 5199W        W 7349  15.695   3.650   8.061  0.1019  0.0247 -0.0135
 5200W        W 7350  11.284   5.036   8.594 -0.2048  0.1835  0.1428
 5201W        W 7351  13.515   1.411   1.121 -0.0956  0.1921  0.0573
 5202W        W 7352   9.970   3.276   7.893 -0.0732  0.1657 -0.0150
 5203W        W 7353   7.012   4.607   2.617  0.0028  0.2496  0.0626
 5204W        W 7354   4.029   1.034  38.589 -0.0736  0.1011  0.2544
 5205W        W 7355  17.317   0.784  11.780  0.1908 -0.1543 -0.0646
 5206W        W 7356   0.037   2.669  42.493 -0.1472 -0.0742 -0.0077
 5207W        W 7357   8.484   1.023  40.517 -0.4130  0.4037  0.0360
 5208W        W 7358   0.671   4.856  34.350 -0.0325 -0.2222  0.2054
 5209W        W 7359  17.435   0.116  12.543 -0.1232  0.0136  0.1249
 5210W        W 7360   4.639   3.031  11.875 -0.0460 -0.2132  0.2462
 5211W        W 7361  14.956   0.394  30.712 -0.4364  0.1038  0.0585
 5212W        W 7362  18.231   2.557  33.455 -0.0038  0.0139 -0.0495
 5213W        W 7363   4.623   5.143   3.608 -0.1267 -0.1294  0.0550
 5214W        W 7364   1.915   1.996  39.763 -0.6084  0.2963 -0.0119
 5215W        W 7365   8.524   0.829  36.713  0.1659 -0.1757  0.1879
 5216W        W 7366  13.259   1.946  16.591 -0.1658  0.1292  0.3870
 5217W        W 7367  18.586   6.160  43.211  0.0126  0.1069  0.0109
 5218W        W 7368   7.813   2.043  17.387 -0.1247  0.0413  0.1207
 5219W        W 7369   0.143   0.641  43.328 -0.0315  0.2406 -0.0980
 5220W        W 7370  19.371   3.146  33.320  0.0286 -0.3083  0.2243
 5221W        W 7371  18.216   5.836  19.105 -0.2092  0.1749 -0.2050
 5222W        W 7372   0.542   0.149  11.842  0.1068  0.0991 -0.0465
 5223W        W 7373  18.033   5.353  17.823 -0.0802  0.1275 -0.2147
 5224W        W 7374   3.384   5.244   4.443 -0.0385 -0.1433 -0.1256
 5225W        W 7375  19.457   3.588   8.156 -0.2458 -0.0293  0.3148
 5226W        W 7376  13.884   4.619  16.101  0.1667 -0.2104 -0.2601
 5227W        W 7377  14.428   6.547   2.139 -0.2752  0.0608  0.0068
 5228W        W 7378   6.025   0.567  12.427  0.1037  0.0738  0.2262
 5229W        W 7379  11.341   1.565  33.744 -0.0253  0.1574  0.0830
 5230W        W 7380  15.799   5.510  18.649 -0.0020 -0.1389 -0.1776
 5231W        W 7381  17.091   2.277   4.090 -0.3855 -0.2291  0.2204
 5232W        W 7382  12.763   0.338  41.582 -0.1537  0.3314  0.1739
 5233W        W 7383   3.112   4.700   1.746 -0.0498 -0.0860 -0.1347
 5234W        W 7384   1.015   2.421  18.157 -0.1491 -0.1931  0.1304
 5235W        W 7385   5.672   2.440  36.193  0.2482  0.3197 -0.0332
 5236W        W 7386   8.197   3.567   9.654  0.2153  0.2696 -0.0730
 5237W        W 7387   8.328   1.438  11.228  0.0877  0.3035  0.0598
 5238W        W 7388  14.102   1.717  20.025 -0.0831 -0.1399 -0.1688
 5239W        W 7389  15.057   4.421  39.766 -0.3580  0.2880 -0.1004
 5240W        W 7390  13.017   0.282  40.669  0.1141  0.0286 -0.2340
 5241W        W 7391  18.631   3.887  30.612 -0.2211  0.0848  0.1070
 5242W        W 7392  20.225   6.394  41.460 -0.2014 -0.1538 -0.3928
 5243W        W 7393   6.562   2.836  31.873  0.2104 -0.2961  0.0880
 5244W        W 7394   9.147   0.824  24.814  0.0267 -0.1428  0.0028
 5245W        W 7395  16.979   0.967  16.554  0.1225 -0.0530  0.2939
 5246W        W 7396   7.173   0.766   8.972 -0.0399 -0.5016 -0.3285
 5247W        W 7397   4.971   3.170  38.274  0.0144 -0.1767  0.3368
 5248W        W 7398   2.062   1.416  39.735  0.2242 -0.1750 -0.0441
 5249W        W 7399  18.767   2.190  13.005 -0.5754 -0.0131 -0.2785
 5250W        W 7400   9.361   1.810   0.314  0.0162 -0.1257  0.0111
 5251W        W 7401  15.937   3.489  41.658  0.0214  0.2217  0.1062
 5252W        W 7402   4.921   5.001  23.398 -0.0299  0.0141 -0.0832
 5253W        W 7403  14.227   4.184   8.511  0.2785 -0.0730  0.0153
 5254W        W 7404   4.464   5.822  41.999  0.1019 -0.1129  0.2384
 5255W        W 7405   4.930   4.982  26.538 -0.2101  0.1733 -0.1874
 5256W        W 7406  14.406   3.351  31.767  0.2202  0.0673  0.0523
 5257W        W 7407  21.109   0.171  15.429  0.0939  0.1628  0.2718
 5258W        W 7408  16.283   4.886   1.198 -0.0441  0.1512 -0.2423
 5259W        W 7409  19.224   1.509  29.607 -0.0834  0.1278 -0.2074
 5260W        W 7410   1.101   3.958  41.839  0.0893 -0.2847  0.2508
 5261W        W 7411   5.108   5.124   9.197 -0.0772 -0.1695  0.3127
 5262W        W 7412   0.994   5.770   0.787 -0.1359 -0.2369  0.2450
 5263W        W 7413  11.599   5.773  37.744  0.0247 -0.2110 -0.2209
 5264W        W 7414  13.156   0.639  36.822  0.0592 -0.0945 -0.1671
 5265W        W 7415  15.767   3.088  38.587  0.1584  0.1923 -0.0536
 5266W        W 7416  10.569   3.747   6.721 -0.1662  0.2267  0.0069
 5267W        W 7417  14.599   5.005  38.341 -0.1938 -0.3156 -0.0938
 5268W        W 7418  10.690   4.158  35.487 -0.2484 -0.0726  0.1580
 5269W        W 7419  13.770   0.717  34.209  0.1307  0.5249 -0.1765
 5270W        W 7420  16.747   2.736  19.303 -0.0239  0.0992  0.0529
 5271W        W 7421  12.527   2.486  36.457 -0.1953 -0.1300  0.1354
 5272W        W 7422   9.241   4.287  27.106 -0.0741  0.1524 -0.1972
 5273W        W 7423  17.961   2.592  24.760  0.4326 -0.2766 -0.0077
 5274W        W 7424  12.174   6.278  43.821 -0.0259  0.2251 -0.2622
 5275W        W 7425  16.160   2.568  35.411  0.1184 -0.4503  0.0268
 5276W        W 7426  15.417   3.251  37.591  0.0996 -0.3359 -0.2600
 5277W        W 7427  16.059   3.190  20.560 -0.0327  0.2615  0.0850
 5278W        W 7428   0.351   1.754  16.055  0.2565  0.4647 -0.1484
 5279W        W 7429  15.126   1.465  10.931 -0.0490  0.1894  0.2819
 5280W        W 7430  20.779   5.468   5.752 -0.0109 -0.1634 -0.2171
 5281W        W 7431  18.405   3.343  33.699  0.0394  0.1050 -0.0335
 5282W        W 7432  19.195   5.516  36.205 -0.1215 -0.0657 -0.0951
 5283W        W 7433  15.935   1.949  37.446  0.3588  0.0970 -0.2653
 5284W        W 7434   9.613   5.231   8.109  0.1738  0.1698 -0.2611
 5285W        W 7435  11.987   4.898  43.172  0.0825 -0.1596 -0.0717
 5286W        W 7436  12.975   1.123  35.576 -0.0169 -0.0396  0.4359
 5287W        W 7437  11.979   0.739  12.995 -0.1861  0.2377  0.1438
 5288W        W 7438  11.025   5.039  17.513 -0.1213  0.0189 -0.4094
 5289W        W 7439   1.261   4.132  28.123 -0.1837  0.0842 -0.0047
 5290W        W 7440  15.958   3.024  22.944  0.2389  0.1200  0.3000
 5291W        W 7441  16.019   5.825  23.329  0.0610 -0.0260 -0.0207
 5292W        W 7442  11.862   2.781  18.800 -0.3228  0.0962 -0.0514
 5293W        W 7443   4.060   0.843   4.203 -0.2385 -0.0382  0.0280
 5294W        W 7444   7.439   0.191  29.509 -0.0213  0.1236  0.1232
 5295W        W 7445   4.884   1.912  44.333  0.1819 -0.0600 -0.0621
 5296W        W 7446   4.411   6.362  26.511 -0.0567  0.0689 -0.0926
 5297W        W 7447   4.437   4.596  31.026 -0.0109 -0.0661 -0.0678
 5298W        W 7448  14.490   3.686  42.744  0.4431 -0.0897  0.0318
 5299W        W 7449  18.477   4.280  21.935 -0.2627 -0.0115  0.2165
 5300W        W 7450  18.209   3.381  39.085 -0.3248  0.1798 -0.0892
 5301W        W 7451   7.412   0.585  15.457 -0.0947 -0.1360  0.1043
 5302W        W 7452   6.769   0.639  26.829  0.2788  0.0011 -0.0617
 5303W        W 7453   9.236   1.325  26.645 -0.0336 -0.2378  0.2637
 5304W        W 7454   5.550   5.892  21.469 -0.0597 -0.0133  0.1469
 5305W        W 7455  17.776   6.486  19.554 -0.1494  0.0805  0.0008
 5306W        W 7456  11.102   4.296   9.904  0.4429  0.0661 -0.1527
 5307W        W 7457  11.240   4.577  32.881 -0.0991  0.0401  0.1318
 5308W        W 7458  15.421   6.439  28.383  0.1473 -0.2441 -0.2917
 5309W        W 7459  20.361   2.358   6.521 -0.2093  0.2488  0.0571
 5310W        W 7460   9.441   5.087   0.205 -0.3617  0.2644 -0.1015
 5311W        W 7461  11.605   0.579   7.804  0.0399 -0.0547  0.2834
 5312W        W 7462   8.028   2.062  12.437 -0.0286  0.0128  0.0404
 5313W        W 7463   7.971   5.802  34.880 -0.0299  0.1505  0.2107
 5314W        W 7464   9.400   1.450  43.488  0.1887  0.2245 -0.0716
 5315W        W 7465   2.389   5.495   1.962 -0.0874 -0.0227 -0.1292
 5316W        W 7466  20.216   4.830  35.108  0.0048  0.0291  0.1148
 5317W        W 7467  17.502   5.088  35.207 -0.0235 -0.1607 -0.0321
 5318W        W 7468  20.590   5.880   0.310 -0.1584  0.0493 -0.0475
 5319W        W 7469   1.115   4.107  15.502  0.2865 -0.2403 -0.1328
 5320W        W 7470  20.220   4.214  11.016 -0.2412  0.1152 -0.1698
 5321W        W 7471   2.233   3.155  30.279 -0.3109  0.0515  0.2160
 5322W        W 7472  21.082   5.815  32.828  0.0767  0.2119 -0.0570
 5323W        W 7473  16.009   5.526  19.742 -0.0426  0.3860  0.0051
 5324W        W 7474  17.455   0.119   0.582  0.0688  0.2250  0.1941
 5325W        W 7475  20.664   1.314  43.365  0.0977  0.3258  0.1052
 5326W        W 7476   4.843   5.777  13.249 -0.4090  0.2620 -0.0506
 5327W        W 7477  20.222   1.183  37.647  0.1339  0.0373 -0.3458
 5328W        W 7478  10.319   2.821  29.548 -0.1106  0.0068  0.0346
 5329W        W 7479  17.434   3.942  40.785 -0.1631 -0.3807  0.1307
 5330W        W 7480  12.880   0.199  35.076  0.2218 -0.1890 -0.1504
 5331W        W 7481   6.980   4.768  29.448 -0.1035  0.0141  0.2072
 5332W        W 7482   6.580   2.684   0.191 -0.1356  0.0686 -0.0401
 5333W        W 7483  18.344   5.170  12.476  0.2791  0.2874  0.1242
 5334W        W 7484   9.278   3.427  30.084 -0.1402  0.0927 -0.0344
 5335W        W 7485  17.869   6.299  20.881 -0.1692 -0.2550 -0.1818
 5336W        W 7486  12.058   1.998  31.755  0.2515 -0.4487  0.1796
 5337W        W 7487   0.304   1.497  34.907 -0.0898  0.0556  0.0983
 5338W        W 7488  14.171   6.454  16.325 -0.2979  0.1283  0.0860
 5339W        W 7489   8.160   4.413  12.861  0.0965  0.0463 -0.0694
 5340W        W 7490  14.388   1.613  43.249 -0.1228 -0.0505  0.0390
 5341W        W 7491  13.133   5.104  38.541  0.0262 -0.2717  0.0544
 5342W        W 7492  19.341   6.115  29.235 -0.6412  0.2139 -0.1803
 5343W        W 7493   2.765   3.308  30.677  0.2516 -0.0227 -0.0455
 5344W        W 7494   2.891   0.901  30.989  0.3959 -0.0689 -0.3189
 5345W        W 7495  14.934   4.921  17.129  0.1222  0.1017  0.3273
 5346W        W 7496  12.326   5.217   3.169  0.1937  0.2798  0.2983
 5347W        W 7497   6.983   1.163   0.522  0.0689  0.0912 -0.3896
 5348W        W 7498   3.836   3.815  33.687 -0.0595  0.0639 -0.0385
 5349W        W 7499  17.548   1.988  32.237 -0.0663 -0.0701 -0.0093
 5350W        W 7500  19.488   0.328  43.679 -0.1558  0.0048  0.1856
 5351W        W 7501  19.494   6.090   2.540 -0.0533 -0.1466 -0.2133
 5352W        W 7502   8.858   5.194  34.368 -0.0358 -0.0789  0.2270
 5353W        W 7503   7.275   1.212  21.541  0.1629  0.1310 -0.0478
 5354W        W 7504  20.694   3.440  10.809 -0.1509  0.1040  0.2048
 5355W        W 7505  14.897   4.555   8.107  0.0747 -0.1287 -0.0913
 5356W        W 7506   7.822   3.224   9.145  0.1288  0.1906  0.2023
 5357W        W 7507   0.296   3.326  40.841 -0.0053  0.1553 -0.1034
 5358W        W 7508  16.361   4.064  41.107  0.1936 -0.0371  0.2154
 5359W        W 7509   8.833   2.812  32.049  0.1020 -0.0145  0.1819
 5360W        W 7510  15.374   6.331  11.515 -0.0965  0.0434 -0.0177
 5361W        W 7511   7.500   2.678  29.350  0.2339  0.0186  0.0764
 5362W        W 7512   1.441   6.078  11.676 -0.0085 -0.1569 -0.0482
 5363W        W 7513   4.145   4.538   2.455  0.0918 -0.1323 -0.0171
 5364W        W 7514   5.444   1.633   0.762 -0.1335 -0.3612 -0.1949
 5365W        W 7515  16.807   3.540  42.831  0.0357  0.0431 -0.2596
 5366W        W 7516   4.176   2.368   3.399 -0.0877 -0.1191 -0.1010
 5367W        W 7517   8.428   4.548  29.523 -0.0261 -0.0145 -0.2111
 5368W        W 7518  20.024   3.605  15.619  0.2905 -0.3578  0.1704
 5369W        W 7519  20.983   0.152   2.737 -0.2234  0.0909 -0.1379
 5370W        W 7520  15.246   6.172  12.674  0.0891  0.1280  0.0638
 5371W        W 7521  13.660   4.093  32.967  0.1245 -0.0795 -0.3201
 5372W        W 7522  15.549   5.078  44.202  0.3620  0.0280  0.0346
 5373W        W 7523   2.989   0.206  35.605 -0.0031  0.1171  0.1484
 5374W        W 7524   3.802   2.314  13.777  0.0343 -0.1043 -0.2712
 5375W        W 7525  15.634   0.982  13.315 -0.3078  0.1514  0.3012
 5376W        W 7526  13.641   2.720   0.110  0.2768  0.1955 -0.0732
 5377W        W 7527  10.788   0.850   0.039  0.1787  0.2460  0.0166
 5378W        W 7528   0.165   4.785  42.246 -0.3760  0.0959  0.1884
 5379W        W 7529   4.319   5.795  41.318  0.1991  0.1160  0.1206
 5380W        W 7530  17.689   4.939  23.881  0.0219 -0.0400  0.0825
 5381W        W 7531   7.983   3.886   1.312 -0.4235 -0.0067  0.1610
 5382W        W 7532  18.320   0.985  19.785  0.2061 -0.0695  0.2873
 5383W        W 7533  12.399   5.705  43.343 -0.0059 -0.0533  0.2762
 5384W        W 7534  19.844   0.136  39.905 -0.0308  0.3082 -0.3922
 5385W        W 7535  12.786   1.951  38.166  0.3789  0.0489  0.0212
 5386W        W 7536   3.583   3.303  15.484  0.0019  0.3101  0.1152
 5387W        W 7537  15.653   3.132  33.908 -0.3630  0.2671 -0.0459
 5388W        W 7538   9.776   1.265  30.387  0.0993  0.1892  0.2260
 5389W        W 7539  20.630   6.497  38.354  0.1269  0.0378 -0.0719
 5390W        W 7540   7.842   0.665  34.955  0.2872 -0.2770  0.2681
 5391W        W 7541  12.479   2.992   8.166 -0.0143  0.1696  0.2016
 5392W        W 7542  13.682   1.665   8.567 -0.3257  0.1823 -0.0799
 5393W        W 7543   3.183   2.106  27.319 -0.0539 -0.1285  0.0125
 5394W        W 7544  17.992   5.355   8.060 -0.3186 -0.0717 -0.2257
 5395W        W 7545  10.838   4.639  35.498 -0.0854 -0.1907  0.1980
 5396W        W 7546   6.231   5.318   0.462  0.0822 -0.4127 -0.0499
 5397W        W 7547  15.132   2.172   2.102 -0.3366  0.3758  0.1406
 5398W        W 7548   7.663   4.457  33.601 -0.1295  0.0838  0.0490
 5399W        W 7549  20.114   3.562  29.394  0.0323 -0.1443  0.0552
 5400W        W 7550  10.430   4.444  33.933  0.0902  0.0386  0.0293
 5401W        W 7551  14.281   1.077   3.978  0.0806  0.0232  0.0267
 5402W        W 7552   5.522   4.740  26.512 -0.0287  0.1453  0.1292
 5403W        W 7553   8.276   0.769  14.390  0.1437  0.0942 -0.0089
 5404W        W 7554  11.378   4.043  40.592 -0.0171  0.3025  0.2046
 5405W        W 7555  17.386   2.439  30.075  0.1052  0.1090  0.1172
 5406W        W 7556  20.828   4.953   4.950  0.4045  0.2005 -0.3132
 5407W        W 7557  11.053   4.171  16.760 -0.1399  0.0466  0.0842
 5408W        W 7558  12.130   3.433   9.602  0.0703 -0.1230 -0.0595
 5409W        W 7559  19.103   2.716   9.628 -0.0009  0.2993  0.1759
 5410W        W 7560   5.515   3.058  43.051 -0.2007 -0.2986  0.3158
 5411W        W 7561  13.506   1.406   9.476 -0.0747 -0.1121  0.1150
 5412W        W 7562   8.852   4.950  11.279  0.0313 -0.3166 -0.0349
 5413W        W 7563  11.859   2.553   7.527 -0.0960  0.2597  0.0291
 5414W        W 7564   6.180   5.844   7.184  0.0637  0.0368 -0.2669
 5415W        W 7565   0.244   6.424  29.882  0.1088  0.0659  0.2127
 5416W        W 7566   2.856   2.215  33.403  0.1195 -0.1283 -0.1002
 5417W        W 7567   1.458   1.456  10.651 -0.1731 -0.0488 -0.1677
 5418W        W 7568   0.956   5.549  40.425  0.2393  0.0011  0.1557
 5419W        W 7569   6.119   4.995   4.647 -0.4261 -0.1075 -0.0796
 5420W        W 7570   2.541   2.540   3.299 -0.4705 -0.0127  0.1536
 5421W        W 7571   1.820   2.533   7.367 -0.2353 -0.0898 -0.3347
 5422W        W 7572  13.999   6.432  36.207  0.4078  0.1330  0.3465
 5423W        W 7573  13.397   2.445  33.932  0.0318  0.1765  0.0493
 5424W        W 7574  14.344   6.124  30.555  0.1041 -0.1704  0.2510
 5425W        W 7575  11.375   4.256  13.395 -0.1980  0.1823 -0.0161
 5426W        W 7576  13.594   3.382  18.810 -0.0128  0.2606  0.0700
 5427W        W 7577   3.395   2.493  42.084  0.0256  0.2412 -0.1438
 5428W        W 7578  15.525   3.060   2.552  0.0075  0.1883  0.3351
 5429W        W 7579   5.775   0.539  26.216  0.3442  0.0044  0.1349
 5430W        W 7580   3.649   4.308  40.541  0.0581 -0.3729 -0.0595
 5431W        W 7581  12.127   0.187  42.318  0.3200 -0.0370  0.2784
 5432W        W 7582   2.400   5.481  40.741 -0.1535 -0.1699  0.1646
 5433W        W 7583  21.086   6.517  14.825 -0.0948  0.0598 -0.0952
 5434W        W 7584  17.990   3.401   0.293 -0.1994 -0.0913  0.2151
 5435W        W 7585  12.152   2.658   6.180  0.0738  0.2598  0.1305
 5436W        W 7586  14.072   0.732  41.381 -0.0775 -0.1403 -0.0433
 5437W        W 7587   7.895   2.593  12.528  0.0992  0.0898  0.1109
 5438W        W 7588   8.857   5.243  31.255 -0.1131 -0.1093  0.0089
 5439W        W 7589   7.720   2.394  21.604 -0.0474 -0.0755 -0.1593
 5440W        W 7590  15.196   5.610  16.429 -0.0879  0.0545 -0.1228
 5441W        W 7591  12.493   0.302  14.624  0.1319 -0.0576  0.0361
 5442W        W 7592   7.825   3.537  26.005  0.5218 -0.0870 -0.2658
 5443W        W 7593   8.798   5.688  34.774  0.3231 -0.1432 -0.0281
 5444W        W 7594  19.492   1.338  35.939  0.2196 -0.0270 -0.3700
 5445W        W 7595   5.345   0.024  24.813  0.3390  0.0304 -0.0629
 5446W        W 7596  15.364   1.389   9.438  0.1527  0.1742  0.0912
 5447W        W 7597  18.824   5.596  14.183  0.2277  0.0784  0.0085
 5448W        W 7598   1.085   4.827  13.424 -0.0647  0.1995  0.0387
 5449W        W 7599   5.984   0.649  29.309 -0.0644 -0.1503  0.3526
 5450W        W 7600   4.247   5.275  23.914 -0.0346 -0.0856  0.1000
 5451W        W 7601  17.988   5.270  40.052  0.0171 -0.2276  0.0039
 5452W        W 7602  13.692   0.370   6.994  0.0967 -0.1290  0.1141
 5453W        W 7603  19.997   1.752  42.888  0.0019 -0.0498  0.1941
 5454W        W 7604   8.690   1.958  38.948  0.3363  0.1491 -0.2780
 5455W        W 7605   4.503   4.693   1.697 -0.1125 -0.1192  0.0688
 5456W        W 7606   8.869   1.920  31.503  0.1067 -0.0603  0.2883
 5457W        W 7607  14.288   3.826   3.088 -0.1156  0.0104 -0.1774
 5458W        W 7608   5.796   1.147  11.934 -0.1184 -0.1550 -0.0402
 5459W        W 7609   4.094   3.272   9.576  0.0639 -0.0073  0.0967
 5460W        W 7610  13.759   4.308  12.578 -0.0415 -0.0835  0.0941
 5461W        W 7611   1.650   1.559   0.183  0.1011  0.4221  0.0318
 5462W        W 7612   2.156   2.971  26.305 -0.0775  0.1022 -0.2690
 5463W        W 7613  18.222   4.421  30.792  0.1209 -0.3013  0.0815
 5464W        W 7614   1.219   3.735   7.777  0.1148 -0.2472 -0.1649
 5465W        W 7615   8.094   0.998  11.422  0.0597  0.0663 -0.3128
 5466W        W 7616   6.786   1.649   2.956 -0.4181 -0.2883 -0.0269
 5467W        W 7617  17.319   0.223   7.931  0.2150 -0.4851 -0.5031
 5468W        W 7618   8.246   5.835  29.241  0.1643 -0.1633  0.1551
 5469W        W 7619  18.851   2.780  31.777 -0.0669  0.0325  0.0246
 5470W        W 7620   3.372   3.464  27.755  0.0455  0.0462  0.1236
 5471W        W 7621  12.227   4.779  30.892 -0.1908 -0.0958  0.0317
 5472W        W 7622   6.559   1.697  34.203  0.0003  0.1328  0.0969
 5473W        W 7623   8.011   3.003  28.375 -0.1231  0.2577 -0.2331
 5474W        W 7624   8.345   2.197   7.655 -0.0038 -0.1827 -0.0775
 5475W        W 7625   3.738   0.080  10.561  0.1120 -0.2805 -0.2615
 5476W        W 7626  19.195   6.349  42.106  0.2340  0.2040  0.1336
 5477W        W 7627   0.593   4.867  28.881  0.3429 -0.2513 -0.0677
 5478W        W 7628  16.422   0.303   5.975  0.3504 -0.2345  0.2029
 5479W        W 7629   1.520   1.532   2.260  0.2144  0.4584  0.1898
 5480W        W 7630   9.045   1.141   6.362 -0.0296  0.0882 -0.0483
 5481W        W 7631   7.692   3.786   0.085 -0.0899  0.2558  0.3580
 5482W        W 7632   9.302   2.479  43.361  0.0399 -0.2015  0.0317
 5483W        W 7633   8.117   1.226   2.950 -0.2047  0.1135 -0.3116
 5484W        W 7634  10.520   0.991  11.979  0.1159  0.1057 -0.0311
 5485W        W 7635  20.713   1.140  18.027 -0.0794  0.2707  0.1839
 5486W        W 7636  17.467   6.319  33.100  0.1336 -0.1592  0.3366
 5487W        W 7637   2.730   4.200  38.086 -0.3831 -0.2632  0.2311
 5488W        W 7638  13.573   5.768  19.682 -0.0674  0.1532 -0.0967
 5489W        W 7639   0.184   3.423  26.507  0.2567 -0.1125  0.0006
 5490W        W 7640  11.353   4.820  34.998 -0.0796 -0.0561 -0.0088
 5491W        W 7641   8.953   0.589   3.169 -0.1141  0.0642  0.0130
 5492W        W 7642  13.935   3.848   1.983 -0.0568  0.0392 -0.2708
 5493W        W 7643   2.149   1.405  15.188 -0.0005 -0.0470 -0.1634
 5494W        W 7644  15.528   2.343  34.575  0.0072  0.4768  0.1520
 5495W        W 7645   7.959   4.838  14.038  0.1060  0.2367  0.3170
 5496W        W 7646   2.470   0.136  44.269  0.0464 -0.1125 -0.1046
 5497W        W 7647   3.227   4.344   2.083 -0.0301 -0.0606 -0.1299
 5498W        W 7648  18.938   1.240  28.755  0.2586 -0.1119  0.0268
 5499W        W 7649  18.841   5.688  12.024  0.2120 -0.2510  0.0077
 5500W        W 7650  12.337   0.363   8.226 -0.0764 -0.2115 -0.2860
 5501W        W 7651  20.166   1.335  18.855 -0.0204 -0.2424  0.0049
 5502W        W 7652   2.853   0.347   1.037 -0.0513 -0.1658 -0.0798
 5503W        W 7653   9.656   2.238  36.601 -0.1274  0.0468 -0.1458
 5504W        W 7654   6.736   3.776  26.966  0.3442 -0.0444 -0.2522
 5505W        W 7655  17.571   5.778  38.906 -0.1614  0.0993 -0.0907
 5506W        W 7656   2.812   0.187  39.917  0.1235  0.0174  0.0634
 5507W        W 7657   4.173   4.004  25.762  0.2955 -0.1197  0.4102
 5508W        W 7658  18.045   3.471   7.796 -0.1601 -0.1493  0.3035
 5509W        W 7659   6.412   6.258  21.002 -0.0729 -0.0839  0.1547
 5510W        W 7660  17.183   4.359  22.277  0.0054  0.0344  0.2342
 5511W        W 7661   4.171   5.598  34.829  0.0907  0.1213  0.3045
 5512W        W 7662  16.268   1.550  26.063 -0.2758 -0.1106 -0.0931
 5513W        W 7663  16.815   0.776  12.987 -0.1535 -0.2572 -0.1160
 5514W        W 7664   9.308   3.730   4.355 -0.0908  0.0588  0.1838
 5515W        W 7665  20.663   0.621  31.988 -0.0456  0.0641 -0.2378
 5516W        W 7666  12.873   4.145  29.022 -0.0512 -0.0151 -0.2702
 5517W        W 7667  16.487   0.826  24.467  0.1283  0.1628  0.0802
 5518W        W 7668  13.305   4.640  42.013 -0.2464  0.0674  0.3099
 5519W        W 7669   9.851   3.590  37.787  0.0271 -0.0814 -0.0886
 5520W        W 7670   2.242   3.647  12.281  0.1549  0.1779  0.0929
 5521W        W 7671   1.533   6.318   0.444  0.0356  0.2114 -0.1001
 5522W        W 7672  19.924   6.479  34.874  0.1446  0.1505 -0.2923
 5523W        W 7673  15.782   4.330  11.681 -0.1121 -0.2778 -0.2711
 5524W        W 7674   3.520   2.692   7.402 -0.0979 -0.1429  0.1618
 5525W        W 7675   2.253   2.797  31.310  0.2111 -0.0594  0.2293
 5526W        W 7676  19.049   0.323  34.924 -0.0756 -0.2275 -0.0166
 5527W        W 7677  18.154   3.087  16.624 -0.1149 -0.1004  0.1127
 5528W        W 7678   9.118   0.263   0.067 -0.0480 -0.5114  0.3888
 5529W        W 7679   4.147   6.097   6.488  0.0309  0.4152  0.0193
 5530W        W 7680   2.963   6.554  25.522  0.1004  0.0092  0.1806
 5531W        W 7681   3.785   1.734  41.527 -0.2521  0.0054 -0.0361
 5532W        W 7682   9.548   6.110  38.763 -0.2232  0.2943 -0.1009
 5533W        W 7683  14.798   3.610  14.648  0.0424 -0.0816 -0.3482
 5534W        W 7684  20.226   1.853  34.249 -0.4199  0.0579  0.0964
 5535W        W 7685  10.678   6.196  37.769  0.1475 -0.0956 -0.0738
 5536W        W 7686  10.078   5.158  16.071  0.0623 -0.1716  0.2231
 5537W        W 7687   4.026   2.475  42.539  0.0948 -0.0038 -0.1398
 5538W        W 7688  11.115   0.745  26.390  0.3683 -0.0225  0.0515
 5539W        W 7689  20.581   3.242   4.727  0.2260 -0.0106  0.0060
 5540W        W 7690   7.099   3.554  31.588 -0.4834 -0.1392 -0.1751
 5541W        W 7691  11.872   3.320  32.963 -0.1280 -0.1961 -0.1522
 5542W        W 7692  17.924   5.813   7.878 -0.1918  0.1335  0.3959
 5543W        W 7693   5.382   3.104   7.391 -0.1502  0.4220  0.1508
 5544W        W 7694  13.253   0.926  45.039 -0.1259  0.0028 -0.1875
 5545W        W 7695  13.929   1.352  19.728 -0.0155  0.2832  0.0999
 5546W        W 7696  20.825   2.907  30.280 -0.0308  0.1515  0.0764
 5547W        W 7697  13.698   6.320   2.590 -0.1661 -0.1107  0.0728
 5548W        W 7698   5.194   5.524  15.070  0.1327  0.1169 -0.0412
 5549W        W 7699  20.675   3.552   6.461 -0.0535 -0.0178  0.0578
 5550W        W 7700   9.404   5.425   4.446  0.2460  0.1096  0.1810
 5551W        W 7701   2.029   5.987  39.135 -0.0548  0.1867  0.1939
 5552W        W 7702  13.810   4.356   5.662  0.0504 -0.0145  0.0645
 5553W        W 7703   0.409   0.560  35.395 -0.0869 -0.2466 -0.0155
 5554W        W 7704   7.316   1.563   0.521 -0.0565 -0.1378 -0.0256
 5555W        W 7705  15.603   3.294  32.009  0.2910  0.4456 -0.0284
 5556W        W 7706  11.384   3.268  15.341 -0.0842 -0.2433  0.1517
 5557W        W 7707  16.594   2.609  42.957  0.1371  0.3313 -0.2669
 5558W        W 7708  16.540   1.237   1.597  0.1185  0.0402 -0.2127
 5559W        W 7709   5.178   1.576  14.373  0.0478  0.3536  0.1783
 5560W        W 7710   3.310   3.741  33.901 -0.0422  0.0754  0.0674
 5561W        W 7711   4.169   6.604  33.837 -0.1128 -0.0280  0.1289
 5562W        W 7712  15.910   5.649  25.228  0.0588 -0.0460  0.1601
 5563W        W 7713   1.591   5.777   7.110  0.2204  0.0163  0.1671
 5564W        W 7714   2.179   1.418   9.613 -0.3014 -0.2536  0.1289
 5565W        W 7715  19.490   2.364   9.535 -0.1447  0.2751  0.3280
 5566W        W 7716  17.081   6.562  12.939 -0.0030 -0.1947 -0.0003
 5567W        W 7717   2.554   2.066  36.560  0.0738  0.0476 -0.0741
 5568W        W 7718  15.025   1.715  19.830  0.0550 -0.1090  0.0993
 5569W        W 7719  14.094   0.483  40.869  0.1823  0.1681 -0.2689
 5570W        W 7720   6.599   0.641   9.882  0.3906  0.0201  0.1539
 5571W        W 7721  17.766   3.616  11.325  0.0059 -0.3576 -0.0258
 5572W        W 7722   7.062   2.042   8.718 -0.0970  0.0472  0.1645
 5573W        W 7723  15.305   5.702  42.886 -0.1434 -0.0664  0.2866
 5574W        W 7724   5.400   0.137  30.427 -0.1836  0.1464 -0.2655
 5575W        W 7725  13.462   5.750  42.686  0.0636  0.1238 -0.1922
 5576W        W 7726  11.759   4.409  32.570 -0.0370 -0.0309  0.1255
 5577W        W 7727  10.886   1.870  44.629 -0.2564  0.0067  0.0725
 5578W        W 7728  15.370   3.323  43.097  0.1661 -0.1123  0.1065
 5579W        W 7729   9.968   4.583  35.143 -0.0554  0.0610  0.1576
 5580W        W 7730   2.205   3.378   1.035 -0.1359  0.1527 -0.2996
 5581W        W 7731  12.267   3.158  15.936  0.0786  0.1444 -0.2553
 5582W        W 7732   6.891   1.541  27.908  0.1937 -0.2782  0.1337
 5583W        W 7733   3.850   4.394  32.686 -0.0899 -0.0970  0.1750
 5584W        W 7734  19.801   3.705  42.166 -0.1263  0.0314  0.2658
 5585W        W 7735   3.586   5.228  12.273 -0.3353  0.2673  0.3029
 5586W        W 7736  10.764   2.741  28.662  0.3480  0.1772 -0.3619
 5587W        W 7737  20.195   2.578  32.156 -0.1447  0.0917  0.0070
 5588W        W 7738  16.385   6.432  14.665  0.0261 -0.0888  0.2088
 5589W        W 7739  12.753   4.019  30.872  0.3006  0.1572  0.0178
 5590W        W 7740   4.748   2.929   2.283  0.1442 -0.2433  0.3514
 5591W        W 7741  13.491   0.576  35.514 -0.0125 -0.2956 -0.0526
 5592W        W 7742   5.235   5.013   2.688  0.2195 -0.0428  0.2876
 5593W        W 7743   6.775   6.155  39.095  0.1371 -0.1088 -0.0639
 5594W        W 7744  21.004   2.265  39.661 -0.0203 -0.1332  0.1560
 5595W        W 7745  17.100   5.463  36.400  0.0980  0.3313  0.3070
 5596W        W 7746   3.327   5.822   5.103 -0.1954  0.2257 -0.0666
 5597W        W 7747  20.064   3.982   6.407  0.0879  0.0620  0.3215
 5598W        W 7748  18.857   6.397  36.837  0.1786 -0.0625 -0.1311
 5599W        W 7749   0.304   2.003  31.981 -0.3446  0.1357  0.1796
 5600W        W 7750  19.794   0.933  12.421  0.0353  0.3842  0.1202
 5601W        W 7751  12.325   5.572  44.225  0.2312  0.1191  0.0192
 5602W        W 7752  12.239   2.793  14.393 -0.2106  0.2639 -0.0587
 5603W        W 7753  12.308   2.507  16.011 -0.4444 -0.0238 -0.0025
 5604W        W 7754  15.857   0.127  42.299 -0.2177  0.0505  0.0237
 5605W        W 7755   8.713   5.835   5.201  0.1577  0.0354 -0.0162
 5606W        W 7756   3.756   3.878  39.556 -0.0580  0.1139 -0.3737
 5607W        W 7757  16.589   0.906  19.983 -0.0833  0.0636  0.0730
 5608W        W 7758  16.584   6.533  13.826 -0.1074  0.2517 -0.1324
 5609W        W 7759  15.871   6.110   4.830  0.0207 -0.3179  0.0795
 5610W        W 7760   5.634   3.706  26.821  0.1672  0.2523  0.1836
 5611W        W 7761   6.142   5.010  24.361  0.0441  0.0938  0.1251
 5612W        W 7762  18.963   3.436   8.147 -0.0901 -0.1078 -0.0513
 5613W        W 7763   6.472   1.764  24.410 -0.2547  0.0468  0.4411
 5614W        W 7764   5.274   5.806  43.114 -0.1022 -0.1596  0.0248
 5615W        W 7765  18.669   2.425  43.394  0.1602  0.0903  0.0113
 5616W        W 7766   2.868   2.000  39.998 -0.0588  0.1840  0.1179
 5617W        W 7767   9.550   6.489  42.981 -0.0793  0.1167 -0.1226
 5618W        W 7768   1.132   0.877  43.431  0.0823  0.4969 -0.0665
 5619W        W 7769  15.979   4.377  10.892 -0.2456  0.0483  0.1579
 5620W        W 7770   1.791   4.775  25.381 -0.0233  0.0190 -0.1208
 5621W        W 7771   6.371   1.754  31.669  0.3534  0.2515 -0.0325
 5622W        W 7772   9.441   1.028   6.652 -0.1907  0.0894  0.1983
 5623W        W 7773  10.527   3.155   1.586  0.2221 -0.0059  0.1192
 5624W        W 7774  16.369   3.360  22.897  0.0166 -0.3753 -0.2415
 5625W        W 7775   2.202   6.513   8.932  0.2699  0.1164  0.3625
 5626W        W 7776  13.661   2.735  28.129  0.2229 -0.1401 -0.0365
 5627W        W 7777  19.919   2.016  36.883  0.0282 -0.2172  0.0272
 5628W        W 7778   0.316   3.413  44.480  0.2183 -0.0134  0.0855
 5629W        W 7779   3.875   3.112  34.939  0.0974  0.1101  0.1938
 5630W        W 7780  10.826   1.616   5.552 -0.0826 -0.4802 -0.0611
 5631W        W 7781  18.646   1.012  40.511 -0.0364 -0.1220 -0.0201
 5632W        W 7782   7.171   6.241  44.211 -0.1632 -0.1399 -0.0300
 5633W        W 7783   9.360   6.519   1.545 -0.0501 -0.0425  0.2175
 5634W        W 7784  16.931   2.882  21.865  0.0779 -0.2567 -0.2476
 5635W        W 7785  13.031   5.831   9.984  0.0458 -0.1885  0.0695
 5636W        W 7786  20.329   0.713  17.515 -0.1270 -0.1261 -0.1837
 5637W        W 7787   7.533   1.443   6.631 -0.2876 -0.1047  0.3291
 5638W        W 7788  18.494   4.759  33.046  0.1242  0.0255 -0.1679
 5639W        W 7789  18.256   4.456  18.517  0.1181 -0.0984 -0.3171
 5640W        W 7790   9.803   1.555  35.036  0.1956  0.2529  0.0781
 5641W        W 7791  14.114   0.565  18.929 -0.0811  0.0899  0.0642
 5642W        W 7792  14.675   6.426  39.617 -0.0129 -0.0466 -0.0470
 5643W        W 7793  17.774   0.459  18.634 -0.0919 -0.0236  0.2064
 5644W        W 7794   7.349   0.482  28.022  0.0293  0.2905  0.1963
 5645W        W 7795   9.430   4.680  10.848  0.3014 -0.2813 -0.1604
 5646W        W 7796   8.613   0.665   2.794 -0.0510 -0.1456 -0.1511
 5647W        W 7797   2.340   0.629  15.397 -0.1168  0.1233 -0.0308
 5648W        W 7798   2.051   4.707  14.397 -0.0217 -0.0851 -0.0131
 5649W        W 7799  19.853   5.074  33.502  0.4329 -0.0122 -0.0275
 5650W        W 7800  14.547   2.751  43.347 -0.0804 -0.0244 -0.0683
 5651W        W 7801   8.381   0.208  30.627 -0.1299 -0.2791  0.1929
 5652W        W 7802  14.177   1.728  10.722  0.1496 -0.0125 -0.1630
 5653W        W 7803   6.549   4.903  14.063  0.1506 -0.2075 -0.1075
 5654W        W 7804  16.287   3.412  23.688 -0.3099  0.2910  0.2228
 5655W        W 7805  19.486   0.381   2.055 -0.0069 -0.0554 -0.1092
 5656W        W 7806  14.803   5.484  29.439  0.0656 -0.0356  0.1144
 5657W        W 7807  12.957   4.402  39.676 -0.1526 -0.1101 -0.0856
 5658W        W 7808  17.321   3.152  37.160  0.2981 -0.0603  0.2420
 5659W        W 7809  14.000   2.000  38.296 -0.0617  0.4819 -0.0540
 5660W        W 7810  13.137   3.164  38.832 -0.0155  0.0876 -0.2390
 5661W        W 7811  15.974   2.268  33.849  0.2971  0.3139  0.3182
 5662W        W 7812   6.208   4.895   7.113  0.1432  0.1761  0.1014
 5663W        W 7813   8.464   6.563   7.704 -0.0260  0.5171 -0.1388
 5664W        W 7814   1.782   5.871  10.610  0.2477  0.1390 -0.3433
 5665W        W 7815   2.932   3.153  32.397  0.0861 -0.1179 -0.1447
 5666W        W 7816   9.122   4.933  43.206  0.1748  0.1955  0.2668
 5667W        W 7817  16.309   0.842  32.566  0.0679  0.1618  0.2427
 5668W        W 7818  16.336   0.632  17.207  0.1119  0.0252 -0.0059
 5669W        W 7819   0.391   3.315  43.086 -0.0209  0.0758 -0.1145
 5670W        W 7820   7.311   3.334   0.151 -0.0784 -0.0709  0.0031
 5671W        W 7821   9.026   3.138  25.272  0.0878  0.0604 -0.1636
 5672W        W 7822   8.228   1.775   3.561 -0.0956 -0.2058 -0.0606
 5673W        W 7823   7.483   2.939  16.827  0.0878 -0.2057 -0.1657
 5674W        W 7824  16.502   4.748  13.875 -0.2198  0.0956  0.0012
 5675W        W 7825   0.205   1.131  28.636  0.1499  0.0635  0.2374
 5676W        W 7826   9.476   3.029  11.100 -0.0073  0.1751 -0.0091
 5677W        W 7827  14.794   4.950  39.280 -0.1942  0.1736 -0.3375
 5678W        W 7828  10.845   0.877  11.584 -0.0669  0.3846 -0.0674
 5679W        W 7829   6.481   2.177  34.074  0.0132  0.1243 -0.0487
 5680W        W 7830  12.218   0.698   8.542  0.1575 -0.0080 -0.1951
 5681W        W 7831   8.979   4.409  32.658  0.1327  0.0707  0.1544
 5682W        W 7832   0.920   5.817  16.481 -0.0189 -0.0203  0.4284
 5683W        W 7833   9.478   1.341  37.757 -0.0740  0.1112 -0.1281
 5684W        W 7834   6.641   0.146  33.895 -0.2925 -0.1537  0.1833
 5685W        W 7835   8.222   1.399  36.046 -0.0109 -0.1598  0.0642
 5686W        W 7836  20.326   3.448  40.014 -0.0271  0.1848 -0.0050
 5687W        W 7837   5.549   4.089   8.494 -0.2054  0.1307  0.0729
 5688W        W 7838   8.405   1.621  12.311 -0.0988 -0.1211 -0.1839
 5689W        W 7839  13.064   6.447  30.754 -0.0256 -0.0242 -0.3929
 5690W        W 7840   8.609   1.232  30.830 -0.2751 -0.0273 -0.1668
 5691W        W 7841   6.321   5.778   0.682  0.0029 -0.2597  0.2571
 5692W        W 7842   3.747   2.891  32.866 -0.0265 -0.0235 -0.2417
 5693W        W 7843   0.932   3.545  43.810  0.0183  0.0516  0.1221
 5694W        W 7844   6.954   6.601  27.518 -0.0242  0.0236  0.1143
 5695W        W 7845   8.584   3.047   3.874 -0.0003 -0.0288  0.3584
 5696W        W 7846  10.462   6.194  15.008  0.2437  0.0715  0.1177
 5697W        W 7847  14.935   6.152   7.829  0.1134 -0.0534 -0.0146
 5698W        W 7848  17.796   1.604  44.680 -0.0855 -0.0441 -0.0999
 5699W        W 7849  14.706   6.587  38.516  0.0614 -0.0336  0.0176
 5700W        W 7850  18.203   1.508   2.180  0.0498  0.0976 -0.0614
 5701W        W 7851   9.749   1.785  42.621  0.0803 -0.3130 -0.1719
 5702W        W 7852  17.410   2.810  29.667 -0.2729  0.0587  0.2409
 5703W        W 7853  14.228   6.463  43.197  0.2216 -0.2941  0.1691
 5704W        W 7854   0.358   1.773   3.351 -0.0930 -0.0862  0.2629
 5705W        W 7855  18.795   2.385  20.763 -0.3186 -0.3434 -0.0350
 5706W        W 7856  10.357   4.916  10.608 -0.0781  0.0009  0.0037
 5707W        W 7857  15.525   2.656   8.322 -0.1711  0.0725  0.0100
 5708W        W 7858  13.380   4.905  22.151 -0.1365 -0.2689  0.0786
 5709W        W 7859   7.568   3.560  41.430 -0.1160 -0.1056  0.1194
 5710W        W 7860  15.099   2.342  11.670  0.0820 -0.0400 -0.0106
 5711W        W 7861   2.465   1.701  13.112  0.0596  0.1094  0.1440
 5712W        W 7862  11.131   4.759  18.938 -0.0843  0.0711 -0.0001
 5713W        W 7863  16.143   5.948  20.005  0.0537 -0.0549 -0.1417
 5714W        W 7864  10.191   1.298  40.886  0.0201  0.0605  0.4418
 5715W        W 7865  13.780   6.595  32.405 -0.1004 -0.2213 -0.1766
 5716W        W 7866   2.781   4.435  30.460 -0.2542 -0.1727 -0.1477
 5717W        W 7867   1.876   0.215  29.149  0.1301 -0.3295 -0.1352
 5718W        W 7868   3.440   0.532  26.147  0.3886  0.3592 -0.0519
 5719W        W 7869  15.147   0.174  32.049  0.0272  0.0716  0.1454
 5720W        W 7870   7.827   1.526  29.756  0.2123  0.0564 -0.0671
 5721W        W 7871  11.235   1.042   8.987  0.0460  0.2384  0.0622
 5722W        W 7872   6.825   1.703  41.285  0.1278 -0.1466  0.3443
 5723W        W 7873  18.359   5.054  20.413  0.0981  0.1206  0.1215
 5724W        W 7874  16.947   2.693  34.815  0.0337 -0.2284  0.2932
 5725W        W 7875   1.743   5.707  11.493  0.1511  0.0853  0.2741
 5726W        W 7876  18.389   3.986  10.382 -0.0949  0.1222 -0.0773
 5727W        W 7877  12.510   5.256  14.893 -0.0546 -0.0423 -0.0864
 5728W        W 7878  16.616   1.652   9.695  0.0615 -0.2216 -0.0194
 5729W        W 7879  15.016   2.105  38.319 -0.1135  0.0623 -0.1058
 5730W        W 7880  11.777   3.451  44.476  0.1197 -0.0747  0.1855
 5731W        W 7881  11.105   1.712  10.255  0.2954  0.1613 -0.1594
 5732W        W 7882   1.823   3.601  31.008 -0.2282 -0.1013 -0.1324
 5733W        W 7883  10.945   2.840  16.604  0.0478 -0.2647 -0.1935
 5734W        W 7884   6.392   0.669  15.915  0.1032  0.0503 -0.2904
 5735W        W 7885  20.300   0.152  15.933 -0.0735  0.1020  0.0394
 5736W        W 7886  16.294   3.070   7.866 -0.0699  0.0186 -0.0769
 5737W        W 7887  15.841   0.375  36.142 -0.1354  0.2798 -0.1998
 5738W        W 7888  15.172   6.115  40.315  0.1437  0.0384 -0.0997
 5739W        W 7889   7.173   0.242  13.380  0.1343  0.0944  0.0947
 5740W        W 7890  16.251   3.732  12.065 -0.1874 -0.1062  0.0905
 5741W        W 7891  12.896   2.944  33.395  0.2065 -0.1931  0.3819
 5742W        W 7892   3.902   4.545  31.020 -0.1273  0.2335 -0.1129
 5743W        W 7893  12.196   5.293  11.048  0.1613  0.0471  0.2210
 5744W        W 7894  20.878   0.593  13.201  0.1172  0.4106 -0.1800
 5745W        W 7895   2.482   2.097  14.679 -0.0284  0.2182 -0.0392
 5746W        W 7896  16.643   4.254   2.328 -0.1531  0.1320  0.3501
 5747W        W 7897   8.474   4.892  34.177 -0.2120 -0.0939 -0.0028
 5748W        W 7898   4.813   4.383  24.718 -0.2249 -0.3799  0.4593
 5749W        W 7899   0.587   2.288  11.711  0.0993  0.1543  0.1378
 5750W        W 7900  14.842   0.842  36.610  0.1311 -0.2661 -0.0192
 5751W        W 7901  15.987   2.377  30.333 -0.0795 -0.2054  0.2392
 5752W        W 7902  18.720   4.814   4.883 -0.0451  0.2157  0.3512
 5753W        W 7903   3.500   0.127  14.698  0.0333  0.0497  0.1197
 5754W        W 7904  13.214   3.148  20.797 -0.2973  0.1434  0.0634
 5755W        W 7905   5.636   1.450  37.930 -0.2295  0.0712  0.2375
 5756W        W 7906   6.219   2.929  23.904  0.2811 -0.1134  0.0560
 5757W        W 7907  10.492   6.308  33.911  0.0012  0.1551  0.0261
 5758W        W 7908  17.777   1.640  13.105  0.1279 -0.0606  0.1830
 5759W        W 7909  16.267   5.099  35.083 -0.1019 -0.1095 -0.2352
 5760W        W 7910  13.654   0.921  28.232  0.0980 -0.1868  0.2450
 5761W        W 7911  17.353   6.507   4.511  0.0103 -0.0547  0.1132
 5762W        W 7912  15.691   2.674  16.707  0.0129 -0.0235 -0.1003
 5763W        W 7913  13.237   2.167  41.760 -0.0969 -0.1770  0.1916
 5764W        W 7914   2.727   3.584  44.480  0.2438 -0.1444 -0.2206
 5765W        W 7915   8.509   2.636  40.766  0.0949  0.0159 -0.3266
 5766W        W 7916   9.731   4.376  11.125  0.1966  0.2905  0.0221
 5767W        W 7917  13.214   1.778  40.034 -0.2020 -0.1169  0.3544
 5768W        W 7918  16.197   4.289   3.268  0.1007 -0.2423  0.0903
 5769W        W 7919   1.457   0.812  33.567 -0.1325 -0.0823 -0.2577
 5770W        W 7920  18.882   5.047  35.314 -0.1543 -0.0858 -0.3194
 5771W        W 7921  21.099   4.465  14.713  0.0772  0.0233 -0.2861
 5772W        W 7922  12.844   3.840  30.450 -0.0878 -0.1680 -0.1605
 5773W        W 7923  10.135   5.853  12.441  0.0003 -0.2549  0.0552
 5774W        W 7924  13.566   2.398   7.204 -0.0099  0.1372  0.0052
 5775W        W 7925  15.773   0.883   8.883  0.3147 -0.0505 -0.0244
 5776W        W 7926  16.827   1.975  20.282  0.1231 -0.1858  0.4934
 5777W        W 7927  11.764   0.281  41.798  0.0321 -0.2639  0.0725
 5778W        W 7928   3.174   3.838  12.598 -0.1398  0.1188 -0.1034
 5779W        W 7929   4.228   6.134  27.337 -0.1482  0.0084  0.0368
 5780W        W 7930   6.040   0.595  14.378  0.0551 -0.0155  0.1085
 5781W        W 7931   2.448   4.877  44.804 -0.2384  0.1498  0.2938
 5782W        W 7932   7.654   1.304  35.784  0.2126 -0.0921 -0.2536
 5783W        W 7933   1.924   3.454  41.457  0.1832  0.0894  0.1817
 5784W        W 7934   7.703   2.162  31.025 -0.1460  0.2881 -0.2790
 5785W        W 7935  11.888   0.948  42.380 -0.0364 -0.2025 -0.2479
 5786W        W 7936   6.258   3.336  12.887 -0.1650 -0.0684  0.0388
 5787W        W 7937  18.657   3.658  31.118 -0.0181 -0.1467  0.1632
 5788W        W 7938  18.839   2.975   3.343 -0.1162  0.0217 -0.0306
 5789W        W 7939   2.172   3.341   7.047  0.2705  0.2479 -0.2847
 5790W        W 7940  17.247   0.037  38.977 -0.0551  0.3998 -0.0690
 5791W        W 7941  10.202   1.938  31.504 -0.2459 -0.1146  0.0306
 5792W        W 7942  10.614   5.565   0.753 -0.1487  0.0808  0.0164
 5793W        W 7943   7.939   1.066   4.363 -0.0623  0.0376 -0.1560
 5794W        W 7944  13.426   4.402  17.041 -0.0691 -0.2962 -0.0019
 5795W        W 7945  15.524   1.490   3.194 -0.2261 -0.2192 -0.1256
 5796W        W 7946  15.094   1.289  24.625  0.1576 -0.0500 -0.1044
 5797W        W 7947  13.199   2.630  14.807 -0.1524 -0.1893  0.3547
 5798W        W 7948   4.956   3.220  43.868 -0.1238 -0.1999  0.1462
 5799W        W 7949  12.595   1.167  28.560 -0.2071 -0.2015  0.2273
 5800W        W 7950   2.359   0.861  31.279 -0.0551 -0.0074 -0.0677
 5801W        W 7951  11.444   5.405  43.389  0.2010 -0.5089  0.2640
 5802W        W 7952  15.548   2.469  10.968  0.1662 -0.1401 -0.0506
 5803W        W 7953   0.829   3.014  37.262 -0.0650 -0.0440 -0.0143
 5804W        W 7954   2.070   2.039  36.735  0.1469 -0.1096 -0.2274
 5805W        W 7955   6.783   1.259  30.608 -0.3131 -0.1297 -0.0553
 5806W        W 7956  15.453   5.178  40.079 -0.2458 -0.0719 -0.0954
 5807W        W 7957  10.024   0.795   5.267 -0.1349  0.3167  0.0920
 5808W        W 7958  20.290   0.429  42.102 -0.2482 -0.1029 -0.3416
 5809W        W 7959  14.404   3.901  29.601  0.0624  0.0041 -0.0707
 5810W        W 7960  15.666   6.547  23.621 -0.0013 -0.0851  0.1046
 5811W        W 7961  17.407   5.748  19.744  0.1222 -0.1034  0.0867
 5812W        W 7962  15.538   5.466  39.142  0.4539  0.2347  0.0297
 5813W        W 7963   1.082   2.314  11.568  0.1874 -0.2549  0.2608
 5814W        W 7964  11.360   4.781  30.645 -0.2485 -0.1262  0.4161
 5815W        W 7965   1.571   0.044  14.292  0.1499  0.0869  0.0610
 5816W        W 7966   1.063   1.493   5.178 -0.0329 -0.2630 -0.1013
 5817W        W 7967   8.306   1.563  34.758 -0.1718  0.2476 -0.0249
 5818W        W 7968   4.136   1.361   3.055  0.1614 -0.0006 -0.1177
 5819W        W 7969  20.773   2.971  44.124  0.2031  0.1830 -0.0006
 5820W        W 7970   8.250   0.304   6.354  0.2674 -0.5590 -0.0077
 5821W        W 7971   5.320   4.209  41.011  0.0360 -0.3097 -0.0318
 5822W        W 7972   6.038   5.301  31.466 -0.3785 -0.0309  0.1412
 5823W        W 7973   0.628   4.098  11.205 -0.0559 -0.0624 -0.0289
 5824W        W 7974  20.581   5.264  13.647  0.0076  0.0598  0.2181
 5825W        W 7975  14.467   1.872  38.702  0.2289 -0.0489 -0.0216
 5826W        W 7976   8.694   0.081  17.089 -0.4655 -0.0918 -0.3516
 5827W        W 7977   2.828   5.734  38.390  0.0272  0.1453 -0.2226
 5828W        W 7978   5.792   3.269   0.756  0.0357 -0.4808  0.2031
 5829W        W 7979   8.754   1.077  29.907 -0.0855  0.0149  0.1766
 5830W        W 7980   8.103   3.566  11.571  0.0495 -0.1710  0.1185
 5831W        W 7981   5.839   2.161  13.441 -0.1389 -0.0399 -0.1511
 5832W        W 7982  20.669   6.524   5.520 -0.1874 -0.2346  0.0085
 5833W        W 7983   3.216   0.426  23.160  0.2060 -0.1441  0.3207
 5834W        W 7984  10.923   2.161   4.312  0.2301 -0.1661  0.2074
 5835W        W 7985   0.665   5.062  44.756 -0.1312 -0.0328 -0.0114
 5836W        W 7986  10.835   3.375  17.929  0.0647 -0.3845 -0.0792
 5837W        W 7987  17.502   3.471   4.599 -0.0860  0.4014  0.0718
 5838W        W 7988  20.426   2.567  34.562 -0.1263 -0.0919  0.0206
 5839W        W 7989   9.443   6.095  38.242 -0.1596  0.3563  0.0907
 5840W        W 7990   4.586   6.299  42.067  0.1595 -0.0064 -0.1601
 5841W        W 7991  10.699   4.610  14.177  0.1084 -0.2413  0.1248
 5842W        W 7992  10.809   3.009   4.167  0.1354  0.0809  0.2070
 5843W        W 7993   4.778   0.096  37.024 -0.1491 -0.0152  0.0967
 5844W        W 7994   2.030   0.466  13.143 -0.2068 -0.0421 -0.0153
 5845W        W 7995   7.027   1.471  29.746 -0.2582 -0.3409 -0.2254
 5846W        W 7996   6.278   6.362  41.634 -0.2578  0.0599 -0.0675
 5847W        W 7997   2.367   4.832  25.545  0.1168  0.1425 -0.0648
 5848W        W 7998  12.164   3.641   9.144  0.2158 -0.1511 -0.0057
 5849W        W 7999  19.578   0.278   5.145 -0.0560 -0.0881  0.2550
 5850W        W 8000   3.797   1.896   3.148 -0.4219 -0.1219  0.2156
 5851W        W 8001  12.678   4.633  29.317  0.3064 -0.1460  0.0693
 5852W        W 8002   6.447   6.567  34.802  0.0971  0.3274 -0.0620
 5853W        W 8003  15.736   2.938  43.318 -0.0620 -0.0010 -0.0370
 5854W        W 8004  17.593   0.532   0.811 -0.0099  0.0050  0.4889
 5855W        W 8005   2.207   0.747  14.538  0.0277 -0.1035  0.1440
 5856W        W 8006  10.068   6.102   2.293 -0.0125 -0.0473  0.1724
 5857W        W 8007   7.553   2.478  25.109  0.1559 -0.0299  0.0480
 5858W        W 8008   8.308   2.345   0.119 -0.2434  0.2791  0.0435
 5859W        W 8009  13.658   0.372  21.387  0.2074  0.0054  0.0558
 5860W        W 8010  20.868   5.151  14.024 -0.2796 -0.0913 -0.1195
 5861W        W 8011   6.809   1.131  43.234 -0.3158  0.2423 -0.0358
 5862W        W 8012  21.091   2.243   0.020  0.1072  0.0436  0.1913
 5863W        W 8013   6.800   2.958   3.374  0.0037 -0.2865 -0.2886
 5864W        W 8014   6.514   4.347  21.218  0.3298  0.1671  0.2045
 5865W        W 8015  17.899   4.519   3.908 -0.3726  0.0422 -0.1745
 5866W        W 8016   2.535   1.268  44.988  0.0627  0.0347 -0.0084
 5867W        W 8017   7.316   1.867   4.733  0.0792  0.2129 -0.2254
 5868W        W 8018   5.976   5.080  23.884 -0.1881  0.0783  0.1495
 5869W        W 8019   5.593   3.965  43.687  0.0057 -0.0176 -0.3794
 5870W        W 8020  10.296   2.622   2.522 -0.0543  0.0333  0.0811
 5871W        W 8021  14.856   4.992  14.852  0.0512  0.0783 -0.1092
 5872W        W 8022  17.546   4.064   2.540 -0.1054  0.1212  0.0541
 5873W        W 8023  17.575   1.359  29.366 -0.0885  0.2652 -0.0990
 5874W        W 8024  15.310   5.192  14.888  0.0334  0.0950  0.0833
 5875W        W 8025  11.428   1.538  32.046  0.1083 -0.1501 -0.1110
 5876W        W 8026  19.356   0.489   2.535  0.1815 -0.3807 -0.0864
 5877W        W 8027   7.576   3.028  22.862 -0.1042 -0.0084  0.2742
 5878W        W 8028  19.608   0.174   8.139 -0.0520  0.2569 -0.1355
 5879W        W 8029  13.838   2.573  17.095  0.0946  0.2418 -0.1038
 5880W        W 8030   6.982   4.146  13.536 -0.0719  0.0676  0.0783
 5881W        W 8031  13.513   3.874  10.884 -0.0041 -0.1835 -0.0333
 5882W        W 8032  17.201   5.391  14.329 -0.2606  0.0939 -0.1729
 5883W        W 8033  14.492   4.859  12.555  0.0561 -0.1570 -0.0806
 5884W        W 8034   2.747   1.294   8.266  0.2435 -0.3149  0.0540
 5885W        W 8035  16.504   0.540   4.172  0.0596 -0.0754  0.0530
 5886W        W 8036   9.059   0.986  36.937 -0.0895  0.1352 -0.1774
 5887W        W 8037  16.152   6.167  10.862  0.1039 -0.1268 -0.0838
 5888W        W 8038   5.626   2.506  14.323  0.1247 -0.2910 -0.1104
 5889W        W 8039  12.401   3.086  30.873 -0.2257  0.1345  0.1518
 5890W        W 8040  18.211   0.916   2.871 -0.1846 -0.0573  0.0467
 5891W        W 8041   6.429   4.690  13.633 -0.0374  0.1763 -0.1264
 5892W        W 8042   2.015   6.535   0.544 -0.1887 -0.1227 -0.3477
 5893W        W 8043  12.985   1.153  33.469 -0.2291 -0.0151 -0.3395
 5894W        W 8044   3.805   2.052   8.760 -0.1816 -0.0969 -0.1212
 5895W        W 8045   4.653   5.742  37.225 -0.0391 -0.1278  0.3842
 5896W        W 8046  14.773   5.166  20.253 -0.0746 -0.2744  0.1190
 5897W        W 8047   1.293   5.821  28.370  0.1757 -0.0361  0.1244
 5898W        W 8048   4.834   3.067  10.375 -0.0059  0.1993 -0.2537
 5899W        W 8049  17.153   4.833  34.926 -0.0006 -0.1759  0.1531
 5900W        W 8050  16.365   2.033  12.170  0.1138  0.1976 -0.1669
 5901W        W 8051  12.480   6.407  18.106 -0.0951  0.0716 -0.2265
 5902W        W 8052  10.021   1.831  38.461 -0.1464 -0.2163  0.1408
 5903W        W 8053  17.920   5.505   1.113  0.0583 -0.0438 -0.1329
 5904W        W 8054   4.220   2.997   6.893 -0.1900 -0.3494 -0.0458
 5905W        W 8055   1.168   2.829  31.257 -0.0822 -0.1221  0.1705
 5906W        W 8056  17.249   5.817   5.964 -0.2419 -0.0349 -0.2345
 5907W        W 8057   2.620   3.435  36.071 -0.1318  0.0807 -0.2317
 5908W        W 8058  13.008   1.395   8.468  0.0441  0.1671  0.0184
 5909W        W 8059   1.692   0.049  25.322  0.3137 -0.0781  0.2818
 5910W        W 8060  16.125   2.301  23.781 -0.2905  0.0990 -0.1474
 5911W        W 8061   8.799   4.908  29.221  0.0549 -0.0411  0.1169
 5912W        W 8062  10.358   0.156   1.414 -0.0605 -0.2533  0.0477
 5913W        W 8063  19.393   2.923   7.475 -0.2432  0.2249  0.0704
 5914W        W 8064  13.005   5.869  32.162 -0.0466  0.4040 -0.0860
 5915W        W 8065   0.951   6.579  37.961  0.2918 -0.1134 -0.1362
 5916W        W 8066   2.242   3.866  36.747  0.0789 -0.0485  0.1953
 5917W        W 8067   0.977   5.033   5.197 -0.1136 -0.1321 -0.0929
 5918W        W 8068   6.621   4.488  41.304  0.0227  0.2922 -0.3162
 5919W        W 8069  13.583   5.330  35.729 -0.1235  0.0063  0.2013
 5920W        W 8070  18.320   0.258  32.857  0.2194  0.1064  0.0969
 5921W        W 8071  16.737   3.041   0.135  0.0617 -0.3401 -0.2275
 5922W        W 8072   6.266   0.246   5.299  0.0800  0.2468  0.0794
 5923W        W 8073  19.783   3.186  10.255 -0.0527  0.1629 -0.2442
 5924W        W 8074  14.591   0.959  33.896  0.3157  0.0506 -0.1072
 5925W        W 8075  20.334   3.139  20.786  0.1629  0.0274  0.2251
 5926W        W 8076  10.311   2.892  37.522  0.2413  0.0882  0.2526
 5927W        W 8077  14.242   0.927  12.819 -0.3661 -0.1931  0.0136
 5928W        W 8078   1.838   5.282  12.290 -0.2771 -0.1885 -0.0973
 5929W        W 8079   3.670   5.418  34.591  0.0439 -0.0223  0.1747
 5930W        W 8080   8.462   2.010   3.987 -0.2806  0.0935  0.2157
 5931W        W 8081  16.686   6.602  22.600 -0.0805  0.1400 -0.1163
 5932W        W 8082  19.514   4.257  16.840  0.3765  0.2592 -0.3573
 5933W        W 8083   4.860   3.661  29.620 -0.3087  0.0067  0.2218
 5934W        W 8084   9.720   6.342  39.930  0.0630  0.2210  0.3995
 5935W        W 8085   4.363   1.442  22.700 -0.0954  0.1110 -0.1578
 5936W        W 8086   6.139   4.293  38.421 -0.0063 -0.1353 -0.0051
 5937W        W 8087   2.313   1.248  13.208  0.1211 -0.0095  0.1954
 5938W        W 8088  12.828   3.184  43.124  0.2543  0.1189 -0.0353
 5939W        W 8089  15.706   5.524   0.664  0.0267  0.3359  0.3267
 5940W        W 8090  20.271   3.100  34.584 -0.1852 -0.1267 -0.1659
 5941W        W 8091   1.186   3.060  14.368 -0.0717 -0.1141  0.1121
 5942W        W 8092   2.556   5.423  11.793  0.2858 -0.0110  0.2197
 5943W        W 8093  13.511   5.951  21.103  0.2243  0.0380 -0.1117
 5944W        W 8094   1.438   5.781   1.459 -0.1669 -0.0279 -0.2713
 5945W        W 8095   1.880   3.383  13.822 -0.1156  0.1448 -0.4586
 5946W        W 8096   7.473   6.129  37.901 -0.3469  0.0176  0.3330
 5947W        W 8097  13.560   2.828  42.837 -0.1114  0.1592 -0.0660
 5948W        W 8098   3.370   5.777  41.567  0.1352 -0.5418 -0.0273
 5949W        W 8099  13.796   3.641  33.377 -0.0763 -0.1168  0.0055
 5950W        W 8100  12.733   3.390   9.108  0.2170  0.4198 -0.0627
 5951W        W 8101  19.174   4.986  42.541 -0.0163  0.1070  0.0044
 5952W        W 8102  17.334   0.679  22.314 -0.0705 -0.1545  0.1426
 5953W        W 8103   4.004   1.037  16.145  0.4260 -0.2161  0.0086
 5954W        W 8104  14.194   5.704   9.838 -0.0603  0.3036  0.2087
 5955W        W 8105   7.263   6.003  39.055  0.0950  0.2587 -0.1881
 5956W        W 8106  15.835   6.576  35.434  0.1884 -0.0178 -0.0002
 5957W        W 8107  13.508   1.445  37.907  0.1506 -0.1305  0.0838
 5958W        W 8108  19.586   3.356  19.503  0.0327 -0.2826  0.2067
 5959W        W 8109  18.062   2.547  19.621 -0.2296 -0.0412 -0.1350
 5960W        W 8110  11.144   5.022  39.688 -0.0415 -0.3326  0.0407
 5961W        W 8111   2.239   2.975  38.563 -0.1662 -0.0896  0.2501
 5962W        W 8112   7.384   1.810  37.011  0.0055 -0.0990  0.1670
 5963W        W 8113   6.372   1.300  33.272 -0.0272  0.0133 -0.1334
 5964W        W 8114  17.968   4.037  21.192 -0.0816 -0.1516  0.1668
 5965W        W 8115  21.124   0.921   3.939 -0.1146 -0.0152  0.1319
 5966W        W 8116   7.601   3.533  14.083  0.2116 -0.0203  0.1696
 5967W        W 8117  11.417   2.770   8.288  0.1043  0.0400 -0.0346
 5968W        W 8118  13.686   5.178   7.277 -0.1838 -0.1440  0.1348
 5969W        W 8119   4.865   1.843   9.739 -0.2066 -0.3323 -0.0262
 5970W        W 8120  16.468   3.605  11.347 -0.0903 -0.0586 -0.2112
 5971W        W 8121   0.033   1.796  33.655 -0.0649 -0.0056  0.2091
 5972W        W 8122   9.639   5.631  36.717  0.1116  0.2284  0.1290
 5973W        W 8123  15.000   2.023  19.345  0.1659  0.0571  0.1515
 5974W        W 8124   0.874   2.503  13.546  0.3600 -0.0249  0.2064
 5975W        W 8125   8.982   6.017  24.918  0.1570 -0.0952 -0.0774
 5976W        W 8126   1.294   1.125  14.771  0.0516 -0.2150 -0.2257
 5977W        W 8127   3.107   0.732  12.503 -0.0853  0.0026 -0.1750
 5978W        W 8128  19.982   2.356   7.330 -0.1152 -0.0443 -0.2812
 5979W        W 8129   2.449   2.210  40.970 -0.0776  0.1339  0.1544
 5980W        W 8130   6.496   0.248  42.825 -0.1000  0.1076  0.0599
 5981W        W 8131  14.909   6.195   2.851  0.0784  0.0202 -0.1241
 5982W        W 8132   8.676   4.844  34.691  0.2014 -0.0640  0.1668
 5983W        W 8133   6.004   5.723   8.200 -0.1411 -0.1649 -0.0976
 5984W        W 8134  19.560   0.665  38.813 -0.0791  0.0823  0.0916
 5985W        W 8135  10.733   0.669  40.047  0.2793 -0.1796  0.1519
 5986W        W 8136   6.011   4.577  11.280  0.0437 -0.1282  0.0322
 5987W        W 8137  17.564   4.327  33.912 -0.2372  0.3193 -0.2591
 5988W        W 8138   0.533   6.593  18.006 -0.1063  0.2286 -0.3033
 5989W        W 8139   4.958   0.890  25.947 -0.0310  0.0653 -0.2960
 5990W        W 8140  19.465   0.683  31.484  0.2689  0.1245 -0.2235
 5991W        W 8141  10.657   3.248  28.615  0.0611 -0.1423  0.0465
 5992W        W 8142  11.797   5.570   3.275 -0.0505  0.1144  0.0919
 5993W        W 8143  11.726   2.774  41.542 -0.0131  0.2506 -0.3601
 5994W        W 8144   3.332   4.373  35.380 -0.0260 -0.2700 -0.1130
 5995W        W 8145   1.606   1.154  30.974 -0.3225 -0.1534 -0.1921
 5996W        W 8146   2.041   4.131  43.903 -0.1012 -0.0501  0.0465
 5997W        W 8147   3.572   5.124  36.780  0.0797  0.0360  0.0434
 5998W        W 8148   3.262   2.803  13.376  0.0245  0.1060  0.0148
 5999W        W 8149  19.696   3.207  13.180 -0.0971  0.0920  0.2633
 6000W        W 8150   7.512   1.513   9.201 -0.2321 -0.1862 -0.0285
 6001W        W 8151   5.160   5.815  24.937  0.1503  0.0719  0.1679
 6002W        W 8152  10.278   4.863  32.924 -0.1031 -0.1192  0.0274
 6003W        W 8153  15.474   5.247  42.935  0.3266  0.0127  0.3932
 6004W        W 8154   3.137   5.477  15.673 -0.3413  0.1114 -0.0198
 6005W        W 8155   2.467   3.820  37.248 -0.1372  0.1373  0.0422
 6006W        W 8156  13.810   6.351  35.479  0.2230 -0.1064  0.1611
 6007W        W 8157   2.485   5.926   1.637 -0.0975  0.4146 -0.1610
 6008W        W 8158  16.246   3.924  35.138 -0.2108  0.0913 -0.2012
 6009W        W 8159  14.848   0.556  29.186  0.0722  0.1561  0.2474
 6010W        W 8160  18.442   5.207  12.981 -0.3723  0.2383 -0.0094
 6011W        W 8161   4.820   4.983   7.487  0.0332  0.0153  0.2141
 6012W        W 8162  16.304   6.246   9.446 -0.0786 -0.1097  0.2147
 6013W        W 8163  12.874   2.061  31.714 -0.2088 -0.4470 -0.0648
 6014W        W 8164   8.382   0.350  38.390  0.1492 -0.0518 -0.0863
 6015W        W 8165   3.759   4.400  26.838  0.1660 -0.1421  0.0402
 6016W        W 8166  17.856   4.206  11.380  0.0090 -0.0777 -0.0791
 6017W        W 8167   3.543   1.539   2.966 -0.3656 -0.0312  0.2947
 6018W        W 8168   7.323   5.759  30.525  0.0756 -0.5413 -0.0427
 6019W        W 8169  18.032   4.779  39.858 -0.2225  0.1746  0.0449
 6020W        W 8170   1.554   5.930   6.046 -0.1624 -0.1930  0.0687
 6021W        W 8171   7.979   6.455  11.662  0.1897  0.0847  0.3749
 6022W        W 8172  18.982   3.923  38.318  0.3865 -0.3311 -0.2144
 6023W        W 8173   3.698   4.385  13.366  0.1858  0.2925 -0.0000
 6024W        W 8174  18.511   0.551   2.210  0.1158  0.2055  0.2231
 6025W        W 8175  18.109   4.554  13.970  0.0955 -0.2961 -0.1633
 6026W        W 8176  19.022   6.005  32.973 -0.0737  0.1032 -0.0882
 6027W        W 8177  20.995   4.967   8.213  0.3208 -0.2165  0.1515
 6028W        W 8178   9.507   2.174  30.352  0.3241 -0.0445 -0.0096
 6029W        W 8179   1.786   2.598   0.112  0.1001 -0.3319 -0.0052
 6030W        W 8180  17.597   2.641   5.249  0.0979  0.0103 -0.0083
 6031W        W 8181   0.699   4.325   2.996  0.2040 -0.0327 -0.2044
 6032W        W 8182  15.345   2.600   4.938 -0.2539 -0.0437 -0.1855
 6033W        W 8183  20.688   6.086  43.752 -0.1059 -0.0963  0.0507
 6034W        W 8184  18.409   2.373  39.374 -0.2770 -0.1074 -0.1243
 6035W        W 8185   0.609   3.921   8.754  0.0850  0.2770  0.2287
 6036W        W 8186  21.115   0.535   7.487  0.0109  0.0206 -0.0383
 6037W        W 8187  18.318   1.832   5.882  0.0392  0.0639  0.0128
 6038W        W 8188   0.067   3.586  39.784 -0.3402  0.2480  0.1197
 6039W        W 8189   8.461   1.734  37.360  0.2680  0.1660  0.0007
 6040W        W 8190  11.217   3.753  36.775 -0.1966 -0.1183  0.2670
 6041W        W 8191  13.221   3.879  40.943  0.1275  0.0956 -0.1133
 6042W        W 8192   6.370   3.759  25.715 -0.0823 -0.1587 -0.2839
 6043W        W 8193  19.467   6.089  39.645  0.0600 -0.0247 -0.0841
 6044W        W 8194   9.561   2.652  34.260 -0.1352  0.2051  0.0154
 6045W        W 8195  20.811   4.120  33.928 -0.1849  0.1184  0.0095
 6046W        W 8196   8.949   3.832   0.981  0.1334  0.0412  0.2434
 6047W        W 8197  17.611   6.429  43.671  0.3213  0.2081 -0.0513
 6048W        W 8198   3.340   1.605  45.008  0.0103  0.0723 -0.0695
 6049W        W 8199  20.417   0.166   8.683  0.0004  0.4909  0.1401
 6050W        W 8200   5.407   0.199  23.650  0.3098 -0.2942  0.0460
 6051W        W 8201   8.379   4.757  16.330  0.0223 -0.0431  0.2499
 6052W        W 8202   0.183   5.392  39.866  0.0472 -0.1661 -0.1021
 6053W        W 8203  13.212   0.697   0.477 -0.0545  0.0934 -0.1444
 6054W        W 8204  10.919   5.330  12.727  0.0784 -0.0635  0.1549
 6055W        W 8205  16.769   1.869  42.247 -0.0440 -0.2342  0.0425
 6056W        W 8206  17.135   5.165  15.663 -0.1284 -0.1298  0.0895
 6057W        W 8207  19.374   0.464   0.980  0.1421 -0.3767  0.2390
 6058W        W 8208  10.884   0.510  41.611 -0.0255  0.3299  0.0704
 6059W        W 8209  15.070   4.445  42.194  0.1321  0.0445  0.0236
 6060W        W 8210   9.923   6.502  44.723 -0.0855 -0.1809 -0.0870
 6061W        W 8211  13.248   1.518  34.961  0.1926 -0.2320 -0.1347
 6062W        W 8212  10.295   2.873   9.549 -0.1197  0.0440  0.2463
 6063W        W 8213   2.841   1.182  25.371 -0.1340  0.0883 -0.1088
 6064W        W 8214  20.071   5.339  38.928 -0.1060  0.2040  0.0906
 6065W        W 8215   8.615   2.068  42.869 -0.0570  0.0095  0.0974
 6066W        W 8216  11.816   5.663  34.800  0.0227  0.0799 -0.2631
 6067W        W 8217  15.746   2.909   8.697  0.0394  0.3251 -0.0590
 6068W        W 8218   8.552   1.711  32.031 -0.4932 -0.3947  0.1321
 6069W        W 8219  18.490   3.727  37.731  0.2744  0.1358 -0.1107
 6070W        W 8220   7.069   1.920   0.236  0.5220 -0.1491 -0.0434
 6071W        W 8221   6.270   4.585  14.721  0.0096  0.0336  0.1903
 6072W        W 8222   9.989   3.101  28.730  0.0371  0.2085  0.0104
 6073W        W 8223  18.012   6.271  28.910 -0.0129 -0.2273 -0.1030
 6074W        W 8224  13.101   6.370   3.525  0.0650  0.0319  0.0090
 6075W        W 8225  10.315   4.750   0.236  0.3461 -0.0798  0.1448
 6076W        W 8226  14.587   0.770  39.422  0.1449  0.0515 -0.0250
 6077W        W 8227  14.524   0.227  22.652  0.0171 -0.1430  0.1268
 6078W        W 8228   8.534   4.469  27.518  0.0756  0.1437 -0.0320
 6079W        W 8229   9.468   3.138   8.542 -0.3601 -0.0952 -0.0353
 6080W        W 8230   0.858   1.443  34.241 -0.0235  0.1695 -0.1297
 6081W        W 8231   5.497   5.565  26.646 -0.2154  0.3322  0.1009
 6082W        W 8232  17.751   0.225  16.885 -0.2147 -0.2809 -0.0113
 6083W        W 8233  16.483   2.210  20.713 -0.0677  0.1981 -0.3929
 6084W        W 8234  11.608   3.089  40.791 -0.1089  0.0431  0.3290
 6085W        W 8235   0.513   5.585  40.689  0.2230 -0.1987 -0.0177
 6086W        W 8236  19.115   1.208  38.353  0.1582  0.1573 -0.0505
 6087W        W 8237  13.545   2.780  17.485 -0.2331  0.1859 -0.0030
 6088W        W 8238  12.882   1.500  31.857  0.0076  0.2617  0.1326
 6089W        W 8239  12.443   3.232   1.990 -0.2350 -0.0139  0.2706
 6090W        W 8240  14.894   3.151   2.619 -0.2214 -0.0885 -0.0081
 6091W        W 8241  18.292   2.632   0.950  0.3358 -0.2785 -0.3905
 6092W        W 8242   2.793   0.876   4.401  0.3272  0.1104 -0.0955
 6093W        W 8243  17.519   1.612  38.102  0.2649  0.1373 -0.0403
 6094W        W 8244  20.210   6.326  18.924 -0.0387  0.5652 -0.0562
 6095W        W 8245   5.726   0.619  11.957  0.2706 -0.0165 -0.0937
 6096W        W 8246   8.021   2.254   5.355  0.0771 -0.2602 -0.0725
 6097W        W 8247   6.359   4.788  12.536 -0.1644  0.1769 -0.0192
 6098W        W 8248  13.490   0.865  21.782 -0.0264  0.1405  0.2298
 6099W        W 8249  19.684   4.243  30.328 -0.1063 -0.1973 -0.0482
 6100W        W 8250   2.890   4.955  34.309 -0.0664  0.0209  0.0168
 6101W        W 8251   3.065   2.929   4.590 -0.2150  0.1431  0.0341
 6102W        W 8252   5.181   5.957   5.814  0.0561  0.0946 -0.1974
 6103W        W 8253   6.850   0.439  23.599 -0.0741  0.1597  0.1990
 6104W        W 8254   5.486   2.215  36.974  0.0727  0.1126  0.1661
 6105W        W 8255  19.868   1.787  36.319  0.3686  0.2813  0.2199
 6106W        W 8256   5.822   4.415   5.575  0.0775  0.0823 -0.4433
 6107W        W 8257   5.474   0.279  35.679 -0.2263  0.2511  0.2234
 6108W        W 8258  11.030   3.502   8.901 -0.1990  0.2910  0.2385
 6109W        W 8259   0.009   4.411   3.675 -0.1888 -0.0070 -0.0172
 6110W        W 8260  11.833   6.281   7.138 -0.0772 -0.3728 -0.0716
 6111W        W 8261  13.224   5.240   0.933 -0.0624  0.2118 -0.0287
 6112W        W 8262   3.977   5.981  40.974 -0.1353 -0.0616  0.3150
 6113W        W 8263  17.453   4.953  28.923  0.0378  0.1182  0.1790
 6114W        W 8264   8.101   2.979  12.052  0.1900  0.1723 -0.0156
 6115W        W 8265   2.144   1.161  37.919 -0.3385 -0.1124 -0.1322
 6116W        W 8266   6.798   6.305  15.337  0.0188  0.2075  0.1051
 6117W        W 8267   1.758   2.678  38.377  0.1058  0.0766  0.3618
 6118W        W 8268  15.147   4.577  41.670 -0.1566  0.1098  0.0309
 6119W        W 8269  18.270   2.393   7.422 -0.0231 -0.0417 -0.0713
 6120W        W 8270  13.790   5.729   7.076  0.0080 -0.3438  0.0963
 6121W        W 8271   3.085   2.175   2.658 -0.0346 -0.0785 -0.1910
 6122W        W 8272  13.099   3.646  31.209  0.0276 -0.0871  0.2693
 6123W        W 8273   1.746   3.870   6.688  0.0417 -0.2306 -0.0028
 6124W        W 8274   2.349   0.373  11.456  0.1980  0.0169 -0.1694
 6125W        W 8275  14.703   4.812  41.406 -0.0925  0.0436  0.0256
 6126W        W 8276   5.784   2.136  38.479 -0.2274  0.0030 -0.0576
 6127W        W 8277   8.511   0.887   0.468  0.0215 -0.0256  0.1826
 6128W        W 8278  10.210   2.937  12.443  0.3091  0.0114 -0.1269
 6129W        W 8279  11.415   1.224  34.143  0.2083  0.1369  0.2675
 6130W        W 8280  20.743   5.158  12.596 -0.0980  0.0636 -0.0970
 6131W        W 8281  10.404   0.592  36.092  0.2818  0.2979 -0.1541
 6132W        W 8282   5.996   5.260  36.080  0.0357 -0.2903 -0.2721
 6133W        W 8283   0.621   6.286  15.788 -0.2350  0.4241  0.1363
 6134W        W 8284  15.612   4.057   5.324 -0.0337 -0.1499  0.2297
 6135W        W 8285   7.348   3.211  32.444 -0.2669 -0.0035  0.1698
 6136W        W 8286  10.538   1.821  28.984  0.2882 -0.0503 -0.1370
 6137W        W 8287  15.965   5.040  41.294  0.0984 -0.0359  0.1397
 6138W        W 8288  10.468   5.836  12.034  0.1262  0.0520 -0.2660
 6139W        W 8289   2.882   2.386   1.999  0.0115  0.4719 -0.2304
 6140W        W 8290  14.751   3.924  17.275 -0.3255 -0.1258 -0.0604
 6141W        W 8291   5.570   5.037  28.105  0.2156 -0.3520  0.2672
 6142W        W 8292   5.327   1.750  41.632  0.0366  0.0360 -0.1834
 6143W        W 8293   0.553   1.318   3.195 -0.0071 -0.2092 -0.1701
 6144W        W 8294  13.648   3.754   7.884  0.1589  0.2959  0.0954
 6145W        W 8295   5.319   0.531   0.652 -0.3243 -0.1447  0.0278
 6146W        W 8296   1.425   1.525   7.498  0.0661 -0.0137  0.0536
 6147W        W 8297  13.839   1.389  35.962 -0.1477  0.0707  0.0380
 6148W        W 8298  19.671   1.322   7.342 -0.1339 -0.4138 -0.0997
 6149W        W 8299  16.151   0.398  24.650  0.0664  0.1725 -0.0564
 6150W        W 8300   0.215   3.836  28.958  0.0118 -0.1918  0.1309
 6151W        W 8301   6.026   5.046   0.006 -0.1055  0.4114  0.0224
 6152W        W 8302  13.093   5.419   8.656  0.2098  0.0705 -0.0830
 6153W        W 8303  15.318   4.237  11.384 -0.0265  0.0745  0.1651
 6154W        W 8304  15.059   4.325  32.779  0.1242  0.1001  0.2408
 6155W        W 8305   1.598   4.570  30.219 -0.0891 -0.1808 -0.0890
 6156W        W 8306   8.365   1.986  36.851 -0.2818 -0.4233 -0.0423
 6157W        W 8307   7.541   5.731  31.058 -0.1085  0.2194 -0.1563
 6158W        W 8308  19.166   6.478  10.846  0.0769  0.2339  0.0669
 6159W        W 8309  16.416   4.126  31.430  0.3538  0.0077 -0.1433
 6160W        W 8310  17.251   5.441  18.475  0.1892  0.0016  0.2651
 6161W        W 8311   7.494   3.668  44.698  0.0988  0.0729  0.1644
 6162W        W 8312  19.773   4.734  28.283 -0.2520  0.1928  0.1252
 6163W        W 8313  18.531   1.102  10.103 -0.0573 -0.0295  0.2845
 6164W        W 8314  17.173   2.087  17.144  0.1602  0.0862 -0.1756
 6165W        W 8315   1.516   6.242   4.398  0.0952 -0.0967 -0.0138
 6166W        W 8316  20.143   5.116   9.365  0.0849  0.2184  0.0456
 6167W        W 8317  15.449   2.673  32.742 -0.4285 -0.1453  0.1771
 6168W        W 8318  15.728   3.136  44.440  0.1602 -0.3503 -0.1126
 6169W        W 8319  20.193   1.733   5.001  0.1076 -0.0099  0.2553
 6170W        W 8320  19.056   0.402  32.293 -0.0017 -0.1020 -0.1079
 6171W        W 8321  18.186   2.726  32.885  0.0393  0.2904  0.1048
 6172W        W 8322   1.248   3.478   2.307  0.2636  0.0330 -0.1790
 6173W        W 8323   2.695   4.839   0.173  0.4281  0.2134  0.4493
 6174W        W 8324  20.424   5.109  19.010  0.1915 -0.0041  0.0930
 6175W        W 8325  14.111   5.472  13.774  0.1866 -0.1555 -0.1783
 6176W        W 8326  17.928   4.139  29.642 -0.2407  0.3006  0.0605
 6177W        W 8327  13.697   5.351   6.391 -0.0008  0.0887  0.4712
 6178W        W 8328  12.577   5.633   8.282  0.1432  0.2216 -0.2571
 6179W        W 8329   3.298   5.230   1.058  0.1734 -0.0185 -0.1676
 6180W        W 8330   3.264   4.540   3.474 -0.1215  0.2746 -0.3188
 6181W        W 8331  10.842   1.667  40.544  0.2806  0.0125 -0.1017
 6182W        W 8332   1.413   5.846   7.927 -0.1134 -0.2003  0.1150
 6183W        W 8333   7.144   0.673  31.014  0.2249  0.0766 -0.0223
 6184W        W 8334   6.966   4.015  33.812 -0.0185  0.1995  0.3058
 6185W        W 8335  11.224   2.356  42.271 -0.0164  0.0261 -0.0797
 6186W        W 8336  17.717   3.562  44.044 -0.0957  0.0691  0.2368
 6187W        W 8337  14.533   0.878  17.724 -0.0424  0.1447 -0.0080
 6188W        W 8338  15.165   0.050   2.928  0.2318 -0.1682 -0.0116
 6189W        W 8339   4.941   6.312  26.667 -0.1771  0.2005 -0.0493
 6190W        W 8340   5.262   5.960   0.706 -0.1609 -0.0785 -0.2165
 6191W        W 8341   3.212   1.992   2.194 -0.2819  0.0379  0.1247
 6192W        W 8342  13.769   2.320  31.683  0.3474  0.0676 -0.2770
 6193W        W 8343  17.105   0.493  14.146  0.2387  0.0592 -0.3265
 6194W        W 8344  10.804   2.099  14.170  0.1398 -0.3680  0.1018
 6195W        W 8345   2.010   2.717  40.236  0.0974 -0.0584  0.2514
 6196W        W 8346  11.838   3.188   5.692  0.1829 -0.1032 -0.0570
 6197W        W 8347   9.442   1.468  27.113 -0.1030  0.0099  0.0493
 6198W        W 8348  15.753   4.027  40.375  0.0010 -0.2039 -0.1968
 6199W        W 8349   9.113   0.516   3.621 -0.2809  0.3407 -0.5363
 6200W        W 8350   7.497   2.633  15.669 -0.1440  0.1942  0.1556
 6201W        W 8351   0.074   3.779   4.359  0.0778 -0.0567  0.3288
 6202W        W 8352  16.291   2.048   4.772  0.2806 -0.2281  0.1117
 6203W        W 8353  12.882   3.978  34.747 -0.1685  0.1334  0.0622
 6204W        W 8354   5.095   1.543  28.447  0.6421  0.2701  0.1993
 6205W        W 8355  12.752   3.348   4.292 -0.1589 -0.2056  0.2416
 6206W        W 8356   1.706   2.378   1.832  0.0228  0.3298 -0.3917
 6207W        W 8357   5.650   0.476  28.877 -0.1333 -0.1011 -0.2382
 6208W        W 8358  12.287   0.175  43.610 -0.2713  0.0220 -0.1980
 6209W        W 8359   5.749   6.441  11.812 -0.3873  0.1161 -0.0366
 6210W        W 8360   3.515   1.150  42.841 -0.1861 -0.3342 -0.2067
 6211W        W 8361  17.930   4.389  36.444  0.2788  0.1729  0.0537
 6212W        W 8362  19.700   0.929   2.653 -0.0359 -0.0297  0.4579
 6213W        W 8363  14.386   2.378  10.082  0.2316 -0.0580  0.2944
 6214W        W 8364  17.001   5.613   8.240 -0.2548 -0.1458 -0.0608
 6215W        W 8365  11.702   6.439   1.793 -0.0771 -0.4801 -0.1023
 6216W        W 8366   9.967   6.451  35.776  0.2034 -0.1064 -0.3585
 6217W        W 8367  14.584   1.282  12.809  0.3078 -0.0206  0.2307
 6218W        W 8368  10.615   1.687  31.045 -0.1313 -0.2281  0.3896
 6219W        W 8369  13.976   2.447   9.730 -0.0763 -0.1252 -0.0926
 6220W        W 8370   1.860   6.105  28.625  0.1335  0.1418  0.0207
 6221W        W 8371  11.609   5.199  34.716 -0.1913 -0.1840  0.0429
 6222W        W 8372  17.447   1.706   6.565  0.1008 -0.0997 -0.2056
 6223W        W 8373   7.210   4.264  25.720 -0.0725 -0.1009  0.0895
 6224W        W 8374   4.743   2.533  33.419  0.0201 -0.1384  0.4787
 6225W        W 8375   3.702   1.947  42.886  0.1411  0.0840 -0.0718
 6226W        W 8376   5.716   2.326  30.193  0.2336  0.0283  0.0802
 6227W        W 8377  18.629   4.929  18.442  0.0069 -0.1338 -0.1132
 6228W        W 8378   8.169   2.971   7.125  0.2215 -0.0589 -0.2989
 6229W        W 8379   9.687   4.018   3.990 -0.1798  0.1186  0.1915
 6230W        W 8380  20.770   0.942  11.397 -0.0015  0.0204  0.2785
 6231W        W 8381   9.968   3.113  43.689  0.0809 -0.0286  0.3262
 6232W        W 8382   6.248   2.045  15.878  0.0546  0.0916 -0.1499
 6233W        W 8383  13.852   0.679  39.987  0.2159 -0.2284 -0.1273
 6234W        W 8384   0.190   3.793  10.154 -0.0340 -0.0422  0.0462
 6235W        W 8385   0.551   1.899  12.895 -0.1749  0.0818 -0.2266
 6236W        W 8386   0.609   3.239  34.289  0.0094  0.2444 -0.1665
 6237W        W 8387  21.050   4.078  17.463 -0.2417  0.3034  0.3748
 6238W        W 8388   2.013   5.067   9.706  0.1454  0.1773  0.2156
 6239W        W 8389  14.537   0.822  31.752  0.0405 -0.2477  0.1263
 6240W        W 8390   4.960   0.347  13.580  0.1953 -0.1381 -0.1778
 6241W        W 8391  18.438   2.815  17.689 -0.0050 -0.3984 -0.1555
 6242W        W 8392  13.908   1.588   5.100  0.0224  0.1440  0.0394
 6243W        W 8393  19.691   0.985   0.077  0.0066  0.0626 -0.1691
 6244W        W 8394  12.015   0.788  43.219 -0.0944  0.2492  0.1374
 6245W        W 8395  18.387   1.117  30.422 -0.2753  0.0116 -0.0054
 6246W        W 8396   9.472   1.175  13.063  0.1945 -0.0267  0.1256
 6247W        W 8397   1.675   4.411  12.561 -0.2368  0.0382 -0.2007
 6248W        W 8398  12.443   4.934  19.674 -0.0386  0.1516  0.0095
 6249W        W 8399  17.028   4.260  16.061 -0.1163 -0.0657  0.3216
 6250W        W 8400  14.416   4.509  34.844  0.0173 -0.1964 -0.1706
 6251W        W 8401   9.549   2.271   1.872 -0.2431 -0.0960  0.0142
 6252W        W 8402   2.953   3.322  42.439 -0.2423  0.0631 -0.1063
 6253W        W 8403  12.499   0.638   5.969 -0.1354 -0.1694 -0.1470
 6254W        W 8404  11.600   2.360  31.483  0.0997 -0.0888 -0.0568
 6255W        W 8405  12.038   0.028  43.169  0.1419 -0.0688  0.0421
 6256W        W 8406  17.249   2.014  39.022 -0.1483 -0.2103  0.1045
 6257W        W 8407   6.578   0.120   9.726  0.2777 -0.2312 -0.3294
 6258W        W 8408  13.703   0.726  38.442  0.1061 -0.0855  0.2966
 6259W        W 8409   0.704   4.958   4.421  0.0971 -0.0640 -0.0099
 6260W        W 8410  20.621   4.253  17.821 -0.1423  0.1371 -0.0216
 6261W        W 8411  16.058   2.348  41.930  0.0050 -0.4065  0.1608
 6262W        W 8412   2.513   2.164  12.916  0.0255  0.3339  0.0302
 6263W        W 8413   4.739   3.837   2.403 -0.1268 -0.1031  0.2020
 6264W        W 8414   1.038   6.073   9.866  0.4781  0.2765  0.2737
 6265W        W 8415  10.871   2.660   0.475 -0.0604  0.1751  0.1073
 6266W        W 8416   2.860   5.056   8.454  0.0405  0.2530 -0.3213
 6267W        W 8417   8.990   3.288   7.693 -0.0870  0.0696 -0.0253
 6268W        W 8418   2.202   2.187   7.652  0.3686 -0.2261  0.1023
 6269W        W 8419  15.956   4.920  31.457  0.0116  0.0355 -0.0998
 6270W        W 8420   0.397   2.807  39.548 -0.0275 -0.1917  0.0592
 6271W        W 8421   2.205   0.739  26.111  0.0395 -0.0602 -0.2540
 6272W        W 8422  16.731   5.237  37.989 -0.1747  0.1330  0.1258
 6273W        W 8423   6.643   3.065  12.591 -0.0158  0.3143  0.0090
 6274W        W 8424  13.818   6.134   6.774  0.2374 -0.0870 -0.2944
 6275W        W 8425  15.526   6.529   0.354 -0.0540 -0.2393 -0.1858
 6276W        W 8426  20.251   5.135  38.464 -0.1064  0.2884 -0.3903
 6277W        W 8427   3.889   0.408  37.404 -0.2202  0.2266  0.1961
 6278W        W 8428   4.137   6.582  27.676  0.1957  0.0337  0.1389
 6279W        W 8429  15.043   0.142  30.285 -0.0499 -0.1968 -0.1057
 6280W        W 8430  19.547   4.915  10.521 -0.1391  0.1175  0.1688
 6281W        W 8431   3.178   4.638   9.234 -0.2025  0.2302  0.1029
 6282W        W 8432   1.987   1.686   7.684 -0.0434  0.0345  0.0940
 6283W        W 8433   3.464   1.245  40.547  0.0300 -0.1630  0.2605
 6284W        W 8434  19.033   1.134   3.105 -0.2177  0.0082 -0.0856
 6285W        W 8435  12.576   3.351   6.859 -0.0297  0.1427 -0.1301
 6286W        W 8436   3.362   1.752  40.576  0.4108  0.3523 -0.3095
 6287W        W 8437   7.212   1.172  27.435  0.0374 -0.4229  0.0543
 6288W        W 8438   6.645   5.934  42.679 -0.0386  0.2475  0.1059
 6289W        W 8439   4.196   3.131  32.675 -0.1924  0.0040 -0.0925
 6290W        W 8440  14.362   5.685   3.096 -0.1426  0.1369  0.1338
 6291W        W 8441  17.689   3.497  40.095 -0.0233 -0.0559  0.1702
 6292W        W 8442   8.429   4.724  11.825  0.0647  0.0020  0.2369
 6293W        W 8443  18.026   1.828  21.144 -0.0683 -0.2496  0.0287
 6294W        W 8444  18.862   0.424   3.819  0.1731 -0.1949  0.0114
 6295W        W 8445  11.823   4.191  40.207  0.0470 -0.2277 -0.1175
 6296W        W 8446  10.307   5.390   6.437  0.1637 -0.0765 -0.2335
 6297W        W 8447   2.763   5.611  26.396 -0.0315  0.0626  0.1200
 6298W        W 8448  16.222   2.671  16.506 -0.1054 -0.1401  0.0650
 6299W        W 8449  18.154   0.058  22.573 -0.0362  0.2193 -0.3428
 6300W        W 8450   4.903   2.563  28.638  0.1449  0.0595 -0.2484
 6301W        W 8451   2.283   5.203  33.694 -0.2439 -0.0879 -0.0081
 6302W        W 8452   7.846   5.678  14.591 -0.0273  0.3337 -0.0094
 6303W        W 8453  14.064   5.101  10.408 -0.3398 -0.0753  0.0255
 6304W        W 8454  15.404   6.206   5.205  0.2734  0.1458 -0.2606
 6305W        W 8455  11.022   5.560  13.697 -0.3939 -0.1967 -0.2005
 6306W        W 8456   2.207   3.070  35.316 -0.2166 -0.2498  0.2049
 6307W        W 8457   1.657   0.209  28.656  0.0735  0.1512  0.1238
 6308W        W 8458  17.801   1.081  18.029 -0.3747 -0.0029  0.0779
 6309W        W 8459  12.328   2.525  17.232  0.1164  0.0720  0.0019
 6310W        W 8460   1.596   1.404  11.117  0.0936 -0.1745 -0.1634
 6311W        W 8461  19.015   6.156  38.711 -0.2893  0.2821  0.2442
 6312W        W 8462  12.703   3.590   3.774  0.1010  0.0991 -0.0179
 6313W        W 8463   9.566   4.126  33.012 -0.0276 -0.1544  0.0728
 6314W        W 8464   3.611   5.447   1.864  0.3229 -0.0778  0.1102
 6315W        W 8465  10.209   6.152   4.444  0.1651 -0.1320  0.1297
 6316W        W 8466  16.546   3.232  18.786 -0.3984  0.0743 -0.1450
 6317W        W 8467   4.549   0.419  32.756  0.0158 -0.0782  0.3674
 6318W        W 8468  18.003   5.262  19.679 -0.1190  0.2321 -0.2477
 6319W        W 8469  16.764   0.486  43.785 -0.1381  0.1246 -0.2874
 6320W        W 8470  17.582   4.376  38.221 -0.3247  0.1357  0.1227
 6321W        W 8471  17.212   1.340  14.672 -0.2711 -0.1770  0.1680
 6322W        W 8472  17.172   6.580  35.156  0.2683  0.1272  0.0479
 6323W        W 8473  17.680   4.098  17.643 -0.1859 -0.2669 -0.2435
 6324W        W 8474   3.930   0.479  22.569  0.0480  0.4979  0.0970
 6325W        W 8475  19.385   1.061  10.148  0.0193 -0.1654 -0.2179
 6326W        W 8476   7.778   6.264   7.296 -0.1225 -0.0809 -0.0327
 6327W        W 8477  16.737   1.972   7.887 -0.2146 -0.2334  0.1280
 6328W        W 8478  16.539   0.880  21.060 -0.0912  0.1735  0.0803
 6329W        W 8479   3.802   4.507  11.692 -0.1461 -0.2029 -0.1780
 6330W        W 8480   6.563   2.162  41.312 -0.0992 -0.0739 -0.1785
 6331W        W 8481   6.460   1.407  36.864 -0.0537  0.1377 -0.0599
 6332W        W 8482  20.667   5.841  34.480 -0.2923  0.1683 -0.3082
 6333W        W 8483  15.745   0.341   4.502  0.0409 -0.2152 -0.1036
 6334W        W 8484   3.046   4.342  26.921 -0.1902  0.1693  0.1947
 6335W        W 8485  19.321   1.423   4.858  0.1224 -0.0614 -0.2275
 6336W        W 8486   4.691   2.698  25.789 -0.0580  0.0499  0.3449
 6337W        W 8487   4.989   0.657   9.509  0.2215 -0.0339 -0.0749
 6338W        W 8488  14.011   2.130  40.818 -0.1143 -0.1302  0.1739
 6339W        W 8489  17.153   3.576   1.278  0.0015 -0.0217 -0.2703
 6340W        W 8490   3.828   6.115   1.246  0.0723  0.2427  0.2395
 6341W        W 8491  13.598   3.505   9.332  0.0726 -0.1078 -0.1105
 6342W        W 8492  13.328   5.862  33.653 -0.0325  0.4021 -0.2997
 6343W        W 8493   1.584   2.024  31.491 -0.1711 -0.0887 -0.1614
 6344W        W 8494  18.127   1.867   2.498  0.0843 -0.1641  0.0911
 6345W        W 8495  17.639   5.475  33.114 -0.1303 -0.1809  0.1647
 6346W        W 8496  18.212   6.163   9.145  0.3652 -0.0735  0.1264
 6347W        W 8497   0.272   0.582  38.403 -0.4255  0.0000  0.1298
 6348W        W 8498  16.791   3.058  29.642 -0.1965 -0.1252 -0.0924
 6349W        W 8499  20.528   5.012   7.976  0.2026  0.0028 -0.3299
 6350W        W 8500   4.996   1.635   7.903  0.1228  0.1225  0.0410
 6351W        W 8501   4.205   6.207  24.686  0.0111  0.0624  0.0505
 6352W        W 8502   2.040   3.870   1.276 -0.5594 -0.3326  0.0688
 6353W        W 8503  12.945   0.789  12.214 -0.2551 -0.0170 -0.1420
 6354W        W 8504   8.350   5.153  42.219  0.0832  0.1544  0.0636
 6355W        W 8505   4.361   2.340   8.566 -0.1662 -0.1385  0.1458
 6356W        W 8506   4.458   1.198  13.116 -0.0664 -0.0396 -0.1090
 6357W        W 8507   5.327   4.891  13.462 -0.1290  0.1821 -0.1572
 6358W        W 8508   4.037   0.027   6.498  0.1792  0.0299 -0.0104
 6359W        W 8509  17.762   1.435  43.775  0.0321  0.2529 -0.0137
 6360W        W 8510   7.398   4.119   5.097  0.0820  0.0644  0.2303
 6361W        W 8511   9.374   1.714  13.373  0.1168 -0.0842 -0.2562
 6362W        W 8512  10.271   0.668  15.862 -0.2853  0.1208  0.2073
 6363W        W 8513  17.211   1.503  34.595  0.1597  0.0723  0.1392
 6364W        W 8514  12.850   1.965  35.615 -0.2510 -0.0563  0.1168
 6365W        W 8515  18.307   5.682  44.993  0.1892 -0.2288  0.0629
 6366W        W 8516   0.893   0.448  15.285  0.0205 -0.1089  0.2001
 6367W        W 8517   1.757   5.989  28.157 -0.3157 -0.1348  0.4188
 6368W        W 8518   5.484   6.163  23.148 -0.1721 -0.2013 -0.2108
 6369W        W 8519   3.009   3.843  28.250 -0.0977 -0.1856 -0.3545
 6370W        W 8520  11.051   0.890   7.091  0.0690  0.3513 -0.1467
 6371W        W 8521   9.110   1.325  31.317  0.0960 -0.1816  0.1118
 6372W        W 8522  13.244   6.126  17.170  0.1615 -0.0557 -0.0477
 6373W        W 8523  20.372   5.306  31.973 -0.2082  0.1275  0.3935
 6374W        W 8524   5.322   1.181  35.059  0.1631  0.1563 -0.2242
 6375W        W 8525  18.539   6.042  38.479  0.0824 -0.3046  0.0125
 6376W        W 8526   5.323   2.822  26.789  0.1682 -0.3960  0.3863
 6377W        W 8527  13.337   3.639  41.846 -0.0217 -0.3433 -0.1001
 6378W        W 8528   6.612   4.050  22.691  0.4135  0.3239 -0.1746
 6379W        W 8529  14.770   5.244  33.183  0.3498 -0.0588 -0.2949
 6380W        W 8530  19.395   0.818   6.703  0.1923 -0.1893  0.1427
 6381W        W 8531  18.439   5.515  13.854  0.1514  0.0677 -0.0942
 6382W        W 8532   5.514   5.626   3.427 -0.1216  0.1585 -0.1445
 6383W        W 8533  18.263   5.560  10.208  0.0727  0.0737  0.0398
 6384W        W 8534  11.484   5.664  41.681 -0.2534 -0.3710  0.1114
 6385W        W 8535  17.888   3.121  11.434  0.0712  0.0664 -0.0156
 6386W        W 8536  14.750   4.003  42.304 -0.0592  0.0110 -0.0451
 6387W        W 8537  17.904   0.482   9.016 -0.0332 -0.0834  0.0226
 6388W        W 8538   7.478   2.812  24.251  0.0208 -0.0824 -0.1314
 6389W        W 8539  17.528   0.794  34.107  0.2568  0.0833 -0.1439
 6390W        W 8540  13.538   2.692  19.114  0.1106 -0.4518  0.2672
 6391W        W 8541   0.558   0.320  29.130 -0.5684 -0.3041 -0.1636
 6392W        W 8542   4.032   3.152  33.194 -0.0512 -0.1242 -0.0654
 6393W        W 8543  20.420   2.706   1.821 -0.0437 -0.1664 -0.0694
 6394W        W 8544  13.644   0.120  43.612  0.0510 -0.3736  0.0520
 6395W        W 8545  15.562   4.762  31.739 -0.0086  0.0330 -0.2479
 6396W        W 8546  20.956   6.358  10.949  0.1813 -0.1481 -0.1241
 6397W        W 8547  15.193   1.462  37.646  0.0683 -0.0684 -0.1002
 6398W        W 8548  13.453   3.358  11.204 -0.1190 -0.3626  0.1485
 6399W        W 8549  20.925   5.237  29.797  0.0912 -0.1139 -0.6639
 6400W        W 8550  14.476   4.438  29.700  0.0123 -0.1860  0.0653
 6401W        W 8551   1.716   3.772   3.213 -0.0673 -0.0593  0.1057
 6402W        W 8552  16.422   0.481  43.400 -0.2469 -0.0632 -0.1386
 6403W        W 8553  21.026   2.528  44.301 -0.0768  0.1770 -0.0948
 6404W        W 8554  17.330   5.747  31.634  0.0125 -0.0876 -0.0611
 6405W        W 8555  19.480   1.672   2.248 -0.0939  0.0975  0.0885
 6406W        W 8556  12.340   0.838   9.558 -0.1306  0.1009  0.0204
 6407W        W 8557  14.238   0.191  15.884 -0.1126 -0.1850  0.1134
 6408W        W 8558  12.950   3.291  33.893  0.0542 -0.1187 -0.0917
 6409W        W 8559  18.443   0.453   9.273 -0.0157 -0.0573  0.0121
 6410W        W 8560   6.192   4.891  31.914 -0.3468  0.1127 -0.1340
 6411W        W 8561  12.921   6.007   3.269  0.1974 -0.1904 -0.3309
 6412W        W 8562  12.898   6.198  15.622 -0.0760  0.1861  0.0250
 6413W        W 8563  14.377   1.125  11.296 -0.2333  0.2302  0.1391
 6414W        W 8564   2.305   3.059  24.650  0.0655  0.4714 -0.1194
 6415W        W 8565  19.074   6.403   3.308  0.2005  0.1610  0.3215
 6416W        W 8566  21.036   2.095  15.234 -0.1804  0.2059  0.1156
 6417W        W 8567  12.207   4.511   7.292 -0.1534 -0.1586 -0.2127
 6418W        W 8568   9.038   0.975  30.917 -0.0978 -0.0906  0.2622
 6419W        W 8569   7.391   3.543   4.424  0.1430 -0.0594  0.4738
 6420W        W 8570  16.305   3.055  38.026  0.2065 -0.0859 -0.1977
 6421W        W 8571   6.444   5.867  15.525  0.1014  0.2843  0.1546
 6422W        W 8572  15.256   2.688  42.513  0.1347 -0.2134 -0.0461
 6423W        W 8573   7.328   3.724  23.396  0.2761  0.1484 -0.4115
 6424W        W 8574  13.692   5.070  44.784 -0.0021  0.1486  0.0013
 6425W        W 8575  18.554   1.953  35.773  0.1674  0.2026 -0.0977
 6426W        W 8576   3.246   6.516  26.599  0.1650  0.6946 -0.1989
 6427W        W 8577  11.587   2.559  27.810  0.0659  0.1256 -0.0777
 6428W        W 8578  12.312   4.184  40.040 -0.1642 -0.2487  0.0343
 6429W        W 8579   0.532   1.985   4.787 -0.0519 -0.1806 -0.2158
 6430W        W 8580  12.185   0.227   3.142 -0.0147  0.1579 -0.0139
 6431W        W 8581  18.229   3.953   9.026 -0.1211 -0.0707  0.0599
 6432W        W 8582   9.116   4.807  27.845 -0.1480  0.1184 -0.2394
 6433W        W 8583  19.135   2.012  40.470  0.2244 -0.0263 -0.1195
 6434W        W 8584  19.886   1.566   3.120 -0.1376  0.0145  0.1816
 6435W        W 8585   1.871   0.876   8.826 -0.1549  0.1508 -0.0351
 6436W        W 8586  20.157   5.489  37.679  0.0918 -0.0376  0.2782
 6437W        W 8587   9.885   4.323  27.188 -0.0178  0.0538 -0.2171
 6438W        W 8588  14.067   3.898   4.589  0.1649 -0.0210 -0.0298
 6439W        W 8589  12.223   0.727  37.864 -0.1587  0.3318 -0.1605
 6440W        W 8590  10.710   5.587  27.045  0.1616 -0.2414  0.1597
 6441W        W 8591   9.770   6.090  40.830  0.0942  0.3854 -0.0192
 6442W        W 8592  14.027   2.876  23.169  0.1079 -0.1284  0.3191
 6443W        W 8593   0.421   4.739   1.654 -0.0881 -0.0589 -0.2733
 6444W        W 8594   9.210   0.204  10.018  0.1235  0.2568  0.0574
 6445W        W 8595   3.803   4.308  26.318  0.4860  0.1421  0.1031
 6446W        W 8596   3.756   6.163   0.768 -0.0091 -0.0682  0.1701
 6447W        W 8597  12.186   1.049  36.686 -0.0201 -0.3649 -0.0440
 6448W        W 8598  17.260   4.802  41.760 -0.0994  0.2399 -0.0849
 6449W        W 8599  15.942   6.046  16.005 -0.1357 -0.2114  0.2006
 6450W        W 8600  10.940   0.779  32.050  0.0137 -0.0582  0.0192
 6451W        W 8601  15.254   0.865  11.675  0.2009  0.2306  0.0725
 6452W        W 8602  10.887   0.019   6.721 -0.1155 -0.1316 -0.0798
 6453W        W 8603   8.099   3.299  33.075 -0.2168 -0.1870  0.0701
 6454W        W 8604  19.606   2.927  18.949  0.2048  0.0561 -0.2668
 6455W        W 8605   8.166   5.556   4.440  0.1311 -0.5466  0.0617
 6456W        W 8606  18.824   3.087   9.405 -0.0876 -0.2836  0.0430
 6457W        W 8607  17.499   5.336  13.940 -0.1471  0.1646  0.0373
 6458W        W 8608   7.342   5.473  36.282 -0.0222  0.0271  0.1401
 6459W        W 8609   8.625   0.339  14.514  0.0988 -0.0769 -0.0752
 6460W        W 8610  14.071   1.098  28.394  0.0482  0.0463 -0.1846
 6461W        W 8611   2.365   1.662  35.638  0.2662 -0.4329 -0.1277
 6462W        W 8612   3.135   5.057   6.643 -0.0694  0.0537  0.2606
 6463W        W 8613   8.076   2.062   5.856 -0.2848 -0.0594  0.2222
 6464W        W 8614   9.281   0.987  25.245 -0.0210 -0.1180 -0.1636
 6465W        W 8615  19.205   0.797   0.166  0.4077 -0.1839 -0.4122
 6466W        W 8616  14.460   5.126  32.702  0.0262  0.0113  0.0241
 6467W        W 8617  17.763   5.636  32.428 -0.1416  0.3199  0.1714
 6468W        W 8618   4.215   2.601  25.991  0.1696  0.0282  0.3213
 6469W        W 8619  13.989   2.766  33.091 -0.2143 -0.1312  0.1273
 6470W        W 8620   2.617   4.829  36.580  0.2396 -0.1441  0.2784
 6471W        W 8621   7.601   4.283  27.136  0.1057  0.2106  0.1644
 6472W        W 8622  20.294   3.523  36.771 -0.2521 -0.3185 -0.0858
 6473W        W 8623   6.255   4.773   7.548 -0.2509  0.1176  0.1299
 6474W        W 8624   1.450   2.237   0.839 -0.2034 -0.0258  0.0819
 6475W        W 8625  11.406   2.097  27.705 -0.1359 -0.2206 -0.1980
 6476W        W 8626  13.069   6.413   6.700  0.1536 -0.1371 -0.0933
 6477W        W 8627   8.271   5.264  44.214  0.0495  0.0521 -0.2515
 6478W        W 8628  13.736   5.826  41.363 -0.1206  0.0255  0.3096
 6479W        W 8629  19.433   3.928  32.371 -0.1148  0.2881 -0.0687
 6480W        W 8630   3.185   5.922  42.536 -0.2794  0.1482  0.3516
 6481W        W 8631  11.299   2.637  15.213 -0.0336  0.1506  0.1428
 6482W        W 8632   3.694   5.484  39.593  0.1063 -0.0317  0.1096
 6483W        W 8633   8.323   2.120   8.221 -0.0080 -0.0560 -0.2181
 6484W        W 8634   2.368   4.595   6.374  0.3057 -0.0410  0.0714
 6485W        W 8635  18.025   3.168  31.099 -0.2888 -0.0491 -0.3164
 6486W        W 8636   7.535   4.109  41.294 -0.1557 -0.0977  0.2771
 6487W        W 8637   4.003   0.726  25.460  0.0686 -0.0612 -0.0812
 6488W        W 8638   3.972   2.745   4.768 -0.0200 -0.0181 -0.0080
 6489W        W 8639   0.614   2.208  41.689  0.0185  0.2666  0.1234
 6490W        W 8640   7.276   2.802  15.254  0.1589  0.1125 -0.0860
 6491W        W 8641   7.797   4.759  22.850 -0.3053  0.0894 -0.1752
 6492W        W 8642  20.620   3.110  36.458  0.0757  0.2724 -0.0329
 6493W        W 8643   6.099   2.650  41.275  0.1453 -0.0583  0.1872
 6494W        W 8644   1.580   1.372  35.229 -0.0709 -0.1787 -0.1792
 6495W        W 8645  13.661   3.040  32.806  0.1523 -0.1595  0.0349
 6496W        W 8646   5.616   5.327  27.175  0.2040  0.3284 -0.0182
 6497W        W 8647   2.021   0.190   6.275  0.0209  0.1037 -0.0517
 6498W        W 8648  19.934   5.346  17.349 -0.0105  0.0343  0.0346
 6499W        W 8649  16.239   1.574  15.370  0.0573 -0.0344  0.1215
 6500W        W 8650   5.687   2.492   6.869 -0.2779 -0.2933  0.1260
 6501W        W 8651  12.590   1.294  38.953  0.0979 -0.0971  0.1095
 6502W        W 8652   5.769   5.569   0.484  0.0181  0.0234 -0.2479
 6503W        W 8653  15.704   3.346  42.153  0.0412  0.2408  0.0251
 6504W        W 8654   8.997   3.713  25.865 -0.2438  0.2048 -0.0277
 6505W        W 8655  11.429   2.815  33.256  0.0473 -0.0600 -0.1746
 6506W        W 8656  19.703   2.825  41.973 -0.2340  0.1059  0.3852
 6507W        W 8657   2.888   1.294  14.850  0.0661  0.1483 -0.0232
 6508W        W 8658  17.390   2.166  31.758  0.1705 -0.1626  0.0182
 6509W        W 8659  19.683   4.347  35.399  0.1030 -0.3831  0.2820
 6510W        W 8660  20.039   2.838  43.784 -0.0688  0.0905  0.0551
 6511W        W 8661   1.184   3.761  28.619  0.0996 -0.1397 -0.1484
 6512W        W 8662   8.854   0.345  22.815  0.1829  0.1032 -0.2050
 6513W        W 8663  15.801   3.538  19.637  0.3196 -0.0195  0.0235
 6514W        W 8664  14.221   4.900  39.716  0.1887  0.2958  0.1202
 6515W        W 8665  18.606   0.503   9.955  0.0187  0.4436  0.3096
 6516W        W 8666  15.654   5.370  35.930  0.2123 -0.0399  0.1022
 6517W        W 8667  18.136   2.370  35.711 -0.2148  0.3506  0.1271
 6518W        W 8668   9.908   5.754   7.104 -0.0580 -0.1723 -0.1288
 6519W        W 8669  12.546   2.103  33.051 -0.2525  0.1160 -0.0223
 6520W        W 8670   2.067   0.546  28.727  0.1689 -0.1934  0.1625
 6521W        W 8671  13.939   3.547  16.964  0.0470  0.2172  0.0692
 6522W        W 8672  14.606   4.316  41.355  0.1084 -0.0468 -0.1489
 6523W        W 8673  14.110   4.102  42.616 -0.1586 -0.2720 -0.2792
 6524W        W 8674  18.452   3.254   6.916 -0.0744 -0.0917 -0.6095
 6525W        W 8675  18.839   4.191   3.972 -0.1087 -0.0921 -0.2385
 6526W        W 8676  13.056   4.631  32.938 -0.3577 -0.2210 -0.0186
 6527W        W 8677   4.046   0.832   2.091  0.0959  0.1567  0.0824
 6528W        W 8678   1.910   2.365   6.921  0.1495 -0.2196 -0.1020
 6529W        W 8679  14.751   0.597  16.698 -0.0980  0.2793  0.2288
 6530W        W 8680  16.400   1.591   8.098  0.2606  0.3323 -0.0935
 6531W        W 8681  11.903   2.577  12.681  0.1066 -0.1510 -0.0067
 6532W        W 8682   9.711   5.546  29.755 -0.0399  0.2501  0.2528
 6533W        W 8683   3.749   3.545  43.377  0.1816  0.3073 -0.1498
 6534W        W 8684   8.608   0.647  35.711 -0.2526 -0.0506  0.1379
 6535W        W 8685  15.375   3.581  33.291 -0.0174  0.0323 -0.0442
 6536W        W 8686  19.966   4.019  33.988  0.2048 -0.0651 -0.2737
 6537W        W 8687  13.825   2.847  13.094 -0.1686 -0.0547 -0.2992
 6538W        W 8688   9.244   0.304  15.677  0.1071  0.2592  0.3616
 6539W        W 8689  17.759   6.460  29.356 -0.1214 -0.1356 -0.0795
 6540W        W 8690  14.540   5.888   6.301 -0.0036 -0.1218 -0.0157
 6541W        W 8691   4.776   4.071  20.143 -0.3491  0.0855  0.2327
 6542W        W 8692  12.852   3.655  41.183 -0.0786 -0.0058  0.1728
 6543W        W 8693   4.995   5.840  35.024  0.0028 -0.2715 -0.2051
 6544W        W 8694   1.741   0.887  35.856 -0.0685 -0.0420 -0.0912
 6545W        W 8695   9.320   0.626  34.071 -0.0325 -0.0858  0.1395
 6546W        W 8696  17.250   1.380  10.356 -0.2603  0.1895  0.1848
 6547W        W 8697   2.799   1.849  38.523  0.0317  0.0705  0.0194
 6548W        W 8698   4.976   6.090  14.601  0.0577  0.0762  0.3063
 6549W        W 8699  10.779   4.353   4.428  0.3785  0.0345  0.0778
 6550W        W 8700  20.387   2.185  10.643  0.0625  0.1530 -0.1062
 6551W        W 8701   0.794   5.038  11.119  0.0469 -0.0389  0.3447
 6552W        W 8702  15.455   2.380  44.526  0.1606  0.1732  0.0519
 6553W        W 8703  18.576   0.614   7.160 -0.2148 -0.0311  0.0493
 6554W        W 8704  15.637   4.938   9.404  0.0385  0.1343  0.2369
 6555W        W 8705   4.203   2.026  39.395  0.0444  0.1979 -0.0927
 6556W        W 8706   6.273   6.535   2.590  0.0687  0.2071 -0.0934
 6557W        W 8707   4.947   1.587  23.009 -0.2422  0.0713  0.1396
 6558W        W 8708  12.072   2.249   5.313  0.1950  0.0103  0.0200
 6559W        W 8709  13.224   4.174   5.306  0.0747  0.0784 -0.1885
 6560W        W 8710   9.655   0.296  37.855 -0.1103  0.0108 -0.0865
 6561W        W 8711  14.199   1.081   9.763  0.1741  0.0926  0.1567
 6562W        W 8712   1.838   0.526  10.059 -0.2288  0.0762  0.3490
 6563W        W 8713  18.419   3.233  42.195 -0.1677  0.0850  0.1372
 6564W        W 8714  19.024   6.603  20.467  0.0330 -0.0965 -0.0521
 6565W        W 8715  11.908   1.707  40.797 -0.0540  0.0365  0.0549
 6566W        W 8716   0.616   0.448  36.129  0.1659 -0.0424 -0.1235
 6567W        W 8717  16.216   3.000  33.575  0.0011  0.2007 -0.1602
 6568W        W 8718  13.702   0.158  35.809  0.0498  0.0978  0.0768
 6569W        W 8719  19.863   2.021   9.590 -0.1529  0.1884  0.0026
 6570W        W 8720   0.355   0.955  43.664  0.1947 -0.0458  0.0114
 6571W        W 8721  20.769   5.908  12.095  0.0092 -0.0914 -0.2265
 6572W        W 8722   6.788   1.734   8.375  0.3244  0.0821 -0.1374
 6573W        W 8723   6.965   6.450  37.255 -0.0534 -0.0455  0.2206
 6574W        W 8724  19.746   0.603  18.608  0.1295 -0.4180  0.1218
 6575W        W 8725  17.056   3.490  31.225  0.0085 -0.4577 -0.0452
 6576W        W 8726  13.246   4.918  20.580  0.1944 -0.1303 -0.2043
 6577W        W 8727  19.387   5.141  11.454  0.0980 -0.0967  0.2171
 6578W        W 8728   6.642   0.219   0.645 -0.1391  0.0296 -0.0464
 6579W        W 8729  15.032   3.702   0.890 -0.1353 -0.3170 -0.0838
 6580W        W 8730   8.601   2.745  41.986  0.0047  0.0801  0.1049
 6581W        W 8731   4.878   5.905  11.938 -0.0479  0.0640 -0.2667
 6582W        W 8732  15.077   3.217  37.167  0.2560  0.1515  0.2380
 6583W        W 8733  12.725   2.755   2.695 -0.0866  0.0563  0.0944
 6584W        W 8734  13.402   4.013  17.435  0.1250  0.0365  0.2737
 6585W        W 8735  16.354   4.244   5.146 -0.2691  0.0269 -0.0187
 6586W        W 8736   5.257   1.276   6.096 -0.0314  0.0362 -0.1559
 6587W        W 8737   8.884   6.476  44.965  0.0775  0.3585  0.1619
 6588W        W 8738   6.749   6.444  15.887 -0.0151 -0.1593 -0.0131
 6589W        W 8739   7.216   3.624  16.815  0.3864 -0.2888 -0.0440
 6590W        W 8740  14.544   3.997  37.556 -0.1166 -0.0753  0.0398
 6591W        W 8741  20.897   3.915  10.419  0.0299 -0.1119 -0.1105
 6592W        W 8742  20.277   0.333  16.403  0.0780  0.0920  0.0817
 6593W        W 8743  18.100   1.676  39.018  0.0136 -0.1037 -0.1046
 6594W        W 8744  14.046   1.575   0.086  0.0739  0.0041  0.1306
 6595W        W 8745   5.454   5.444  22.630  0.0722 -0.0592  0.1837
 6596W        W 8746  11.638   1.512   0.012  0.1844 -0.0382  0.0595
 6597W        W 8747   0.141   3.496  43.485 -0.1989  0.3798  0.0804
 6598W        W 8748  12.385   3.905   8.170  0.0256  0.1102  0.3054
 6599W        W 8749   8.508   5.576  37.438  0.1251 -0.3431 -0.1542
 6600W        W 8750   7.823   0.224  14.842  0.0276 -0.0578 -0.3116
 6601W        W 8751   8.623   5.427  42.620  0.0995 -0.5231 -0.0735
 6602W        W 8752   9.830   5.601  16.056  0.2857 -0.0883  0.1148
 6603W        W 8753   2.879   0.752  32.517  0.2334 -0.1579 -0.0767
 6604W        W 8754   3.499   1.407  10.822  0.3149  0.1930 -0.2817
 6605W        W 8755  13.042   2.707  37.760  0.0094 -0.0650 -0.1510
 6606W        W 8756   7.491   4.010  31.737  0.2838 -0.1224 -0.0400
 6607W        W 8757   2.160   0.462   2.790  0.1641  0.1462  0.0393
 6608W        W 8758   9.912   6.456  40.518  0.1138 -0.2641  0.1113
 6609W        W 8759  19.797   5.705  13.428 -0.2097  0.1459  0.1930
 6610W        W 8760  16.461   6.464  31.563  0.0144  0.3938 -0.0800
 6611W        W 8761  14.668   0.884  41.539  0.1128 -0.1379 -0.3468
 6612W        W 8762   3.679   1.056  30.544  0.1472 -0.0435 -0.4290
 6613W        W 8763  13.729   6.110  17.252  0.0507 -0.0095 -0.0585
 6614W        W 8764  15.698   6.571  32.706 -0.1552  0.0218 -0.2812
 6615W        W 8765  14.799   2.103  20.396  0.0642  0.0425  0.0914
 6616W        W 8766   2.114   5.935  43.996  0.1999  0.0764 -0.1116
 6617W        W 8767  18.861   3.903  43.779  0.4274  0.0614  0.2159
 6618W        W 8768  10.702   4.686  43.778  0.0222  0.0292 -0.0375
 6619W        W 8769   6.701   4.924  35.511  0.1190  0.0849 -0.0338
 6620W        W 8770  18.459   0.045  36.979  0.2326 -0.0858  0.0059
 6621W        W 8771  16.779   5.192  39.782 -0.1521  0.1647 -0.0115
 6622W        W 8772  17.370   4.161  29.331  0.0817  0.1844 -0.0391
 6623W        W 8773  10.570   2.101  11.453  0.2675  0.1149  0.0075
 6624W        W 8774   4.579   3.422  23.233  0.4274  0.0255 -0.2652
 6625W        W 8775  18.836   0.100  20.025  0.0555  0.2055 -0.3901
 6626W        W 8776  16.888   1.154  31.241  0.0308  0.0869  0.2784
 6627W        W 8777   3.661   0.112  13.221 -0.3536 -0.0137  0.0339
 6628W        W 8778   4.620   0.102   7.108 -0.0733  0.1502  0.2117
 6629W        W 8779   0.945   2.413  44.014 -0.0148 -0.1572  0.0109
 6630W        W 8780   4.750   4.424  39.586  0.2116  0.4248  0.1753
 6631W        W 8781  20.525   5.949   2.265  0.2013  0.0203 -0.2358
 6632W        W 8782  19.524   1.803  40.690  0.0083 -0.2341 -0.2652
 6633W        W 8783   6.002   6.496  27.383  0.0215  0.1708 -0.0560
 6634W        W 8784   4.510   2.226  27.760 -0.2152 -0.0579  0.1896
 6635W        W 8785  10.088   5.267  34.509 -0.1491  0.1158  0.0872
 6636W        W 8786  11.947   2.877  28.094  0.0274  0.0184 -0.0193
 6637W        W 8787   7.083   2.420   2.520  0.0018  0.0060 -0.1184
 6638W        W 8788  10.476   2.753  26.967  0.1975  0.1360  0.1281
 6639W        W 8789   3.711   2.434  42.947  0.1790  0.1724 -0.4122
 6640W        W 8790  12.460   1.142  37.137 -0.1419  0.2090 -0.0559
 6641W        W 8791   5.847   6.375  20.751  0.0801  0.0737  0.2086
 6642W        W 8792  18.828   3.350  41.468 -0.1342  0.1227  0.0289
 6643W        W 8793   3.904   3.714  43.919  0.1166 -0.0878  0.0605
 6644W        W 8794   0.754   3.460   8.661  0.0440 -0.0921  0.0010
 6645W        W 8795  11.151   2.356   4.713 -0.3166 -0.2478 -0.0799
 6646W        W 8796   1.106   5.840  32.981 -0.1663  0.1237 -0.1795
 6647W        W 8797   3.042   2.142  34.896 -0.1302  0.2442 -0.3240
 6648W        W 8798  15.361   0.820   7.590 -0.1928  0.0073 -0.1357
 6649W        W 8799   7.776   4.515   5.552  0.1884 -0.1274  0.0836
 6650W        W 8800   9.515   2.709   5.965 -0.1013 -0.3088 -0.1307
 6651W        W 8801  17.206   2.932  12.644  0.2476 -0.2005 -0.0962
 6652W        W 8802  19.091   4.090  33.673  0.0807 -0.0430 -0.1802
 6653W        W 8803  13.849   6.604   8.129  0.1093  0.1581  0.0494
 6654W        W 8804   4.613   1.663  43.510  0.0739 -0.3205  0.0780
 6655W        W 8805  16.781   0.989  32.292 -0.1294 -0.0662 -0.1247
 6656W        W 8806   5.861   1.792   3.443 -0.0123 -0.0829 -0.1105
 6657W        W 8807  14.282   2.565  20.563  0.0198 -0.1479 -0.0339
 6658W        W 8808  18.615   5.585  43.097 -0.0241 -0.2829  0.3907
 6659W        W 8809  17.317   1.871  20.480 -0.0249 -0.0940 -0.1932
 6660W        W 8810  13.145   0.484  11.290 -0.0497 -0.2545  0.0270
 6661W        W 8811   9.320   4.876  11.449  0.1317  0.1675  0.0187
 6662W        W 8812  16.841   3.158  42.582 -0.0172 -0.1085  0.0658
 6663W        W 8813   4.859   4.803  24.314 -0.2903  0.1211  0.1328
 6664W        W 8814  19.032   4.183  36.998 -0.2388  0.1985 -0.0086
 6665W        W 8815   8.983   1.842  13.069  0.1847  0.1463 -0.0481
 6666W        W 8816  15.829   1.530   5.545 -0.0813  0.2280  0.0173
 6667W        W 8817   7.221   6.376  15.584 -0.0176  0.1487 -0.1355
 6668W        W 8818   8.172   3.956  35.806 -0.0785  0.2230  0.0296
 6669W        W 8819   6.158   4.583  26.617  0.1279 -0.1694  0.0406
 6670W        W 8820   3.707   0.309   6.289 -0.1556  0.2538  0.2012
 6671W        W 8821  19.881   3.378   6.975  0.0540  0.1129  0.0152
 6672W        W 8822   2.905   0.401  37.218 -0.1673  0.2721  0.0472
 6673W        W 8823  15.647   1.604   9.084 -0.1990  0.0066 -0.1507
 6674W        W 8824   2.865   3.973   0.024 -0.0081  0.3051  0.2980
 6675W        W 8825  15.670   5.125  32.117 -0.0931  0.2751 -0.3015
 6676W        W 8826   9.489   6.548  28.186 -0.1255 -0.3262 -0.1613
 6677W        W 8827   6.819   5.442  31.563 -0.0045 -0.0793  0.3299
 6678W        W 8828   8.861   3.270   4.196  0.0526  0.0565 -0.2333
 6679W        W 8829   4.093   2.098   5.833 -0.1058 -0.0661  0.1738
 6680W        W 8830   5.606   3.413  42.367  0.0534  0.0768 -0.1122
 6681W        W 8831   7.513   2.230   7.155 -0.0092  0.0876 -0.3521
 6682W        W 8832   6.193   3.338  44.188 -0.2153 -0.0350  0.2015
 6683W        W 8833   1.286   0.261   7.027  0.0168 -0.0755  0.0827
 6684W        W 8834  12.844   5.315   1.634 -0.0665 -0.0523 -0.0973
 6685W        W 8835   0.694   2.659  45.005 -0.1774  0.0613  0.1458
 6686W        W 8836  11.024   5.428   2.972 -0.4338 -0.0066 -0.0498
 6687W        W 8837  18.481   1.766  20.227 -0.2346 -0.4188  0.0583
 6688W        W 8838   8.313   1.973  11.790 -0.2483  0.1951  0.1027
 6689W        W 8839   6.596   3.913   6.399 -0.1580 -0.1362 -0.1031
 6690W        W 8840   1.199   2.227  34.315 -0.0088 -0.1477 -0.1895
 6691W        W 8841  13.865   2.295   4.243  0.1474 -0.1000 -0.4070
 6692W        W 8842  20.689   0.061  10.394  0.0344  0.3233  0.1860
 6693W        W 8843  18.020   4.758  11.517  0.1260 -0.3355  0.0580
 6694W        W 8844  19.137   5.104  13.464  0.1328 -0.1298  0.0899
 6695W        W 8845  18.210   4.479   3.082 -0.2072 -0.0266 -0.1762
 6696W        W 8846  16.266   4.806  10.745 -0.0774 -0.1792 -0.2289
 6697W        W 8847   8.436   2.153  10.944 -0.0505  0.1522 -0.2867
 6698W        W 8848  16.223   4.317  43.197 -0.3819 -0.0693 -0.0267
 6699W        W 8849  15.998   4.223   1.149  0.2463  0.3299 -0.2823
 6700W        W 8850   6.750   4.017   0.617  0.1759  0.2295 -0.0593
 6701W        W 8851  13.639   1.816  27.907 -0.1365  0.1678 -0.0774
 6702W        W 8852   1.418   5.856  28.825  0.1998  0.1708 -0.0921
 6703W        W 8853  19.249   3.583  10.300  0.0787 -0.2102 -0.0112
 6704W        W 8854   2.768   5.743  15.842  0.0848  0.0775  0.2453
 6705W        W 8855  14.900   2.626  17.522  0.0001  0.0564 -0.2547
 6706W        W 8856  13.578   4.767  41.562  0.0358 -0.0353  0.1357
 6707W        W 8857   7.099   2.610  21.483 -0.0206 -0.1613  0.1814
 6708W        W 8858   7.395   5.792  16.286  0.0448  0.2202 -0.1306
 6709W        W 8859   5.145   3.791  40.047 -0.4833 -0.2502  0.1689
 6710W        W 8860   8.980   0.122  12.088 -0.0243 -0.1625 -0.1034
 6711W        W 8861   4.291   0.213  41.075  0.2791 -0.0425 -0.0512
 6712W        W 8862  12.760   4.658  36.082 -0.4193  0.0535 -0.1071
 6713W        W 8863  16.157   5.261  11.230 -0.2141  0.3110  0.1089
 6714W        W 8864  16.152   3.070  41.378 -0.2412  0.2745 -0.2021
 6715W        W 8865   5.300   2.858   6.971  0.1495  0.0210  0.0889
 6716W        W 8866   1.277   5.711  15.188 -0.1073  0.3999  0.1044
 6717W        W 8867  12.717   0.534   0.416  0.1299  0.3349 -0.0741
 6718W        W 8868   2.040   0.149  33.086 -0.2024 -0.0718  0.1856
 6719W        W 8869  12.498   2.476   5.323  0.1638  0.0881 -0.3521
 6720W        W 8870   7.836   3.676  43.201 -0.1873 -0.1104 -0.3103
 6721W        W 8871   2.908   4.588  33.323  0.1717 -0.1981  0.0659
 6722W        W 8872  14.957   5.853  15.534 -0.0344 -0.1791  0.0599
 6723W        W 8873   1.923   2.216  33.905 -0.2212  0.1613 -0.1361
 6724W        W 8874  18.765   1.440  36.905 -0.0256 -0.0375 -0.1635
 6725W        W 8875  10.553   3.881  32.619 -0.1170 -0.1256  0.2121
 6726W        W 8876   8.591   0.938  27.221  0.0708 -0.0430 -0.0202
 6727W        W 8877  17.694   5.421  11.368  0.2397 -0.0307  0.0450
 6728W        W 8878  13.680   2.580  15.431 -0.1117  0.1029 -0.3291
 6729W        W 8879   8.677   3.790  32.353  0.0835  0.0158 -0.0827
 6730W        W 8880  11.668   0.846   8.271  0.1395 -0.1257  0.1164
 6731W        W 8881   8.190   1.848  22.353  0.0027  0.0636  0.1473
 6732W        W 8882   5.669   1.598  14.006  0.2565  0.1944 -0.1388
 6733W        W 8883   2.310   6.153   0.404  0.3039  0.2593 -0.0264
 6734W        W 8884  21.110   5.874  15.776 -0.1050  0.0244 -0.2931
 6735W        W 8885  20.947   5.806  32.281 -0.1964  0.1220  0.4353
 6736W        W 8886   4.397   5.530   0.123 -0.2708  0.1796  0.0679
 6737W        W 8887  14.427   5.992  42.946 -0.4069 -0.0761  0.0560
 6738W        W 8888   0.218   3.653   6.758 -0.3680  0.2525  0.0399
 6739W        W 8889   6.363   1.057   5.451 -0.2760 -0.1359 -0.0869
 6740W        W 8890   5.523   4.931   3.976  0.0950 -0.1266  0.0501
 6741W        W 8891   6.700   4.670   3.027  0.0072 -0.1033 -0.1125
 6742W        W 8892   5.463   4.064  44.660 -0.1120  0.1504  0.2407
 6743W        W 8893   3.180   2.136   1.184 -0.0847  0.3062  0.0709
 6744W        W 8894   3.901   2.158  14.665  0.0260 -0.0764 -0.2597
 6745W        W 8895  13.340   4.163   6.260  0.1491 -0.1338  0.0392
 6746W        W 8896  18.019   6.062   5.669  0.0831  0.3334  0.0630
 6747W        W 8897  17.534   4.235   3.737  0.1394  0.4517  0.2171
 6748W        W 8898  18.386   3.306  42.754  0.1687 -0.2077 -0.1057
 6749W        W 8899  16.918   2.450  44.863  0.0077 -0.4499 -0.0129
 6750W        W 8900   7.111   3.363  11.207 -0.4150 -0.1587 -0.0351
 6751W        W 8901  19.294   3.766  19.429 -0.2513 -0.3607 -0.1776
 6752W        W 8902   0.390   5.925   6.026 -0.2537  0.0334 -0.0615
 6753W        W 8903   4.652   2.093  21.913 -0.1123  0.0403 -0.2355
 6754W        W 8904  10.391   4.875  44.147 -0.0684  0.0103 -0.1263
 6755W        W 8905   0.489   2.835  43.173 -0.1965 -0.1336 -0.0960
 6756W        W 8906  11.752   2.240   8.979 -0.0661  0.0662  0.2682
 6757W        W 8907   8.346   4.508   4.716  0.2606  0.1513  0.0738
 6758W        W 8908  12.867   6.489  29.060 -0.0548  0.0532 -0.0842
 6759W        W 8909  19.284   4.367  11.919  0.1599 -0.1646 -0.1925
 6760W        W 8910  18.567   6.589  45.077 -0.1251  0.0872 -0.0564
 6761W        W 8911  16.191   5.226   8.845  0.1400 -0.0684 -0.3651
 6762W        W 8912   6.137   0.178   0.567 -0.0860 -0.0065 -0.0312
 6763W        W 8913  11.274   1.954  32.446  0.1409 -0.0269 -0.0512
 6764W        W 8914   7.718   0.979  10.613  0.1689  0.1916 -0.0278
 6765W        W 8915   8.401   5.711  13.448  0.2761  0.1195  0.1423
 6766W        W 8916   8.493   4.002   0.000 -0.2421 -0.1257  0.0441
 6767W        W 8917  10.925   4.537  40.569  0.1054  0.3265  0.1052
 6768W        W 8918  15.985   1.768  39.561  0.2080 -0.2333  0.1955
 6769W        W 8919   3.882   2.141   0.741  0.0248  0.2273 -0.1615
 6770W        W 8920  14.348   2.924  11.522 -0.0736 -0.0671  0.1692
 6771W        W 8921  13.388   3.480   3.150  0.1378  0.0294  0.4447
 6772W        W 8922  10.021   4.771  29.594  0.0102 -0.0723 -0.2216
 6773W        W 8923   8.896   2.554  29.099  0.0138  0.2494  0.0668
 6774W        W 8924   0.196   2.700   7.198  0.0406  0.1768  0.0225
 6775W        W 8925  14.556   0.729  43.247 -0.0806 -0.0841  0.0226
 6776W        W 8926  19.878   5.039   3.897 -0.1743 -0.0231 -0.2172
 6777W        W 8927  12.396   6.349  39.758  0.2735 -0.1174  0.1114
 6778W        W 8928   3.470   6.542  23.929  0.3728 -0.1464  0.0315
 6779W        W 8929   2.184   2.963  11.060  0.0833 -0.0130 -0.0255
 6780W        W 8930   9.292   4.608   0.034 -0.1082 -0.1345  0.0043
 6781W        W 8931   7.479   0.343  41.208  0.0415 -0.0166 -0.0105
 6782W        W 8932   8.078   1.618  31.627 -0.2522 -0.0207 -0.0111
 6783W        W 8933   7.794   4.713  28.179 -0.3202 -0.1433 -0.1768
 6784W        W 8934  20.494   4.994   0.554 -0.1310  0.1805  0.0299
 6785W        W 8935   9.888   4.987   7.719  0.0598  0.2312  0.0907
 6786W        W 8936  16.041   1.592   3.185  0.2994  0.0101  0.1353
 6787W        W 8937  10.187   1.162   2.710 -0.0445  0.0911 -0.1920
 6788W        W 8938   4.869   3.463  30.200  0.2040 -0.1084 -0.0291
 6789W        W 8939   2.748   4.833  41.078 -0.0061 -0.2666 -0.0268
 6790W        W 8940  17.996   0.901  44.464 -0.1449 -0.0325 -0.0366
 6791W        W 8941   6.408   4.199  41.791 -0.1286  0.2532  0.1178
 6792W        W 8942  13.495   2.922  11.703 -0.0207 -0.1178  0.2057
 6793W        W 8943   3.753   5.773  11.286 -0.1179 -0.0106 -0.2304
 6794W        W 8944  19.117   4.110   6.779  0.1529  0.0720 -0.4181
 6795W        W 8945  13.430   5.493  11.705  0.1943 -0.1153 -0.1976
 6796W        W 8946   6.941   1.176  40.816 -0.3131 -0.2350  0.1429
 6797W        W 8947  14.790   0.681  29.737 -0.0877  0.0474  0.2216
 6798W        W 8948   6.207   4.315  11.716 -0.0569 -0.2729 -0.0462
 6799W        W 8949  18.876   2.887  31.315  0.1502  0.2745  0.2140
 6800W        W 8950   5.624   2.634  30.551 -0.1348 -0.0650 -0.1805
 6801W        W 8951   3.285   6.565  12.543 -0.1614  0.0498  0.1975
 6802W        W 8952  12.038   0.672  12.424  0.4273 -0.0591 -0.4806
 6803W        W 8953   2.170   4.148   6.602  0.1533  0.0062 -0.0766
 6804W        W 8954  17.663   2.410   6.251  0.1757  0.2603 -0.1006
 6805W        W 8955  11.200   1.801  40.157  0.0291 -0.1871  0.3308
 6806W        W 8956  14.041   1.098  21.243 -0.0443 -0.2881  0.1039
 6807W        W 8957   2.571   2.461  27.306 -0.0174  0.1478  0.2432
 6808W        W 8958  11.660   2.966  42.886  0.1411 -0.0156  0.1534
 6809W        W 8959   5.076   3.691   9.145 -0.3452 -0.1502 -0.2485
 6810W        W 8960  18.177   3.543  43.880 -0.0780  0.1270  0.0844
 6811W        W 8961   2.324   6.093  34.850 -0.0144 -0.2949  0.1306
 6812W        W 8962  18.033   3.760  16.275 -0.0197 -0.1218 -0.1112
 6813W        W 8963  10.945   3.628  42.143 -0.1311 -0.0786 -0.1485
 6814W        W 8964   8.706   3.734   7.587  0.1291 -0.0628 -0.0254
 6815W        W 8965  15.586   6.600   2.120  0.0264  0.0795 -0.2468
 6816W        W 8966   6.320   4.267  15.134  0.1030 -0.1091 -0.0502
 6817W        W 8967  20.872   4.421  10.341 -0.3693  0.0174 -0.1440
 6818W        W 8968   2.627   1.425   5.874  0.0693 -0.1228 -0.0749
 6819W        W 8969  12.767   4.141   5.697 -0.0769  0.3111 -0.0042
 6820W        W 8970  19.356   4.568  29.125 -0.0048  0.3931  0.2616
 6821W        W 8971  16.175   6.321  23.408  0.2451 -0.1683  0.0053
 6822W        W 8972   3.859   6.323   4.150 -0.1255 -0.0767 -0.0098
 6823W        W 8973   5.046   0.958   1.409  0.0496 -0.0362  0.1782
 6824W        W 8974  17.091   5.027  13.126 -0.1724 -0.0325  0.0310
 6825W        W 8975   3.383   0.823  39.556  0.0172 -0.2109 -0.0046
 6826W        W 8976   5.534   4.076   2.754 -0.2192 -0.0909 -0.4542
 6827W        W 8977   7.298   1.003  22.031  0.0406 -0.0300  0.0337
 6828W        W 8978  17.527   4.006  10.906  0.0758 -0.2741 -0.0138
 6829W        W 8979  20.831   3.844   6.825  0.2200  0.0799 -0.1362
 6830W        W 8980   0.998   2.781  27.460  0.1852 -0.1513  0.1619
 6831W        W 8981   0.153   2.769  37.208 -0.2204  0.2353  0.0184
 6832W        W 8982   1.532   2.540  33.826  0.0164  0.0746 -0.1986
 6833W        W 8983  14.395   6.593  41.840 -0.1216  0.1148  0.2872
 6834W        W 8984  11.252   0.163   7.770  0.1943 -0.1205  0.4784
 6835W        W 8985   9.369   0.097  39.886  0.0709 -0.1265 -0.1483
 6836W        W 8986   6.246   3.403   8.828 -0.1124 -0.3194  0.0265
 6837W        W 8987   7.154   0.918   2.929 -0.2486  0.0547  0.0647
 6838W        W 8988  13.907   6.251  20.842  0.0304 -0.0258 -0.1181
 6839W        W 8989   8.538   3.231  38.384  0.1366  0.2451  0.1676
 6840W        W 8990  18.512   2.534  17.248  0.1632  0.1973  0.2247
 6841W        W 8991  14.410   2.625   8.733 -0.2831 -0.2512 -0.0132
 6842W        W 8992   6.083   0.399  13.811  0.3906  0.2517 -0.0257
 6843W        W 8993   0.651   4.350  35.687  0.1584  0.1806 -0.0537
 6844W        W 8994  19.214   4.334   2.679  0.0048  0.0160  0.0875
 6845W        W 8995   1.627   0.622  28.380 -0.4298  0.2078 -0.1954
 6846W        W 8996  12.061   4.515  31.313 -0.1558  0.2523 -0.4545
 6847W        W 8997   4.382   6.529  31.373 -0.2313  0.1392 -0.2525
 6848W        W 8998   7.792   4.969  44.295  0.1771 -0.2099  0.1320
 6849W        W 8999   1.957   1.026  38.912 -0.2180  0.2205  0.0734
 6850W        W 9000  20.393   4.899  40.588 -0.1185  0.2674  0.1413
 6851W        W 9001   5.973   3.881   9.871  0.2878 -0.0837  0.0418
 6852W        W 9002  11.902   6.086  15.721 -0.1788 -0.0366  0.0127
 6853W        W 9003  18.950   1.504  13.658 -0.1867 -0.2846 -0.2435
 6854W        W 9004  15.507   3.982   4.131 -0.1216  0.0746 -0.0905
 6855W        W 9005  11.485   3.019  12.992  0.0283  0.2535 -0.0670
 6856W        W 9006  20.752   1.109  42.697  0.3433  0.0596 -0.0426
 6857W        W 9007  15.784   1.720  38.262  0.0344  0.2121  0.0831
 6858W        W 9008  20.074   1.396  40.010 -0.0568  0.0263  0.0192
 6859W        W 9009  19.892   4.360  39.051 -0.1469 -0.0299  0.2699
 6860W        W 9010  19.613   0.908  14.665 -0.1131  0.1768  0.1035
 6861W        W 9011  18.568   3.782  13.644  0.2773 -0.2792 -0.2487
 6862W        W 9012  11.745   1.040  39.283 -0.1986  0.0707 -0.3352
 6863W        W 9013  17.226   2.243  34.346  0.1416  0.0766  0.2541
 6864W        W 9014   9.809   6.008  44.867 -0.0907  0.0891 -0.3760
 6865W        W 9015   1.221   6.023  29.760 -0.3032 -0.0945 -0.0336
 6866W        W 9016  18.854   1.698   6.062 -0.0671 -0.1411  0.0554
 6867W        W 9017  17.291   5.406  43.357  0.2827 -0.2209 -0.1327
 6868W        W 9018   9.597   0.301   7.243 -0.1011 -0.0574 -0.1537
 6869W        W 9019  10.302   0.487  36.578  0.0351  0.0934  0.1648
 6870W        W 9020  12.989   4.586   9.824  0.0092 -0.0071 -0.0381
 6871W        W 9021   8.085   6.462  35.937  0.2591 -0.1679 -0.0966
 6872W        W 9022   8.950   5.867  29.236 -0.3014  0.0180 -0.3728
 6873W        W 9023  16.733   0.293  12.946 -0.0577  0.4953 -0.0495
 6874W        W 9024  17.178   2.927  42.275  0.0535  0.1212 -0.0173
 6875W        W 9025  11.545   0.994  45.016  0.1060 -0.0456 -0.0856
 6876W        W 9026   5.185   4.608   5.559  0.2901 -0.0429 -0.1582
 6877W        W 9027  17.595   5.152  19.890 -0.2494 -0.1075  0.3202
 6878W        W 9028   1.016   0.761  32.704 -0.0770  0.1237 -0.1274
 6879W        W 9029  18.986   0.363   2.056  0.0167  0.0643  0.1815
 6880W        W 9030   3.796   6.584  22.691  0.0019 -0.0316  0.2057
 6881W        W 9031  13.359   2.119  14.683 -0.0541 -0.1031 -0.1683
 6882W        W 9032  16.243   0.549  40.079 -0.0639 -0.0055  0.2269
 6883W        W 9033  12.073   2.701   5.710 -0.0203  0.1003  0.0108
 6884W        W 9034  19.862   3.376  14.642 -0.1671 -0.0685  0.0564
 6885W        W 9035  18.875   4.324  40.049 -0.1157 -0.0444 -0.2581
 6886W        W 9036   8.139   2.344  14.119 -0.1241 -0.1196 -0.0177
 6887W        W 9037  20.949   0.765  29.338  0.3478  0.1357  0.1535
 6888W        W 9038   4.986   2.924   3.745 -0.1468  0.3339  0.0669
 6889W        W 9039  10.713   1.897  11.881 -0.0149  0.1148 -0.4475
 6890W        W 9040  18.181   0.880  15.626  0.1451 -0.3001 -0.1300
 6891W        W 9041   5.649   1.964   6.711 -0.1677 -0.2963 -0.2571
 6892W        W 9042  14.655   0.623   1.377 -0.3669 -0.0191 -0.0646
 6893W        W 9043   8.160   0.685  29.157  0.0906 -0.1008 -0.1894
 6894W        W 9044   7.769   1.867  44.550  0.3506  0.1111 -0.1098
 6895W        W 9045   6.602   4.008   9.507  0.1662  0.3565  0.0529
 6896W        W 9046   4.987   0.255  21.646 -0.2084 -0.2269 -0.1702
 6897W        W 9047   8.200   6.185   3.605  0.4442  0.1547  0.0393
 6898W        W 9048  10.677   6.121  40.076 -0.0258 -0.0590 -0.2048
 6899W        W 9049   8.381   5.302  16.048  0.0687 -0.1047 -0.3104
 6900W        W 9050  20.223   5.605  13.187 -0.0955 -0.2250  0.1501
 6901W        W 9051  20.873   4.245  42.787  0.1182  0.0650  0.2151
 6902W        W 9052   3.265   1.141  12.799 -0.1571  0.1840  0.4157
 6903W        W 9053   4.360   2.011   0.909 -0.0356 -0.2681  0.1327
 6904W        W 9054   4.632   5.308   5.429  0.0250  0.1316  0.1595
 6905W        W 9055  15.088   1.208  23.401  0.2313  0.0233  0.1366
 6906W        W 9056  19.254   6.128   8.833 -0.2845 -0.1904  0.1960
 6907W        W 9057   9.588   5.528  31.843  0.0890 -0.1651 -0.1190
 6908W        W 9058  17.988   2.456  35.214  0.1284 -0.1481  0.0190
 6909W        W 9059   2.210   0.087  41.708  0.4673  0.1153 -0.1786
 6910W        W 9060  14.614   1.891   0.416 -0.0866 -0.2168  0.0674
 6911W        W 9061   6.666   4.559  30.274  0.0636  0.0171 -0.1466
 6912W        W 9062  14.223   2.546  10.662  0.0676 -0.3286 -0.0394
 6913W        W 9063  18.264   3.505  34.567  0.0962 -0.1597 -0.0041
 6914W        W 9064  15.894   6.368  14.526  0.1057  0.1192 -0.0789
 6915W        W 9065  17.694   2.365  37.457  0.2337  0.0410 -0.1717
 6916W        W 9066   1.288   5.464  15.636  0.0352  0.0225 -0.1549
 6917W        W 9067  17.992   2.444  37.893  0.2449  0.0728 -0.2528
 6918W        W 9068  14.519   0.269  43.087  0.0617  0.0369 -0.4705
 6919W        W 9069   2.917   5.662  14.138  0.0926 -0.1541  0.0750
 6920W        W 9070  15.441   3.809   7.226 -0.2484 -0.2873 -0.0463
 6921W        W 9071   5.895   3.057  33.273  0.1001 -0.0436 -0.1364
 6922W        W 9072   2.999   4.946  14.837  0.2566  0.0417  0.0374
 6923W        W 9073   3.019   0.783  30.005  0.0063 -0.1981 -0.1063
 6924W        W 9074  12.168   2.888  43.821  0.3219 -0.0903 -0.1974
 6925W        W 9075  10.578   5.452  26.206  0.3854 -0.4688  0.0741
 6926W        W 9076   9.490   0.891  42.523  0.1121 -0.3041 -0.2272
 6927W        W 9077   4.770   0.746  40.415 -0.1777 -0.0636  0.2253
 6928W        W 9078  14.423   1.645   4.658 -0.1605 -0.0928  0.1509
 6929W        W 9079  12.988   2.447  20.638  0.0469  0.1346 -0.0622
 6930W        W 9080  16.913   1.974  17.905  0.1568  0.0465  0.0651
 6931W        W 9081  15.403   2.712   0.099 -0.1820  0.0949 -0.2638
 6932W        W 9082  19.927   2.416  42.866 -0.5531 -0.1607 -0.1834
 6933W        W 9083  11.955   5.933  10.325  0.0982 -0.2586 -0.0959
 6934W        W 9084  19.932   3.922  38.690 -0.0241 -0.0899  0.1723
 6935W        W 9085  10.187   0.881  26.910  0.2062 -0.1630  0.0345
 6936W        W 9086   8.878   2.835  10.342  0.1179 -0.0898  0.1043
 6937W        W 9087   2.182   4.488  12.779 -0.0911  0.1743 -0.0510
 6938W        W 9088  18.830   4.519  13.051  0.0943  0.1808 -0.1024
 6939W        W 9089  18.996   4.730  16.484  0.0105  0.1691 -0.0152
 6940W        W 9090   7.847   6.529  42.555  0.2288  0.0753  0.1644
 6941W        W 9091  14.918   3.055   2.091 -0.1939  0.1562  0.1332
 6942W        W 9092   7.871   2.502   4.874  0.1806  0.2049 -0.0034
 6943W        W 9093   1.318   3.339  27.539 -0.0878 -0.0188  0.0451
 6944W        W 9094  17.001   1.498   5.180 -0.2551 -0.3010 -0.1207
 6945W        W 9095   3.327   4.230  28.156 -0.0039  0.1781  0.1340
 6946W        W 9096  14.863   4.982   0.352 -0.0142 -0.1548  0.1435
 6947W        W 9097   1.747   2.333  13.292  0.0083 -0.0763  0.0812
 6948W        W 9098   4.033   6.591   7.586  0.0827  0.2444 -0.1404
 6949W        W 9099  15.874   2.334  12.191  0.0108 -0.1204 -0.1269
 6950W        W 9100   1.227   1.307  41.020  0.0926 -0.0505  0.3598
 6951W        W 9101   9.079   2.989  38.273 -0.3410 -0.0912  0.1704
 6952W        W 9102   8.678   3.537  13.864 -0.0884 -0.2005 -0.1110
 6953W        W 9103   1.716   3.406  28.584  0.1528 -0.1654 -0.1575
 6954W        W 9104   2.789   6.226  41.538  0.1331 -0.1997 -0.2007
 6955W        W 9105  10.006   5.358  28.947 -0.0531  0.1629 -0.2267
 6956W        W 9106  16.759   1.505  15.054 -0.0677 -0.0096 -0.1362
 6957W        W 9107  17.748   6.165   4.434 -0.0323  0.0777  0.1649
 6958W        W 9108  15.249   1.586  14.791 -0.1931 -0.0019 -0.0073
 6959W        W 9109  16.787   3.601  34.160 -0.0112  0.0279  0.0068
 6960W        W 9110   3.225   1.950  42.154  0.2239 -0.1677 -0.1065
 6961W        W 9111  12.568   6.023  38.801  0.1850  0.0140  0.0512
 6962W        W 9112   8.730   0.544   2.145  0.1538  0.1602  0.0326
 6963W        W 9113   2.779   5.576   8.820  0.4907  0.2205 -0.1858
 6964W        W 9114  11.742   5.348  32.869  0.0491  0.3637 -0.0350
 6965W        W 9115  18.675   1.089  36.050 -0.0803  0.0702  0.0926
 6966W        W 9116  14.433   0.882  21.519 -0.0640  0.0736 -0.1414
 6967W        W 9117  10.703   0.601   5.426 -0.0404 -0.1506 -0.1674
 6968W        W 9118  20.321   5.500   9.764 -0.0196 -0.1136  0.1438
 6969W        W 9119   4.185   1.743  43.170 -0.1155 -0.1838  0.0411
 6970W        W 9120   3.980   3.877  37.756  0.2423 -0.2797 -0.0950
 6971W        W 9121   5.847   6.548  29.126  0.1002  0.2826 -0.0604
 6972W        W 9122  16.481   3.230   8.692 -0.1254  0.1972  0.0051
 6973W        W 9123   3.081   1.899  33.155 -0.2337  0.2671  0.2033
 6974W        W 9124   3.118   4.400   5.300 -0.4678 -0.2590  0.1249
 6975W        W 9125   8.776   4.266  37.056  0.2934 -0.1359  0.0628
 6976W        W 9126   4.649   6.079   2.540  0.0105 -0.0135 -0.0661
 6977W        W 9127  13.701   5.770   8.893 -0.0953 -0.1238 -0.0851
 6978W        W 9128   0.561   2.400  30.113 -0.1831  0.0680  0.1068
 6979W        W 9129  16.641   4.357  17.735  0.1546  0.3425 -0.2375
 6980W        W 9130  19.347   3.345  14.918  0.2299 -0.2048 -0.0291
 6981W        W 9131   2.306   1.790  32.350  0.0375  0.0189  0.0199
 6982W        W 9132   5.425   3.666  26.333 -0.2387 -0.0108  0.0437
 6983W        W 9133   5.065   1.293  10.349 -0.1890 -0.1215 -0.0934
 6984W        W 9134  13.764   1.220  41.720  0.0165 -0.0396 -0.0691
 6985W        W 9135   6.407   5.854  37.000 -0.0573  0.2023 -0.1562
 6986W        W 9136   9.097   4.042  35.502 -0.0550  0.2279 -0.0083
 6987W        W 9137  10.316   6.514  41.998 -0.0122  0.1279 -0.0061
 6988W        W 9138  10.036   3.117  15.776  0.6680  0.0957 -0.3842
 6989W        W 9139  14.099   1.946   0.512  0.0424 -0.1300  0.0930
 6990W        W 9140  19.318   1.078   8.478 -0.0854  0.0115 -0.0354
 6991W        W 9141  16.896   1.455   2.358 -0.1453 -0.0654  0.1801
 6992W        W 9142  12.912   1.570  41.695  0.1196 -0.0858  0.0924
 6993W        W 9143   4.527   0.927  38.826 -0.3354  0.2058 -0.2050
 6994W        W 9144  18.853   4.289  29.710 -0.1486 -0.3978 -0.3453
 6995W        W 9145   3.909   6.203  31.838  0.3306  0.0540 -0.3825
 6996W        W 9146  19.515   3.808  15.235 -0.0007 -0.0973  0.1605
 6997W        W 9147  10.342   5.679  15.030 -0.3146 -0.1392  0.5112
 6998W        W 9148  11.061   2.477  12.919  0.0631  0.2254  0.1499
 6999W        W 9149   8.980   2.128  33.028  0.2097  0.2462  0.0678
 7000W        W 9150  18.220   4.918  18.887 -0.1261  0.1302 -0.0556
 7001W        W 9151  12.126   1.250  13.687 -0.0100 -0.2288 -0.0618
 7002W        W 9152   1.872   1.958  41.077  0.0089 -0.1281  0.2447
 7003W        W 9153   0.306   5.251  39.053 -0.0236  0.2877 -0.1166
 7004W        W 9154  10.002   4.292  36.694  0.4098  0.1538 -0.1071
 7005W        W 9155   2.457   0.570  10.487 -0.0388  0.0539 -0.0844
 7006W        W 9156  12.023   2.191  30.472 -0.2650  0.0603 -0.1146
 7007W        W 9157  17.542   1.261  22.992 -0.2319 -0.1435 -0.2039
 7008W        W 9158   5.528   1.139  33.772  0.0729 -0.1297  0.2577
 7009W        W 9159   1.895   0.405   0.003 -0.0922  0.2240  0.2067
 7010W        W 9160   4.799   6.488  10.794  0.0040 -0.2081 -0.2336
 7011W        W 9161  15.555   3.634   1.816 -0.0373  0.1111  0.0742
 7012W        W 9162  18.879   5.020  42.971 -0.1527  0.1674 -0.0381
 7013W        W 9163   0.367   5.321  35.318 -0.1014 -0.0744  0.1888
 7014W        W 9164  16.396   2.991  39.334  0.1982 -0.0586  0.1345
 7015W        W 9165   8.268   1.476   2.576 -0.1665 -0.0171  0.2602
 7016W        W 9166   9.444   3.673   9.342 -0.1159  0.0097 -0.0327
 7017W        W 9167  12.233   5.951  42.173  0.1949  0.1862 -0.0694
 7018W        W 9168   1.532   1.602  44.214  0.2172 -0.1203 -0.1664
 7019W        W 9169  18.020   4.572   1.467  0.3285 -0.0662  0.2283
 7020W        W 9170  12.569   0.398  18.035  0.0508 -0.0242  0.3189
 7021W        W 9171  17.487   4.097  33.420 -0.0488 -0.0042 -0.0289
 7022W        W 9172  20.043   2.285  34.992  0.0691  0.1080  0.2990
 7023W        W 9173   5.237   3.795  28.227 -0.0243 -0.0989 -0.0788
 7024W        W 9174  15.198   5.446   9.720 -0.2401 -0.1378 -0.2259
 7025W        W 9175  19.216   0.543  17.885 -0.2203  0.2646  0.0691
 7026W        W 9176  14.859   4.948  44.468  0.0375 -0.2233 -0.0423
 7027W        W 9177   3.546   0.357  12.333 -0.1260 -0.0291  0.1487
 7028W        W 9178   5.101   0.494   3.910 -0.1469  0.0512 -0.2199
 7029W        W 9179   1.168   4.053  13.692 -0.1455  0.1929  0.0709
 7030W        W 9180   5.015   5.576  30.468 -0.1662  0.1273 -0.0405
 7031W        W 9181  20.953   3.738  34.245  0.0191 -0.1763 -0.1384
 7032W        W 9182  17.309   2.723  39.559  0.0559  0.2872 -0.2036
 7033W        W 9183   0.573   3.727   6.207 -0.2229  0.1637  0.1970
 7034W        W 9184  14.158   6.433  42.306 -0.1444  0.1677  0.0886
 7035W        W 9185   9.030   2.810   7.479 -0.2361 -0.1488 -0.2019
 7036W        W 9186   2.703   1.942  32.777 -0.4044 -0.1785 -0.1662
 7037W        W 9187  20.353   4.565  41.049 -0.2772  0.0737 -0.1741
 7038W        W 9188   0.209   0.267  33.798  0.0337  0.2791 -0.2380
 7039W        W 9189   3.366   2.480  26.967  0.3058  0.0044 -0.2199
 7040W        W 9190  19.710   3.893  39.124  0.1312  0.1613 -0.0558
 7041W        W 9191  12.716   4.978  32.792  0.1360 -0.1046 -0.0596
 7042W        W 9192  12.560   0.343   4.496 -0.2838 -0.0343  0.0366
 7043W        W 9193  18.007   4.349  32.232  0.2585 -0.1020  0.2277
 7044W        W 9194  20.835   2.600  42.889 -0.1331 -0.0203  0.0709
 7045W        W 9195   5.530   4.627   0.488  0.0126  0.2493 -0.0750
 7046W        W 9196   5.511   3.613  21.799 -0.1083 -0.1118 -0.2029
 7047W        W 9197  18.640   2.662  12.862 -0.1931  0.1730  0.0584
 7048W        W 9198  13.755   1.897  31.934 -0.0715  0.0269 -0.0358
 7049W        W 9199  19.260   1.900  29.296 -0.1207 -0.0361  0.0301
 7050W        W 9200  14.562   0.618  38.939  0.3981  0.0512 -0.0066
 7051W        W 9201  17.347   0.002  19.360  0.0186  0.2162  0.2416
 7052W        W 9202   5.814   3.432   9.671  0.1865  0.0739  0.1744
 7053W        W 9203  13.792   2.353  21.503 -0.2041 -0.1792  0.3661
 7054W        W 9204   1.410   4.194  37.036 -0.2662 -0.0028  0.0632
 7055W        W 9205  13.889   5.355  19.540  0.1113  0.0580 -0.0956
 7056W        W 9206  19.681   1.391  28.073 -0.3774 -0.0988 -0.2248
 7057W        W 9207   8.800   4.060  26.639 -0.0822 -0.0081 -0.0386
 7058W        W 9208  11.877   5.059  14.107 -0.1605  0.0303  0.0902
 7059W        W 9209   8.968   4.987  42.089 -0.0218  0.0612 -0.1834
 7060W        W 9210   6.005   0.322  39.688  0.1144  0.2369 -0.0314
 7061W        W 9211  18.101   1.016  14.349 -0.0745 -0.0744 -0.1800
 7062W        W 9212   9.467   2.588  31.333 -0.0127 -0.1013 -0.1845
 7063W        W 9213  11.888   2.475  28.661 -0.0225  0.2908 -0.0358
 7064W        W 9214   4.775   5.965  23.874 -0.0621  0.0858  0.1821
 7065W        W 9215  10.445   0.289  26.307  0.1131  0.0814 -0.2355
 7066W        W 9216  10.523   0.536   1.758 -0.2203 -0.0973  0.0218
 7067W        W 9217   6.212   3.958  31.849 -0.0646  0.0892  0.1973
 7068W        W 9218  19.985   4.045   9.874  0.1835  0.0120  0.1530
 7069W        W 9219   0.548   3.734  43.557 -0.1887 -0.3427 -0.0759
 7070W        W 9220  14.626   3.849  43.961 -0.1786 -0.0887 -0.1717
 7071W        W 9221   9.335   1.172  10.026 -0.1196 -0.0846 -0.1257
 7072W        W 9222  12.652   4.532  32.599 -0.2298 -0.2440  0.2386
 7073W        W 9223  15.807   3.360  33.463 -0.1289  0.0928  0.1087
 7074W        W 9224   9.250   0.565  26.088  0.1115  0.0607 -0.1722
 7075W        W 9225  12.722   3.837   6.723  0.1720 -0.2282 -0.1293
 7076W        W 9226   5.143   1.303   8.357 -0.0273 -0.1716 -0.0319
 7077W        W 9227  10.360   0.424   0.966 -0.1072  0.0236  0.1420
 7078W        W 9228   0.636   2.019  33.104 -0.0048  0.1128  0.2062
 7079W        W 9229   4.559   0.780   2.249  0.1231  0.2598  0.1931
 7080W        W 9230  16.478   5.180   5.456  0.0426  0.1203 -0.3347
 7081W        W 9231  18.120   5.873   7.398 -0.0477 -0.2969 -0.1577
 7082W        W 9232   9.583   5.611  24.991 -0.0984 -0.0971 -0.1729
 7083W        W 9233  20.446   3.033  32.020 -0.1122  0.2605  0.0681
 7084W        W 9234  13.061   2.307  16.814 -0.2924 -0.2115 -0.2022
 7085W        W 9235   7.344   4.156  25.250 -0.4272 -0.0021  0.4444
 7086W        W 9236  10.364   4.233  13.416  0.0196 -0.1092 -0.0183
 7087W        W 9237  15.207   0.420  44.155 -0.2424  0.1767 -0.0405
 7088W        W 9238   1.002   1.540   2.312 -0.0430 -0.0074 -0.1197
 7089W        W 9239   9.602   2.793   7.287  0.0415  0.2070  0.1913
 7090W        W 9240   1.335   0.550  11.425  0.0710  0.2859  0.2116
 7091W        W 9241  15.230   3.863   3.017  0.0212 -0.0444  0.1750
 7092W        W 9242  15.260   0.411  34.184  0.1392  0.0889  0.0067
 7093W        W 9243  12.241   1.799  37.859  0.0104  0.0092  0.0718
 7094W        W 9244   6.041   6.308   8.002  0.2274  0.1737 -0.2286
 7095W        W 9245  21.102   1.942  44.596 -0.0772 -0.0668  0.2236
 7096W        W 9246   0.891   1.689   7.563 -0.0914  0.0104 -0.0604
 7097W        W 9247  18.364   3.342  21.697  0.2498 -0.0847  0.2392
 7098W        W 9248  12.633   3.088   3.839 -0.3155 -0.1817  0.2794
 7099W        W 9249  17.752   6.606  19.059 -0.1073  0.3371 -0.2997
 7100W        W 9250   0.784   0.826  38.625  0.1515  0.0894  0.1009
 7101W        W 9251  15.978   3.617  38.225  0.1134 -0.2331  0.0272
 7102W        W 9252  20.925   1.136  13.405 -0.0941  0.1695  0.1563
 7103W        W 9253  12.026   1.791  28.752 -0.1086 -0.1566  0.0769
 7104W        W 9254   2.275   3.892  40.390 -0.2200  0.0078  0.1401
 7105W        W 9255  16.646   3.432   4.755 -0.0878 -0.3385 -0.1209
 7106W        W 9256  16.505   5.497  38.949 -0.0355  0.0023  0.0191
 7107W        W 9257   7.796   5.708  15.209  0.1712  0.0994  0.4415
 7108W        W 9258   5.689   1.768  31.132  0.0377  0.2056 -0.3136
 7109W        W 9259  18.080   1.604  10.023  0.0444  0.2380  0.0524
 7110W        W 9260   5.352   5.750   1.443 -0.1910  0.1387  0.1994
 7111W        W 9261  20.798   3.071   5.486 -0.0617  0.0052 -0.0821
 7112W        W 9262  14.333   3.387   3.285 -0.1920 -0.2320 -0.0469
 7113W        W 9263   9.230   0.223  39.422  0.0366 -0.0793  0.1528
 7114W        W 9264  16.767   6.213  16.676  0.1184 -0.1907 -0.0883
 7115W        W 9265  19.190   3.538  14.472 -0.0792 -0.1100  0.2529
 7116W        W 9266   3.904   0.412   5.717 -0.0400  0.0535 -0.0027
 7117W        W 9267   5.515   4.936   5.759 -0.3811  0.0532  0.3544
 7118W        W 9268  14.758   2.081  31.090  0.0409  0.0765  0.0533
 7119W        W 9269  21.035   3.032  10.360  0.0421  0.0591  0.4595
 7120W        W 9270  12.371   4.980  40.783 -0.1512  0.1105  0.1187
 7121W        W 9271   1.031   3.943  32.706 -0.1422 -0.2003  0.1098
 7122W        W 9272  21.053   5.301  27.154 -0.0821 -0.4232 -0.2520
 7123W        W 9273  16.887   5.828  11.613 -0.0575  0.0443  0.0645
 7124W        W 9274  11.374   6.302  31.344 -0.0614 -0.2647 -0.0616
 7125W        W 9275  20.123   5.776   7.923 -0.0012 -0.2890  0.3426
 7126W        W 9276   2.314   2.641  25.434  0.1816  0.3164  0.0096
 7127W        W 9277   5.492   2.928  23.201  0.0349 -0.3944  0.1284
 7128W        W 9278  14.530   3.171  18.681 -0.0371  0.0776  0.0339
 7129W        W 9279  14.762   1.656  11.761 -0.1014  0.2545  0.1554
 7130W        W 9280   8.495   0.269  28.917 -0.0302 -0.3439 -0.0831
 7131W        W 9281  17.758   4.035   6.211  0.1676  0.4185 -0.3267
 7132W        W 9282  15.793   5.119   1.458 -0.1530 -0.0251 -0.1429
 7133W        W 9283   0.879   0.775   5.714 -0.0564 -0.0965 -0.0516
 7134W        W 9284   4.808   5.259  15.310  0.3219  0.1227  0.1932
 7135W        W 9285   9.229   4.910  10.033 -0.2775 -0.1159  0.0284
 7136W        W 9286  13.389   1.569  29.359  0.0515  0.5153  0.3290
 7137W        W 9287   7.907   5.549  33.590  0.0021 -0.0112  0.1633
 7138W        W 9288   1.564   1.265  32.572 -0.1810  0.1184 -0.0355
 7139W        W 9289  11.474   0.210  44.402 -0.2316 -0.1943  0.2488
 7140W        W 9290   9.791   6.207   7.329 -0.2536 -0.2143  0.0419
 7141W        W 9291   3.521   6.379  30.629 -0.3009  0.0960 -0.2057
 7142W        W 9292   9.379   3.006   4.354 -0.4918  0.1168 -0.0073
 7143W        W 9293  19.478   6.081   1.783  0.1337  0.1441 -0.3138
 7144W        W 9294   1.872   2.587  44.415 -0.1424 -0.0024 -0.1459
 7145W        W 9295  11.851   0.684  29.941 -0.0163 -0.0753  0.1365
 7146W        W 9296   1.479   2.005  39.483 -0.0518  0.2811  0.0956
 7147W        W 9297   7.214   2.467   0.325  0.2836 -0.1539 -0.0008
 7148W        W 9298  12.726   5.308   4.148  0.2952 -0.1743  0.0702
 7149W        W 9299   9.227   2.877   7.946  0.0508  0.1614  0.1934
 7150W        W 9300   4.227   0.312  25.627 -0.0097  0.1284 -0.1155
 7151W        W 9301   8.060   3.346   0.669 -0.1867  0.1197  0.2014
 7152W        W 9302   3.323   2.882  11.108 -0.4124  0.2537  0.1526
 7153W        W 9303  18.485   5.947  41.686 -0.0687 -0.0624 -0.0351
 7154W        W 9304  10.015   3.134  39.808  0.0968 -0.2833  0.1670
 7155W        W 9305   6.746   6.219  36.309  0.1336 -0.0297  0.2847
 7156W        W 9306  12.106   1.852  30.880  0.0390 -0.0158  0.0531
 7157W        W 9307   0.986   0.658  42.102 -0.2927 -0.0322  0.0778
 7158W        W 9308   7.442   0.741  11.412 -0.0019  0.4130 -0.1850
 7159W        W 9309  17.589   4.743  42.591  0.1323  0.1754 -0.0801
 7160W        W 9310  10.853   4.720  30.817 -0.0298 -0.0652  0.0239
 7161W        W 9311   7.269   5.469  29.009  0.0882 -0.0283  0.0949
 7162W        W 9312   8.540   4.744  32.661  0.2251  0.1992  0.0743
 7163W        W 9313  18.441   1.507   8.038  0.0621  0.1457  0.1020
 7164W        W 9314   4.382   0.978  33.809  0.1067  0.1259 -0.0988
 7165W        W 9315   1.847   5.664  40.896  0.4451  0.3255 -0.1972
 7166W        W 9316  17.225   1.839  44.950  0.0946 -0.0484  0.1021
 7167W        W 9317   3.964   4.433  43.344  0.1598  0.1530 -0.0724
 7168W        W 9318  12.143   2.649  10.752 -0.0845  0.2243 -0.1115
 7169W        W 9319  16.430   1.303  43.250 -0.2402 -0.3847 -0.0517
 7170W        W 9320   9.358   6.242   1.110  0.2683  0.0417  0.0852
 7171W        W 9321  13.392   0.971  31.268  0.1498  0.0797 -0.0378
 7172W        W 9322  16.417   3.215  16.785  0.2336 -0.5766  0.1661
 7173W        W 9323   2.669   2.097  29.468 -0.1498 -0.1082  0.0099
 7174W        W 9324  12.677   3.847  10.346 -0.0237  0.3029 -0.2359
 7175W        W 9325  20.580   0.338  31.569 -0.1852  0.0221 -0.0938
 7176W        W 9326   9.392   2.551  43.845 -0.4096 -0.3657 -0.1664
 7177W        W 9327   4.113   1.662   4.094  0.2746  0.1481  0.0526
 7178W        W 9328  13.700   1.785  14.944 -0.2065  0.1041 -0.1584
 7179W        W 9329   4.870   2.884  44.738  0.3952 -0.0357  0.0782
 7180W        W 9330   1.086   0.455  26.348 -0.1539  0.0772  0.1567
 7181W        W 9331   9.195   0.113  13.153  0.1306 -0.1820  0.0915
 7182W        W 9332  18.457   3.595   0.365  0.0695 -0.1592 -0.2817
 7183W        W 9333   9.479   3.356  41.214  0.0849  0.1249  0.2187
 7184W        W 9334  19.094   5.146  36.584 -0.1409  0.1204 -0.1466
 7185W        W 9335   3.353   5.327   0.332  0.1450 -0.2881  0.0579
 7186W        W 9336   1.731   2.306   3.907  0.1461  0.3405 -0.1858
 7187W        W 9337   4.021   2.956  41.062 -0.0788  0.2370  0.1179
 7188W        W 9338  16.734   0.081  20.173  0.2542  0.1270  0.0124
 7189W        W 9339  12.370   3.774   5.510 -0.0620 -0.1128 -0.0648
 7190W        W 9340  20.486   5.765  32.102  0.3202 -0.2501  0.0065
 7191W        W 9341   1.221   4.116   1.162  0.2583 -0.0658 -0.1939
 7192W        W 9342  13.842   0.772   2.091  0.3266  0.1930  0.0624
 7193W        W 9343  14.686   0.076  33.460  0.1189 -0.0245  0.0695
 7194W        W 9344   4.048   2.584   9.882 -0.2356  0.0874  0.0912
 7195W        W 9345   2.584   0.168   5.469 -0.3022  0.0058 -0.1363
 7196W        W 9346   8.237   5.276   5.673  0.3009 -0.1904  0.1690
 7197W        W 9347   0.954   3.790  33.562  0.0114  0.1048  0.1296
 7198W        W 9348  19.960   4.174  15.048 -0.0546  0.1587  0.1843
 7199W        W 9349  11.304   2.583  15.715  0.0355 -0.1777 -0.0880
 7200W        W 9350  20.252   4.947   3.231 -0.2250 -0.0393  0.1143
 7201W        W 9351   6.430   0.049  15.122  0.2415 -0.0498  0.0416
 7202W        W 9352  10.706   5.681  27.923 -0.1000  0.1265 -0.2245
 7203W        W 9353   7.745   2.880   7.878  0.0471 -0.0004 -0.3044
 7204W        W 9354  14.819   3.910  39.183  0.0130 -0.1347  0.0512
 7205W        W 9355   3.718   1.303  28.209  0.0214  0.0380  0.1674
 7206W        W 9356   7.278   2.330  32.561  0.3167 -0.0234 -0.2943
 7207W        W 9357  13.176   3.312  28.863  0.3081  0.0445 -0.0818
 7208W        W 9358  16.769   5.159  35.187 -0.0640  0.2398 -0.2290
 7209W        W 9359  21.083   3.896   3.490 -0.0814  0.0662  0.1231
 7210W        W 9360  17.936   1.685  34.801 -0.3408 -0.0009 -0.1420
 7211W        W 9361  11.562   5.512  31.834  0.0186 -0.2866  0.1555
 7212W        W 9362   2.819   6.315  39.766  0.3000  0.2276  0.0358
 7213W        W 9363   1.855   1.815  37.902 -0.2513  0.1263 -0.0486
 7214W        W 9364  18.552   0.220  36.376  0.0479 -0.1401  0.2808
 7215W        W 9365   2.321   4.426  14.758 -0.3960  0.2134 -0.1000
 7216W        W 9366  16.204   0.811   9.142 -0.1790  0.1630 -0.1211
 7217W        W 9367  21.111   5.862  11.168  0.0148 -0.1806 -0.0557
 7218W        W 9368   4.555   4.507  41.316 -0.0527  0.0907 -0.0894
 7219W        W 9369  20.461   0.277   5.966 -0.1632  0.1707 -0.0123
 7220W        W 9370   9.937   0.238  26.173 -0.0577 -0.1179 -0.1438
 7221W        W 9371  21.073   2.771  15.011  0.1336 -0.1628 -0.2765
 7222W        W 9372  16.379   6.248  22.258  0.0758  0.1451  0.2102
 7223W        W 9373  16.064   5.968   3.059 -0.5432  0.0730  0.2984
 7224W        W 9374  15.548   2.916  15.425 -0.0406  0.0910 -0.0063
 7225W        W 9375  12.331   5.715  10.490 -0.1943 -0.0211  0.3171
 7226W        W 9376  14.606   4.500  17.858  0.0656  0.6227 -0.1350
 7227W        W 9377   3.691   3.886  10.297  0.0385  0.1471 -0.1373
 7228W        W 9378  20.658   1.983  45.082 -0.2779 -0.0400  0.0676
 7229W        W 9379  19.691   2.068  29.036  0.1485  0.0250 -0.2507
 7230W        W 9380   9.449   0.126  14.800 -0.2075  0.2308  0.4243
 7231W        W 9381   1.638   1.239   7.860 -0.1111  0.0636  0.0079
 7232W        W 9382   6.359   2.353  35.704 -0.2381  0.1620 -0.0201
 7233W        W 9383  17.566   1.236  20.160  0.3304  0.1194  0.0759
 7234W        W 9384   9.883   6.340  15.166 -0.1456 -0.0071 -0.0067
 7235W        W 9385   6.636   3.685  14.394 -0.2759  0.1141  0.0168
 7236W        W 9386   6.063   6.016   5.717  0.1267  0.1945  0.1091
 7237W        W 9387  17.130   3.720  21.834 -0.0069 -0.2665 -0.1766
 7238W        W 9388   9.425   3.016  27.793  0.0091 -0.0015  0.0022
 7239W        W 9389   7.942   4.675   3.542 -0.0593 -0.4078  0.3012
 7240W        W 9390   6.779   0.621  36.020  0.0244 -0.1808  0.1798
 7241W        W 9391  15.514   2.073   8.272  0.1311  0.0429  0.2892
 7242W        W 9392  19.230   4.916  15.324  0.0462 -0.2944 -0.1430
 7243W        W 9393   3.410   3.909   5.235 -0.0255 -0.1045 -0.1769
 7244W        W 9394  12.848   3.970   0.444 -0.0237 -0.0353  0.1344
 7245W        W 9395   4.750   3.453  44.957 -0.0554  0.1988 -0.2342
 7246W        W 9396  15.142   2.333  22.342  0.0031 -0.3909  0.1081
 7247W        W 9397  20.965   5.399   6.492 -0.1865 -0.0493  0.0554
 7248W        W 9398   2.850   2.497  40.775 -0.0202 -0.2977 -0.3745
 7249W        W 9399  15.039   1.282  38.535  0.2871  0.1417 -0.0655
 7250W        W 9400   3.346   4.875  23.039 -0.2754 -0.0682 -0.0494
 7251W        W 9401   4.108   5.185  22.981 -0.1132  0.0214  0.2075
 7252W        W 9402  14.200   5.488   1.344 -0.0054  0.3912  0.0719
 7253W        W 9403  11.267   6.274   9.693  0.2159 -0.1593 -0.1586
 7254W        W 9404   6.980   5.063  13.068 -0.1305  0.1510  0.3408
 7255W        W 9405  17.942   5.874  22.842  0.0788  0.0071  0.0003
 7256W        W 9406  17.513   6.451  42.838  0.2240  0.1305 -0.4149
 7257W        W 9407  20.661   5.372  43.183 -0.1370 -0.0537 -0.0495
 7258W        W 9408  11.996   2.976  13.109 -0.4055  0.3908 -0.1042
 7259W        W 9409   1.451   3.278   5.952 -0.3043  0.1837 -0.1971
 7260W        W 9410   6.588   3.743   5.626  0.1863 -0.1804 -0.0037
 7261W        W 9411  20.162   1.759  12.644 -0.3203 -0.5851  0.2344
 7262W        W 9412  13.685   5.631  17.165  0.1432 -0.2086  0.1691
 7263W        W 9413  20.299   3.774  42.286 -0.0588  0.0325  0.0164
 7264W        W 9414  16.192   3.146  43.337  0.2860  0.2691 -0.0012
 7265W        W 9415  15.511   3.407  17.245  0.2905 -0.1867  0.0121
 7266W        W 9416   9.810   3.403  45.066  0.0446 -0.0301 -0.0916
 7267W        W 9417  15.222   3.074  38.560  0.0579  0.1438  0.1440
 7268W        W 9418   0.887   0.219  38.979  0.2420 -0.0683 -0.0649
 7269W        W 9419   6.062   5.378  37.541  0.2224  0.2501  0.1318
 7270W        W 9420  14.405   5.407  16.077 -0.0318  0.1855 -0.2060
 7271W        W 9421   8.486   2.997   1.477 -0.0810  0.1008 -0.0186
 7272W        W 9422  15.494   2.414   7.381  0.0444  0.0845  0.0362
 7273W        W 9423  11.303   0.869   3.798  0.1341  0.3526 -0.2389
 7274W        W 9424   9.673   1.470  39.624  0.1030  0.0754 -0.2348
 7275W        W 9425   6.339   4.199  24.058 -0.0621 -0.1558  0.0959
 7276W        W 9426   9.333   2.837   3.208  0.2609  0.0153 -0.0708
 7277W        W 9427   9.914   4.421  10.082  0.0951 -0.3589  0.1412
 7278W        W 9428  14.027   4.735  14.339 -0.1204 -0.0235 -0.0665
 7279W        W 9429  13.307   0.699  20.028 -0.1624  0.0183 -0.1790
 7280W        W 9430   0.981   2.838   4.894  0.3605  0.1666  0.0867
 7281W        W 9431   9.683   0.975  11.937  0.0210 -0.4034 -0.2977
 7282W        W 9432  20.349   2.250  36.917 -0.0684  0.3339 -0.1685
 7283W        W 9433  10.434   6.552  32.728  0.0473 -0.1460  0.0171
 7284W        W 9434  10.518   3.292  15.812 -0.2799  0.2061  0.2068
 7285W        W 9435  18.394   2.789  10.338 -0.4286 -0.2866  0.1926
 7286W        W 9436  21.124   4.934  38.737 -0.2326  0.0201 -0.1648
 7287W        W 9437  12.217   0.836  29.285  0.3761 -0.1701 -0.1264
 7288W        W 9438  12.857   3.529  34.420  0.1721 -0.2652  0.2558
 7289W        W 9439  20.855   5.155  17.033  0.0227 -0.0736  0.1249
 7290W        W 9440   0.320   2.893  11.157 -0.0918 -0.2339 -0.1503
 7291W        W 9441  16.936   1.518  24.275  0.0951 -0.0812 -0.1075
 7292W        W 9442   3.752   5.882   7.461  0.1351 -0.1547  0.0621
 7293W        W 9443  13.084   3.263  37.078 -0.4905 -0.2468 -0.0927
 7294W        W 9444  13.477   1.075  35.746 -0.1776  0.0140 -0.0652
 7295W        W 9445  10.058   1.895  44.962  0.3220  0.1495  0.0422
 7296W        W 9446   5.783   6.572  28.662  0.2689  0.3016  0.0514
 7297W        W 9447   5.566   1.179  10.648  0.0496  0.1185 -0.0488
 7298W        W 9448  18.483   2.574  38.299 -0.2199  0.2475 -0.1348
 7299W        W 9449  10.146   3.630  30.898 -0.1079  0.2164  0.1507
 7300W        W 9450  17.804   3.888   5.726  0.2213 -0.0950 -0.0365
 7301W        W 9451   8.546   2.568  36.199  0.0087  0.2005 -0.1773
 7302W        W 9452  13.776   6.267  41.029  0.0924 -0.0131  0.1977
 7303W        W 9453   1.976   1.152  27.138  0.0838 -0.4655  0.0695
 7304W        W 9454  20.018   3.144   7.446 -0.0969  0.2683  0.0367
 7305W        W 9455  16.842   5.091  36.654 -0.0614 -0.0905  0.4390
 7306W        W 9456  14.153   2.706  40.767 -0.1488 -0.0918 -0.1640
 7307W        W 9457  20.292   4.776  12.575  0.1999  0.2112  0.0417
 7308W        W 9458  14.349   5.935  11.768 -0.2133  0.2332  0.1434
 7309W        W 9459  20.870   3.526  18.089 -0.2905 -0.1143  0.1834
 7310W        W 9460  12.889   4.165  15.386 -0.2796  0.0107  0.1653
 7311W        W 9461  17.424   5.387  25.265 -0.0879 -0.1634 -0.0569
 7312W        W 9462  11.393   6.577  26.428 -0.0220  0.2147  0.3302
 7313W        W 9463  19.624   4.381   9.104 -0.2183  0.1241  0.0762
 7314W        W 9464   1.120   6.317  13.167 -0.0657  0.0007  0.2308
 7315W        W 9465  16.796   0.043  30.369  0.1635  0.1658  0.1409
 7316W        W 9466  10.107   2.696   0.948  0.0365 -0.4195  0.0087
 7317W        W 9467  13.248   3.735  43.308 -0.1906 -0.3860 -0.0668
 7318W        W 9468   9.915   0.274   5.434 -0.2022  0.1071  0.1684
 7319W        W 9469   2.298   4.311  25.307  0.0994  0.2518  0.0049
 7320W        W 9470  14.097   5.928  33.282 -0.1425 -0.0664 -0.0102
 7321W        W 9471  18.642   1.032   3.812 -0.0315  0.1694 -0.1245
 7322W        W 9472   6.434   6.283  33.913  0.1301  0.0074 -0.3885
 7323W        W 9473   2.465   6.050   8.934 -0.0706 -0.2764  0.0359
 7324W        W 9474  10.066   5.639   0.089 -0.1069  0.0529  0.0812
 7325W        W 9475   7.435   1.586  34.371  0.0314 -0.0946  0.3517
 7326W        W 9476   7.445   3.861  24.824 -0.1855 -0.3646  0.3849
 7327W        W 9477  13.072   4.523  43.684  0.1359 -0.1565 -0.2042
 7328W        W 9478   4.817   3.163  22.907  0.2914  0.2492  0.1209
 7329W        W 9479   7.683   0.811  42.016 -0.0394  0.0831 -0.4894
 7330W        W 9480   9.611   0.785  15.670  0.0511  0.0861  0.0070
 7331W        W 9481  13.256   5.024   4.182 -0.2505 -0.0409  0.3425
 7332W        W 9482   1.324   5.010   0.424  0.1647  0.2907  0.0445
 7333W        W 9483  20.280   1.198  16.226  0.0970  0.2259 -0.2037
 7334W        W 9484   5.686   1.395   7.142  0.2357  0.1778  0.0843
 7335W        W 9485  13.423   3.605  30.350  0.0463  0.0335  0.1079
 7336W        W 9486  12.748   4.062  29.530  0.0554  0.0704  0.0859
 7337W        W 9487   5.432   2.654   5.593 -0.0143  0.0100 -0.2368
 7338W        W 9488   6.234   4.107  25.144  0.1326  0.2487 -0.0343
 7339W        W 9489  11.817   5.133  39.772  0.4096  0.0740 -0.2878
 7340W        W 9490   8.645   5.801  38.078 -0.0333 -0.0360  0.1051
 7341W        W 9491   3.449   4.502  41.274 -0.2305  0.0655 -0.2153
 7342W        W 9492   1.975   1.021  29.307 -0.2723 -0.2179  0.0794
 7343W        W 9493   7.514   4.616   7.889 -0.2317  0.3652  0.2417
 7344W        W 9494  16.733   0.235  40.417  0.2285 -0.1741 -0.0356
 7345W        W 9495  10.173   6.077  41.098  0.1661 -0.0540 -0.0133
 7346W        W 9496  14.132   3.412  14.306  0.1806  0.0910 -0.1353
 7347W        W 9497   2.451   2.409   4.616  0.0931 -0.0751 -0.0621
 7348W        W 9498  10.965   6.149  10.454  0.1239 -0.1757  0.0707
 7349W        W 9499   7.057   5.535  41.062 -0.1271 -0.0178  0.1713
 7350W        W 9500  15.483   6.221  38.972  0.0163 -0.2105  0.0072
 7351W        W 9501  13.478   1.666  32.748 -0.1503  0.1356 -0.1492
 7352W        W 9502   0.163   3.243  18.891 -0.0713  0.6020  0.1035
 7353W        W 9503  15.627   6.270  42.927 -0.0652  0.0934  0.0355
 7354W        W 9504  18.137   2.575   9.449 -0.1800  0.2589  0.0072
 7355W        W 9505   1.236   5.672  42.160 -0.3345 -0.0190  0.0405
 7356W        W 9506  20.835   5.202  39.715  0.4497  0.1563  0.3284
 7357W        W 9507  17.759   3.901  10.418  0.2149  0.1954 -0.2355
 7358W        W 9508  13.810   1.159  11.923  0.0164 -0.0061  0.0792
 7359W        W 9509   2.598   2.600  40.008 -0.0687  0.2132  0.1373
 7360W        W 9510  10.085   0.871   9.268  0.0020 -0.1540 -0.0903
 7361W        W 9511   4.308   5.360   1.217 -0.0188  0.0340 -0.0603
 7362W        W 9512  12.684   4.153  41.373  0.0274 -0.0485  0.2292
 7363W        W 9513  19.720   2.077   5.668 -0.0870 -0.1287 -0.0753
 7364W        W 9514  20.016   1.534  35.859 -0.0475 -0.0138  0.1250
 7365W        W 9515  16.461   6.244  16.292  0.0523 -0.1060  0.0220
 7366W        W 9516   7.149   5.696  14.112  0.1312  0.3668 -0.5608
 7367W        W 9517  20.634   4.875  10.468  0.2083  0.2914 -0.0571
 7368W        W 9518   7.924   4.782  35.853 -0.1556  0.3518 -0.0403
 7369W        W 9519  17.972   2.524   6.681  0.0046 -0.0967  0.2620
 7370W        W 9520  12.925   4.797   7.827  0.1045 -0.0437  0.0195
 7371W        W 9521  16.344   3.001  31.614 -0.2091  0.2912 -0.2106
 7372W        W 9522   1.549   0.909  10.796  0.2421  0.1110  0.0802
 7373W        W 9523  20.786   4.291  32.739 -0.1884  0.0729  0.1298
 7374W        W 9524   8.410   5.508   9.739 -0.1151  0.0816  0.2247
 7375W        W 9525   5.813   1.293  44.211  0.1086  0.0975 -0.0545
 7376W        W 9526  12.714   5.942  44.919 -0.2056 -0.1319 -0.1341
 7377W        W 9527   3.092   3.739  23.891  0.2669 -0.0626  0.2327
 7378W        W 9528  19.849   5.075  40.615 -0.1551 -0.2653  0.0474
 7379W        W 9529  17.127   0.518  10.198  0.0587 -0.1596 -0.0607
 7380W        W 9530  12.740   0.430  15.875  0.2402  0.2471  0.0991
 7381W        W 9531  19.801   3.968  17.237  0.2411 -0.1147 -0.2556
 7382W        W 9532   4.997   4.724  44.257  0.1864 -0.1744 -0.0851
 7383W        W 9533   0.924   3.553  17.624  0.0005  0.2558  0.3059
 7384W        W 9534   0.845   0.212  29.581  0.2185  0.1748  0.2216
 7385W        W 9535  19.679   6.458   2.126  0.1908  0.0260 -0.0126
 7386W        W 9536   5.028   0.370  30.800  0.2323 -0.4678 -0.0648
 7387W        W 9537   9.570   4.232   9.340  0.1005 -0.0027 -0.1052
 7388W        W 9538  19.029   5.192  29.869 -0.0085  0.0782  0.2828
 7389W        W 9539  17.578   5.460   3.495  0.0697  0.0894  0.2244
 7390W        W 9540  11.801   4.704   1.336 -0.1367 -0.0625 -0.2089
 7391W        W 9541  10.903   3.098  15.098  0.1930 -0.0694  0.1637
 7392W        W 9542  14.735   6.465  35.614 -0.0576 -0.1702 -0.1814
 7393W        W 9543   7.776   5.063   5.778  0.0427  0.0943 -0.2272
 7394W        W 9544  10.191   0.028  27.214 -0.0460 -0.1957  0.0823
 7395W        W 9545   9.815   6.110  30.804 -0.0029  0.0682 -0.3652
 7396W        W 9546  19.483   2.451  41.757  0.1400 -0.0772  0.1793
 7397W        W 9547   6.856   0.992  25.299  0.0435  0.2324  0.2057
 7398W        W 9548   9.117   4.454  26.430  0.1125 -0.0154 -0.1871
 7399W        W 9549  14.805   6.095  36.360  0.3166 -0.3218 -0.0908
 7400W        W 9550  11.865   2.020  35.046 -0.0615  0.2892 -0.2231
 7401W        W 9551   9.952   4.594  13.086  0.0466  0.2273  0.0588
 7402W        W 9552   3.965   1.685   5.630  0.0048 -0.0071  0.0166
 7403W        W 9553   3.633   3.356  38.438 -0.0195  0.2763  0.0969
 7404W        W 9554  17.679   5.493  30.330 -0.1335 -0.0052  0.3896
 7405W        W 9555   1.988   3.461  14.645 -0.1975  0.0110  0.3140
 7406W        W 9556   8.522   6.001   9.956 -0.1063  0.1276 -0.2228
 7407W        W 9557   5.663   0.467   1.483 -0.3048 -0.1091  0.1711
 7408W        W 9558   4.297   5.641  40.797  0.4237 -0.0399 -0.3271
 7409W        W 9559   5.199   2.291  38.778 -0.3980  0.1437  0.2375
 7410W        W 9560   8.258   1.207  42.896  0.1853 -0.0389 -0.1789
 7411W        W 9561  10.597   1.150  41.689 -0.2156 -0.3689  0.0696
 7412W        W 9562  20.032   2.771  17.900  0.1475  0.2239 -0.3279
 7413W        W 9563  18.704   4.516  11.866 -0.1845  0.1207 -0.0674
 7414W        W 9564   5.352   5.672  11.865 -0.1004  0.2826 -0.4066
 7415W        W 9565  13.907   1.685  11.938  0.1723 -0.3950  0.0072
 7416W        W 9566   8.861   2.875  14.243 -0.3179 -0.3580 -0.3116
 7417W        W 9567   6.019   0.368  15.974 -0.0685  0.3700  0.1137
 7418W        W 9568   1.559   2.827  27.642 -0.3005  0.1535  0.2469
 7419W        W 9569  18.613   0.154   9.600 -0.2340  0.2747 -0.0755
 7420W        W 9570  16.670   1.484  30.674 -0.2995  0.3211  0.0262
 7421W        W 9571  15.563   3.282   6.650  0.1030  0.1287 -0.2033
 7422W        W 9572  13.928   2.216  13.825  0.1922  0.3949 -0.2938
 7423W        W 9573  20.679   1.749   4.224 -0.0977 -0.0443 -0.1421
 7424W        W 9574  13.342   1.212   6.101  0.1256  0.1142  0.2248
 7425W        W 9575   6.083   1.776   1.562 -0.0828  0.1226 -0.0375
 7426W        W 9576   7.719   5.149  42.300 -0.1489 -0.0246  0.0494
 7427W        W 9577   9.701   1.903  33.537 -0.0104  0.1885  0.0710
 7428W        W 9578   5.612   3.763  25.813  0.4259 -0.2903 -0.0479
 7429W        W 9579   8.928   4.672  27.325  0.0886 -0.0225 -0.1764
 7430W        W 9580   9.944   0.034  10.511 -0.3662 -0.3753 -0.0711
 7431W        W 9581   0.826   1.524  17.599  0.2181  0.0302  0.1603
 7432W        W 9582  15.390   3.815  29.469  0.1445 -0.2158  0.0646
 7433W        W 9583   9.401   1.370  11.968  0.2366 -0.3417 -0.0322
 7434W        W 9584   3.953   1.033  40.339 -0.1797  0.0071 -0.0362
 7435W        W 9585  12.468   0.543   9.949 -0.1205  0.1823  0.0591
 7436W        W 9586  20.192   0.917  12.084 -0.2079  0.0831  0.1288
 7437W        W 9587   3.205   1.802  41.124 -0.0300  0.1608 -0.0303
 7438W        W 9588   1.021   5.770  30.146 -0.0362 -0.3490 -0.1866
 7439W        W 9589   6.874   4.270   4.949  0.2226  0.1017 -0.0015
 7440W        W 9590   1.281   3.443  12.453  0.2666  0.0181 -0.1387
 7441W        W 9591  17.291   0.860  10.588  0.2103 -0.0146 -0.1719
 7442W        W 9592  17.210   2.494  37.887 -0.0353 -0.1325 -0.0450
 7443W        W 9593   9.006   1.970  13.566 -0.2111  0.0230  0.0649
 7444W        W 9594  16.764   6.432   7.414  0.0469  0.2365  0.4756
 7445W        W 9595   7.569   4.153  16.028 -0.0753  0.0352 -0.2688
 7446W        W 9596   8.929   0.425  13.470 -0.1147  0.0446 -0.3714
 7447W        W 9597  16.109   2.716  24.039 -0.0388 -0.0986  0.1187
 7448W        W 9598   1.785   5.529  30.717  0.3100  0.0296  0.1455
 7449W        W 9599   6.241   3.211   7.731  0.1682  0.2166 -0.0022
 7450W        W 9600   5.542   4.274  36.627 -0.0771 -0.2106  0.0809
 7451W        W 9601   4.635   1.533  21.829  0.1379  0.0104 -0.1554
 7452W        W 9602   1.521   5.523   2.763  0.1102 -0.0858 -0.1083
 7453W        W 9603  15.140   1.804  30.389 -0.0758 -0.1887 -0.3156
 7454W        W 9604   1.081   5.161  16.990 -0.1216 -0.1499  0.1279
 7455W        W 9605   3.746   4.706  44.496  0.3503 -0.0745  0.0703
 7456W        W 9606  18.891   5.375  29.333  0.1453  0.0318 -0.0573
 7457W        W 9607  16.596   4.309  25.472  0.1378  0.0607  0.0438
 7458W        W 9608   3.450   4.195   7.135  0.1270 -0.1500  0.2236
 7459W        W 9609  20.050   5.714  32.373 -0.2960  0.2890  0.1378
 7460W        W 9610   7.712   6.605  25.847 -0.0029  0.1307  0.2371
 7461W        W 9611   0.930   2.103  15.693  0.2866 -0.0590  0.1661
 7462W        W 9612  12.475   0.506   5.478 -0.0984 -0.1006  0.0275
 7463W        W 9613   5.425   1.017  44.279  0.1224 -0.2360 -0.1756
 7464W        W 9614   2.089   0.554  39.185 -0.0757  0.1761  0.2133
 7465W        W 9615  10.661   6.133  25.077  0.4708  0.0875 -0.0111
 7466W        W 9616  12.638   4.859   8.234 -0.1215 -0.1399  0.1876
 7467W        W 9617  12.405   6.281  39.227  0.0961 -0.1917 -0.0015
 7468W        W 9618   6.568   6.144  32.420  0.3028  0.0449  0.1920
 7469W        W 9619  13.933   2.740   9.028  0.1957  0.0698  0.2404
 7470W        W 9620  10.277   3.610   7.509  0.1701  0.0154 -0.1007
 7471W        W 9621  13.888   2.716  13.648 -0.2951 -0.0671  0.2707
 7472W        W 9622   8.446   1.248  40.039  0.1237  0.2051 -0.2262
 7473W        W 9623  20.106   6.223  32.643 -0.1122  0.2693  0.2194
 7474W        W 9624   9.026   0.291  24.439 -0.0911  0.3216 -0.2110
 7475W        W 9625   1.221   2.891  44.333 -0.1114 -0.2358 -0.1035
 7476W        W 9626   4.930   2.386  44.081  0.1792 -0.1390  0.2735
 7477W        W 9627  19.080   0.367  30.709  0.0805  0.0103  0.1665
 7478W        W 9628  13.473   4.516   7.892  0.0728  0.0564 -0.0525
 7479W        W 9629  10.311   6.593  33.399  0.0739  0.0982 -0.4455
 7480W        W 9630  20.257   3.810   6.866  0.2512  0.0255  0.0247
 7481W        W 9631  20.690   3.355   6.955 -0.0435 -0.0606 -0.1079
 7482W        W 9632  12.801   2.315   0.429 -0.2181 -0.1310 -0.0527
 7483W        W 9633   1.769   0.785  41.396  0.0580 -0.0655 -0.3238
 7484W        W 9634  11.453   4.175  11.910 -0.3717 -0.0404  0.2440
 7485W        W 9635  15.758   5.276  13.774  0.2352  0.1217 -0.0815
 7486W        W 9636  19.122   3.091  18.888 -0.1467  0.0920  0.2092
 7487W        W 9637  19.103   4.704  11.591  0.0395 -0.0874  0.2040
 7488W        W 9638   4.627   6.055  11.494 -0.2777 -0.0411  0.1675
 7489W        W 9639  16.312   2.969  22.523  0.0086 -0.3280  0.1286
 7490W        W 9640  15.485   5.183  34.538  0.0969 -0.1694 -0.1159
 7491W        W 9641  20.600   0.109  10.914 -0.3292 -0.2733 -0.0332
 7492W        W 9642  18.974   5.943   6.259  0.0766 -0.0496  0.0903
 7493W        W 9643  17.320   4.005   2.999  0.2887 -0.1151 -0.0874
 7494W        W 9644  20.003   0.235  41.621 -0.0253 -0.0120  0.0259
 7495W        W 9645  15.840   6.243  11.432 -0.0252  0.0285 -0.0592
 7496W        W 9646  11.687   1.523  38.610 -0.1263 -0.2098  0.2530
 7497W        W 9647  15.865   6.429  15.486  0.0308  0.0886 -0.5038
 7498W        W 9648   9.426   1.739  31.657 -0.0950  0.2276  0.3665
 7499W        W 9649   8.364   5.354   0.043  0.1813  0.4110 -0.2638
 7500W        W 9650   5.034   1.312   6.567 -0.0691 -0.0025 -0.3857
 7501W        W 9651   7.738   5.423   5.313  0.0244  0.0858  0.3391
 7502W        W 9652  18.247   0.629   3.910  0.0888 -0.0144  0.1762
 7503W        W 9653   3.304   4.305  37.143  0.1651 -0.1997  0.0439
 7504W        W 9654  14.199   4.204  39.348  0.2817 -0.1329  0.2231
 7505W        W 9655   0.834   6.025  31.137 -0.1060 -0.2314 -0.1339
 7506W        W 9656   6.764   2.191  22.792 -0.1966 -0.0259  0.2582
 7507W        W 9657   1.719   6.114  30.601 -0.3422  0.1138  0.3208
 7508W        W 9658  20.618   1.420  29.750  0.2817 -0.0510  0.1216
 7509W        W 9659   2.007   4.705  35.940  0.1211  0.0745 -0.0897
 7510W        W 9660  14.982   4.670  30.602  0.1815  0.0730  0.2086
 7511W        W 9661   4.934   1.769  41.990  0.0126 -0.3147  0.1885
 7512W        W 9662  19.752   6.395  29.917  0.1776  0.3055 -0.0732
 7513W        W 9663   6.566   6.209   8.133 -0.0235 -0.0769  0.0483
 7514W        W 9664   0.654   0.385  32.641  0.0946 -0.1031 -0.2613
 7515W        W 9665  18.125   0.154   4.946 -0.0999  0.0967 -0.0203
 7516W        W 9666  16.308   2.226  23.300 -0.1248 -0.0314  0.0977
 7517W        W 9667   2.554   3.747   8.911  0.2057 -0.1646 -0.1396
 7518W        W 9668   6.059   4.204  29.528 -0.0641  0.0874 -0.0793
 7519W        W 9669   4.771   5.760  36.068  0.1667 -0.4779 -0.0854
 7520W        W 9670  10.505   2.542   5.389 -0.0433 -0.0368  0.0322
 7521W        W 9671  12.431   4.461   3.960 -0.0286 -0.2547  0.0187
 7522W        W 9672  10.069   4.109  44.906  0.0066 -0.0625 -0.1205
 7523W        W 9673  16.348   0.166  38.791 -0.3095 -0.0079  0.2958
 7524W        W 9674  16.627   3.010   0.637 -0.0056  0.1168  0.0342
 7525W        W 9675   6.396   2.611  26.626 -0.2175 -0.0404  0.0767
 7526W        W 9676  17.508   3.275  42.188  0.2464  0.0305  0.1540
 7527W        W 9677  14.395   1.355  28.977 -0.3105 -0.2734  0.0305
 7528W        W 9678   2.060   3.910  35.031 -0.1142  0.1725  0.2884
 7529W        W 9679  15.875   4.802  10.317 -0.1670 -0.0286 -0.2932
 7530W        W 9680   2.909   2.732  31.901  0.0397 -0.1372  0.1303
 7531W        W 9681   6.710   2.313  42.075  0.2414 -0.1406 -0.2057
 7532W        W 9682   4.404   0.189   0.882 -0.2442 -0.0895 -0.1990
 7533W        W 9683   3.261   5.239   1.529  0.0076 -0.1974  0.1066
 7534W        W 9684   9.302   5.254  33.637  0.1896  0.0032 -0.1250
 7535W        W 9685  15.377   5.622  37.821  0.1549  0.1581  0.0954
 7536W        W 9686  11.915   0.051   0.104 -0.1064 -0.0600  0.2011
 7537W        W 9687  17.129   5.944  18.458 -0.0125 -0.3591  0.1835
 7538W        W 9688  17.792   3.234  20.129  0.0036  0.2822  0.1044
 7539W        W 9689  15.940   1.707  40.927  0.0638  0.0357  0.0982
 7540W        W 9690  16.304   0.479  13.014 -0.2899 -0.1726 -0.2724
 7541W        W 9691   3.876   5.277  35.052 -0.4287  0.3461 -0.3239
 7542W        W 9692  16.124   1.573   4.836  0.0622  0.0401 -0.1223
 7543W        W 9693  12.199   6.530  30.337 -0.1216  0.3423  0.3831
 7544W        W 9694  18.242   4.260  17.422 -0.2906  0.1785  0.2087
 7545W        W 9695   9.079   1.792  24.892 -0.1061  0.1661 -0.0248
 7546W        W 9696   2.410   1.542  43.960 -0.0618  0.0268 -0.0464
 7547W        W 9697  12.028   4.181  28.729  0.1251  0.1444  0.1458
 7548W        W 9698   0.825   0.800  29.011 -0.3992  0.0274 -0.0544
 7549W        W 9699  13.587   1.713  28.410 -0.0423 -0.0005  0.4326
 7550W        W 9700   4.842   5.260   0.923 -0.1525  0.0173 -0.1509
 7551W        W 9701  15.282   5.706   9.305  0.1296 -0.1998 -0.0866
 7552W        W 9702  12.462   2.191   7.679 -0.1536  0.0116  0.1146
 7553W        W 9703   6.217   3.367   4.272 -0.0984  0.0260 -0.0760
 7554W        W 9704   8.838   2.690   1.872  0.2996 -0.2108  0.1117
 7555W        W 9705   5.556   1.186  45.103 -0.0977  0.0291 -0.0705
 7556W        W 9706   8.447   2.015  10.402  0.3196  0.0246 -0.1701
 7557W        W 9707   1.464   5.705  44.328  0.1078  0.0981  0.0931
 7558W        W 9708  19.184   1.235  42.284 -0.1236 -0.0914  0.1405
 7559W        W 9709   7.836   4.663  44.857 -0.2646  0.1506 -0.0251
 7560W        W 9710  16.448   4.157  40.248  0.0632 -0.3143 -0.2239
 7561W        W 9711  17.676   1.636  34.086 -0.3420  0.0357 -0.0642
 7562W        W 9712   6.452   1.609  44.836  0.0430  0.0148  0.3126
 7563W        W 9713   0.164   5.342  44.767  0.1667 -0.1351 -0.3141
 7564W        W 9714  12.078   2.737  42.847  0.2162 -0.1920  0.2309
 7565W        W 9715  10.049   1.980  16.048 -0.2619 -0.1976  0.0604
 7566W        W 9716   8.155   1.690  37.779 -0.0811 -0.0190  0.1230
 7567W        W 9717  14.616   0.723  13.713  0.2353 -0.1244  0.3152
 7568W        W 9718  17.235   4.980   0.349 -0.3308  0.0678  0.1551
 7569W        W 9719   3.331   3.732  41.341 -0.0020  0.1693 -0.3037
 7570W        W 9720   9.520   4.447  13.520  0.0631  0.1877 -0.2408
 7571W        W 9721   1.933   2.410  37.120 -0.1330 -0.2396 -0.0915
 7572W        W 9722   9.584   3.488  15.643  0.1753  0.1414  0.1150
 7573W        W 9723   3.153   2.616   1.064 -0.0201 -0.0738  0.2166
 7574W        W 9724   3.006   0.333  24.090 -0.1226 -0.3086 -0.0308
 7575W        W 9725  18.187   4.537  21.511 -0.0102  0.2667 -0.1004
 7576W        W 9726   7.673   2.317  38.251  0.3138  0.1482 -0.1767
 7577W        W 9727   0.679   0.078   4.749  0.1024 -0.1273 -0.1456
 7578W        W 9728   3.431   3.493  13.769 -0.0618 -0.0799 -0.1452
 7579W        W 9729  17.425   6.026  42.449 -0.2594 -0.0353 -0.0201
 7580W        W 9730  18.398   2.205  39.839 -0.1894 -0.2657 -0.1717
 7581W        W 9731   7.403   0.750  27.620 -0.3415 -0.0147  0.4724
 7582W        W 9732   3.817   4.260  36.243 -0.1169  0.0849  0.0403
 7583W        W 9733   7.617   4.597  38.074  0.1638  0.0149 -0.4591
 7584W        W 9734   9.630   5.843   6.079 -0.1592  0.0683  0.2786
 7585W        W 9735  19.734   4.829  17.408  0.2076  0.3243 -0.0108
 7586W        W 9736  11.163   2.998   1.747 -0.0023 -0.2967 -0.2572
 7587W        W 9737  18.886   5.180  12.431 -0.0814 -0.0538 -0.4414
 7588W        W 9738   9.654   0.479  37.357  0.1033 -0.2106  0.1644
 7589W        W 9739  17.923   0.993  35.703 -0.3245  0.4802 -0.3956
 7590W        W 9740   8.641   1.610   7.507  0.1919 -0.0019  0.0675
 7591W        W 9741   4.782   4.080  30.614 -0.1602  0.0172  0.0951
 7592W        W 9742  16.168   1.988  32.345  0.0914 -0.1007  0.0911
 7593W        W 9743  10.693   2.997   2.974  0.1449  0.0670 -0.0453
 7594W        W 9744   4.064   0.261   2.908 -0.0161 -0.0538 -0.2060
 7595W        W 9745  19.742   2.151   9.117 -0.0137  0.0358 -0.1231
 7596W        W 9746   1.362   1.081  28.306  0.3127  0.2460 -0.0668
 7597W        W 9747   1.557   5.297  14.929 -0.1321  0.1339  0.4316
 7598W        W 9748  20.086   2.472   9.366 -0.0134  0.0973 -0.1614
 7599W        W 9749   5.376   5.167  44.411  0.3470  0.4099  0.1387
 7600W        W 9750   0.186   1.253   6.815  0.0514 -0.1746 -0.1513
 7601W        W 9751   0.522   5.439   4.339  0.0291 -0.2442  0.1090
 7602W        W 9752   0.409   0.409   9.541 -0.1228  0.1103  0.2012
 7603W        W 9753   6.139   5.661  15.213  0.1778  0.0960 -0.3592
 7604W        W 9754  18.549   4.829   3.181  0.0094 -0.3142  0.0726
 7605W        W 9755  18.598   6.186  34.717 -0.1011  0.0044  0.0202
 7606W        W 9756  11.012   1.673  38.391 -0.2803 -0.0124 -0.0243
 7607W        W 9757   9.571   3.847  36.956  0.0735  0.0737  0.0365
 7608W        W 9758   6.034   3.817   8.507 -0.0760 -0.1438 -0.1970
 7609W        W 9759   2.711   5.893  37.808  0.1965  0.0903  0.3826
 7610W        W 9760  16.912   1.078   6.992 -0.0163  0.0979  0.0724
 7611W        W 9761   8.380   4.391  25.804  0.4468 -0.2214  0.0066
 7612W        W 9762   6.559   1.438   5.082  0.0777  0.0821  0.1282
 7613W        W 9763   8.977   2.470   3.115  0.0900 -0.0600 -0.2180
 7614W        W 9764   4.386   6.151  26.050  0.3357 -0.2949  0.0095
 7615W        W 9765  16.319   3.648  17.884 -0.0802 -0.1399  0.1335
 7616W        W 9766  13.078   2.349   8.734  0.2582  0.0001  0.3550
 7617W        W 9767  16.702   5.063  16.634 -0.0260  0.0635  0.4472
 7618W        W 9768  19.749   1.546  10.994  0.0705  0.1447 -0.2471
 7619W        W 9769   7.162   2.180   4.238  0.0591 -0.0311 -0.3531
 7620W        W 9770   3.409   5.871  14.303  0.0252 -0.1902 -0.3781
 7621W        W 9771   5.518   2.939  30.129  0.1542 -0.1093  0.2961
 7622W        W 9772  12.991   0.477  45.047 -0.2534  0.0841  0.0147
 7623W        W 9773   7.353   6.177  13.924 -0.3316  0.0991  0.2336
 7624W        W 9774  21.015   1.145  34.069  0.0447 -0.3991  0.2073
 7625W        W 9775   0.575   2.082  40.264 -0.2287 -0.0676  0.1862
 7626W        W 9776  12.155   3.650  11.035 -0.0459 -0.1773 -0.1261
 7627W        W 9777   7.152   0.546  22.544 -0.0268  0.0587 -0.1423
 7628W        W 9778   5.035   4.528  29.782  0.1740  0.0613  0.0984
 7629W        W 9779  16.137   2.882  13.770  0.0990 -0.0961  0.2887
 7630W        W 9780  11.094   4.387  14.454  0.4512 -0.1595 -0.1771
 7631W        W 9781  11.059   5.330  40.915 -0.1215  0.2690 -0.1763
 7632W        W 9782  16.786   3.483  21.600 -0.0336 -0.1835  0.1788
 7633W        W 9783   0.314   5.973  33.315 -0.0651 -0.0453 -0.1008
 7634W        W 9784   2.796   6.179  39.212 -0.0789  0.0882 -0.0178
 7635W        W 9785  10.494   2.866  10.661 -0.1294  0.1452 -0.2495
 7636W        W 9786  20.171   6.048   0.613  0.2075 -0.0098 -0.2910
 7637W        W 9787   5.831   4.154  41.156  0.0373 -0.1745 -0.1928
 7638W        W 9788   6.107   4.561  23.420 -0.1304  0.2180 -0.1534
 7639W        W 9789  11.317   3.731  31.756  0.3931 -0.0264 -0.0994
 7640W        W 9790   1.792   4.773   8.579 -0.0571 -0.0646 -0.0025
 7641W        W 9791  17.444   4.220  23.141  0.0067  0.1231 -0.0573
 7642W        W 9792  14.070   6.239  19.904  0.2752 -0.1489  0.2599
 7643W        W 9793   1.211   4.393   3.335 -0.3192 -0.1238 -0.0027
 7644W        W 9794   0.376   5.154  30.918 -0.2774 -0.2945  0.1698
 7645W        W 9795   0.750   4.158  43.309  0.0313  0.5912  0.0476
 7646W        W 9796   1.843   3.900  42.260 -0.1559 -0.0855  0.1206
 7647W        W 9797  20.193   0.934  34.802  0.2044 -0.1056  0.0949
 7648W        W 9798  17.604   1.615  38.854  0.0401 -0.0036 -0.0199
 7649W        W 9799  16.012   3.804  40.859 -0.0974 -0.0048  0.1464
 7650W        W 9800  18.567   1.257  39.665  0.0482 -0.2844  0.1149
 7651W        W 9801  10.616   5.423  30.677 -0.3787 -0.1655 -0.1542
 7652W        W 9802  10.969   6.067  13.358  0.2903  0.0509  0.0690
 7653W        W 9803   0.848   4.630  14.048  0.0163  0.0784  0.2674
 7654W        W 9804  11.506   1.239  27.704 -0.2117 -0.2160 -0.2340
 7655W        W 9805  12.834   3.965  35.861 -0.2155 -0.1920 -0.0701
 7656W        W 9806  10.780   6.005   5.264 -0.0113  0.1891  0.1964
 7657W        W 9807   3.740   4.904   7.360  0.0543  0.0724  0.0496
 7658W        W 9808  17.378   0.664  38.411  0.0158  0.0759  0.0266
 7659W        W 9809  10.099   4.044  16.206 -0.2672  0.0519 -0.0669
 7660W        W 9810  12.164   0.977   7.509 -0.3163 -0.2533  0.0045
 7661W        W 9811  21.126   6.408  42.956  0.2339 -0.0414  0.1249
 7662W        W 9812  19.023   1.862   2.383  0.0480 -0.1721 -0.1158
 7663W        W 9813  10.272   5.746  44.719  0.2054  0.1413  0.0042
 7664W        W 9814   3.958   5.525  36.729 -0.0671  0.0487  0.0124
 7665W        W 9815  13.955   2.428  44.189 -0.1072 -0.1483  0.0432
 7666W        W 9816   9.297   3.161  24.632  0.2268 -0.0108  0.1145
 7667W        W 9817  16.305   2.135   8.132 -0.3095  0.0927  0.0743
 7668W        W 9818  14.233   3.752   2.390  0.0528  0.1603  0.1410
 7669W        W 9819   7.442   3.449  31.963 -0.1768  0.1056 -0.0472
 7670W        W 9820   9.625   4.444  14.841  0.0150 -0.1900  0.0177
 7671W        W 9821  14.305   6.168  12.210 -0.1970 -0.3154 -0.3745
 7672W        W 9822   9.365   5.571  40.391  0.0647 -0.1369  0.1731
 7673W        W 9823  17.025   5.748  20.204 -0.2043 -0.1107  0.0385
 7674W        W 9824  17.836   3.555  13.484  0.0167 -0.0265 -0.0017
 7675W        W 9825   8.180   1.429   9.295 -0.0053  0.0513 -0.2232
 7676W        W 9826  10.715   0.228  36.335  0.1952 -0.0306  0.1067
 7677W        W 9827  15.624   3.880   8.683 -0.3006  0.1154  0.0799
 7678W        W 9828   6.586   3.976  39.042 -0.2422 -0.4472  0.1994
 7679W        W 9829   5.005   1.515  31.857  0.2485 -0.0172  0.2720
 7680W        W 9830  17.556   4.452   6.415 -0.0507  0.2171 -0.2012
 7681W        W 9831  11.703   0.421  15.981  0.0838 -0.0465  0.1139
 7682W        W 9832  13.376   2.708   2.316  0.0414 -0.0160 -0.5043
 7683W        W 9833  11.940   5.108  27.785 -0.0193 -0.1106  0.0533
 7684W        W 9834  19.319   2.154  10.528 -0.0459 -0.1143 -0.0668
 7685W        W 9835   4.025   1.358  41.804 -0.1846 -0.5121  0.0304
 7686W        W 9836   0.095   4.970  17.529  0.3099 -0.0679  0.0385
 7687W        W 9837  13.811   5.513   1.649 -0.1877  0.1795  0.0821
 7688W        W 9838  20.482   4.363  38.694 -0.2292 -0.3422  0.2773
 7689W        W 9839   7.381   1.570  25.313  0.2067 -0.0728 -0.2384
 7690W        W 9840  10.816   4.242  14.885  0.1719 -0.1892  0.3652
 7691W        W 9841   5.824   5.878  42.411 -0.0576  0.1699  0.2044
 7692W        W 9842   5.056   0.861  42.166 -0.0455  0.2225 -0.2169
 7693W        W 9843   4.450   0.492  43.940  0.0096  0.1761  0.0006
 7694W        W 9844   8.489   4.319   4.223  0.3109 -0.2611 -0.2345
 7695W        W 9845  16.679   4.436  20.818  0.1076  0.0223  0.1284
 7696W        W 9846  17.578   0.762  11.309 -0.3565 -0.3947 -0.0705
 7697W        W 9847  11.559   2.740  37.010  0.1766  0.0860  0.1404
 7698W        W 9848  14.719   5.034  29.225 -0.0250  0.3132  0.2271
 7699W        W 9849   0.336   3.832  43.089 -0.1054 -0.0560 -0.0595
 7700W        W 9850   9.943   4.306   2.605 -0.1534  0.0152 -0.3999
 7701W        W 9851   9.345   4.508   9.685 -0.0056 -0.0267  0.0058
 7702W        W 9852   2.819   5.288  28.994  0.2144 -0.1861  0.0839
 7703W        W 9853  17.419   0.009  31.111  0.2403 -0.0845 -0.0023
 7704W        W 9854   4.821   1.540   3.881  0.0977  0.1674 -0.2201
 7705W        W 9855  18.802   4.190  42.989  0.0705  0.0186  0.0231
 7706W        W 9856  12.409   5.779  32.312  0.0266  0.3922  0.1426
 7707W        W 9857  15.440   1.494  18.092 -0.1289  0.0551  0.2614
 7708W        W 9858  18.169   0.209  14.761  0.0581 -0.1375  0.0044
 7709W        W 9859  12.125   4.535   4.337  0.2054  0.1616  0.1736
 7710W        W 9860  18.717   5.878  31.691 -0.0184 -0.3003 -0.1611
 7711W        W 9861   0.814   3.201   2.264  0.0915  0.0961 -0.2896
 7712W        W 9862   3.491   4.730  36.341 -0.0875 -0.1547  0.1541
 7713W        W 9863   8.398   1.324  23.603 -0.1648  0.0754  0.1254
 7714W        W 9864   0.609   4.231  38.362 -0.0642  0.3826  0.2153
 7715W        W 9865  15.326   0.201  12.124 -0.0430  0.0769 -0.1882
 7716W        W 9866  16.229   4.698  11.960 -0.0234  0.0230 -0.0056
 7717W        W 9867  18.782   4.973  19.641 -0.0509  0.0736 -0.1622
 7718W        W 9868   7.584   2.918  42.863 -0.1259  0.0345 -0.3921
 7719W        W 9869   4.959   2.203   1.520 -0.2192  0.0957 -0.1284
 7720W        W 9870   6.532   1.518  25.353 -0.1328 -0.0197 -0.0665
 7721W        W 9871   5.944   3.688  13.300  0.0546 -0.0655 -0.2352
 7722W        W 9872  10.775   3.053  12.185  0.0566  0.0073 -0.1054
 7723W        W 9873  14.779   0.354  20.570 -0.1302  0.3735  0.0664
 7724W        W 9874  20.382   2.582  29.348  0.2585 -0.1118  0.2067
 7725W        W 9875   6.052   2.394  25.573  0.1213  0.0289 -0.0223
 7726W        W 9876  11.834   5.464  44.337 -0.1233  0.1148  0.0334
 7727W        W 9877   9.114   4.183  10.137 -0.4620  0.0378  0.1655
 7728W        W 9878  19.924   6.402  14.501  0.3145  0.2017 -0.0037
 7729W        W 9879  11.592   2.454  14.800  0.1500  0.3094 -0.0072
 7730W        W 9880   0.232   6.072  12.845 -0.2549 -0.0022 -0.4086
 7731W        W 9881  12.505   4.411  45.032 -0.0391 -0.1707  0.0568
 7732W        W 9882   9.695   4.357  39.136 -0.1070 -0.2104  0.1167
 7733W        W 9883   7.711   5.965  31.578  0.2047  0.0084  0.1240
 7734W        W 9884  12.927   3.993   1.042  0.1162  0.0090 -0.2883
 7735W        W 9885  19.932   4.724   9.677  0.0222  0.0063  0.0660
 7736W        W 9886  10.826   5.314  31.776  0.1089 -0.1333  0.0638
 7737W        W 9887   0.061   2.674  19.420  0.1711 -0.1959  0.1554
 7738W        W 9888  15.929   4.983  42.100  0.0740  0.0447 -0.4781
 7739W        W 9889  12.216   5.222   8.925 -0.1799  0.2628  0.0663
 7740W        W 9890  13.517   3.441   3.615  0.0944  0.0183  0.1093
 7741W        W 9891   6.998   5.866  25.484 -0.0415 -0.0981 -0.2214
 7742W        W 9892   8.801   5.520  30.876  0.1121 -0.1610 -0.1779
 7743W        W 9893  18.456   0.852  22.258 -0.3151  0.3723  0.0576
 7744W        W 9894   5.771   5.056  13.569 -0.1137  0.3707 -0.1134
 7745W        W 9895   3.151   3.497   0.908 -0.1843 -0.0276 -0.1009
 7746W        W 9896  11.297   5.355   3.474 -0.0068  0.1042  0.1966
 7747W        W 9897   3.941   4.870  43.610  0.4963  0.0557  0.1455
 7748W        W 9898   3.562   5.334   5.131 -0.1723  0.1896 -0.0760
 7749W        W 9899   3.030   3.919   4.584  0.2097  0.0863 -0.2288
 7750W        W 9900  12.018   5.250  43.912  0.2682  0.0605 -0.0291
 7751W        W 9901  18.627   3.268  17.480 -0.1243  0.1043 -0.0100
 7752W        W 9902  14.401   2.022  42.665  0.0408  0.3007 -0.3780
 7753W        W 9903  21.003   5.383  17.495 -0.1733 -0.2136 -0.0651
 7754W        W 9904   6.941   4.663  13.706 -0.1687  0.5684  0.0464
 7755W        W 9905   2.487   5.078  34.658  0.1278  0.1386 -0.4270
 7756W        W 9906  18.143   0.351  13.349 -0.2903  0.1881  0.1076
 7757W        W 9907  12.765   1.608  18.268 -0.1733 -0.0991  0.0415
 7758W        W 9908  17.739   3.016  18.619 -0.2207 -0.1903  0.3327
 7759W        W 9909   7.399   2.699  23.221 -0.0474 -0.0899  0.0018
 7760W        W 9910   6.581   3.586   0.536  0.1313  0.0025  0.2237
 7761W        W 9911  20.805   3.439  12.987 -0.0198 -0.0739 -0.0842
 7762W        W 9912   2.896   0.188  42.147  0.0400 -0.0915 -0.3291
 7763W        W 9913   0.201   1.776   0.300 -0.0804 -0.0728 -0.2345
 7764W        W 9914   7.340   1.456  44.721 -0.1379  0.1004  0.1904
 7765W        W 9915   3.267   3.227  11.969 -0.0126 -0.1807 -0.0571
 7766W        W 9916   8.962   3.411  40.329  0.0647 -0.2541 -0.0794
 7767W        W 9917   8.000   1.499  42.504  0.1448 -0.1174  0.0927
 7768W        W 9918  19.470   2.265  15.055 -0.2074  0.2537  0.0367
 7769W        W 9919   3.185   4.331  24.771  0.1187  0.0854  0.0820
 7770W        W 9920   5.380   4.570   1.919 -0.0025  0.1644 -0.0973
 7771W        W 9921   0.472   1.622  34.423 -0.2189  0.1009  0.1055
 7772W        W 9922   2.960   6.378   3.763 -0.2588  0.0594  0.1679
 7773W        W 9923   5.084   6.193   9.180 -0.0256  0.0323  0.1331
 7774W        W 9924  10.267   4.206  40.736 -0.0300 -0.0903 -0.3125
 7775W        W 9925  14.364   4.845   5.072 -0.0710  0.0902  0.0387
 7776W        W 9926  18.760   2.980  19.227 -0.2425  0.3282  0.1492
 7777W        W 9927  10.003   3.681  28.783 -0.0595 -0.0697 -0.1273
 7778W        W 9928  13.542   5.770  40.914 -0.0977  0.0118  0.2641
 7779W        W 9929   3.098   2.860   2.968  0.1393 -0.1834  0.2540
 7780W        W 9930  19.964   1.175   8.877  0.1034  0.0417 -0.2468
 7781W        W 9931  17.264   3.291  13.646  0.2616  0.1209  0.2614
 7782W        W 9932   2.459   0.829  28.900  0.1823 -0.0039 -0.1234
 7783W        W 9933   9.312   2.606   2.767 -0.0252  0.1646  0.0615
 7784W        W 9934  16.254   6.225  38.437  0.1200  0.1249  0.1851
 7785W        W 9935   9.244   2.714  24.793 -0.0224 -0.1050  0.1473
 7786W        W 9936  16.075   2.038  21.042 -0.0802  0.0454 -0.1193
 7787W        W 9937   1.774   3.332  26.256  0.1383 -0.0580  0.1448
 7788W        W 9938  16.139   0.403  31.714 -0.0881  0.0084 -0.0969
 7789W        W 9939  12.196   3.783  13.092  0.0027 -0.0220 -0.0907
 7790W        W 9940   7.424   2.963  14.726  0.0706  0.1106  0.2435
 7791W        W 9941   6.506   5.347   0.908 -0.4076  0.2488  0.2207
 7792W        W 9942   1.504   3.046  36.044 -0.3195 -0.0031  0.2247
 7793W        W 9943  18.685   3.851  19.158  0.1057  0.5156 -0.1016
 7794W        W 9944  10.422   2.848  39.794  0.0539 -0.0376  0.2424
 7795W        W 9945   0.060   1.495   1.849 -0.1698  0.0042 -0.0572
 7796W        W 9946   6.013   0.788  15.573  0.3705  0.0730 -0.0481
 7797W        W 9947   2.417   3.848  24.639  0.0389  0.2416  0.0781
 7798W        W 9948  16.657   5.992   9.592  0.1310  0.3963  0.1474
 7799W        W 9949  11.321   0.904  36.047 -0.2015 -0.1413  0.1538
 7800W        W 9950  12.234   6.152  42.868 -0.3558 -0.1106  0.0677
 7801W        W 9951   5.551   1.786  32.261 -0.2972  0.0329  0.0468
 7802W        W 9952  18.174   1.982  31.607 -0.0891 -0.1577  0.0579
 7803W        W 9953  11.726   1.106  37.804 -0.2200  0.1060 -0.0325
 7804W        W 9954  12.966   5.154  11.654  0.0915  0.0433  0.0716
 7805W        W 9955   0.320   0.235  28.464  0.0275 -0.4648  0.3731
 7806W        W 9956   9.770   2.373  29.288  0.0329 -0.1392  0.0980
 7807W        W 9957   8.014   6.378   8.735  0.5292  0.2627 -0.0081
 7808W        W 9958  17.532   0.653  44.365 -0.3284  0.0025  0.0221
 7809W        W 9959  10.505   6.021   2.581  0.0283 -0.3093  0.0832
 7810W        W 9960  18.807   3.533  15.905 -0.0411  0.2368  0.0804
 7811W        W 9961   2.620   1.964  41.877  0.2161  0.1681  0.0114
 7812W        W 9962  16.739   2.183  34.277  0.1103  0.1464  0.1087
 7813W        W 9963  10.255   5.259  26.713 -0.0008  0.1068 -0.1657
 7814W        W 9964  16.929   5.721  41.686 -0.1483  0.0094  0.0401
 7815W        W 9965  16.809   5.648  44.434 -0.0661 -0.0824 -0.0032
 7816W        W 9966  20.023   5.356  29.612 -0.0691  0.0409 -0.0041
 7817W        W 9967  20.739   1.166  16.037  0.2164 -0.2727  0.1999
 7818W        W 9968   9.830   2.684  15.908  0.1184  0.0564  0.1228
 7819W        W 9969  12.204   1.647   0.960  0.0040 -0.0274 -0.1101
 7820W        W 9970   6.049   1.371  25.968 -0.3689 -0.1515  0.2277
 7821W        W 9971   4.987   5.371  22.295 -0.2349  0.1040 -0.0197
 7822W        W 9972   9.947   5.193  43.281 -0.0408  0.3909  0.3358
 7823W        W 9973   6.088   3.313   2.935  0.1846  0.0417  0.0938
 7824W        W 9974   9.216   3.586  39.509  0.1288  0.1460  0.0211
 7825W        W 9975  10.537   3.885  10.526 -0.2483 -0.2809  0.1372
 7826W        W 9976   7.945   2.596  15.479 -0.1313 -0.0633 -0.0112
 7827W        W 9977   0.423   1.541  42.963 -0.0819  0.1727 -0.1074
 7828W        W 9978   3.368   1.911   9.078 -0.6103 -0.2888  0.1594
 7829W        W 9979   1.363   6.302  37.580  0.3559 -0.1072  0.3009
 7830W        W 9980  20.684   3.788   5.603 -0.0398 -0.1516  0.0431
 7831W        W 9981   8.415   6.455  31.932  0.2616 -0.0698  0.0744
 7832W        W 9982   6.112   5.830  29.860  0.3098 -0.3071  0.1416
 7833W        W 9983   2.783   6.157   2.783  0.1822  0.1307 -0.0186
 7834W        W 9984  18.473   5.383  19.047 -0.2413 -0.0884 -0.2686
 7835W        W 9985  14.802   1.891  34.373  0.1325  0.0338  0.1472
 7836W        W 9986  16.739   2.279   6.156  0.0964 -0.0772  0.2784
 7837W        W 9987   1.800   1.100  44.166 -0.2017 -0.4403  0.0694
 7838W        W 9988  18.285   1.492  21.484 -0.0156 -0.0569  0.0258
 7839W        W 9989   1.928   3.206  12.432  0.0465  0.1169 -0.1687
 7840W        W 9990   6.724   4.936   7.952  0.1665 -0.1232  0.0969
 7841W        W 9991  16.964   1.987  41.131 -0.2560  0.0333 -0.2419
 7842W        W 9992   3.859   3.206  12.755 -0.1692  0.3074  0.1355
 7843W        W 9993   7.039   3.004   2.279 -0.0006  0.0991  0.0328
 7844W        W 9994   8.508   6.080  39.039  0.0459  0.1683 -0.0146
 7845W        W 9995  15.494   1.961  11.408  0.1181 -0.0973  0.1561
 7846W        W 9996  16.162   4.695   8.648 -0.0672 -0.0479 -0.0659
 7847W        W 9997  20.400   5.699  34.863  0.2411  0.0596 -0.0984
 7848W        W 9998  14.882   0.648  42.868  0.0644  0.1835  0.0665
 7849W        W 9999   0.825   1.868  27.073 -0.1610 -0.0404 -0.1035
 7850W        W10000   9.057   1.877  32.020 -0.0698 -0.0593 -0.0184
 7851W        W10001  14.579   4.395  15.481 -0.2248 -0.0962 -0.3978
 7852W        W10002   8.410   1.019  29.530 -0.0449 -0.0513  0.1229
 7853W        W10003   7.508   2.096  34.369 -0.1836 -0.0688 -0.1911
 7854W        W10004   3.160   2.706  38.776 -0.0478 -0.0696  0.1408
 7855W        W10005  14.938   2.131  15.256 -0.1102  0.0218  0.1441
 7856W        W10006  20.198   6.513   5.730 -0.0692 -0.4060 -0.0239
 7857W        W10007   6.958   5.346  25.307 -0.0373  0.0680 -0.0668
 7858W        W10008   2.148   5.277  27.440  0.5226  0.1125  0.0423
 7859W        W10009   3.623   2.608  35.714 -0.0614 -0.1059  0.1984
 7860W        W10010  19.336   4.696  17.844 -0.2464  0.0898  0.0249
 7861W        W10011  11.494   6.177  32.424  0.0092 -0.1348  0.4231
 7862W        W10012   6.287   0.913   3.692 -0.0810  0.0244 -0.0539
 7863W        W10013  14.770   1.716   9.812 -0.1593 -0.0381  0.1589
 7864W        W10014  14.836   4.664   5.246  0.0796 -0.2473  0.4311
 7865W        W10015  10.525   5.781  33.879 -0.2664  0.0046  0.0479
 7866W        W10016  15.815   5.528  23.661 -0.1595  0.0878  0.1198
 7867W        W10017   2.363   3.561   1.529  0.2071  0.0104  0.0900
 7868W        W10018   2.954   5.088  24.895 -0.0296  0.0829 -0.2257
 7869W        W10019  19.198   3.268  36.960 -0.2397  0.1008  0.0055
 7870W        W10020  16.493   0.842  38.242 -0.0163  0.2590 -0.0523
 7871W        W10021  19.761   5.519  32.786 -0.2183  0.0356 -0.1725
 7872W        W10022   2.317   5.171  32.442 -0.0540  0.2481 -0.1838
 7873W        W10023  10.624   3.032  14.508 -0.1558 -0.0320  0.0717
 7874W        W10024  13.388   4.796  17.321  0.2092 -0.4651 -0.2606
 7875W        W10025   6.104   2.359  14.413 -0.1757 -0.0395  0.0521
 7876W        W10026   0.398   4.107   6.865  0.1149 -0.0730 -0.0792
 7877W        W10027   5.165   6.276  39.069 -0.1110 -0.0079  0.0694
 7878W        W10028  13.807   5.556  12.982 -0.2328 -0.0001  0.2887
 7879W        W10029   5.377   0.093  43.758  0.0275  0.1744 -0.1501
 7880W        W10030  14.412   3.862   1.916 -0.0626 -0.0053 -0.1662
 7881W        W10031   5.825   6.489  37.575  0.0721 -0.0863  0.0048
 7882W        W10032   8.182   5.027   6.869  0.0136  0.2028 -0.0822
 7883W        W10033   1.177   4.480   5.776  0.2743  0.0162 -0.0928
 7884W        W10034  12.197   3.844   1.088  0.5523  0.3714  0.0074
 7885W        W10035  12.427   3.384  31.794 -0.0582 -0.0387 -0.1971
 7886W        W10036  18.678   1.413  20.564 -0.0121  0.0341 -0.1727
 7887W        W10037   2.955   2.769  41.234 -0.0007 -0.1676 -0.0489
 7888W        W10038  13.419   5.733   6.174 -0.0390 -0.1243  0.0396
 7889W        W10039  18.890   5.970  10.830  0.2882 -0.2420  0.4465
 7890W        W10040   5.634   0.011  23.272  0.2047 -0.2305  0.3383
 7891W        W10041  14.423   3.311  11.975  0.1832 -0.0400 -0.0652
 7892W        W10042   3.628   6.227  26.649 -0.2473 -0.2071 -0.0927
 7893W        W10043  15.640   0.464  11.853  0.0757  0.1209 -0.1794
 7894W        W10044  14.513   1.899  18.142  0.1069 -0.2006 -0.1141
 7895W        W10045  15.393   1.756  13.594 -0.2239 -0.0602 -0.2262
 7896W        W10046   3.731   4.734   3.659 -0.2287  0.0689  0.1144
 7897W        W10047  13.889   3.571   1.064 -0.1443  0.0001 -0.1327
 7898W        W10048  17.625   0.366  16.352 -0.2565  0.1394 -0.0776
 7899W        W10049   0.407   4.263   7.806 -0.1758  0.0968 -0.3627
 7900W        W10050  15.687   5.436  11.081  0.1384 -0.0865  0.0690
 7901W        W10051   9.712   2.211  28.533 -0.0403 -0.0692 -0.2414
 7902W        W10052  14.992   4.672  11.414  0.2778 -0.2359  0.3938
 7903W        W10053   0.594   6.179  13.296  0.1632 -0.0143 -0.1072
 7904W        W10054  12.138   1.888  42.584 -0.1070 -0.0572  0.0720
 7905W        W10055   4.324   2.386  29.569 -0.1022  0.0709 -0.2163
 7906W        W10056   4.681   4.959  12.959 -0.1990 -0.2903 -0.0029
 7907W        W10057   8.350   6.434  26.792  0.1745  0.2726  0.1331
 7908W        W10058   7.838   2.208  43.578 -0.1369  0.1679 -0.0009
 7909W        W10059   7.390   2.309  36.829 -0.2867 -0.1777 -0.2100
 7910W        W10060  20.165   2.913   9.109 -0.0427  0.3388  0.0055
 7911W        W10061  16.035   0.201   5.655 -0.3593  0.1694  0.0227
 7912W        W10062   4.901   1.541  12.264 -0.1052 -0.1668 -0.0209
 7913W        W10063   0.931   2.517  38.083 -0.0950 -0.1193 -0.5309
 7914W        W10064   6.256   5.855  38.752  0.0544 -0.0278  0.0625
 7915W        W10065  12.258   1.532  39.829  0.1469  0.1149  0.1923
 7916W        W10066   4.219   1.425  28.043  0.0354  0.0865  0.1680
 7917W        W10067   6.713   4.939  31.972  0.0625  0.0431 -0.0870
 7918W        W10068  12.516   1.692  16.121  0.1111 -0.1827 -0.2020
 7919W        W10069  16.443   0.125  37.214 -0.1169 -0.1042  0.0220
 7920W        W10070   0.229   2.825  29.369 -0.0622 -0.0739  0.1813
 7921W        W10071  20.375   0.226  37.839  0.0280 -0.0837 -0.1962
 7922W        W10072   8.800   2.078  41.414  0.1923  0.1097  0.0224
 7923W        W10073  14.449   2.971   1.918  0.1143  0.0744 -0.0442
 7924W        W10074   9.448   5.429  26.226 -0.2022  0.0387  0.1266
 7925W        W10075   7.193   3.302  35.006  0.1301  0.4232  0.1126
 7926W        W10076  19.486   4.220  19.612  0.2835  0.1093 -0.0759
 7927W        W10077  15.517   1.064  41.495 -0.0214 -0.0450  0.1251
 7928W        W10078  21.079   0.378  44.978  0.1567  0.2330 -0.0987
 7929W        W10079   8.176   5.911  25.157 -0.1037  0.0811  0.1395
 7930W        W10080   4.586   2.795  23.120  0.1895 -0.0258 -0.2611
 7931W        W10081  19.924   5.295   5.472 -0.6219 -0.0765 -0.1152
 7932W        W10082  10.766   4.033   9.330  0.1408  0.0794 -0.1547
 7933W        W10083   3.315   0.390  26.666  0.1607 -0.0632  0.3892
 7934W        W10084  12.358   1.173  14.176  0.2027 -0.0229  0.3789
 7935W        W10085  10.147   5.010  27.944  0.0829  0.0715 -0.2187
 7936W        W10086   5.409   2.203  10.388  0.1150 -0.2947 -0.0342
 7937W        W10087  16.628   6.522  15.920 -0.1252  0.2609 -0.2030
 7938W        W10088   2.941   4.132   3.568  0.0278  0.0101 -0.2489
 7939W        W10089  17.278   6.316   1.064  0.0258  0.0210  0.0324
 7940W        W10090   6.257   6.577  10.059 -0.1609  0.1430  0.3080
 7941W        W10091   3.849   4.421  13.936  0.1328  0.3570  0.1557
 7942W        W10092  20.521   4.711  39.806 -0.1187  0.0068  0.3189
 7943W        W10093  18.981   4.293  13.469  0.2755 -0.1370 -0.1231
 7944W        W10094   8.905   6.556  25.179  0.0170  0.1424  0.2388
 7945W        W10095  19.464   5.154   6.568  0.3394  0.1039 -0.1820
 7946W        W10096   4.826   5.971  44.592  0.2040 -0.0453 -0.1154
 7947W        W10097  16.551   1.050  12.688 -0.1525 -0.0115  0.2679
 7948W        W10098   5.283   1.922  39.293  0.2032  0.4404  0.0984
 7949W        W10099  20.964   0.972   8.208 -0.0696  0.1023  0.0627
 7950W        W10100   1.274   3.139   3.922 -0.2051 -0.3125  0.1520
 7951W        W10101   0.639   0.278  26.289  0.0754  0.0747 -0.2870
 7952W        W10102  15.040   5.203  16.698 -0.0742  0.1959  0.2477
 7953W        W10103  19.006   4.926  29.036 -0.1887 -0.0464 -0.1043
 7954W        W10104   9.073   1.042  36.025 -0.0317 -0.1284 -0.0388
 7955W        W10105  20.311   5.712  39.394  0.1081 -0.1921  0.3336
 7956W        W10106  20.023   3.048  40.170 -0.0859 -0.1255  0.2064
 7957W        W10107   5.472   2.716   0.703  0.1237  0.3409 -0.0009
 7958W        W10108  19.066   0.076  42.902 -0.1299 -0.2103 -0.0981
 7959W        W10109  17.792   5.923  43.730  0.2799 -0.2275  0.1180
 7960W        W10110  20.011   5.604  16.138 -0.0149 -0.0588  0.1856
 7961W        W10111  18.058   2.633  31.048  0.3310 -0.2610  0.0494
 7962W        W10112  18.792   5.421   6.937  0.1219  0.1724  0.0248
 7963W        W10113  10.091   1.517   2.343  0.1571 -0.1366 -0.4245
 7964W        W10114  15.691   1.526  41.414 -0.2132  0.1359 -0.2229
 7965W        W10115  13.565   0.966  33.856 -0.0776  0.0370  0.1810
 7966W        W10116  16.994   4.646  39.783  0.0020 -0.0574 -0.0693
 7967W        W10117   9.727   4.993  34.882  0.2043  0.1239  0.0112
 7968W        W10118   3.079   0.000   1.467  0.2180  0.1432  0.1395
 7969W        W10119  10.366   4.442  27.538  0.2408 -0.4425  0.1791
 7970W        W10120  17.233   6.307  22.493 -0.0503  0.0260  0.2864
 7971W        W10121   4.013   3.830   4.008 -0.1426  0.3655  0.1165
 7972W        W10122  20.382   0.535  17.001  0.1842 -0.1598  0.1370
 7973W        W10123   6.736   2.699  23.090 -0.1590 -0.2703 -0.3202
 7974W        W10124  13.915   2.716   1.198 -0.0125 -0.2285  0.1772
 7975W        W10125  13.540   3.108  37.262 -0.0422  0.0253  0.2195
 7976W        W10126  19.925   5.640  11.395 -0.1390 -0.0086  0.0077
 7977W        W10127   2.115   1.801   2.963  0.1944  0.2211 -0.2107
 7978W        W10128  11.430   2.429  37.946 -0.2984 -0.2576  0.0531
 7979W        W10129   2.816   6.231  42.432 -0.1298  0.1919 -0.0631
 7980W        W10130  19.234   5.169  30.522 -0.0296 -0.1048  0.0954
 7981W        W10131  13.902   6.555  15.525  0.0992 -0.2100 -0.2443
 7982W        W10132   7.580   2.079  14.801  0.1322 -0.0121  0.0553
 7983W        W10133  12.114   4.703  44.837 -0.1504 -0.1050  0.1236
 7984W        W10134  12.470   2.226  37.195 -0.0069  0.0630 -0.1993
 7985W        W10135  14.451   4.631  16.913 -0.0185 -0.0513 -0.1873
 7986W        W10136   5.468   5.516   6.676 -0.0394 -0.2104 -0.2160
 7987W        W10137  16.546   4.636  12.986 -0.1613  0.0110  0.0561
 7988W        W10138  11.587   0.658  17.996 -0.1628 -0.3583  0.1826
 7989W        W10139   5.640   3.088  34.249 -0.1114 -0.2012 -0.1622
 7990W        W10140   0.796   5.381  38.888  0.1170  0.2599  0.0648
 7991W        W10141   3.618   3.916  39.091 -0.0655  0.1589  0.0777
 7992W        W10142  11.266   4.521  42.405  0.0460  0.0113 -0.0954
 7993W        W10143  16.015   2.333  39.703  0.1983  0.1016 -0.4846
 7994W        W10144  10.852   0.505  36.743 -0.0545 -0.2740  0.2147
 7995W        W10145   9.397   5.062   4.068  0.2693  0.3629  0.1996
 7996W        W10146  18.825   5.391  38.457 -0.2092  0.0707  0.0160
 7997W        W10147  17.762   2.601  39.359 -0.0867 -0.0563 -0.0564
 7998W        W10148  17.703   1.909  37.751 -0.0231  0.0988 -0.1971
 7999W        W10149   8.201   4.702  35.039 -0.1286  0.0307  0.2248
 8000W        W10150  15.883   3.506  40.024  0.0645 -0.1392  0.2980
 8001W        W10151  16.091   0.164   8.578 -0.0397  0.1882 -0.0387
 8002W        W10152  13.771   5.115  22.541  0.2185 -0.1336 -0.0422
 8003W        W10153   6.157   4.320  30.398  0.0305 -0.1529  0.3122
 8004W        W10154  18.747   2.195  43.823  0.2744 -0.0340  0.0176
 8005W        W10155   9.222   2.025  28.290  0.0308  0.0396  0.0527
 8006W        W10156  14.048   3.027  40.407 -0.0631  0.1658  0.3246
 8007W        W10157   6.683   1.490  40.517  0.1147  0.0397  0.1078
 8008W        W10158  18.159   4.939   4.887  0.2544 -0.1309  0.0123
 8009W        W10159   7.225   2.290  42.001 -0.0922 -0.0927  0.0154
 8010W        W10160  14.534   4.717  22.990 -0.0175 -0.1853 -0.0478
 8011W        W10161   6.033   6.467   5.964  0.1192 -0.2270  0.0896
 8012W        W10162   8.675   2.234  15.639  0.1498  0.0813 -0.3925
 8013W        W10163   6.288   0.682  26.013  0.3886 -0.3299  0.0313
 8014W        W10164   9.681   2.807   3.564 -0.0504  0.0926  0.0277
 8015W        W10165  14.312   3.392   2.763 -0.0184  0.0782  0.0016
 8016W        W10166   1.671   3.147  35.486  0.1682  0.0197 -0.1010
 8017W        W10167   9.046   2.025  26.257 -0.1982 -0.3301  0.2073
 8018W        W10168  15.440   5.126  41.239 -0.0931 -0.0191 -0.1669
 8019W        W10169   8.633   5.477   3.334  0.1091 -0.2714  0.0612
 8020W        W10170  18.300   2.007   3.584 -0.0458 -0.0798 -0.1025
 8021W        W10171   4.915   1.582   5.622 -0.2346 -0.1744 -0.0797
 8022W        W10172   6.788   3.861  37.876  0.1826 -0.1385 -0.2377
 8023W        W10173   1.366   1.650   1.220  0.1361  0.0063  0.0511
 8024W        W10174  19.894   3.905  42.665 -0.0361 -0.4564 -0.0781
 8025W        W10175   8.922   1.455  38.010  0.0587  0.2326  0.1276
 8026W        W10176  11.957   1.099  17.944 -0.2057  0.2658 -0.1277
 8027W        W10177  12.916   6.190  20.714 -0.0576 -0.3807 -0.2386
 8028W        W10178  11.965   0.944   9.243 -0.2487  0.1161  0.1240
 8029W        W10179  10.461   3.007  32.711 -0.0671 -0.0934  0.0381
 8030W        W10180  18.340   0.374  38.267  0.1226  0.1453 -0.3666
 8031W        W10181  16.842   1.568   4.059 -0.1709 -0.1066  0.0287
 8032W        W10182  15.359   1.249  34.005 -0.1104 -0.0563 -0.2522
 8033W        W10183   5.379   0.583   8.353 -0.0789  0.2255  0.0099
 8034W        W10184   8.773   2.659  12.855 -0.0345 -0.0588 -0.0298
 8035W        W10185   8.965   5.694  33.897  0.1113 -0.1046 -0.2688
 8036W        W10186   3.245   3.340  33.430 -0.0439  0.2002  0.1707
 8037W        W10187  14.147   4.577  31.585 -0.0918  0.0061 -0.1966
 8038W        W10188  17.529   1.687  19.998  0.0262 -0.1158 -0.3912
 8039W        W10189   6.261   0.997  44.140 -0.1991 -0.0228 -0.3235
 8040W        W10190   1.272   0.672   0.569  0.0358  0.1100 -0.0999
 8041W        W10191   9.789   6.011  33.424  0.0644 -0.0036  0.3646
 8042W        W10192   7.127   5.156  39.471  0.6600  0.0429 -0.0771
 8043W        W10193  19.837   5.630  28.971 -0.0815 -0.1179 -0.1603
 8044W        W10194  13.603   4.650   4.827  0.1554  0.0025 -0.1294
 8045W        W10195  11.093   0.713   5.714  0.0073  0.2409  0.0439
 8046W        W10196   5.368   5.599  23.870  0.2205  0.3696 -0.1378
 8047W        W10197  10.020   3.980  44.288  0.0027 -0.2413 -0.0701
 8048W        W10198   9.371   3.445  25.523  0.2007 -0.0135 -0.3341
 8049W        W10199   1.684   3.714  41.133 -0.0683  0.0225  0.0496
 8050W        W10200  12.043   3.727   8.576  0.1472 -0.0774  0.0159
 8051W        W10201  16.224   2.021   1.261 -0.2073  0.0821  0.1021
 8052W        W10202   6.020   0.674   4.076 -0.3244  0.0101 -0.0270
 8053W        W10203   1.316   1.581  12.417  0.1998 -0.1788  0.0629
 8054W        W10204  10.545   3.842  38.997 -0.0016  0.0558 -0.1720
 8055W        W10205  18.729   6.197   9.470  0.1046  0.0977 -0.0080
 8056W        W10206   3.950   0.853  26.399  0.0644  0.0930  0.3707
 8057W        W10207  15.843   5.350   4.949 -0.0266  0.0760 -0.1559
 8058W        W10208   3.853   2.277  22.615  0.0928  0.2462 -0.0695
 8059W        W10209   0.688   4.532  12.188 -0.1191 -0.0391  0.1858
 8060W        W10210   1.983   2.898  35.840  0.1390 -0.3051  0.1051
 8061W        W10211  14.334   1.726  44.761  0.0421  0.4223 -0.0607
 8062W        W10212   0.704   2.160  35.147  0.0987 -0.0572  0.1615
 8063W        W10213   6.103   5.013  35.596 -0.1911  0.1612  0.0693
 8064W        W10214   9.270   0.700   5.869 -0.0353 -0.0646 -0.1021
 8065W        W10215   3.024   5.486  11.955 -0.0157 -0.0907 -0.2700
 8066W        W10216  17.467   0.389   2.406  0.3536 -0.0231 -0.1610
 8067W        W10217  13.668   4.291  39.301 -0.3576 -0.1627 -0.1020
 8068W        W10218   1.925   6.148   0.771  0.0845  0.0819 -0.1913
 8069W        W10219  11.305   5.678  14.742  0.2193 -0.1081 -0.1507
 8070W        W10220  15.184   1.658   7.740 -0.0651  0.0059 -0.1173
 8071W        W10221   5.135   5.773  36.406 -0.3200  0.0742 -0.0570
 8072W        W10222   7.544   6.515  39.360  0.1660  0.1546  0.1615
 8073W        W10223  21.000   2.147  31.717  0.0657  0.1023  0.1416
 8074W        W10224   9.657   3.267  40.698  0.3631  0.1404  0.3922
 8075W        W10225   9.742   5.958  41.675  0.3315  0.1694 -0.0789
 8076W        W10226  13.396   1.323  13.019  0.1859  0.1330 -0.1762
 8077W        W10227  20.726   0.954   2.245  0.1667  0.2356 -0.1506
 8078W        W10228   4.432   3.624  27.150 -0.0655 -0.0962 -0.1037
 8079W        W10229   6.436   2.745  13.783  0.1350 -0.0883  0.2638
 8080W        W10230   0.756   6.431   1.058  0.0588  0.1658 -0.1143
 8081W        W10231   1.571   1.563  39.779  0.0140 -0.0749  0.0796
 8082W        W10232  13.648   3.391  11.637  0.2709  0.1193  0.1027
 8083W        W10233  18.436   2.870  29.053  0.1516 -0.1702 -0.2179
 8084W        W10234   6.273   5.201  29.641 -0.1746  0.1679  0.0421
 8085W        W10235   4.531   5.244  44.862  0.0464 -0.0308  0.0113
 8086W        W10236  12.831   1.956  10.934  0.2041 -0.0179 -0.1432
 8087W        W10237  17.868   4.150  19.045 -0.1041  0.0652  0.2440
 8088W        W10238  13.117   3.590   4.501 -0.2683 -0.0851 -0.3829
 8089W        W10239  16.652   4.923  19.978 -0.1315  0.0248 -0.0990
 8090W        W10240   4.498   1.881   5.677 -0.0941  0.2245 -0.2394
 8091W        W10241   9.522   4.272   4.575 -0.2202  0.3770  0.1244
 8092W        W10242  20.488   0.807  28.986  0.2088  0.2671 -0.3604
 8093W        W10243   8.892   6.321   4.224 -0.0623 -0.0867 -0.1329
 8094W        W10244  12.923   5.431   3.251 -0.0607 -0.0144 -0.1011
 8095W        W10245   9.727   2.917   8.167 -0.2491 -0.1110 -0.1610
 8096W        W10246  11.754   1.976   3.223 -0.0533 -0.2297  0.1017
 8097W        W10247   1.067   4.475  42.170  0.3207 -0.0814 -0.1108
 8098W        W10248  17.493   4.905  39.010  0.0279 -0.0303 -0.2248
 8099W        W10249  18.197   6.571  10.946  0.0436 -0.1434  0.0881
 8100W        W10250   7.216   1.229  43.542  0.3127  0.1107  0.0637
 8101W        W10251  12.352   0.442  14.174 -0.0239  0.0401  0.2825
 8102W        W10252   3.709   2.692  12.743  0.0403 -0.1664  0.0834
 8103W        W10253  11.255   6.312  33.760 -0.3138 -0.0057  0.4473
 8104W        W10254  10.530   5.788  18.202  0.1115 -0.1483  0.0601
 8105W        W10255   0.165   2.587  14.105  0.0054 -0.0948 -0.0274
 8106W        W10256   6.412   1.069   7.710 -0.2891  0.0340  0.1312
 8107W        W10257  11.698   3.020  27.661 -0.1751 -0.0469 -0.1302
 8108W        W10258   6.817   1.597  36.603  0.0183 -0.0073 -0.0178
 8109W        W10259   3.514   0.653  14.563 -0.0484 -0.4209 -0.0002
 8110W        W10260  11.329   3.633  28.888  0.1885 -0.0690 -0.4129
 8111W        W10261  11.241   1.370  28.408  0.2302 -0.1062  0.3611
 8112W        W10262   3.921   6.246  10.675 -0.0946 -0.0193  0.1495
 8113W        W10263  20.618   5.871   8.029  0.1678  0.1131 -0.1054
 8114W        W10264  15.670   6.518  11.842 -0.1688  0.0286 -0.0306
 8115W        W10265   8.385   0.962  16.818  0.0822  0.0628  0.0953
 8116W        W10266   3.303   6.516   0.630  0.2199  0.0769 -0.2426
 8117W        W10267  20.124   0.218  29.158  0.3695  0.1186  0.1854
 8118W        W10268  16.533   2.805  29.268  0.2244 -0.1098 -0.5101
 8119W        W10269  10.188   2.777  36.650 -0.2546 -0.2987  0.4499
 8120W        W10270   1.475   6.545   5.639  0.4338  0.1977 -0.2570
 8121W        W10271   0.647   6.391  11.348 -0.0658  0.1779  0.0712
 8122W        W10272   6.900   5.543  37.646 -0.0288  0.1852  0.0524
 8123W        W10273   6.386   4.009   7.265 -0.0538  0.0137  0.2223
 8124W        W10274  12.302   0.138  18.819  0.2566  0.0939  0.0521
 8125W        W10275  18.729   5.224  34.665 -0.2771 -0.2672  0.2527
 8126W        W10276   0.467   2.830   7.615 -0.4102  0.3195  0.4338
 8127W        W10277  14.992   1.040  19.153  0.0624  0.0303 -0.0309
 8128W        W10278  14.717   3.866  13.887  0.0092 -0.0896  0.1614
 8129W        W10279  17.680   5.845   6.649 -0.1314  0.1850 -0.0820
 8130W        W10280   2.168   2.419  39.561 -0.2897 -0.2742 -0.2293
 8131W        W10281   7.854   5.257  29.187 -0.1656  0.1023  0.1087
 8132W        W10282   9.689   5.529  26.693 -0.0697  0.3020 -0.0125
 8133W        W10283  12.005   1.113  32.616  0.1143  0.0279 -0.0872
 8134W        W10284  11.440   3.544   3.178  0.0424 -0.0748 -0.0352
 8135W        W10285   8.110   2.192  33.869 -0.2464  0.0920 -0.1349
 8136W        W10286  13.927   5.478  42.362 -0.4292  0.1044  0.1632
 8137W        W10287  11.712   4.820  32.865 -0.2112  0.1104 -0.0975
 8138W        W10288  14.987   6.495   6.720  0.2280 -0.1628  0.2967
 8139W        W10289  20.939   2.935  18.054  0.2712  0.0961  0.2048
 8140W        W10290   8.325   1.859  34.296  0.0537 -0.2210 -0.0650
 8141W        W10291   7.183   3.482   1.038 -0.1103  0.1400  0.0851
 8142W        W10292  18.934   5.677  17.426 -0.1121 -0.2325  0.2037
 8143W        W10293   9.485   0.848  40.834 -0.1249 -0.2561  0.1568
 8144W        W10294  17.784   1.239   5.005  0.0200 -0.2312 -0.0763
 8145W        W10295  13.604   0.858  13.943 -0.0488  0.0224 -0.2004
 8146W        W10296  13.032   5.076   5.446 -0.1557  0.0180 -0.1092
 8147W        W10297  15.158   1.963  12.642 -0.2360  0.1854 -0.0176
 8148W        W10298  11.238   5.652  11.495  0.0644 -0.0851 -0.1986
 8149W        W10299   3.706   6.328  24.423  0.2240 -0.1539  0.1102
 8150W        W10300  16.354   0.869  14.735  0.2555 -0.1160  0.0693
 8151W        W10301  14.219   0.741  35.350 -0.0058  0.0317  0.0376
 8152W        W10302  13.787   3.154  40.014 -0.1192  0.0061  0.2275
 8153W        W10303   9.095   0.791  39.008 -0.1402 -0.1354  0.1828
 8154W        W10304  18.414   4.106  40.170  0.0505 -0.1661  0.1878
 8155W        W10305  17.033   3.776  30.607  0.0907  0.0368 -0.0165
 8156W        W10306   5.476   2.977  29.382 -0.1399 -0.1488  0.2469
 8157W        W10307   8.728   5.273  15.665 -0.0513 -0.1028 -0.3461
 8158W        W10308   9.017   2.434  13.648  0.0468  0.0163 -0.0657
 8159W        W10309  17.323   0.338  44.887  0.1596  0.0266  0.2962
 8160W        W10310   4.395   6.249  37.678  0.0808 -0.1317 -0.3045
 8161W        W10311  10.745   5.448   9.985 -0.2178  0.3704 -0.1758
 8162W        W10312  14.889   3.251  15.879  0.0007  0.0386 -0.0849
 8163W        W10313   1.786   0.900  11.939 -0.1883  0.0338  0.0044
 8164W        W10314   3.016   4.250   8.931  0.0177 -0.0125  0.0719
 8165W        W10315  20.576   4.392   1.382  0.1052  0.0107 -0.1259
 8166W        W10316  18.689   4.805  32.357  0.1225  0.1978 -0.1384
 8167W        W10317   4.919   0.655  43.617 -0.0946 -0.0579 -0.2161
 8168W        W10318  19.085   2.093   8.645 -0.2074 -0.0829  0.2068
 8169W        W10319   0.840   1.339  28.313 -0.0510 -0.0272  0.1221
 8170W        W10320   3.417   2.134   3.105 -0.0504  0.3051  0.2382
 8171W        W10321  10.560   6.148  32.962  0.0681  0.1082  0.2010
 8172W        W10322  19.822   6.292  14.038  0.5767  0.2376  0.1135
 8173W        W10323   4.376   0.336  36.586  0.0925  0.0919  0.3033
 8174W        W10324  10.076   2.464  32.019  0.0560 -0.0253 -0.1115
 8175W        W10325   2.755   0.068  13.485 -0.0368 -0.2807 -0.0103
 8176W        W10326   5.601   1.722  13.511 -0.2329  0.1232  0.1697
 8177W        W10327  13.303   0.073  45.049  0.3167 -0.0646 -0.1686
 8178W        W10328  11.686   1.089  12.194 -0.2884  0.0525 -0.2507
 8179W        W10329  17.848   0.522  15.769 -0.0829  0.0446 -0.1961
 8180W        W10330   0.157   5.788  35.236 -0.0817 -0.2127 -0.0885
 8181W        W10331  11.194   4.661  11.932  0.1218 -0.1527  0.1272
 8182W        W10332   9.414   1.003   7.199 -0.1734 -0.0501 -0.1182
 8183W        W10333   2.579   0.133  42.554 -0.0307  0.0506 -0.1307
 8184W        W10334  15.750   4.922  15.063 -0.2156  0.0713 -0.0987
 8185W        W10335   5.227   6.307  44.646 -0.0540 -0.1488 -0.1570
 8186W        W10336  15.238   5.147  10.995 -0.0429 -0.1617 -0.2403
 8187W        W10337  20.116   5.509   1.441 -0.2261 -0.2409 -0.2996
 8188W        W10338  11.688   5.301  11.241 -0.0010 -0.0077 -0.1105
 8189W        W10339   7.935   4.206   1.765  0.0210  0.4244  0.0224
 8190W        W10340  19.651   0.720   8.149 -0.0672 -0.0754  0.1029
 8191W        W10341   7.193   1.316  13.597  0.1069 -0.0086 -0.2193
 8192W        W10342  10.310   1.512  10.929 -0.0731 -0.1686  0.0972
 8193W        W10343   0.498   3.012  41.203  0.1628  0.3812 -0.1992
 8194W        W10344   3.216   2.263  14.664  0.1370 -0.3948 -0.2702
 8195W        W10345  20.776   0.168  16.236  0.2373  0.2156  0.0164
 8196W        W10346  11.747   4.646  12.733  0.0265 -0.0943 -0.0388
 8197W        W10347  20.144   2.992   4.904 -0.2794 -0.2311  0.2442
 8198W        W10348  12.253   5.061  40.310  0.1575 -0.0749 -0.2659
 8199W        W10349   1.162   0.330  44.183 -0.1227  0.1465  0.0236
 8200W        W10350  14.419   2.799  44.052  0.0496  0.0964 -0.0596
 8201W        W10351  17.414   6.307  18.178 -0.1070 -0.3563 -0.0394
 8202W        W10352  13.989   6.463  33.241  0.1496 -0.2756  0.0045
 8203W        W10353  16.500   0.679   3.288 -0.2068  0.2749  0.2369
 8204W        W10354   2.348   3.450  37.778  0.2649  0.0809  0.0475
 8205W        W10355  11.420   6.044  18.026 -0.1446  0.0556 -0.0653
 8206W        W10356   3.968   1.743   1.671  0.0407 -0.2748 -0.1210
 8207W        W10357   2.828   6.171  29.269  0.0524  0.0410 -0.3037
 8208W        W10358  18.264   5.197  11.560  0.4609  0.0602 -0.2533
 8209W        W10359   0.669   5.464  13.973 -0.1768  0.2145 -0.1259
 8210W        W10360  16.836   3.730   0.023 -0.2705  0.1111 -0.1064
 8211W        W10361  16.776   4.966  43.387  0.4704 -0.5003  0.2629
 8212W        W10362   6.120   6.287   0.412 -0.1208 -0.0060  0.0919
 8213W        W10363   9.225   3.807  43.136  0.4718 -0.0160  0.0286
 8214W        W10364  12.179   3.433   0.240 -0.0410 -0.2024 -0.1008
 8215W        W10365   5.329   4.785   8.880 -0.0603  0.2294  0.1581
 8216W        W10366  13.264   4.872  40.741 -0.0470 -0.1670 -0.0805
 8217W        W10367   7.445   3.812  39.438 -0.1798 -0.1068  0.1530
 8218W        W10368   8.911   3.918  39.337 -0.2028  0.1913 -0.1324
 8219W        W10369  13.288   5.011  37.693  0.0050  0.0323 -0.1429
 8220W        W10370   7.098   6.368   4.371 -0.0612  0.3345 -0.1220
 8221W        W10371  13.512   4.745  42.894  0.2316  0.3569  0.1814
 8222W        W10372  12.159   5.923  11.184  0.2243 -0.0584  0.2577
 8223W        W10373   2.272   0.642   1.943  0.1210  0.4053 -0.5357
 8224W        W10374  18.889   5.397   8.329  0.1145 -0.2418  0.0814
 8225W        W10375  17.515   2.108  13.184 -0.0248 -0.0516  0.0611
 8226W        W10376   1.817   6.032  37.444 -0.2207  0.2071  0.1128
 8227W        W10377   4.752   5.469  28.701 -0.2019  0.2021 -0.1597
 8228W        W10378  11.973   1.738   2.091 -0.1186 -0.3480  0.1779
 8229W        W10379  19.015   1.877  12.215 -0.1543 -0.0110  0.2619
 8230W        W10380  16.878   5.917  12.507  0.2988 -0.1852 -0.0568
 8231W        W10381  13.277   5.320  15.973  0.1171  0.2433 -0.2304
 8232W        W10382   3.352   1.545  39.698  0.0643 -0.1241  0.3504
 8233W        W10383  14.879   0.292   6.414 -0.1322  0.0163  0.0001
 8234W        W10384  15.508   0.804  44.437 -0.0845 -0.0141 -0.0095
 8235W        W10385  14.458   1.720  17.711 -0.1241  0.1247  0.0339
 8236W        W10386  11.046   0.954   9.598  0.0612 -0.0474  0.2480
 8237W        W10387  19.299   5.582  32.591 -0.0508  0.2812 -0.0560
 8238W        W10388  11.104   1.533  13.377 -0.0943  0.0665 -0.2490
 8239W        W10389  14.237   0.532  12.561  0.1071  0.0740 -0.1701
 8240W        W10390  18.566   0.129  42.857 -0.2044  0.0677 -0.3331
 8241W        W10391   6.383   3.364  29.737 -0.2029 -0.1353  0.1475
 8242W        W10392  12.197   3.835   3.709  0.0796  0.0462 -0.1566
 8243W        W10393  16.623   2.023   8.535  0.0318 -0.1671 -0.0783
 8244W        W10394   6.237   2.556   5.345  0.0947 -0.0601 -0.1044
 8245W        W10395   4.463   5.172  40.537 -0.0294 -0.1947 -0.0239
 8246W        W10396   1.423   0.716   8.055 -0.0027  0.0090 -0.2615
 8247W        W10397   0.493   5.438  42.885  0.0359  0.2294  0.2838
 8248W        W10398  19.142   5.979   7.706 -0.0676 -0.0584 -0.4509
 8249W        W10399  14.978   4.119  37.380  0.4349  0.2500 -0.0140
 8250W        W10400   5.355   3.669   9.733  0.0817  0.1120 -0.1935
 8251W        W10401  14.445   0.076  40.057 -0.0785  0.1444  0.2722
 8252W        W10402  13.948   0.848  36.163 -0.1097 -0.0976 -0.4393
 8253W        W10403   4.170   3.281  36.021 -0.0795 -0.1442 -0.0252
 8254W        W10404   1.480   1.322   4.815  0.2071  0.1125 -0.2064
 8255W        W10405  17.898   4.868  10.572 -0.1103 -0.2391 -0.0839
 8256W        W10406  15.733   1.483  37.495  0.1964  0.2494  0.2667
 8257W        W10407   9.419   1.302  30.915 -0.0625  0.1282 -0.4767
 8258W        W10408   3.765   2.698   8.695 -0.0695  0.2111  0.2200
 8259W        W10409  19.498   5.907  29.892 -0.0657 -0.2469 -0.0070
 8260W        W10410   7.476   6.259  22.158 -0.0058  0.2169 -0.1425
 8261W        W10411   8.275   0.907  30.533 -0.0283  0.0833  0.0803
 8262W        W10412  18.891   4.231   3.092  0.2235 -0.1335  0.1741
 8263W        W10413   6.998   0.579  15.236 -0.1566  0.0944 -0.1795
 8264W        W10414   9.013   1.166  35.226 -0.4040 -0.0188 -0.0140
 8265W        W10415  12.994   5.711  10.526 -0.2229 -0.1342 -0.1294
 8266W        W10416  16.394   0.093   5.077  0.1132  0.0555  0.1660
 8267W        W10417   6.328   1.251  34.953  0.0438  0.2992  0.1176
 8268W        W10418  17.894   3.678  21.651 -0.0380  0.1710  0.0267
 8269W        W10419  20.399   1.808   7.863  0.0630  0.2540 -0.0669
 8270W        W10420   1.689   3.470  15.298 -0.2379  0.2560 -0.0307
 8271W        W10421   2.061   1.321  11.341 -0.0216  0.0400  0.2594
 8272W        W10422  11.925   3.752   9.957 -0.1119 -0.0072  0.2998
 8273W        W10423  12.085   0.577  17.985  0.1349  0.0044 -0.1686
 8274W        W10424   1.923   0.211  29.672  0.0433  0.2676 -0.1154
 8275W        W10425   7.622   6.371  44.909 -0.1629 -0.2208 -0.1496
 8276W        W10426   6.932   2.331  38.468  0.0498  0.0898  0.1852
 8277W        W10427   5.243   2.823  10.716 -0.1715  0.2773  0.2107
 8278W        W10428  16.593   5.473  23.022 -0.0929  0.1051 -0.0739
 8279W        W10429  12.668   4.615   3.556  0.1053 -0.4696 -0.0463
 8280W        W10430   1.553   5.852  16.745 -0.2575 -0.1984 -0.1986
 8281W        W10431  18.973   2.032  33.803  0.3724  0.1301 -0.0973
 8282W        W10432   2.767   1.454  27.806 -0.3871  0.0685  0.1201
 8283W        W10433  19.862   1.097   5.754  0.0530 -0.3562 -0.0769
 8284W        W10434  13.517   4.307  18.496 -0.1128 -0.0998 -0.1164
 8285W        W10435   4.852   4.475  32.229  0.1053 -0.3368 -0.2151
 8286W        W10436   5.293   3.609   5.481 -0.1649 -0.5306 -0.1069
 8287W        W10437   7.389   6.525  27.165 -0.0842  0.1574 -0.0190
 8288W        W10438  20.631   5.706  33.421  0.3187  0.1960  0.2105
 8289W        W10439  16.693   4.240  13.169 -0.0885  0.0706 -0.0411
 8290W        W10440   9.952   3.196  14.170  0.0107 -0.1929 -0.4455
 8291W        W10441  13.406   5.595   0.511 -0.1228  0.0942 -0.1709
 8292W        W10442  17.343   0.126  28.708  0.1447 -0.2186  0.0413
 8293W        W10443   4.309   6.576  39.730  0.1247  0.0472 -0.0291
 8294W        W10444   5.122   4.706  12.949 -0.0942 -0.3911 -0.1186
 8295W        W10445  10.785   3.881  30.045  0.1823  0.1338  0.0246
 8296W        W10446   7.433   2.979   3.117  0.1511 -0.2592  0.0087
 8297W        W10447  20.301   3.628  43.042 -0.2915 -0.2027  0.0307
 8298W        W10448  15.569   2.582  10.411 -0.0680  0.1771 -0.0248
 8299W        W10449  13.712   5.065   1.563  0.1200 -0.0378  0.0022
 8300W        W10450  10.620   1.744  37.043 -0.1409 -0.0372  0.0143
 8301W        W10451  12.129   0.438  10.299 -0.0665 -0.0142 -0.0602
 8302W        W10452   8.123   0.204  27.143 -0.0105 -0.0198  0.0922
 8303W        W10453   7.678   6.126   1.050  0.0148 -0.0587  0.1826
 8304W        W10454  17.901   3.245  35.580  0.1206  0.1808  0.1824
 8305W        W10455  10.784   5.114  38.671 -0.0733 -0.0727  0.0812
 8306W        W10456  20.647   3.767  17.756  0.0352  0.0045  0.1024
 8307W        W10457  15.532   1.245  29.619  0.1019 -0.1657 -0.2527
 8308W        W10458   3.455   0.770   9.297 -0.0748 -0.1968  0.3953
 8309W        W10459   6.498   3.750  27.910  0.1937 -0.0302  0.0875
 8310W        W10460   1.750   5.029  39.132 -0.0028  0.0355 -0.0718
 8311W        W10461   6.608   1.564   0.217  0.1693 -0.0159  0.0570
 8312W        W10462   1.282   1.232  35.846  0.0582 -0.1580  0.1044
 8313W        W10463  10.243   5.311  12.537 -0.1426 -0.2229  0.2678
 8314W        W10464  18.248   4.429   5.135  0.0958 -0.1124 -0.2956
 8315W        W10465  15.804   3.073  17.507 -0.1459  0.1166  0.0313
 8316W        W10466  20.969   3.162  43.624 -0.2671  0.0649 -0.0155
 8317W        W10467   2.127   2.368  34.421 -0.0821 -0.4289  0.0148
 8318W        W10468   7.646   4.118  37.963  0.0529 -0.0225  0.1550
 8319W        W10469   4.652   0.559   6.094 -0.0183 -0.3808  0.2043
 8320W        W10470  20.003   0.773  33.017  0.0871 -0.1007 -0.0887
 8321W        W10471   2.493   0.453  32.448 -0.4134  0.0397 -0.1568
 8322W        W10472   6.129   5.625   1.650  0.0930  0.1284  0.0917
 8323W        W10473  17.966   1.205  40.807 -0.1099 -0.0009 -0.1732
 8324W        W10474  20.270   2.779  12.648 -0.0225 -0.3521 -0.0986
 8325W        W10475  13.741   5.256  12.588 -0.4331  0.1651  0.1110
 8326W        W10476  16.697   4.520  42.571 -0.2352 -0.0248 -0.2419
 8327W        W10477  13.296   6.182  10.300 -0.0451  0.0676 -0.0443
 8328W        W10478  20.932   4.970   3.980  0.0811 -0.0291 -0.1035
 8329W        W10479  12.845   4.233  19.931 -0.0852  0.0409  0.2015
 8330W        W10480  12.273   3.812  29.623  0.3253  0.0834  0.1595
 8331W        W10481  14.141   5.057   2.456 -0.0000  0.2700 -0.0829
 8332W        W10482  20.607   2.854  13.941  0.0060 -0.2211  0.0977
 8333W        W10483  12.003   5.088  35.714  0.0730 -0.0662 -0.1329
 8334W        W10484  21.084   4.365  38.700  0.1949 -0.3377 -0.1929
 8335W        W10485   3.812   3.928   1.514 -0.3257  0.3504  0.1247
 8336W        W10486   4.430   2.815  16.330  0.0505  0.4425  0.0090
 8337W        W10487  19.521   0.077  30.524  0.3031 -0.1375  0.0140
 8338W        W10488  16.376   5.744  37.583  0.1665 -0.0613 -0.0462
 8339W        W10489  13.171   3.623  20.567 -0.1592  0.0615 -0.3745
 8340W        W10490  20.354   3.132   9.977 -0.2028  0.0108  0.0236
 8341W        W10491   6.601   0.985   5.890 -0.4886 -0.1496 -0.3090
 8342W        W10492  13.968   3.666  28.409  0.1444 -0.1391  0.1487
 8343W        W10493  16.031   0.590   0.078 -0.0754 -0.1138 -0.0283
 8344W        W10494   3.468   6.261  14.013 -0.1199  0.0572 -0.0332
 8345W        W10495  20.299   4.568  14.309  0.0447 -0.1280  0.0275
 8346W        W10496  20.048   2.739   8.339  0.0697  0.0814 -0.1485
 8347W        W10497  17.399   4.282  38.953 -0.2423  0.0385 -0.0282
 8348W        W10498   6.942   6.088  39.652  0.0997 -0.0490 -0.0330
 8349W        W10499  15.527   3.841   0.967  0.0631 -0.5123 -0.1629
 8350W        W10500  15.818   4.484  13.525 -0.3909  0.0332 -0.2336
 8351W        W10501  16.967   2.699  36.219  0.0747 -0.0094  0.0538
 8352W        W10502  16.238   5.900  18.866  0.2441  0.0635  0.0760
 8353W        W10503   9.291   5.606  41.898 -0.0810  0.3355  0.1812
 8354W        W10504  11.802   6.583  29.013  0.2708 -0.3812 -0.1826
 8355W        W10505   1.131   4.911  38.063 -0.0904  0.1319  0.1565
 8356W        W10506  18.229   1.183   7.158 -0.0347  0.1541 -0.0594
 8357W        W10507   2.757   2.424  34.389  0.0653 -0.2145 -0.4299
 8358W        W10508   8.742   1.658   3.420 -0.0323  0.2720 -0.2939
 8359W        W10509   8.228   0.268  35.619 -0.0393  0.0341  0.3626
 8360W        W10510   2.868   2.385  26.717 -0.4868  0.0709 -0.2332
 8361W        W10511   7.685   3.278   1.620  0.1560  0.0012  0.3421
 8362W        W10512   5.378   4.294  34.644  0.1474 -0.2303 -0.0841
 8363W        W10513  13.776   4.810  20.415 -0.0269  0.1797 -0.0412
 8364W        W10514  12.185   3.799  11.896  0.1161  0.3187 -0.1731
 8365W        W10515  11.088   5.875  29.155  0.1584 -0.2064  0.0388
 8366W        W10516   6.856   6.051   3.069  0.2669  0.1450 -0.5106
 8367W        W10517   5.591   3.224  25.552  0.1541  0.0605  0.2598
 8368W        W10518  11.373   5.570  38.960  0.0340  0.2778  0.0435
 8369W        W10519   1.875   6.087  42.673  0.0258 -0.1977 -0.0792
 8370W        W10520  10.450   2.274  15.907 -0.0477 -0.0342  0.1211
 8371W        W10521  14.715   2.794  17.975  0.0806  0.1066  0.0253
 8372W        W10522   7.119   1.038  11.234  0.0729  0.0194 -0.0750
 8373W        W10523  11.330   2.295  33.396  0.2785 -0.0309  0.1066
 8374W        W10524  10.507   4.526   1.658  0.2310 -0.2294  0.2219
 8375W        W10525   2.852   6.491   3.268  0.3253  0.3088  0.1217
 8376W        W10526  10.512   6.605  37.546 -0.0371  0.2707 -0.0330
 8377W        W10527  20.885   3.471   8.531  0.0248 -0.0959 -0.2471
 8378W        W10528  11.286   6.415  29.972  0.0423 -0.0007 -0.1159
 8379W        W10529   1.357   3.296   7.739 -0.0018  0.0002 -0.0500
 8380W        W10530   5.682   5.662   9.782  0.3684  0.0593 -0.0533
 8381W        W10531   1.681   2.931  32.234 -0.3110  0.1269 -0.0668
 8382W        W10532   4.853   1.680   6.155  0.0130 -0.0777 -0.1550
 8383W        W10533  13.991   5.017  30.659  0.0007  0.0663  0.2076
 8384W        W10534   2.975   2.817   0.506 -0.2461 -0.1653 -0.1064
 8385W        W10535  11.301   1.787  34.773  0.2021 -0.0427  0.2672
 8386W        W10536  17.500   4.285  29.884 -0.0269  0.1278  0.2818
 8387W        W10537   3.803   4.182  23.990 -0.1053  0.1864  0.3302
 8388W        W10538  17.517   0.422  32.454  0.4117  0.0723 -0.2762
 8389W        W10539  20.471   6.124   1.205 -0.3000  0.3548  0.0539
 8390W        W10540   7.701   3.682  14.946  0.2229  0.1242 -0.0707
 8391W        W10541  20.273   4.574   4.278  0.1619 -0.1534 -0.0626
 8392W        W10542  14.306   5.438  11.308 -0.1044  0.3413 -0.2671
 8393W        W10543  16.383   2.335  20.204  0.4958 -0.0227  0.0368
 8394W        W10544  17.797   1.707   9.053 -0.1536 -0.2420 -0.1083
 8395W        W10545   7.889   4.289  35.952 -0.1192 -0.1830 -0.0722
 8396W        W10546   0.323   3.020   3.784  0.1198 -0.1445 -0.2006
 8397W        W10547  16.173   0.470  38.432 -0.2343  0.0337  0.0333
 8398W        W10548   5.638   5.731   5.605 -0.1901 -0.1442  0.0052
 8399W        W10549  12.924   2.406  30.659  0.4088  0.0599  0.1545
 8400W        W10550  20.391   2.724  17.387 -0.1402  0.0094  0.2027
 8401W        W10551  18.359   2.243  32.743 -0.2205 -0.1320 -0.0870
 8402W        W10552   0.192   1.782  41.890  0.0973  0.1919 -0.1078
 8403W        W10553   4.653   4.376   8.527  0.0251  0.0311  0.0728
 8404W        W10554  19.325   5.830  40.396 -0.1661  0.2243  0.1992
 8405W        W10555  10.285   3.359  37.673  0.0893 -0.3035  0.2192
 8406W        W10556  13.932   3.151  42.608 -0.3696 -0.2280  0.1234
 8407W        W10557  11.104   2.804  40.378  0.0237  0.1319  0.0143
 8408W        W10558  16.735   1.035  32.772 -0.0566  0.0570  0.2025
 8409W        W10559  16.464   4.254  19.684 -0.1684 -0.1425 -0.3077
 8410W        W10560   2.744   2.475   2.862 -0.4163 -0.0288  0.3272
 8411W        W10561   7.319   5.193  29.393  0.0987  0.1582  0.2106
 8412W        W10562   8.140   4.670   1.646 -0.0501  0.0487  0.1737
 8413W        W10563  14.732   4.472  42.899  0.0670 -0.1020  0.1294
 8414W        W10564   1.161   3.875  10.663  0.1151  0.1615 -0.0238
 8415W        W10565  13.390   3.950  16.743 -0.3019 -0.1008  0.0751
 8416W        W10566  15.960   3.974  22.521  0.1623  0.0757  0.0247
 8417W        W10567   9.031   0.042   8.044 -0.0726  0.0195  0.1092
 8418W        W10568   9.210   0.851  38.086  0.0580 -0.5054 -0.1870
 8419W        W10569  14.417   2.883  21.782 -0.0288 -0.0261 -0.2834
 8420W        W10570  13.218   3.127  18.448 -0.2938  0.0693  0.1800
 8421W        W10571  10.447   2.166   9.920 -0.3413  0.0200 -0.0165
 8422W        W10572  16.197   6.240  42.900  0.0769  0.1946  0.0918
 8423W        W10573  20.491   6.087  12.581 -0.2730 -0.0339 -0.0767
 8424W        W10574   6.114   1.254  41.317 -0.1633  0.0330  0.1039
 8425W        W10575  17.877   5.938  13.312 -0.0052  0.0778 -0.0725
 8426W        W10576   6.726   4.166  28.740  0.1076  0.3256 -0.2968
 8427W        W10577   6.372   6.017  33.493 -0.0068 -0.0554  0.0807
 8428W        W10578  10.956   0.569  28.839 -0.3165  0.0836 -0.3191
 8429W        W10579   8.441   3.106  39.623 -0.1174 -0.0321  0.1120
 8430W        W10580   5.238   4.242   5.945  0.0494  0.0604 -0.1707
 8431W        W10581  11.070   1.611   7.799  0.1309 -0.1276  0.0279
 8432W        W10582   6.975   4.549  25.330  0.2493 -0.1457 -0.0025
 8433W        W10583  13.530   2.751  36.232 -0.1578  0.0121 -0.2411
 8434W        W10584  20.869   0.457   0.906 -0.0591 -0.1741  0.2861
 8435W        W10585   4.213   5.817  22.525 -0.1352 -0.3472 -0.0037
 8436W        W10586  20.854   0.393  43.555 -0.0600 -0.1905 -0.2865
 8437W        W10587   4.731   6.223  35.684  0.1163  0.1677  0.0230
 8438W        W10588   9.940   4.014   7.546 -0.0637  0.0585  0.0028
 8439W        W10589  13.978   6.382  43.622  0.2055  0.0786 -0.0307
 8440W        W10590   4.356   3.756  40.226  0.1587 -0.2822 -0.0789
 8441W        W10591   0.384   4.549   7.146 -0.1618  0.3982  0.2171
 8442W        W10592   8.208   2.365  36.518 -0.2439 -0.0981 -0.1677
 8443W        W10593   5.106   2.751   4.630 -0.0983  0.1759 -0.0216
 8444W        W10594  18.177   3.967  31.691  0.0990 -0.1682  0.0457
 8445W        W10595  19.946   2.830  16.373 -0.0969  0.0686  0.1667
 8446W        W10596   9.686   1.857   7.037 -0.2805  0.1013 -0.1144
 8447W        W10597   0.017   2.579   2.901  0.0644  0.0171 -0.0428
 8448W        W10598  19.157   1.051  18.637 -0.0396  0.0138  0.1106
 8449W        W10599  20.659   1.604  33.656 -0.2366  0.1928 -0.1405
 8450W        W10600   6.370   3.916   9.055 -0.0215  0.0746 -0.0707
 8451W        W10601  15.575   0.208  10.259  0.1776  0.1136 -0.1283
 8452W        W10602  12.580   4.618  12.074  0.2385  0.2451  0.2076
 8453W        W10603   9.543   4.275  26.714 -0.0334  0.3242  0.2237
 8454W        W10604  14.795   5.885  40.501 -0.0945 -0.2211  0.0962
 8455W        W10605   6.327   2.932  38.299  0.2734  0.2301  0.1686
 8456W        W10606   4.636   1.606  37.784  0.1007 -0.3773 -0.2170
 8457W        W10607  15.499   1.800  37.135  0.0215  0.3723  0.0223
 8458W        W10608   1.675   1.030  33.954  0.1235 -0.0808  0.1665
 8459W        W10609   8.517   1.277   8.269 -0.0052 -0.1505 -0.1414
 8460W        W10610  14.681   3.097  12.463  0.1154 -0.0905 -0.1215
 8461W        W10611   1.155   4.314   9.115  0.0679 -0.1480 -0.1344
 8462W        W10612  18.260   6.042  10.973 -0.1627 -0.0146  0.1528
 8463W        W10613  11.178   6.513  28.160 -0.0477  0.0098  0.1967
 8464W        W10614  13.089   1.328  40.417 -0.0758 -0.0075  0.2140
 8465W        W10615  14.189   1.851  32.128 -0.2569  0.0043 -0.1811
 8466W        W10616   4.345   4.180  42.527  0.1366  0.2435 -0.2734
 8467W        W10617   2.715   1.864   0.959 -0.0107  0.0965  0.1132
 8468W        W10618   2.814   1.360   6.914 -0.0430  0.3886 -0.2916
 8469W        W10619   8.605   0.841   5.146 -0.1795  0.2032  0.0696
 8470W        W10620   1.577   1.280  38.710 -0.0488 -0.1092  0.1150
 8471W        W10621  19.954   4.000  10.374  0.0422  0.0350  0.0230
 8472W        W10622   6.277   2.699  13.297 -0.0949 -0.1787  0.0415
 8473W        W10623  19.879   5.699  36.158 -0.0708 -0.5001  0.1195
 8474W        W10624  12.594   3.246  43.642 -0.1965 -0.0326 -0.0433
 8475W        W10625   3.756   6.499  41.596 -0.0742  0.1890 -0.1408
 8476W        W10626   9.534   5.596  23.674  0.0108 -0.1667  0.2492
 8477W        W10627  19.393   6.397  16.210 -0.0489  0.1471  0.2694
 8478W        W10628  18.923   4.098  21.537  0.0483 -0.1181 -0.1069
 8479W        W10629   6.343   3.812  27.413  0.2303 -0.0336 -0.0126
 8480W        W10630  17.539   5.436   9.904  0.1386 -0.0969 -0.2813
 8481W        W10631   1.196   3.440  10.340  0.0309 -0.3751 -0.0885
 8482W        W10632   6.887   0.865  39.714  0.2539  0.1024 -0.4322
 8483W        W10633   9.260   5.890  10.968  0.1498  0.0902 -0.0711
 8484W        W10634  14.142   5.019   6.346  0.0169  0.0678 -0.0178
 8485W        W10635  15.409   1.829  36.606 -0.0473  0.1075  0.0237
 8486W        W10636   9.930   0.958  14.356  0.0057 -0.1884  0.0128
 8487W        W10637   3.746   3.643   1.955 -0.3024  0.1364  0.0613
 8488W        W10638   7.736   3.907  24.103  0.3429 -0.0919 -0.1260
 8489W        W10639  18.230   1.142   7.689  0.2403 -0.1275  0.1573
 8490W        W10640   1.614   4.753  18.229 -0.0429  0.2123 -0.0923
 8491W        W10641   1.182   6.084   1.813  0.2696  0.2171 -0.0530
 8492W        W10642  12.337   4.062   5.929 -0.4570 -0.2684 -0.1874
 8493W        W10643  13.996   2.929   7.444 -0.2533  0.1401  0.3659
 8494W        W10644  14.608   3.201   7.331 -0.0318  0.2038 -0.1536
 8495W        W10645  13.203   5.838   7.810  0.0322  0.1119  0.0413
 8496W        W10646  12.276   4.972  16.453 -0.0017 -0.1724  0.2571
 8497W        W10647   3.412   4.918   5.937  0.1796 -0.1535 -0.0926
 8498W        W10648   5.045   1.777  21.848 -0.0150  0.0423  0.1476
 8499W        W10649  10.831   2.656  11.232  0.4210  0.2013  0.2163
 8500W        W10650  11.819   1.966  16.687 -0.0219 -0.0826  0.1721
 8501W        W10651  16.800   3.811  41.260 -0.1727 -0.1612 -0.0489
 8502W        W10652   6.201   1.527   6.417 -0.0422  0.1068  0.0549
 8503W        W10653  16.828   2.239  36.302 -0.3196 -0.0364 -0.1066
 8504W        W10654   3.645   0.586  39.959 -0.1697 -0.3666 -0.1224
 8505W        W10655   8.435   6.153   2.701 -0.0990 -0.0905 -0.3018
 8506W        W10656   5.914   6.492  22.556  0.0063  0.1642 -0.0773
 8507W        W10657  10.336   3.108  33.924  0.2293 -0.2140 -0.1936
 8508W        W10658  14.009   0.951  34.593 -0.0411  0.0267  0.2341
 8509W        W10659  19.635   3.482  10.693  0.1466 -0.1386  0.0651
 8510W        W10660   4.821   3.887  33.556 -0.1372 -0.0809  0.3701
 8511W        W10661  16.350   1.543   6.708 -0.0572 -0.0474 -0.1560
 8512W        W10662   5.942   1.072  38.058  0.0421  0.1579  0.1013
 8513W        W10663  16.175   5.977  25.002 -0.1852 -0.0807 -0.0221
 8514W        W10664   9.723   3.212  15.179  0.0170  0.2438 -0.0415
 8515W        W10665  15.702   0.857  21.196  0.0635  0.1410  0.0833
 8516W        W10666   1.566   0.147  24.833 -0.1539 -0.1813  0.2524
 8517W        W10667  18.903   6.131  18.452 -0.0089  0.2302  0.2454
 8518W        W10668   6.509   5.942   3.611  0.2818  0.2074 -0.1113
 8519W        W10669   5.445   6.088  11.558 -0.2758  0.0932 -0.2212
 8520W        W10670  13.406   0.729  37.266  0.1416 -0.0227  0.2376
 8521W        W10671   3.755   4.179  10.698  0.0129 -0.0174 -0.0617
 8522W        W10672  11.695   4.619  33.618 -0.2405  0.1836  0.2937
 8523W        W10673   8.398   2.467  15.302 -0.0521 -0.1649 -0.0696
 8524W        W10674   8.553   3.327  23.677 -0.2382  0.1169 -0.1168
 8525W        W10675   2.839   5.850  33.001  0.3114 -0.1693 -0.2298
 8526W        W10676   4.596   6.484  42.579  0.0998  0.0634 -0.0343
 8527W        W10677  16.432   1.672  39.980 -0.0339 -0.0164 -0.0448
 8528W        W10678  14.371   3.240  17.895 -0.4526  0.1709 -0.0192
 8529W        W10679  19.074   3.583  39.790  0.0182  0.4208 -0.2655
 8530W        W10680   4.509   5.379  13.162 -0.0117 -0.0144 -0.0595
 8531W        W10681   5.216   4.582  26.884  0.2065 -0.0255  0.0471
 8532W        W10682   3.015   4.719  37.294 -0.0489 -0.0095 -0.1656
 8533W        W10683  11.662   0.110   6.975 -0.0967  0.0094 -0.1749
 8534W        W10684   1.556   0.262  25.833 -0.2120 -0.2771 -0.0351
 8535W        W10685  16.421   4.665   5.376 -0.0054  0.1392 -0.1247
 8536W        W10686   2.241   5.443  12.583  0.2020 -0.0284 -0.1147
 8537W        W10687  18.853   1.272   8.535 -0.2308 -0.0947  0.1855
 8538W        W10688   7.817   1.041  22.891  0.2224 -0.0292  0.1531
 8539W        W10689   6.625   0.041  39.012  0.1928 -0.1042 -0.1866
 8540W        W10690   7.150   6.096  40.096 -0.1743 -0.0166  0.0444
 8541W        W10691  18.156   3.228  16.098 -0.2434 -0.0744  0.0204
 8542W        W10692  20.305   3.480   7.276  0.0166 -0.0681  0.1772
 8543W        W10693   1.145   5.849  13.389  0.0375  0.3720  0.0602
 8544W        W10694   3.358   3.074  33.856 -0.0582 -0.1425  0.0896
 8545W        W10695   2.122   2.598  11.449 -0.1647  0.2320  0.3528
 8546W        W10696  11.617   6.303  40.085 -0.0305 -0.0171  0.3722
 8547W        W10697   3.426   3.848  34.661 -0.3644  0.1197 -0.0325
 8548W        W10698  16.211   4.395  42.708 -0.0958  0.1780 -0.0499
 8549W        W10699  13.046   1.225  31.450 -0.1152 -0.0299  0.1901
 8550W        W10700  10.756   0.010  33.154 -0.1909 -0.1062 -0.1506
 8551W        W10701   4.326   2.463   5.034 -0.0819 -0.0331 -0.0231
 8552W        W10702   6.580   2.254  33.015  0.0368  0.2211  0.3011
 8553W        W10703  18.711   1.423   1.951 -0.2016  0.0796 -0.1440
 8554W        W10704   7.912   2.228  32.006  0.2093 -0.2831  0.2539
 8555W        W10705   7.298   5.482  43.112 -0.1774  0.2771 -0.4357
 8556W        W10706  14.604   5.041  13.073 -0.1761 -0.1679  0.0628
 8557W        W10707   9.318   3.914  30.308  0.2260  0.2895 -0.3092
 8558W        W10708   6.749   1.371  27.442 -0.1900 -0.0156 -0.0333
 8559W        W10709  11.910   2.352  42.624  0.2189 -0.4283 -0.5323
 8560W        W10710  14.427   1.603  43.805 -0.3804  0.0078  0.3222
 8561W        W10711  13.862   4.363  12.094 -0.0124  0.0993 -0.1566
 8562W        W10712  16.996   1.285  43.459  0.1578  0.0694 -0.0184
 8563W        W10713  18.085   3.806   7.448 -0.1030  0.1303 -0.0697
 8564W        W10714  11.027   5.344  14.341  0.1752  0.0553  0.3253
 8565W        W10715   6.397   0.594  38.797  0.1693 -0.4695 -0.0945
 8566W        W10716   0.913   6.544  42.047 -0.0928 -0.0617 -0.0031
 8567W        W10717  13.854   0.114  29.316  0.0745 -0.2203 -0.0183
 8568W        W10718   6.956   1.969  39.782  0.2747  0.0706 -0.4430
 8569W        W10719   6.854   2.585  32.739  0.1607 -0.0074  0.2076
 8570W        W10720  12.304   0.819  30.297 -0.0617 -0.1035  0.0823
 8571W        W10721  18.491   1.876   1.748 -0.2168 -0.2501  0.0297
 8572W        W10722   5.832   2.892  12.764  0.2929  0.2344  0.0547
 8573W        W10723  11.458   5.153   2.920  0.0740 -0.0309 -0.2525
 8574W        W10724  10.569   4.208  11.688 -0.1627  0.1495 -0.1281
 8575W        W10725  17.349   5.983  41.471 -0.1803 -0.0089  0.0668
 8576W        W10726   7.393   2.024  44.788 -0.0602 -0.1959  0.0652
 8577W        W10727  12.979   4.892   1.921  0.1207 -0.3649  0.0644
 8578W        W10728  10.911   5.130  28.057  0.0443 -0.3252 -0.3105
 8579W        W10729   6.101   6.508  32.318  0.2611 -0.0017 -0.0979
 8580W        W10730   5.954   2.576  33.102  0.0562  0.3098  0.1891
 8581W        W10731   0.309   0.414  37.451  0.4223 -0.0870  0.1099
 8582W        W10732   6.310   4.223  35.343 -0.0622  0.1265 -0.0342
 8583W        W10733   9.740   0.314  38.649  0.0587 -0.2392  0.1110
 8584W        W10734   4.443   1.790  34.415 -0.0678  0.2352 -0.2503
 8585W        W10735   2.185   4.182   0.857  0.1120  0.0325 -0.0830
 8586W        W10736   3.898   3.688   9.787  0.0579 -0.1348  0.0370
 8587W        W10737   8.114   3.383   2.757  0.0351  0.1379 -0.0141
 8588W        W10738  12.672   2.798   9.875 -0.0068  0.0768 -0.3819
 8589W        W10739  11.914   4.333  10.975  0.0407 -0.0917  0.0085
 8590W        W10740   1.052   3.814  16.051  0.2008 -0.3246 -0.2431
 8591W        W10741  18.393   5.436   4.590  0.0264  0.0282 -0.2785
 8592W        W10742   2.356   1.140  27.522 -0.0348  0.1824 -0.0109
 8593W        W10743  12.245   0.227  40.927  0.0644  0.2912  0.0190
 8594W        W10744   8.883   5.541  28.387 -0.0871 -0.3378 -0.2546
 8595W        W10745  14.284   2.059   0.012 -0.0807 -0.2907 -0.0494
 8596W        W10746  12.438   0.266  38.470  0.0001 -0.0444  0.0717
 8597W        W10747  17.746   0.879  41.647  0.1369 -0.0566 -0.3064
 8598W        W10748  14.047   4.490  37.164 -0.1379  0.1601 -0.2475
 8599W        W10749   4.194   4.165  29.948  0.0801  0.1404 -0.0029
 8600W        W10750   1.540   5.507  28.119  0.0012  0.0251 -0.1755
 8601W        W10751   1.351   1.437  34.766 -0.0055  0.1419  0.0812
 8602W        W10752  16.861   4.144  18.676  0.2032  0.0111  0.2596
 8603W        W10753   9.503   3.340  26.683  0.5078  0.1111  0.4007
 8604W        W10754  11.833   5.274  38.678  0.0078 -0.1557 -0.1294
 8605W        W10755  17.683   4.460  28.971  0.0056  0.1281  0.0717
 8606W        W10756  12.308   0.320  20.092  0.0648 -0.0033 -0.0795
 8607W        W10757  16.598   2.740  11.692  0.0171 -0.1971  0.0351
 8608W        W10758  10.837   6.458  11.559  0.2014 -0.3648  0.1444
 8609W        W10759   4.656   3.138  12.314 -0.1458 -0.0456 -0.2439
 8610W        W10760  19.413   1.797  36.129  0.0621 -0.1590  0.3052
 8611W        W10761   3.319   5.487  10.432  0.0057 -0.1963 -0.1247
 8612W        W10762   4.158   2.221   1.986 -0.1456 -0.2966 -0.1734
 8613W        W10763   1.538   0.483  39.968  0.0822  0.1547 -0.1024
 8614W        W10764  15.959   3.433  23.274 -0.2655 -0.0399 -0.1387
 8615W        W10765   4.315   5.900  39.099  0.1024  0.1675 -0.2369
 8616W        W10766   8.388   0.786  13.013 -0.0611  0.1882 -0.0128
 8617W        W10767   0.235   4.683  30.906 -0.0959 -0.0627 -0.1331
 8618W        W10768  15.091   6.441  36.641  0.0874 -0.3445 -0.0352
 8619W        W10769  17.331   1.144  23.489 -0.1747 -0.2870  0.2382
 8620W        W10770   1.465   2.860  29.944  0.0088 -0.2899  0.2330
 8621W        W10771  20.469   2.619  13.478  0.0925 -0.0959 -0.1245
 8622W        W10772   1.867   3.166   0.792  0.1347 -0.0807  0.2247
 8623W        W10773   5.168   2.363  31.781  0.0020 -0.2359  0.1153
 8624W        W10774  13.446   5.202   6.841  0.1300  0.1696 -0.2092
 8625W        W10775   6.140   3.113  20.998 -0.3071 -0.0973  0.4048
 8626W        W10776   7.065   0.794  16.436  0.0904  0.3101 -0.1102
 8627W        W10777  18.610   3.989  13.057 -0.4659 -0.0390  0.1699
 8628W        W10778  17.709   1.146   0.624 -0.2040  0.0672  0.2066
 8629W        W10779  19.866   5.248  44.544  0.0080 -0.1545 -0.0502
 8630W        W10780  10.335   0.043  43.756 -0.2274  0.0293 -0.1317
 8631W        W10781   4.512   3.780  30.344  0.1386  0.0305 -0.2709
 8632W        W10782  19.734   2.622  15.302 -0.0585  0.3146 -0.1054
 8633W        W10783   5.577   3.002  28.525  0.1708 -0.1243  0.1865
 8634W        W10784   2.092   4.280  34.631 -0.2502 -0.1375 -0.2068
 8635W        W10785  14.319   4.056  16.341 -0.2112  0.1262  0.0346
 8636W        W10786   3.852   5.080  23.650  0.3307 -0.1830  0.1177
 8637W        W10787   8.623   1.293  32.352 -0.2875 -0.2999 -0.0698
 8638W        W10788  14.790   5.712   9.952  0.0935 -0.2609 -0.2898
 8639W        W10789   1.492   1.676  31.053  0.3889  0.3122  0.0061
 8640W        W10790   7.050   1.148  25.784 -0.2608 -0.0221 -0.2813
 8641W        W10791  19.527   2.472   7.386  0.0607  0.0111 -0.1888
 8642W        W10792  17.391   3.946  19.455 -0.0616 -0.2165  0.0169
 8643W        W10793   7.604   5.999   5.330 -0.3253  0.0186 -0.1119
 8644W        W10794   5.418   0.214  21.412 -0.2874 -0.0055  0.0070
 8645W        W10795   3.816   5.263  24.183 -0.1201 -0.0442 -0.0036
 8646W        W10796  13.885   0.397  17.148  0.0839  0.0750 -0.0040
 8647W        W10797  17.900   4.825  37.416 -0.1472 -0.1454  0.1391
 8648W        W10798  11.885   0.264  10.694  0.0447  0.1502  0.0099
 8649W        W10799  11.538   2.920  12.487 -0.1299 -0.0073 -0.2771
 8650W        W10800  11.357   2.539   6.909 -0.0449  0.0384 -0.0242
 8651W        W10801   8.668   0.373   0.314 -0.0889 -0.2196 -0.0400
 8652W        W10802  17.344   5.333   6.104 -0.3028 -0.1117 -0.0426
 8653W        W10803   0.271   5.880  39.914  0.0024 -0.1879  0.0771
 8654W        W10804   2.644   3.726   6.815  0.0221 -0.1762 -0.1457
 8655W        W10805  15.122   5.041  11.811  0.1429  0.2479  0.0791
 8656W        W10806   7.540   1.941  13.123  0.1359  0.1227 -0.0098
 8657W        W10807   9.442   6.081   8.891  0.1890  0.0184 -0.2197
 8658W        W10808   8.006   5.150  10.214 -0.1599 -0.1690 -0.1662
 8659W        W10809   8.222   2.854   0.285  0.0333  0.0948 -0.0673
 8660W        W10810  16.608   6.289  15.111  0.0955  0.0512  0.2842
 8661W        W10811  14.091   1.479  15.068  0.4141 -0.1033 -0.1852
 8662W        W10812   5.186   3.181   3.348 -0.2373  0.1567 -0.2708
 8663W        W10813  19.597   2.410  37.483 -0.0170 -0.0392  0.1891
 8664W        W10814   2.845   2.310  27.778 -0.0737  0.2268  0.1156
 8665W        W10815  15.096   1.836   0.559 -0.1244 -0.0586  0.0076
 8666W        W10816   7.462   1.632   1.813 -0.0303 -0.0164  0.0783
 8667W        W10817  17.018   1.762  20.961  0.0216  0.0617 -0.2725
 8668W        W10818   4.847   3.696   5.112 -0.2161 -0.2207  0.0560
 8669W        W10819  15.593   0.407  22.507  0.1378  0.0090  0.0644
 8670W        W10820   0.678   4.683   0.902 -0.2329  0.0106  0.1753
 8671W        W10821   7.838   4.467  41.478 -0.1186 -0.1784 -0.0803
 8672W        W10822  12.809   2.279  20.173  0.0570 -0.1272 -0.0195
 8673W        W10823   6.714   6.444  42.618 -0.2083  0.2766 -0.0909
 8674W        W10824   6.118   6.211  37.117  0.6270  0.4187 -0.3869
 8675W        W10825   3.458   3.490  44.705 -0.0633 -0.0427  0.2903
 8676W        W10826   0.871   0.303   0.401 -0.2098  0.2309 -0.0885
 8677W        W10827  20.976   0.671  18.096 -0.0318 -0.1430 -0.0721
 8678W        W10828   1.131   3.405  35.990 -0.1034  0.2276 -0.0089
 8679W        W10829  18.519   2.853  35.760 -0.2423 -0.2149 -0.0485
 8680W        W10830   0.438   2.795   5.424  0.4162  0.3355  0.1339
 8681W        W10831  16.744   1.994   4.259  0.1010 -0.2202 -0.0327
 8682W        W10832  10.118   2.649   9.084  0.2096  0.1333 -0.1808
 8683W        W10833  10.417   4.035  17.247 -0.3791 -0.0806  0.2049
 8684W        W10834   5.351   0.049  24.255  0.3990 -0.2375 -0.4437
 8685W        W10835   2.393   0.269   1.160 -0.2040 -0.0698 -0.4749
 8686W        W10836  13.505   3.402  39.179  0.4079  0.2418  0.3056
 8687W        W10837   7.591   4.891   5.193 -0.1636  0.1737  0.1644
 8688W        W10838  13.500   5.004   3.169 -0.1271  0.0130  0.0751
 8689W        W10839   3.453   0.150  35.453  0.2809 -0.1666 -0.0195
 8690W        W10840  13.486   2.800  35.417 -0.0284 -0.0432  0.0148
 8691W        W10841  15.661   3.850  23.262  0.3246  0.1165 -0.0242
 8692W        W10842   2.718   4.844  11.227  0.0999 -0.1960  0.1137
 8693W        W10843   7.067   1.371  44.018 -0.0184  0.1217 -0.4081
 8694W        W10844  10.142   3.990  17.704 -0.1518 -0.0233 -0.2004
 8695W        W10845  14.056   5.880  36.250  0.0173  0.2983 -0.0924
 8696W        W10846  13.343   3.824  32.651 -0.1475  0.0884 -0.2294
 8697W        W10847  18.504   0.835  44.506  0.1313  0.1035  0.0838
 8698W        W10848  15.072   6.177  22.351  0.3413 -0.2069  0.0547
 8699W        W10849  19.881   2.109   3.011 -0.2312  0.1883  0.2254
 8700W        W10850   4.927   6.584  28.556 -0.0143 -0.2171  0.1975
 8701W        W10851   0.116   4.021  27.419 -0.2319 -0.0136  0.2033
 8702W        W10852  17.299   4.028   6.039 -0.2587 -0.1409  0.0039
 8703W        W10853   5.031   6.318  43.729 -0.0599 -0.0490 -0.1416
 8704W        W10854  11.676   3.869  33.516 -0.0484  0.0425 -0.3385
 8705W        W10855   2.426   1.975  33.632  0.0185 -0.1709 -0.0866
 8706W        W10856   3.755   3.209  35.476 -0.0263  0.0312 -0.1898
 8707W        W10857  17.580   5.869  44.250 -0.2815 -0.0176 -0.0959
 8708W        W10858  20.356   1.995  16.584  0.2295 -0.3045 -0.1986
 8709W        W10859  13.366   6.225  12.751 -0.1636 -0.1234 -0.1702
 8710W        W10860   0.880   6.530  17.719  0.0325  0.2351 -0.0774
 8711W        W10861   9.580   0.805  43.357  0.3321 -0.1010  0.1930
 8712W        W10862   1.122   2.326  35.326 -0.0054 -0.0284  0.0890
 8713W        W10863  16.752   1.470  16.720 -0.0346 -0.2401  0.2225
 8714W        W10864  14.166   6.122  15.397 -0.0238  0.0252  0.0343
 8715W        W10865   3.958   0.944  42.992  0.2691  0.0941 -0.2409
 8716W        W10866   0.058   0.009   1.589  0.1327 -0.0999  0.2680
 8717W        W10867  14.634   1.944   3.915 -0.2580 -0.1519 -0.1959
 8718W        W10868   0.346   1.466  44.861 -0.1514  0.1962  0.0135
 8719W        W10869   3.362   5.192   7.115 -0.2597 -0.0224 -0.0029
 8720W        W10870   9.074   0.777  15.851  0.4196  0.1908 -0.1246
 8721W        W10871  10.035   3.187  32.604  0.1116 -0.3085  0.0529
 8722W        W10872   2.145   3.484  40.156 -0.0718  0.1115  0.1451
 8723W        W10873  18.628   3.852  34.902  0.0508  0.3247 -0.0738
 8724W        W10874   8.142   6.559  10.613 -0.2049  0.1623  0.1688
 8725W        W10875   8.577   1.223  37.493  0.3155 -0.2308 -0.3993
 8726W        W10876  15.198   6.125  10.598 -0.2083 -0.2659  0.1770
 8727W        W10877   9.392   4.844  17.710 -0.2200 -0.1492 -0.0622
 8728W        W10878   3.216   4.038  10.301  0.1069  0.4944  0.0382
 8729W        W10879  15.498   5.009   5.797 -0.1970 -0.0889 -0.1016
 8730W        W10880  19.132   6.067  34.645 -0.0330  0.0551  0.2126
 8731W        W10881   4.401   5.578  40.303  0.3027 -0.2408 -0.1291
 8732W        W10882  10.788   5.975   9.114  0.1621 -0.4791  0.1494
 8733W        W10883  17.898   1.774  18.899  0.0174  0.0877  0.1003
 8734W        W10884  19.786   4.878  39.181  0.2966 -0.0529  0.2541
 8735W        W10885   3.896   5.298  40.496  0.0003  0.0053 -0.1476
 8736W        W10886   0.685   2.695  10.853  0.3753 -0.1860 -0.1363
 8737W        W10887  11.129   2.129   1.448 -0.1955  0.5117 -0.1430
 8738W        W10888   1.816   5.629  14.671 -0.0675 -0.3828 -0.2581
 8739W        W10889  21.110   1.244  30.586 -0.1801  0.1322 -0.0969
 8740W        W10890  18.247   4.316  30.327 -0.4315  0.0282 -0.1843
 8741W        W10891  13.610   0.402  42.176  0.0694  0.0171  0.3179
 8742W        W10892   3.259   5.002  12.029  0.2887  0.1865  0.1602
 8743W        W10893  18.750   1.072  17.119 -0.1016  0.1259  0.1165
 8744W        W10894  19.890   0.016  15.423 -0.1006  0.3253  0.2527
 8745W        W10895   0.772   4.425   7.512  0.0225  0.2683  0.1052
 8746W        W10896  15.649   0.329   1.764  0.1105 -0.0303 -0.3624
 8747W        W10897   5.586   1.080  16.453 -0.0278 -0.0041 -0.4503
 8748W        W10898   0.091   3.052  42.140 -0.0108  0.3175  0.2210
 8749W        W10899  19.028   3.677  13.806 -0.0874 -0.0415  0.2487
 8750W        W10900   5.083   3.206  39.248 -0.2294  0.1119  0.2633
 8751W        W10901   3.628   6.207   8.463 -0.2169 -0.0355  0.0544
 8752W        W10902   6.986   2.320  10.776  0.1758  0.1335 -0.1949
 8753W        W10903  19.321   3.434   0.401  0.1067  0.0397  0.1129
 8754W        W10904  12.493   0.118  15.090  0.0274  0.0199  0.1188
 8755W        W10905  20.406   0.753  30.196 -0.2663 -0.0284  0.1737
 8756W        W10906  16.914   6.212  19.387  0.0715 -0.0200 -0.0477
 8757W        W10907  12.546   1.422  33.627  0.0561 -0.2349  0.1525
 8758W        W10908   7.088   0.469  23.148 -0.0683 -0.1862 -0.2514
 8759W        W10909   6.808   1.652  28.386 -0.0953  0.0317  0.0113
 8760W        W10910  16.718   0.824  21.568 -0.2210  0.3423 -0.2681
 8761W        W10911   6.336   0.129  22.338  0.1805 -0.2855  0.0025
 8762W        W10912  14.997   0.749  10.699 -0.1791 -0.0043  0.2739
 8763W        W10913  18.767   2.086  29.265 -0.1318  0.1640  0.1612
 8764W        W10914   7.411   0.921   2.520 -0.2802 -0.0718  0.1349
 8765W        W10915  14.229   3.542  13.046  0.2956  0.1089 -0.0238
 8766W        W10916   2.980   6.213  27.926 -0.1472 -0.1034 -0.2538
 8767W        W10917  14.031   1.329  29.342 -0.3375  0.3776 -0.1004
 8768W        W10918  19.194   3.533   2.631  0.3676 -0.3385  0.0224
 8769W        W10919  15.148   0.350  21.735  0.0965  0.0226  0.1442
 8770W        W10920  15.005   2.544  44.298  0.0409  0.1142 -0.1233
 8771W        W10921  17.019   5.256  10.918  0.0521 -0.3854 -0.0376
 8772W        W10922   0.398   1.485  29.224  0.0642  0.0276  0.2109
 8773W        W10923  18.309   6.492  37.424  0.1899  0.3863 -0.1452
 8774W        W10924  20.140   4.732   6.116 -0.0766 -0.2376 -0.1811
 8775W        W10925  14.201   0.247   7.237  0.1323  0.0974  0.0172
 8776W        W10926  19.744   5.930   0.138  0.3573 -0.0004  0.2031
 8777W        W10927  12.445   3.301  11.124 -0.1684 -0.0884 -0.2991
 8778W        W10928  19.572   3.781  33.641  0.1156  0.0735 -0.0400
 8779W        W10929  15.245   1.933  21.649  0.0717  0.1026  0.0058
 8780W        W10930  19.756   5.642  18.515 -0.0564 -0.0233 -0.1024
 8781W        W10931   7.343   3.121  11.631 -0.1778  0.1026 -0.2751
 8782W        W10932  19.849   5.843   2.313  0.3839  0.2063 -0.0605
 8783W        W10933   4.733   2.422  31.109 -0.1483 -0.2233 -0.1543
 8784W        W10934   5.996   4.742  36.005 -0.2274 -0.6794  0.1427
 8785W        W10935   6.991   0.930  42.307 -0.2260 -0.1630 -0.3067
 8786W        W10936   4.928   6.142  37.007 -0.0279  0.0741  0.3236
 8787W        W10937   7.382   3.183   0.642 -0.4249 -0.1291  0.0817
 8788W        W10938   9.620   2.659  44.452  0.0628 -0.1309 -0.0271
 8789W        W10939   1.605   2.668  33.075  0.0917  0.0016 -0.0105
 8790W        W10940  14.327   4.890   2.873 -0.1614 -0.1036 -0.0355
 8791W        W10941  11.143   2.099  12.119 -0.1563  0.2565 -0.0920
 8792W        W10942   6.943   1.487  38.458 -0.1103  0.2456  0.1152
 8793W        W10943   1.571   5.256   8.433 -0.4787  0.1089 -0.0017
 8794W        W10944  17.164   2.140  11.737  0.4670 -0.0241 -0.1910
 8795W        W10945   2.502   3.983  26.076 -0.0184  0.1056 -0.1021
 8796W        W10946   2.683   2.755  26.532  0.1795  0.3601 -0.0120
 8797W        W10947  21.113   5.004   2.743 -0.1402 -0.0993  0.1396
 8798W        W10948  10.988   5.722  27.501 -0.1455  0.1212  0.1699
 8799W        W10949  12.208   2.084  30.029 -0.2254  0.3286 -0.2186
 8800W        W10950  14.357   4.089  44.724 -0.2358 -0.1529 -0.1207
 8801W        W10951  16.220   5.256  37.724 -0.1357  0.0666  0.2573
 8802W        W10952   1.589   5.424   2.301 -0.1161  0.2184 -0.2216
 8803W        W10953  14.842   2.530  14.497 -0.1720 -0.4641 -0.2753
 8804W        W10954   7.172   2.717  22.774  0.1285 -0.3432 -0.0403
 8805W        W10955  15.640   5.711  16.883  0.1167  0.2153  0.1105
 8806W        W10956   7.132   2.461  30.276 -0.1142  0.0594  0.0991
 8807W        W10957  11.215   2.654  36.233  0.2172 -0.1191  0.0022
 8808W        W10958  14.817   4.054  40.992  0.1154 -0.1925 -0.0702
 8809W        W10959  15.085   3.766   8.405 -0.1887 -0.0892  0.2302
 8810W        W10960   4.070   4.788   0.575 -0.1311  0.2283 -0.0896
 8811W        W10961   1.906   1.287  10.627 -0.1686 -0.2968  0.1884
 8812W        W10962   9.399   1.106  26.202 -0.1655 -0.2860  0.3992
 8813W        W10963   6.323   0.477   3.284  0.0920  0.0860  0.1853
 8814W        W10964   6.827   3.929  16.555  0.0546 -0.2009  0.1467
 8815W        W10965   3.216   4.486  42.142 -0.1916 -0.0219 -0.0291
 8816W        W10966   0.856   5.011  18.674 -0.0017  0.0041 -0.2399
 8817W        W10967  18.088   1.577  10.872  0.3077  0.0398 -0.0268
 8818W        W10968   8.813   0.433  30.642  0.0969  0.2009 -0.1181
 8819W        W10969   9.794   6.345  26.395  0.0467  0.2558  0.0518
 8820W        W10970  18.840   3.808   7.750  0.0141  0.2184  0.1264
 8821W        W10971   8.560   1.207   6.682  0.1366 -0.0595  0.1670
 8822W        W10972   4.611   2.482  11.347 -0.2078  0.2863  0.0347
 8823W        W10973   0.430   3.065   3.259  0.0820  0.0335 -0.0456
 8824W        W10974   2.653   1.292  15.890  0.0108 -0.2132  0.3050
 8825W        W10975  20.032   1.570   9.255  0.1487 -0.3569  0.1803
 8826W        W10976  13.612   4.654  34.807 -0.0620  0.2891  0.0965
 8827W        W10977  12.501   4.000   7.650  0.0409  0.0849  0.0263
 8828W        W10978   6.040   1.493  31.387 -0.0768  0.1587 -0.1057
 8829W        W10979  10.985   3.324   3.331 -0.1908 -0.1600  0.2191
 8830W        W10980   1.435   3.643   5.298 -0.0591 -0.2721 -0.0193
 8831W        W10981  17.233   0.254  30.163 -0.1579 -0.1101 -0.1422
 8832W        W10982  13.710   5.738  13.580 -0.1693 -0.2807 -0.0833
 8833W        W10983   6.766   5.059  25.954  0.0830  0.1309 -0.2347
 8834W        W10984  15.854   5.034  20.512 -0.0086 -0.4025  0.1455
 8835W        W10985   2.527   4.567   9.777 -0.0774  0.1750 -0.0423
 8836W        W10986  16.616   4.516  33.868 -0.1526 -0.2554  0.0635
 8837W        W10987   7.639   4.282  29.465 -0.2427 -0.2963 -0.0697
 8838W        W10988   1.715   1.711  32.442 -0.1715 -0.1097  0.1329
 8839W        W10989  14.508   5.746  20.043  0.1881  0.1576  0.0598
 8840W        W10990  11.565   6.371   4.693 -0.0931 -0.1968  0.2221
 8841W        W10991   3.731   3.219   1.595 -0.0199  0.1067 -0.1466
 8842W        W10992  12.013   3.819  30.192  0.2352 -0.0648  0.0634
 8843W        W10993  17.831   0.170  31.303  0.2458 -0.1160  0.2081
 8844W        W10994  16.836   3.275  13.915  0.0621  0.1470 -0.0803
 8845W        W10995   5.008   4.821  36.125 -0.0913 -0.2213  0.3920
 8846W        W10996  15.639   4.119  29.834  0.1617 -0.1371  0.2331
 8847W        W10997   6.175   4.711  10.138 -0.0190 -0.1251  0.1113
 8848W        W10998   0.579   1.253  35.693 -0.1481 -0.1311  0.0742
 8849W        W10999   6.756   3.200   3.781  0.1712  0.1014 -0.2593
 8850W        W11000   6.479   2.853  44.233 -0.2143 -0.4009  0.1092
 8851W        W11001  19.986   4.055  13.016 -0.0888 -0.0145  0.1939
 8852W        W11002  14.415   3.441  30.652  0.2302 -0.1256 -0.1008
 8853W        W11003   8.628   5.315  16.912 -0.2169 -0.0666  0.2946
 8854W        W11004   4.213   5.342  32.856  0.2110  0.3686  0.0981
 8855W        W11005   2.200   2.465   8.097  0.2432 -0.1327  0.0407
 8856W        W11006  13.144   2.519   4.554  0.2423  0.0784 -0.3098
 8857W        W11007  14.819   2.384  16.347  0.0206  0.0677 -0.0289
 8858W        W11008  11.377   2.040  43.144  0.0724 -0.0307  0.0322
 8859W        W11009  10.289   3.932  35.777  0.1217 -0.1709 -0.3136
 8860W        W11010   4.156   3.031  29.058  0.0640  0.1158  0.5834
 8861W        W11011   8.534   5.539  41.877 -0.0158  0.0242 -0.0235
 8862W        W11012  10.857   4.185  33.132  0.0600  0.1130 -0.1193
 8863W        W11013  17.072   6.452  36.807 -0.2645  0.2420 -0.1259
 8864W        W11014  16.446   6.061  11.253  0.0545 -0.2302 -0.1570
 8865W        W11015   8.209   5.913  26.958  0.0714  0.1403  0.2511
 8866W        W11016  14.644   0.899   9.685  0.2838 -0.1736  0.1919
 8867W        W11017   9.353   6.126  27.946  0.0561 -0.0049 -0.0762
 8868W        W11018  13.961   0.737   3.342 -0.1706  0.2287 -0.1498
 8869W        W11019   6.145   3.356  36.138 -0.0217 -0.1376 -0.2408
 8870W        W11020   5.282   4.121   4.330 -0.0731 -0.1023 -0.1238
 8871W        W11021  19.657   2.257  36.268  0.3113 -0.0943 -0.1831
 8872W        W11022   6.847   6.543  39.450  0.1693  0.0575  0.1633
 8873W        W11023  13.427   4.998   8.024  0.0238 -0.2550  0.0332
 8874W        W11024   0.657   0.903  28.491 -0.1476 -0.0915  0.3228
 8875W        W11025  15.901   6.103  43.383 -0.1825  0.1410 -0.0509
 8876W        W11026  13.342   1.233  39.254 -0.1469  0.2675 -0.3520
 8877W        W11027   9.393   5.182  25.200 -0.0900 -0.2919 -0.3896
 8878W        W11028   6.483   5.520  43.540  0.1009  0.0656 -0.1254
 8879W        W11029  11.778   0.205  29.838  0.2906  0.2676 -0.0963
 8880W        W11030   6.559   6.149   7.352  0.0433  0.1306 -0.2446
 8881W        W11031   2.587   2.425  15.927 -0.1377  0.1507 -0.2252
 8882W        W11032  19.133   5.720  37.230  0.1964 -0.0341 -0.0930
 8883W        W11033   0.461   5.663  37.562  0.1775 -0.5019  0.1172
 8884W        W11034  14.382   2.868  14.567 -0.2080  0.3057  0.1632
 8885W        W11035   1.133   1.666  15.858  0.0620 -0.0402  0.2033
 8886W        W11036  15.488   5.068  31.326  0.0375  0.1621 -0.3055
 8887W        W11037  20.388   0.838  42.407 -0.1188  0.3082 -0.0463
 8888W        W11038   2.174   4.703  39.651 -0.0285 -0.0219 -0.0293
 8889W        W11039  15.593   1.578  32.780  0.1218 -0.2818  0.1372
 8890W        W11040  10.872   3.146  11.272  0.1183 -0.1418  0.2784
 8891W        W11041  13.243   3.072  19.720  0.1280 -0.0966 -0.0868
 8892W        W11042  12.679   3.718  17.736 -0.0644 -0.0921  0.0182
 8893W        W11043  18.195   1.554  44.958 -0.2169 -0.2518 -0.2614
 8894W        W11044   8.840   2.457   8.938 -0.1674  0.0353 -0.3031
 8895W        W11045  16.400   4.842  44.509  0.4428 -0.1605  0.1480
 8896W        W11046   2.677   3.628  27.254  0.1420 -0.0066  0.0012
 8897W        W11047  16.904   0.508  44.490 -0.0315  0.0476  0.1160
 8898W        W11048   5.868   0.741  34.424  0.1706  0.1206 -0.1915
 8899W        W11049  17.552   5.396   1.911 -0.0434  0.0476  0.1039
 8900W        W11050   3.111   5.022  22.603 -0.1558 -0.0021 -0.2531
 8901W        W11051  20.931   2.375   9.933  0.3179  0.1280  0.0607
 8902W        W11052  16.611   4.800  15.568 -0.0171 -0.0013  0.0362
 8903W        W11053   0.925   6.401   5.602 -0.1277 -0.0883  0.1406
 8904W        W11054  16.364   5.482  17.085  0.0617  0.0090 -0.4318
 8905W        W11055  19.158   6.523   5.522 -0.0508  0.0912 -0.0582
 8906W        W11056   0.072   4.316  31.181  0.0124  0.0624 -0.1939
 8907W        W11057  14.474   4.138   4.442 -0.2200 -0.0506 -0.4126
 8908W        W11058  12.991   2.057  33.334 -0.1020  0.2031 -0.0315
 8909W        W11059   4.440   4.108   2.664  0.0633 -0.1318  0.1085
 8910W        W11060   7.224   0.929  10.466  0.2492  0.0344  0.0633
 8911W        W11061   8.546   0.065  29.378  0.0098 -0.0793  0.0965
 8912W        W11062  10.224   2.975  38.081  0.2599  0.3817  0.0825
 8913W        W11063  11.465   5.450  33.916  0.0486  0.0061 -0.1790
 8914W        W11064   1.129   2.684  11.203  0.1339  0.1841 -0.1125
 8915W        W11065   9.421   0.361  14.077  0.1533  0.3638  0.2267
 8916W        W11066  20.943   5.233   0.387 -0.0729 -0.0720  0.1485
 8917W        W11067   8.747   1.745  41.753  0.0981  0.0439 -0.0507
 8918W        W11068   7.066   6.456  38.127  0.0934 -0.0995  0.2073
 8919W        W11069   3.948   4.895  12.281 -0.0703  0.0895  0.0144
 8920W        W11070  14.679   5.375   7.403 -0.2098  0.1467 -0.2088
 8921W        W11071  18.213   3.530  31.371 -0.2502  0.0671 -0.0493
 8922W        W11072   3.736   1.747  29.045  0.3841  0.1942  0.1221
 8923W        W11073  16.501   1.765  24.223 -0.2734 -0.0357 -0.1906
 8924W        W11074   8.849   6.508  36.672 -0.1179  0.0489 -0.4185
 8925W        W11075  13.028   2.981  35.437  0.1938 -0.0083 -0.3630
 8926W        W11076   2.916   4.685  10.545 -0.1948 -0.2087 -0.0177
 8927W        W11077   6.966   6.336  32.111  0.0505 -0.2722  0.3041
 8928W        W11078   7.635   6.400  22.628  0.0484 -0.2641  0.1698
 8929W        W11079   6.888   0.580  37.042  0.0512 -0.0879  0.1397
 8930W        W11080  19.172   2.626  14.211 -0.2443  0.2558  0.4001
 8931W        W11081   5.717   4.086  40.156 -0.0864  0.0758  0.0018
 8932W        W11082  19.539   0.824  33.639  0.1108  0.2279  0.1342
 8933W        W11083  18.107   2.447   3.619 -0.0147 -0.0599 -0.0226
 8934W        W11084   8.325   6.218  23.226 -0.0139 -0.0581 -0.0342
 8935W        W11085  18.589   3.961   5.940  0.0099  0.0399 -0.2328
 8936W        W11086  16.711   4.571  23.350 -0.2319 -0.3878  0.2664
 8937W        W11087   8.496   5.111  15.281  0.1157  0.1244  0.0771
 8938W        W11088  12.123   5.985  11.700  0.2032 -0.2072 -0.0371
 8939W        W11089   0.141   2.888  38.884 -0.2033 -0.0373 -0.1443
 8940W        W11090   1.161   6.088  10.396 -0.0839  0.1000  0.1305
 8941W        W11091   8.101   3.702  25.592 -0.1267  0.0679  0.0939
 8942W        W11092  16.031   2.266  16.251  0.2651  0.3208 -0.1193
 8943W        W11093   9.650   2.848   9.004 -0.1047 -0.0071 -0.1958
 8944W        W11094  11.227   2.692   9.493 -0.0390  0.1632  0.3040
 8945W        W11095   5.965   4.117  27.235  0.1603 -0.0230  0.2174
 8946W        W11096  10.290   4.300  32.493 -0.2058 -0.4286 -0.0658
 8947W        W11097  17.470   3.533  17.128  0.0804  0.1821 -0.0698
 8948W        W11098  14.569   4.181  20.865  0.1572 -0.1202 -0.2932
 8949W        W11099   2.797   6.035  25.628 -0.0061 -0.5440  0.1244
 8950W        W11100  11.976   6.167  38.974  0.1044 -0.1000  0.0609
 8951W        W11101   5.757   4.621  32.079 -0.1376  0.2466 -0.0627
 8952W        W11102   9.865   1.268  40.075 -0.2543 -0.2070  0.2087
 8953W        W11103   6.498   0.996  14.415  0.2709 -0.2215  0.1693
 8954W        W11104  15.436   6.086  38.036  0.0389  0.1351 -0.3973
 8955W        W11105   3.216   3.233  32.930 -0.0399 -0.1058 -0.2665
 8956W        W11106  12.910   1.067  39.302  0.3207 -0.0273  0.0556
 8957W        W11107  15.434   5.589   7.491  0.2582 -0.2128  0.4383
 8958W        W11108  10.417   5.740  35.344 -0.0116 -0.1261 -0.0667
 8959W        W11109  11.573   1.891  33.454  0.0400  0.1108  0.0466
 8960W        W11110   9.169   5.497   3.953  0.1296  0.0149 -0.1550
 8961W        W11111  17.971   5.659  36.048  0.0506 -0.1028 -0.3841
 8962W        W11112   5.874   6.070  10.564  0.0042  0.0270 -0.2810
 8963W        W11113   5.813   3.825  32.711  0.2956 -0.0633  0.0830
 8964W        W11114  13.362   0.099   4.571 -0.0870  0.0410 -0.0004
 8965W        W11115  11.600   4.797  38.698 -0.0869  0.2492 -0.0746
 8966W        W11116  18.858   3.699   5.547  0.0796 -0.1080  0.4767
 8967W        W11117   9.661   3.292  27.198  0.0709  0.0058  0.0857
 8968W        W11118  10.527   2.984  30.257 -0.0302 -0.0842  0.0374
 8969W        W11119  11.501   4.546  10.131  0.3112  0.1903  0.0288
 8970W        W11120   2.789   0.153  26.446  0.1312 -0.0118 -0.1777
 8971W        W11121  13.818   2.410   4.763 -0.1323 -0.1526 -0.1031
 8972W        W11122  15.309   4.904  15.301  0.1087 -0.2571  0.1649
 8973W        W11123  15.732   5.449  11.640 -0.1549  0.3090  0.1699
 8974W        W11124   2.218   4.391  44.712  0.1884 -0.2049 -0.2069
 8975W        W11125  16.584   3.873  33.694  0.1041  0.0035  0.3002
 8976W        W11126  15.475   3.831  43.153  0.0348  0.1186  0.1389
 8977W        W11127   6.724   3.382  43.077  0.1031 -0.3854 -0.1204
 8978W        W11128  16.147   3.222  20.071  0.2087 -0.4173 -0.0219
 8979W        W11129  18.320   3.942  38.896  0.0837 -0.0538  0.2259
 8980W        W11130  17.651   3.380  35.971  0.2042  0.1205  0.1282
 8981W        W11131  16.028   1.714  19.725  0.0981 -0.0173  0.0898
 8982W        W11132  12.942   3.818   3.213  0.4300 -0.0374 -0.3129
 8983W        W11133   5.266   1.771  28.835  0.2713 -0.0971  0.2207
 8984W        W11134  17.860   6.235  30.628  0.1002  0.0232  0.0452
 8985W        W11135  12.142   2.124  32.362  0.2744 -0.1932 -0.0414
 8986W        W11136  13.566   2.928  30.935  0.0388  0.0261  0.2080
 8987W        W11137  12.853   4.005   8.318  0.1205 -0.2042 -0.1826
 8988W        W11138  14.718   2.614  21.460 -0.1506  0.2205  0.0814
 8989W        W11139  15.108   1.086  14.535 -0.0016 -0.1335 -0.0667
 8990W        W11140  18.686   5.172   2.887 -0.2829  0.1572  0.0480
 8991W        W11141  15.709   0.267  34.154  0.0439 -0.1653 -0.0100
 8992W        W11142   4.776   4.325  31.755  0.1326  0.0792 -0.1291
 8993W        W11143  15.728   4.635  12.065 -0.2261  0.1353  0.1957
 8994W        W11144   8.755   6.294  14.608  0.0122 -0.1397  0.1518
 8995W        W11145   5.210   5.292  31.896  0.0255 -0.0718  0.0070
 8996W        W11146  21.010   1.329  16.843 -0.1686  0.0405  0.0380
 8997W        W11147  17.707   1.008  32.531  0.2304 -0.0574  0.1220
 8998W        W11148   1.388   4.257  15.096 -0.0544 -0.1930  0.0788
 8999W        W11149  20.189   0.070  10.621  0.1968 -0.0349  0.0856
 9000W        W11150  13.276   2.256  41.254  0.0469 -0.1847 -0.1143
 9001W        W11151   9.172   3.889  27.858 -0.0390 -0.1361  0.0614
 9002W        W11152  20.475   2.272   1.651  0.1909  0.3090  0.0150
 9003W        W11153  14.608   5.487  43.614  0.0415 -0.3534  0.0775
 9004W        W11154   3.706   1.040  13.021  0.0165  0.0264 -0.0798
 9005W        W11155  12.304   4.976  39.663 -0.1763  0.2057  0.0085
 9006W        W11156   2.451   6.077  43.273  0.0520 -0.1132 -0.3015
 9007W        W11157  11.912   2.542  35.075 -0.3809  0.1032  0.1710
 9008W        W11158  18.469   0.884   6.330  0.0244  0.2434 -0.2658
 9009W        W11159  12.414   5.251  36.065  0.2663  0.0445 -0.2570
 9010W        W11160   6.423   4.107  24.623 -0.3221 -0.0978  0.1006
 9011W        W11161  19.758   3.539   8.583 -0.1829  0.0643 -0.1114
 9012W        W11162  11.168   3.854   1.685 -0.1534 -0.0255  0.0596
 9013W        W11163  11.531   0.614  33.289  0.3451 -0.0750  0.4308
 9014W        W11164   6.412   1.092  31.556  0.0043  0.2406  0.2255
 9015W        W11165  17.621   0.048  15.902  0.2254  0.2243 -0.1334
 9016W        W11166   5.521   6.389  27.957  0.2057  0.0361  0.1379
 9017W        W11167  14.242   2.551  29.322 -0.0665 -0.1584  0.0559
 9018W        W11168  18.540   1.875  16.421  0.3161  0.0243  0.0232
 9019W        W11169   2.515   5.478   7.368  0.0827  0.0492 -0.1639
 9020W        W11170   9.214   1.958   1.145  0.1091  0.2123 -0.2370
 9021W        W11171  11.625   3.455   0.085  0.0546 -0.3253 -0.2277
 9022W        W11172   3.944   4.250  15.128  0.1511  0.1969  0.1553
 9023W        W11173   5.936   3.961  12.145  0.1063  0.0255  0.0359
 9024W        W11174  11.046   1.207  10.377  0.1375  0.2546  0.0998
 9025W        W11175  16.175   2.896  44.554 -0.0459 -0.1737 -0.1929
 9026W        W11176  10.673   4.032  33.835  0.1474  0.0424  0.1748
 9027W        W11177   5.957   1.047  37.556  0.1888  0.1824 -0.0061
 9028W        W11178  19.001   0.644  40.608  0.1645  0.0361 -0.1783
 9029W        W11179   7.589   0.294  42.050 -0.2242 -0.2560  0.2306
 9030W        W11180  12.292   0.152  12.041  0.0399 -0.1945 -0.0902
 9031W        W11181   1.045   2.557  44.668  0.3367  0.1149  0.0661
 9032W        W11182   2.182   4.010   1.759  0.0056  0.1127 -0.1881
 9033W        W11183   7.334   5.185  34.357  0.1817  0.1158 -0.0047
 9034W        W11184  18.111   2.710  30.225 -0.1716  0.3404 -0.2555
 9035W        W11185   6.077   4.461  24.831 -0.1197 -0.0619  0.0532
 9036W        W11186   4.989   4.379   1.580  0.0982 -0.1647  0.1589
 9037W        W11187   5.174   4.852  15.122  0.1168 -0.2215  0.0996
 9038W        W11188   6.370   0.542   6.385 -0.1458  0.0600 -0.2719
 9039W        W11189   8.469   3.331  24.284  0.2470 -0.4734 -0.2531
 9040W        W11190   5.407   0.096  12.216 -0.0457 -0.1134  0.1384
 9041W        W11191  11.038   3.657  30.469 -0.1789 -0.0940  0.0635
 9042W        W11192  16.212   6.259  24.048 -0.2206  0.3432  0.3940
 9043W        W11193  16.239   2.344   0.293  0.0595 -0.0257 -0.1075
 9044W        W11194   0.444   6.597  35.287 -0.2542  0.2417  0.0297
 9045W        W11195  17.198   5.289  37.825  0.0031  0.1609  0.0014
 9046W        W11196  16.662   0.352  33.426 -0.0729  0.1791 -0.0571
 9047W        W11197  16.086   1.161  12.921 -0.5423  0.1650  0.3420
 9048W        W11198   6.191   6.320  12.125 -0.1120 -0.2402 -0.2406
 9049W        W11199  19.579   1.431  17.628 -0.0880 -0.0981  0.0049
 9050W        W11200  20.429   1.329   8.970 -0.1212 -0.2353 -0.0439
 9051W        W11201   8.523   2.202  42.071  0.1340  0.3318 -0.0540
 9052W        W11202   8.041   4.898  14.848  0.1557 -0.1761 -0.1059
 9053W        W11203   0.345   1.039   8.451 -0.0833  0.1757  0.1283
 9054W        W11204  20.563   2.159  40.275 -0.0515 -0.1244 -0.1558
 9055W        W11205  19.492   0.818  43.457 -0.1954  0.2448  0.0878
 9056W        W11206  12.224   3.255  44.607 -0.0478  0.1703  0.1073
 9057W        W11207  19.427   5.812  16.135  0.0518 -0.2130  0.1053
 9058W        W11208   6.942   1.981  44.053 -0.3316  0.2291  0.1533
 9059W        W11209  10.468   1.979  35.534  0.0234  0.0455  0.0189
 9060W        W11210   8.673   2.993  33.334 -0.1300 -0.4320  0.3455
 9061W        W11211  16.875   5.132  34.684 -0.0900  0.0637  0.3082
 9062W        W11212   8.777   0.741  41.474 -0.2830 -0.2511 -0.0205
 9063W        W11213   5.068   3.273  21.838  0.0136  0.0422 -0.1419
 9064W        W11214   3.307   2.923  22.424 -0.0570  0.0606  0.5140
 9065W        W11215  15.351   1.033   3.060 -0.0111 -0.1025 -0.0131
 9066W        W11216  16.932   3.636   9.036 -0.1468 -0.0150  0.3066
 9067W        W11217  12.381   2.772  39.643  0.2231 -0.1510  0.0402
 9068W        W11218   5.917   0.326   9.182 -0.2859 -0.0568 -0.0863
 9069W        W11219  14.433   1.428  16.444  0.3948 -0.0174  0.0991
 9070W        W11220   4.961   3.445  32.284  0.2746  0.1310 -0.0446
 9071W        W11221  14.215   4.235  32.472  0.2248  0.1155 -0.0965
 9072W        W11222  12.582   2.307  16.873  0.4226  0.0017  0.0237
 9073W        W11223  20.437   3.879  34.135  0.2961 -0.1523  0.2457
 9074W        W11224  10.861   1.297   4.839 -0.0234  0.1396 -0.1770
 9075W        W11225  15.520   0.776  18.644  0.1558  0.1796  0.0153
 9076W        W11226  10.427   4.602   0.675 -0.1925 -0.0078 -0.0125
 9077W        W11227   1.796   6.107  26.896 -0.2201  0.0311 -0.3594
 9078W        W11228  19.847   0.083  11.863 -0.1528  0.1605  0.1263
 9079W        W11229  18.339   2.369  23.230  0.3546 -0.5314 -0.0146
 9080W        W11230  13.658   6.450  10.856  0.0990  0.0577  0.0979
 9081W        W11231   5.345   4.789  40.643  0.1675  0.0325 -0.0642
 9082W        W11232   7.604   0.741  13.040 -0.1233  0.0668  0.2059
 9083W        W11233  11.844   4.756  34.929 -0.0091 -0.2286 -0.1985
 9084W        W11234   4.234   5.634  33.851 -0.0795 -0.2943  0.1592
 9085W        W11235  12.600   6.132  42.533 -0.1836 -0.3343 -0.1808
 9086W        W11236  11.329   0.576  37.149 -0.0301  0.0706  0.2443
 9087W        W11237  17.137   0.129   7.490 -0.0256  0.3507  0.1526
 9088W        W11238  19.879   5.237  13.335  0.0878  0.2474 -0.0068
 9089W        W11239   0.990   1.737   4.766  0.1785  0.4077 -0.0750
 9090W        W11240  17.590   4.302   4.238  0.0680 -0.1626  0.1880
 9091W        W11241   7.898   4.781   3.006 -0.1989 -0.5334  0.0870
 9092W        W11242   5.708   6.461  13.298 -0.0238 -0.0925  0.1297
 9093W        W11243   4.113   6.146  34.892 -0.1106 -0.0747 -0.1024
 9094W        W11244  11.058   2.038  13.046 -0.1492  0.0608 -0.5431
 9095W        W11245  18.105   6.468   1.176  0.0495 -0.1509 -0.2850
 9096W        W11246  18.815   5.900  42.742  0.1859  0.1319  0.1252
 9097W        W11247   7.958   1.664   3.097 -0.0603 -0.1504 -0.1871
 9098W        W11248  13.026   0.625  34.771  0.3118  0.2863  0.3094
 9099W        W11249   1.826   1.271  40.208 -0.1125  0.3470  0.2116
 9100W        W11250   5.030   6.456   3.225 -0.0547 -0.0825 -0.2965
 9101W        W11251   3.902   5.534  35.596 -0.1753 -0.0251 -0.0376
 9102W        W11252   3.180   0.915  33.431 -0.0425  0.0516  0.3697
 9103W        W11253   6.343   0.927  39.191  0.0608  0.0277  0.0079
 9104W        W11254   4.526   5.967  31.072  0.3025 -0.0191 -0.0926
 9105W        W11255   2.371   2.970  15.894  0.1013 -0.3308 -0.1091
 9106W        W11256   6.120   2.677  22.381 -0.1551 -0.1256  0.0396
 9107W        W11257   7.690   5.130  25.848 -0.0583 -0.1424 -0.0160
 9108W        W11258  15.025   4.136  12.286  0.2675  0.0054  0.0099
 9109W        W11259   5.733   0.623   9.558 -0.3070  0.0703 -0.3255
 9110W        W11260   6.345   6.137   9.075 -0.3173 -0.4614  0.2541
 9111W        W11261   1.518   3.689  13.682 -0.0018  0.1521  0.0483
 9112W        W11262   9.027   2.944  28.762  0.2138 -0.0625 -0.1004
 9113W        W11263   8.904   0.328  38.429 -0.1526 -0.2482 -0.1946
 9114W        W11264   7.216   3.749  24.369 -0.1283  0.3270 -0.0315
 9115W        W11265   0.730   2.999  33.465 -0.0249  0.1647 -0.0966
 9116W        W11266  10.478   1.613  41.452 -0.0718 -0.0044 -0.2089
 9117W        W11267   5.742   6.035  34.333 -0.0858 -0.3469 -0.2509
 9118W        W11268   6.366   0.466  35.685 -0.1622 -0.1840 -0.0407
 9119W        W11269  11.687   1.564   1.040  0.0185 -0.1215 -0.1240
 9120W        W11270   0.939   0.430  10.123 -0.0242  0.0928 -0.0128
 9121W        W11271   6.834   5.762   0.718 -0.1088  0.1651  0.0313
 9122W        W11272   6.396   3.326  26.081  0.2706  0.2782  0.0325
 9123W        W11273  17.817   3.595  31.757 -0.2016 -0.0816 -0.0503
 9124W        W11274  21.105   1.692  45.024 -0.2749  0.1734 -0.0419
 9125W        W11275  14.696   5.972  30.947 -0.2480 -0.1421 -0.2859
 9126W        W11276   6.455   4.740  11.515  0.2640 -0.1469 -0.0562
 9127W        W11277  14.128   3.475  11.604 -0.1297  0.1076 -0.0120
 9128W        W11278   3.776   1.949  12.616  0.3140  0.0832 -0.1559
 9129W        W11279   0.877   3.704  11.403 -0.0696  0.0654  0.3493
 9130W        W11280  14.114   5.198  35.511  0.1199 -0.0340 -0.2004
 9131W        W11281   3.629   1.612  13.046  0.1561 -0.1560  0.0852
 9132W        W11282  19.154   2.988  40.285  0.1051  0.0922  0.0817
 9133W        W11283   5.300   2.762  34.634 -0.0483 -0.0397  0.1981
 9134W        W11284  14.900   1.281  20.033 -0.0089 -0.2259  0.4226
 9135W        W11285   5.413   4.743   1.012  0.0189  0.4347 -0.1276
 9136W        W11286   6.293   4.987  36.397 -0.0959 -0.0368  0.0433
 9137W        W11287  16.425   4.152  23.342 -0.1858 -0.2580  0.1391
 9138W        W11288  18.327   2.102  34.817 -0.0690 -0.1554 -0.5591
 9139W        W11289   7.874   3.133   9.651 -0.0711  0.3455 -0.0251
 9140W        W11290   4.176   1.772  35.517  0.0585 -0.1322 -0.0488
 9141W        W11291  20.021   1.957  12.155  0.2047 -0.0284 -0.2400
 9142W        W11292   7.035   1.215  36.127 -0.1507 -0.0680 -0.3081
 9143W        W11293  11.450   0.406  27.287 -0.1878  0.2497 -0.1359
 9144W        W11294   6.068   6.307  30.724  0.0689 -0.3471 -0.0176
 9145W        W11295   6.687   1.292  35.314 -0.2151  0.0139 -0.1740
 9146W        W11296  17.359   2.075  29.074 -0.1469  0.1725  0.0172
 9147W        W11297  19.117   2.717  18.003 -0.0664 -0.1433 -0.2559
 9148W        W11298  13.961   5.024  32.769 -0.0284 -0.0906  0.2519
 9149W        W11299  14.654   5.381  16.956  0.0038 -0.0750 -0.3057
 9150W        W11300   8.935   1.591  29.078  0.0584 -0.2190 -0.0592
 9151W        W11301  12.214   1.525  11.433  0.0043  0.0082 -0.2995
 9152W        W11302  16.358   2.289  15.153  0.1616  0.0800  0.0687
 9153W        W11303   7.990   4.896  23.352  0.2814  0.0808  0.2062
 9154W        W11304  17.225   5.372  35.906 -0.0960 -0.1823  0.2646
 9155W        W11305  17.564   5.565  39.792  0.0752 -0.2077  0.1273
 9156W        W11306  10.229   3.194  35.335  0.2214  0.0648  0.0674
 9157W        W11307  17.019   1.998  32.085 -0.0305 -0.2214  0.0861
 9158W        W11308  18.539   0.525  34.078  0.0639  0.2792 -0.0743
 9159W        W11309  12.590   0.422   7.777  0.0409  0.0489  0.0588
 9160W        W11310   3.728   1.410  38.310  0.1484  0.0422  0.0398
 9161W        W11311  10.931   5.527   9.205 -0.2865 -0.0845  0.1664
 9162W        W11312   6.310   4.392   9.667 -0.2087  0.2827 -0.2734
 9163W        W11313  20.123   4.990  11.760  0.0947 -0.0244  0.1125
 9164W        W11314   1.134   4.466  16.933 -0.1461 -0.5397  0.2225
 9165W        W11315  18.145   4.333  31.296 -0.3075 -0.2012 -0.0106
 9166W        W11316  15.913   3.085   3.562 -0.1472 -0.0641 -0.1589
 9167W        W11317  16.005   6.366  19.610  0.0479 -0.1552 -0.1694
 9168W        W11318  20.676   5.256  31.383 -0.0501 -0.1779  0.3753
 9169W        W11319   2.951   2.858  35.471  0.1610  0.4036  0.0739
 9170W        W11320  20.545   3.724  41.853 -0.2815 -0.0248 -0.0488
 9171W        W11321  16.207   1.427  41.369 -0.0268  0.2554 -0.1536
 9172W        W11322  20.968   3.542  41.054  0.0914  0.3899  0.0838
 9173W        W11323  13.592   5.044  40.333 -0.0944 -0.0803  0.0442
 9174W        W11324   9.360   5.263  37.660  0.5137 -0.0219  0.1079
 9175W        W11325  19.717   4.962   3.254  0.0982 -0.3641  0.0654
 9176W        W11326   4.517   3.739  13.703  0.1292  0.0921  0.1871
 9177W        W11327  20.246   0.996   5.433 -0.1476  0.2077  0.0181
 9178W        W11328  12.105   6.056  33.660  0.0610 -0.0349 -0.1702
 9179W        W11329  11.741   1.709   1.645  0.1782 -0.2757 -0.1336
 9180W        W11330  20.798   0.481  44.604 -0.2096 -0.2185 -0.0158
 9181W        W11331  13.674   5.076  32.365 -0.1389  0.1067 -0.1788
 9182W        W11332   8.066   6.344  30.158 -0.1699  0.1771 -0.2724
 9183W        W11333   1.605   2.544  10.466  0.0337 -0.1419 -0.0062
 9184W        W11334   4.387   3.825  24.657  0.1000 -0.4013 -0.1577
 9185W        W11335  14.729   5.612  23.383 -0.1621  0.4220 -0.0134
 9186W        W11336   8.404   3.395  37.056  0.3473  0.1375  0.0163
 9187W        W11337   4.982   1.072  38.959 -0.1522  0.3948  0.0922
 9188W        W11338  13.314   3.430  12.555 -0.2172 -0.2961 -0.1021
 9189W        W11339  16.262   4.389   5.803 -0.2600  0.2083  0.0745
 9190W        W11340  20.603   3.683  19.397 -0.1980  0.0586 -0.0380
 9191W        W11341   0.594   4.307  31.126 -0.3360 -0.2407 -0.0511
 9192W        W11342  15.098   3.854  10.779 -0.0997 -0.0733  0.4927
 9193W        W11343  12.584   3.424  19.485  0.1530 -0.2079 -0.2357
 9194W        W11344  11.542   6.177  41.166  0.1292 -0.0581 -0.0308
 9195W        W11345  16.352   1.296  33.749  0.2979  0.0742 -0.1092
 9196W        W11346  18.819   6.446  29.329 -0.0893  0.3389  0.0126
 9197W        W11347   5.969   1.493   8.288 -0.0170 -0.2836  0.2190
 9198W        W11348  15.161   5.930  11.773  0.0797  0.0573 -0.0599
 9199W        W11349  13.384   1.229   1.561 -0.0896  0.1275  0.0427
 9200W        W11350  12.087   6.193   4.961  0.0895  0.0020  0.2079
 9201W        W11351  16.286   3.882  15.533  0.1161 -0.3075 -0.3164
 9202W        W11352  17.293   2.467  20.111 -0.0808  0.1931  0.0355
 9203W        W11353  14.051   3.861   6.877 -0.0952 -0.0408 -0.1924
 9204W        W11354   6.438   3.642   2.846  0.4297  0.0263 -0.1970
 9205W        W11355  17.491   4.876  32.448  0.1662  0.0829  0.0320
 9206W        W11356   4.870   4.482  38.103  0.1259  0.4269  0.0748
 9207W        W11357   3.764   3.996  43.514 -0.1556 -0.1048  0.0808
 9208W        W11358  18.897   4.824  17.023 -0.0170  0.0590  0.2583
 9209W        W11359  11.552   3.748  29.340 -0.0834 -0.0553 -0.4918
 9210W        W11360   1.021   0.986   4.884 -0.1681  0.0760 -0.1927
 9211W        W11361  16.745   6.169  37.761  0.0257 -0.0411 -0.1180
 9212W        W11362   3.270   5.812  11.670 -0.0541  0.0666  0.0005
 9213W        W11363   2.873   2.864  13.745 -0.0048  0.0992 -0.1888
 9214W        W11364   3.089   3.368   2.467 -0.3531  0.0393  0.3112
 9215W        W11365  12.006   5.530  15.336 -0.2739  0.3388  0.2341
 9216W        W11366   4.966   1.854  12.670  0.0478  0.3750  0.0260
 9217W        W11367  13.971   1.761  12.426  0.0681  0.0338 -0.1177
 9218W        W11368  10.494   3.575  26.990  0.2804  0.0467 -0.1243
 9219W        W11369   8.309   5.949   8.380  0.0911  0.2138  0.0192
 9220W        W11370  10.370   0.208  41.590  0.0968  0.0613  0.0417
 9221W        W11371   5.924   0.954  42.365 -0.4492 -0.4039 -0.4882
 9222W        W11372  11.344   3.230   6.317 -0.0944 -0.0027  0.1765
 9223W        W11373   6.826   5.606  29.100 -0.1960  0.0435 -0.3522
 9224W        W11374  19.437   3.545  35.874  0.0288 -0.1349  0.2872
 9225W        W11375  13.255   0.615   4.740 -0.1727  0.2772 -0.0259
 9226W        W11376  10.905   5.885   5.954 -0.0613 -0.0783  0.1783
 9227W        W11377   1.305   4.279   9.615  0.1855  0.1440 -0.2607
 9228W        W11378   9.071   2.280  16.529 -0.2118  0.0337  0.1335
 9229W        W11379  20.899   4.633  27.925 -0.1350 -0.2842  0.0164
 9230W        W11380  12.209   1.668  33.369  0.3255 -0.1238 -0.1053
 9231W        W11381  13.488   3.071  29.621  0.1427  0.0091 -0.0708
 9232W        W11382  18.547   3.259  37.571  0.4323 -0.0278 -0.1923
 9233W        W11383   5.162   5.599  10.837 -0.2473  0.2204 -0.1128
 9234W        W11384   4.324   2.073  43.491 -0.0703  0.0851  0.0351
 9235W        W11385  19.459   4.929  30.053 -0.0501  0.2288  0.2789
 9236W        W11386   6.594   3.677  22.274 -0.1556 -0.1943 -0.2423
 9237W        W11387   8.369   1.278   4.772  0.1616  0.0658  0.2227
 9238W        W11388  19.071   4.268   8.592 -0.1162  0.3803 -0.0127
 9239W        W11389   9.688   1.122   5.120  0.2548  0.1204  0.0221
 9240W        W11390  17.990   1.036  31.304 -0.0403 -0.2193  0.1171
 9241W        W11391   4.044   2.365  15.127  0.0124 -0.0506  0.0316
 9242W        W11392  15.545   2.262  12.776 -0.0176  0.1289 -0.0024
 9243W        W11393   5.657   4.712  29.578 -0.1486  0.2907 -0.2072
 9244W        W11394  17.813   2.758  44.396  0.0838  0.0460  0.0882
 9245W        W11395   1.114   3.844  45.045  0.3442 -0.1100  0.0319
 9246W        W11396   9.868   3.563   6.167 -0.0610  0.0954  0.1010
 9247W        W11397  11.339   1.692  42.790  0.0271  0.2379 -0.0153
 9248W        W11398   4.468   5.777  28.376  0.0052  0.1965  0.2977
 9249W        W11399   4.214   0.643  12.983 -0.1609 -0.0695 -0.1982
 9250W        W11400  19.244   6.604  38.048 -0.3897 -0.0680  0.2337
 9251W        W11401  19.544   2.097   4.298 -0.1101  0.1027 -0.0132
 9252W        W11402  13.916   6.446   3.113  0.3625 -0.0733 -0.1350
 9253W        W11403   5.577   2.458  43.740  0.1576  0.0357  0.0307
 9254W        W11404  12.677   5.484  10.868  0.1954 -0.0800  0.1031
 9255W        W11405  18.526   6.133   6.373 -0.1812  0.1460 -0.1778
 9256W        W11406  12.829   6.534  42.914 -0.0405  0.1581  0.1938
 9257W        W11407   5.342   1.381   3.147 -0.5135  0.3145 -0.1577
 9258W        W11408  15.367   4.991  44.733  0.0263  0.0721  0.1013
 9259W        W11409   8.188   6.461  32.349 -0.3648 -0.0844 -0.0564
 9260W        W11410   3.494   3.007  24.637 -0.2378  0.1555 -0.2257
 9261W        W11411   3.004   0.016  39.428  0.2215 -0.2189 -0.1673
 9262W        W11412   1.799   5.289  45.067  0.0457  0.0285  0.1411
 9263W        W11413   4.564   4.995  36.178  0.0292  0.4258  0.3500
 9264W        W11414   4.777   1.128  27.629 -0.0984  0.1750 -0.0799
 9265W        W11415   3.793   1.768  23.412  0.0191  0.1324 -0.1788
 9266W        W11416  10.731   1.146  39.789 -0.1507  0.0561  0.3112
 9267W        W11417   6.364   3.230  25.527  0.0227 -0.0022 -0.1021
 9268W        W11418   5.185   1.881  32.647  0.1094  0.1494  0.0023
 9269W        W11419   7.902   1.848  34.637 -0.0153 -0.0090  0.1682
 9270W        W11420   6.988   4.559  39.773 -0.0211 -0.3052 -0.0622
 9271W        W11421   4.088   3.075  40.544 -0.0259 -0.1977 -0.4110
 9272W        W11422   5.461   6.233  12.885  0.2252 -0.1112  0.1626
 9273W        W11423  16.377   1.728   2.293  0.2403 -0.0751  0.2594
 9274W        W11424  16.568   4.532  39.363 -0.0642  0.1449 -0.1366
 9275W        W11425  18.666   1.033  13.293  0.0148  0.2069  0.1048
 9276W        W11426   6.926   5.252  37.228  0.1421 -0.1423  0.2200
 9277W        W11427  10.496   2.914   8.792 -0.0247  0.2138 -0.2199
 9278W        W11428  14.783   5.578   3.792  0.0653 -0.1087 -0.1006
 9279W        W11429  19.899   1.504  37.328 -0.3104  0.2504 -0.1878
 9280W        W11430   9.233   0.395   9.159  0.0500  0.3310 -0.0178
 9281W        W11431   6.346   4.333  25.906 -0.0041  0.3376 -0.2035
 9282W        W11432   8.560   1.897  13.297 -0.2041 -0.1055  0.2744
 9283W        W11433   3.197   3.308  11.425 -0.3239  0.0872  0.0430
 9284W        W11434  10.066   6.018  28.890 -0.0113  0.1935  0.1127
 9285W        W11435   7.766   0.276  23.692 -0.0305 -0.0029  0.1370
 9286W        W11436  10.778   3.602  33.566  0.0878  0.1298 -0.0917
 9287W        W11437  20.338   5.207  17.030  0.0276  0.0514 -0.3004
 9288W        W11438   7.678   4.313  40.407  0.1140 -0.2951 -0.1097
 9289W        W11439  11.584   1.951  14.614 -0.0999  0.1264  0.1911
 9290W        W11440  10.548   5.360   9.545 -0.1567  0.1258  0.1587
 9291W        W11441  16.740   5.175  44.179  0.1325 -0.1977 -0.0660
 9292W        W11442   8.282   1.171  26.800 -0.2383  0.0034 -0.0945
 9293W        W11443  13.786   0.142  44.984 -0.0830  0.2465 -0.0638
 9294W        W11444   4.317   3.242  34.671 -0.0586  0.0345  0.0124
 9295W        W11445  12.442   5.412  43.714  0.0681 -0.1134  0.1515
 9296W        W11446   4.170   3.204  38.995 -0.2989 -0.0065 -0.0629
 9297W        W11447  18.811   4.334  34.005  0.1819  0.0015 -0.5039
 9298W        W11448   9.010   2.766  31.548  0.0878  0.1335 -0.0242
 9299W        W11449   5.669   0.310   8.041 -0.0457 -0.3336  0.2764
 9300W        W11450  14.062   4.846  34.709  0.0114  0.2682 -0.0834
 9301W        W11451   7.998   1.185  36.960  0.2161 -0.1364 -0.2080
 9302W        W11452   7.807   2.533   6.692  0.0511 -0.3393  0.1113
 9303W        W11453  20.767   0.039  11.432  0.0571  0.3470 -0.0187
 9304W        W11454   7.866   3.801  10.551 -0.1856 -0.0830  0.0721
 9305W        W11455  15.928   3.996  24.840 -0.0921 -0.1502  0.1696
 9306W        W11456  15.024   4.289   8.934 -0.1749 -0.0831  0.0377
 9307W        W11457  15.209   0.668  12.166  0.0083 -0.0132  0.3090
 9308W        W11458   2.457   0.902  32.262  0.1191 -0.1331  0.1276
 9309W        W11459   6.861   4.520  22.926  0.0316  0.1770  0.2466
 9310W        W11460   5.315   0.669   1.759 -0.0885  0.0186  0.0352
 9311W        W11461  11.321   0.275   2.159 -0.0076  0.1262 -0.3804
 9312W        W11462   1.126   2.787  37.572  0.0184  0.1088  0.1396
 9313W        W11463   6.751   2.644  12.366 -0.2390  0.0217 -0.1375
 9314W        W11464  14.020   5.339   2.888 -0.2549  0.3381 -0.0048
 9315W        W11465  13.142   3.016  32.789  0.1283 -0.1195 -0.3593
 9316W        W11466  14.613   2.500  20.137 -0.3249 -0.2163 -0.1160
 9317W        W11467  12.063   6.490  44.484 -0.1109 -0.2265  0.3033
 9318W        W11468   2.308   1.161  28.478 -0.0800  0.0919 -0.0758
 9319W        W11469  10.268   1.355  31.286 -0.0838  0.2002  0.0925
 9320W        W11470   6.907   4.340  41.704  0.0609  0.0478  0.4538
 9321W        W11471  19.239   0.194  15.197  0.0288  0.4466 -0.1714
 9322W        W11472  17.442   6.045   9.784 -0.0086  0.0191  0.2140
 9323W        W11473  12.849   1.684  31.390 -0.0434 -0.2238  0.0862
 9324W        W11474  17.710   0.358  19.441  0.0948 -0.2375 -0.1092
 9325W        W11475   1.064   3.240  26.248  0.1635  0.0015 -0.0290
 9326W        W11476  19.339   3.898  38.764 -0.4864 -0.0864  0.4616
 9327W        W11477  14.029   5.183  37.963 -0.0270 -0.1076 -0.0212
 9328W        W11478  12.651   3.440  44.381 -0.2302 -0.0578  0.0038
 9329W        W11479  18.617   6.428  10.583 -0.0800 -0.0443 -0.1586
 9330W        W11480   1.316   3.366  36.447  0.0155 -0.0186  0.0095
 9331W        W11481  14.716   0.524  34.088  0.0817 -0.0657  0.3775
 9332W        W11482   6.991   2.974  41.382  0.1801  0.1511 -0.1420
 9333W        W11483  20.019   2.993   2.500  0.0701  0.0951 -0.0555
 9334W        W11484  16.683   4.339  22.407  0.2137 -0.0724  0.0150
 9335W        W11485  15.666   1.315  37.978 -0.0931  0.2454 -0.0460
 9336W        W11486  16.221   4.438   7.069 -0.2323 -0.4180 -0.0380
 9337W        W11487   1.012   4.692  43.551  0.0040  0.0768  0.1261
 9338W        W11488  16.778   1.191  31.750 -0.0043  0.0479 -0.1101
 9339W        W11489   0.094   0.747  13.568  0.1797  0.1126 -0.0324
 9340W        W11490   9.860   3.652  44.614 -0.1916  0.2262 -0.1006
 9341W        W11491  20.685   3.164  41.752 -0.2188 -0.0789 -0.0442
 9342W        W11492   5.730   2.259  29.649  0.0607 -0.0354 -0.1132
 9343W        W11493   6.009   5.275  28.201  0.0695 -0.1634 -0.1526
 9344W        W11494   8.464   0.208   1.944  0.0253  0.1174 -0.1730
 9345W        W11495   7.170   3.794  36.632  0.4135  0.1853 -0.0858
 9346W        W11496   1.496   3.134  34.574 -0.0523 -0.0330 -0.1172
 9347W        W11497  11.361   0.425  38.042 -0.0979 -0.0934  0.0925
 9348W        W11498  11.079   2.282  30.250 -0.0724 -0.2742 -0.2259
 9349W        W11499   4.917   4.635   2.967  0.2123 -0.0501  0.0995
 9350W        W11500  10.193   2.462  31.497  0.1082 -0.0436 -0.3600
 9351W        W11501   4.367   1.912   9.533  0.0541  0.1360 -0.1390
 9352W        W11502  15.874   1.193  39.020  0.2293  0.0757 -0.1200
 9353W        W11503   0.685   1.437  27.314  0.0920  0.1768  0.0278
 9354W        W11504  17.421   5.014  11.091 -0.1604  0.1313  0.0461
 9355W        W11505   1.462   3.331  14.747  0.0660  0.0206 -0.0125
 9356W        W11506   7.029   6.401  43.774  0.1119 -0.1117  0.2401
 9357W        W11507   7.424   0.027   3.968  0.2856  0.1925 -0.0193
 9358W        W11508  10.238   5.051  15.598  0.2261  0.2642 -0.0209
 9359W        W11509   4.154   0.535  33.836 -0.0610  0.1540 -0.2205
 9360W        W11510   7.009   0.455  27.647  0.2285  0.2599  0.0423
 9361W        W11511  13.323   4.077  29.339  0.0834 -0.0176 -0.1444
 9362W        W11512   4.749   4.928  22.835 -0.1460 -0.1184 -0.3428
 9363W        W11513   0.021   4.371  29.574 -0.1590 -0.1092 -0.1939
 9364W        W11514   6.075   4.915  32.911  0.1779 -0.0373  0.2404
 9365W        W11515   6.804   4.808  40.262 -0.2026  0.1026  0.1613
 9366W        W11516  16.659   5.331  37.468  0.4309 -0.2418  0.2135
 9367W        W11517  19.976   3.875  16.548  0.2942  0.0449  0.4252
 9368W        W11518  16.336   6.052  12.966 -0.0028  0.1860  0.1331
 9369W        W11519  20.832   0.194  34.993 -0.5046 -0.1194 -0.3838
 9370W        W11520  19.272   6.089  30.304  0.1918 -0.0419  0.0191
 9371W        W11521  18.662   3.638  42.315  0.0511  0.1101  0.4568
 9372W        W11522   3.266   0.379   0.706  0.0361 -0.1005 -0.0815
 9373W        W11523  10.471   3.658  35.339 -0.1031 -0.0699 -0.2182
 9374W        W11524   5.176   5.241  37.609  0.1339  0.0355  0.2020
 9375W        W11525   1.998   3.144  25.842  0.2188 -0.0429 -0.1057
 9376W        W11526  13.324   5.324   1.831 -0.0457 -0.1865 -0.1005
 9377W        W11527  14.569   6.133  13.161 -0.1351  0.0900  0.1114
 9378W        W11528  12.421   5.510  35.064 -0.1250  0.1184  0.1538
 9379W        W11529   8.276   6.150  31.531  0.0735 -0.0622  0.1287
 9380W        W11530   7.270   4.660  12.884 -0.2963  0.2519  0.1680
 9381W        W11531   7.912   4.330  26.566  0.1414 -0.0929  0.1573
 9382W        W11532  12.359   5.395  29.187 -0.2944 -0.0755 -0.0820
 9383W        W11533  20.369   5.742  35.373 -0.1028  0.1740 -0.0093
 9384W        W11534   9.135   5.303   8.224 -0.0690  0.1167  0.3787
 9385W        W11535  14.228   2.297  11.482  0.1333 -0.1029  0.0765
 9386W        W11536   4.243   3.705  25.333 -0.1682  0.0709 -0.0783
 9387W        W11537   2.700   5.505   7.848 -0.3383 -0.0019  0.2498
 9388W        W11538  15.745   0.988   7.929 -0.2165 -0.3729  0.1397
 9389W        W11539   7.233   2.710  12.453  0.2262 -0.1794 -0.1765
 9390W        W11540  19.212   5.506   5.569 -0.0136  0.2212  0.2474
 9391W        W11541  17.514   6.567  12.035  0.1630 -0.0596  0.1526
 9392W        W11542  11.974   0.385  30.322  0.3741  0.1181 -0.0736
 9393W        W11543   8.469   3.971  29.727 -0.0953  0.0386 -0.1033
 9394W        W11544  11.274   4.236  15.129 -0.0782 -0.1618  0.1943
 9395W        W11545  11.695   0.649   4.081 -0.3412  0.1593  0.1710
 9396W        W11546  16.550   5.253  30.713 -0.0637  0.3619 -0.0942
 9397W        W11547  19.493   1.870   3.816  0.2230  0.1403  0.1117
 9398W        W11548   9.162   0.184  10.706  0.0087  0.1007  0.1398
 9399W        W11549  15.307   4.353  29.515  0.4214 -0.1761 -0.0202
 9400W        W11550   7.383   3.045  14.188  0.2715 -0.3687  0.0829
 9401W        W11551   8.048   3.313  34.997 -0.2438  0.0705 -0.1861
 9402W        W11552   6.421   0.297  44.440  0.0992  0.0532 -0.0141
 9403W        W11553   0.004   1.009  39.096  0.0896 -0.1090  0.1349
 9404W        W11554  13.458   2.200   3.043 -0.3035 -0.1481 -0.0307
 9405W        W11555  18.809   5.049   5.800  0.2835 -0.0116 -0.1378
 9406W        W11556   6.536   4.581   1.389  0.1308  0.1761  0.0866
 9407W        W11557   7.801   1.454  10.481  0.1188  0.0215  0.1385
 9408W        W11558  14.242   5.887   5.882 -0.0449  0.0633  0.2536
 9409W        W11559   3.760   2.373  11.158  0.2584  0.0340 -0.0944
 9410W        W11560   0.207   1.676  40.150 -0.0723  0.1048 -0.3127
 9411W        W11561  10.136   4.263   5.184  0.0875  0.0314 -0.0735
 9412W        W11562   1.310   5.315  28.509 -0.0488  0.1797  0.0917
 9413W        W11563   6.769   4.489   0.913  0.0379  0.0079  0.0652
 9414W        W11564   2.973   2.833  25.986  0.2382 -0.0722  0.0202
 9415W        W11565   8.541   5.344  30.496  0.2253  0.1620 -0.3561
 9416W        W11566  16.789   6.184  21.800 -0.0287 -0.0454 -0.2695
 9417W        W11567  11.447   5.623  36.179  0.2137  0.2931 -0.0256
 9418W        W11568  19.909   3.994  19.701  0.0915 -0.3436  0.1244
 9419W        W11569   7.463   1.745  34.877 -0.2163  0.5196  0.1251
 9420W        W11570   4.342   3.181  12.911  0.2949  0.1751 -0.0394
 9421W        W11571   7.959   5.414  41.205 -0.2324 -0.1125 -0.1951
 9422W        W11572  16.903   0.922  11.514 -0.0318  0.0951 -0.2086
 9423W        W11573   0.456   1.169  13.483  0.0486 -0.2157  0.2863
 9424W        W11574   2.816   1.870  43.987 -0.0174 -0.1008  0.2264
 9425W        W11575  12.970   1.326   1.139  0.0088  0.0052 -0.0189
 9426W        W11576   7.500   5.729  11.313 -0.0420 -0.1870 -0.3107
 9427W        W11577  12.342   1.078  14.891 -0.0473 -0.3798  0.0171
 9428W        W11578   1.564   1.135  37.093  0.1131 -0.0284 -0.0252
 9429W        W11579   8.781   4.799   3.677  0.3312  0.0086  0.0112
 9430W        W11580   1.491   2.438  25.918  0.0659  0.0005 -0.1015
 9431W        W11581   4.520   4.883  31.881 -0.2027 -0.4287 -0.0394
 9432W        W11582  20.903   0.776  33.155 -0.0281  0.1203  0.1208
 9433W        W11583   0.764   0.937  27.449 -0.3858 -0.1092  0.0594
 9434W        W11584   5.602   0.810  24.902 -0.0857 -0.0494  0.0202
 9435W        W11585   5.497   5.349  40.063 -0.0512 -0.1528 -0.0541
 9436W        W11586   8.197   4.262  24.006  0.2041  0.1831  0.1507
 9437W        W11587   0.304   1.869  41.371 -0.3682  0.1322  0.1027
 9438W        W11588  19.910   5.359   2.399 -0.1686 -0.2163 -0.0133
 9439W        W11589  15.544   0.046  11.117  0.0431 -0.0125  0.1434
 9440W        W11590  18.780   2.308  40.201 -0.5127 -0.0002  0.1673
 9441W        W11591   0.061   5.788   5.603  0.0983 -0.0882  0.1260
 9442W        W11592  15.457   5.532  31.022  0.0443  0.4155 -0.1724
 9443W        W11593   5.257   3.929  24.942 -0.2775  0.1549  0.0410
 9444W        W11594   5.333   6.499  31.327 -0.3262 -0.2410 -0.0580
 9445W        W11595   0.444   3.776  13.395 -0.0167  0.0615 -0.1686
 9446W        W11596   9.325   5.996  33.638 -0.0961  0.0612 -0.1244
 9447W        W11597  21.052   5.744   2.431  0.1579  0.0457 -0.2009
 9448W        W11598   0.001   2.022  40.427  0.2399 -0.0540 -0.2917
 9449W        W11599  19.190   4.393  35.868 -0.1775  0.2650 -0.0177
 9450W        W11600   9.504   3.604  34.876  0.1702 -0.0514  0.2004
 9451W        W11601  12.203   1.399   9.364  0.3205  0.0429  0.0394
 9452W        W11602  17.782   6.228  41.511 -0.5903  0.2410 -0.0921
 9453W        W11603   0.759   3.382  33.843  0.0899 -0.0212 -0.3942
 9454W        W11604  19.700   1.866  14.911 -0.0720  0.1404 -0.0673
 9455W        W11605  18.129   2.831  21.982  0.0860 -0.0330  0.0897
 9456W        W11606   4.685   2.205  25.305 -0.5048  0.1942 -0.1329
 9457W        W11607   9.057   2.624  37.083  0.0209  0.0566 -0.1730
 9458W        W11608   2.949   3.429   7.459  0.1551  0.1124  0.1243
 9459W        W11609   1.265   6.425   5.244 -0.2247 -0.1113  0.0175
 9460W        W11610   7.026   1.476  33.984 -0.0947  0.2392  0.0655
 9461W        W11611  13.346   3.928   2.789  0.0104 -0.2571 -0.1701
 9462W        W11612   8.041   2.415   2.688 -0.1695  0.1633  0.1432
 9463W        W11613  20.748   0.200  38.744  0.1036  0.2020 -0.4299
 9464W        W11614   7.279   0.085  22.357  0.1165  0.1518  0.0702
 9465W        W11615   3.015   5.814  38.905 -0.2670 -0.0041  0.1080
 9466W        W11616   8.922   3.588  37.988  0.1635 -0.0974 -0.1377
 9467W        W11617   6.020   6.470   8.908 -0.3048 -0.0190 -0.0951
 9468W        W11618  13.561   5.124  30.287  0.2119 -0.1423 -0.1948
 9469W        W11619  19.319   1.671  38.070  0.0457 -0.1518  0.0577
 9470W        W11620   8.958   6.116  28.759 -0.0893  0.1491 -0.0914
 9471W        W11621  19.358   0.901   7.542  0.2650  0.2874  0.1346
 9472W        W11622  19.185   6.420  32.703 -0.3927 -0.1051  0.3124
 9473W        W11623  15.467   0.483   6.334  0.1512  0.0033  0.0051
 9474W        W11624   1.925   6.368   5.720  0.0420  0.2720  0.1231
 9475W        W11625  12.793   6.510  39.498 -0.2090  0.0674 -0.0734
 9476W        W11626  18.552   5.729  31.206  0.2359 -0.2024  0.0060
 9477W        W11627  12.784   2.584   4.061 -0.2314  0.0936 -0.0872
 9478W        W11628  13.360   3.177  40.961  0.1597 -0.0782  0.2946
 9479W        W11629   8.420   2.522   4.048 -0.0875  0.1058 -0.1879
 9480W        W11630   8.377   4.940  33.142 -0.0065  0.1491  0.2877
 9481W        W11631   1.545   2.354  31.137  0.0803 -0.1348  0.2850
 9482W        W11632  14.356   1.745  29.386  0.5246  0.0120  0.1273
 9483W        W11633  14.738   2.711  34.348  0.0403  0.0361 -0.0801
 9484W        W11634  20.890   3.166  19.532 -0.0331 -0.3210 -0.2698
 9485W        W11635  13.149   2.497  33.470 -0.0706  0.2032 -0.1965
 9486W        W11636  20.580   4.539   5.114  0.1390  0.1125 -0.3698
 9487W        W11637  11.764   0.198  31.818 -0.2238 -0.0334  0.3693
 9488W        W11638   1.866   5.799  12.545  0.0318  0.0216  0.3174
 9489W        W11639  20.895   4.676   0.400 -0.0822 -0.2045 -0.0547
 9490W        W11640   3.157   4.116  14.427  0.1643  0.0375  0.0365
 9491W        W11641  20.526   0.960  41.713 -0.0500 -0.1123  0.2558
 9492W        W11642  14.764   0.787  20.186  0.1672  0.0189  0.0222
 9493W        W11643   1.893   4.990  24.893 -0.0602 -0.0267 -0.1427
 9494W        W11644  12.997   3.812  44.745  0.1724  0.4278 -0.3151
 9495W        W11645  15.417   0.714  23.031  0.0082  0.0548 -0.1345
 9496W        W11646  19.511   0.178  41.486 -0.1810 -0.2833  0.0166
 9497W        W11647   1.556   6.145  31.539  0.2797 -0.3954 -0.0546
 9498W        W11648  18.457   1.128   4.502 -0.2264 -0.0474 -0.3478
 9499W        W11649  18.065   6.603  14.325  0.0336 -0.0139  0.0302
 9500W        W11650  18.619   0.060  30.347  0.0862  0.0157 -0.1664
 9501W        W11651   1.186   5.180   9.026 -0.0619 -0.0951 -0.1676
 9502W        W11652  16.535   2.742  41.182  0.0794  0.0521 -0.3844
 9503W        W11653   6.494   4.893  29.210  0.1339 -0.2561 -0.0615
 9504W        W11654   2.169   0.679   7.953 -0.1936  0.1676  0.1331
 9505W        W11655   8.724   4.321  40.480 -0.1038  0.0267  0.1368
 9506W        W11656   9.046   6.569  27.916  0.2056 -0.0227  0.1200
 9507W        W11657   7.759   2.437  42.954 -0.0156  0.0564 -0.1261
 9508W        W11658  12.605   6.412  11.915  0.1623 -0.1314 -0.1114
 9509W        W11659  15.396   1.622  40.490 -0.0567  0.0116 -0.0945
 9510W        W11660   9.606   2.944  38.696 -0.3480  0.0206 -0.1896
 9511W        W11661   6.007   4.095  14.437 -0.1645 -0.0460 -0.0098
 9512W        W11662  10.591   1.185   3.127  0.0805  0.1297  0.2611
 9513W        W11663   7.643   5.537  35.490  0.2694  0.4041  0.0983
 9514W        W11664   0.785   5.869  26.409  0.0670  0.2937 -0.1987
 9515W        W11665  10.687   0.555   5.903 -0.4323 -0.4545 -0.1258
 9516W        W11666  14.951   2.646  15.304 -0.1426 -0.0448  0.0040
 9517W        W11667  20.151   6.097  43.671  0.0937 -0.1801  0.0724
 9518W        W11668   2.152   2.017   4.551 -0.0173 -0.0770 -0.0456
 9519W        W11669   9.909   1.007  44.227 -0.1124 -0.1376 -0.2095
 9520W        W11670   2.791   2.314  42.933  0.2465 -0.0218 -0.1954
 9521W        W11671  17.972   2.441  40.683 -0.0542  0.2155  0.0372
 9522W        W11672  11.602   4.642  42.813  0.1237  0.2197  0.0957
 9523W        W11673  17.604   3.509  21.219 -0.2840  0.2812  0.2743
 9524W        W11674   9.942   3.995   8.542  0.0842  0.1277  0.0500
 9525W        W11675  16.642   6.383  38.707 -0.1936  0.2787 -0.1944
 9526W        W11676  11.302   6.435   3.315 -0.1207 -0.0494  0.2138
 9527W        W11677   7.886   5.967  29.706  0.3195 -0.2047 -0.1084
 9528W        W11678   4.787   5.622   2.508  0.2045  0.1055  0.0365
 9529W        W11679   7.253   3.855  15.185 -0.1277  0.1896  0.0037
 9530W        W11680  10.683   1.307  41.121  0.0522  0.1152 -0.0324
 9531W        W11681   2.869   4.531  14.576  0.0311 -0.1968  0.2322
 9532W        W11682  13.247   4.024  20.299  0.0665  0.0049  0.0085
 9533W        W11683  11.234   0.341  41.228  0.1541  0.1097 -0.0529
 9534W        W11684   0.323   6.373   5.758 -0.0193  0.0361  0.1404
 9535W        W11685  14.148   3.818   8.120  0.4242 -0.0859  0.2623
 9536W        W11686  10.421   2.445  33.974  0.0343 -0.2233 -0.0371
 9537W        W11687   1.573   5.502  26.900  0.2320  0.0179  0.3815
 9538W        W11688  11.480   6.435  37.066 -0.3516 -0.2986 -0.0159
 9539W        W11689  16.096   3.211  24.396  0.0673 -0.0093  0.2409
 9540W        W11690   0.724   3.248  14.203 -0.0848 -0.1418  0.0937
 9541W        W11691   6.200   0.813  13.425 -0.0025  0.0447  0.0554
 9542W        W11692   7.270   4.105   6.766 -0.2074  0.2425 -0.1530
 9543W        W11693  13.863   1.928   3.504 -0.0141 -0.1355 -0.0372
 9544W        W11694   2.259   6.500  36.650 -0.0589 -0.2037 -0.1303
 9545W        W11695  16.294   0.116  18.812 -0.4282  0.0385 -0.4776
 9546W        W11696   0.698   1.691  41.821  0.1340 -0.2522  0.1491
 9547W        W11697   2.819   6.433   0.036  0.0683 -0.0944 -0.0188
 9548W        W11698   4.921   3.444  26.308  0.0243  0.3699  0.0750
 9549W        W11699  18.566   2.860  18.790  0.5018 -0.0082  0.1344
 9550W        W11700  12.884   5.264  17.327 -0.1286 -0.0771  0.2728
 9551W        W11701   0.050   2.866  34.716 -0.0315 -0.2932 -0.0448
 9552W        W11702   2.851   5.762  41.468 -0.0248  0.3589  0.2326
 9553W        W11703   6.720   1.954  28.860 -0.0912  0.0035  0.1085
 9554W        W11704   8.901   1.850   8.932 -0.2958  0.0698  0.0355
 9555W        W11705   4.336   6.125  16.096 -0.0270  0.2096  0.0105
 9556W        W11706   2.492   4.635  39.223 -0.1397 -0.1840  0.3138
 9557W        W11707  11.572   0.935   5.552  0.0972 -0.1215 -0.1444
 9558W        W11708  21.092   0.638   5.820  0.0504 -0.2573 -0.1046
 9559W        W11709   8.692   2.682   0.176  0.0457 -0.0805  0.2792
 9560W        W11710  10.547   3.971  42.060  0.4348 -0.3538  0.0680
 9561W        W11711   5.026   5.366  22.888  0.1193  0.1145  0.0172
 9562W        W11712   9.939   6.507  15.673  0.2513 -0.0052 -0.2695
 9563W        W11713   2.061   5.756  23.641 -0.2052 -0.3379  0.1031
 9564W        W11714  15.341   5.755  30.348  0.3470  0.1432 -0.0128
 9565W        W11715  15.285   5.734  10.939 -0.1197 -0.3716  0.1088
 9566W        W11716   8.167   4.034   2.235 -0.2001  0.1323 -0.2212
 9567W        W11717  13.188   5.368  11.262  0.0159 -0.2934  0.0475
 9568W        W11718  18.011   3.067  19.558  0.0280 -0.1391 -0.0138
 9569W        W11719   1.441   3.522   9.927 -0.1806  0.0670  0.0308
 9570W        W11720   3.476   3.292   2.175 -0.0449  0.0425 -0.1359
 9571W        W11721   7.986   2.384  40.162 -0.0347  0.0927  0.1176
 9572W        W11722   6.026   0.285  25.583 -0.0373 -0.1167 -0.2026
 9573W        W11723   3.642   3.785  32.125 -0.0327  0.2146 -0.0455
 9574W        W11724  13.213   2.354  35.552 -0.2579 -0.1746  0.1360
 9575W        W11725  10.999   0.105  15.571 -0.2722  0.0329 -0.1403
 9576W        W11726   1.892   5.432  38.127 -0.1883 -0.0159 -0.4367
 9577W        W11727   0.846   2.537  42.023 -0.1071  0.0729  0.2533
 9578W        W11728   1.549   1.846  13.931 -0.2196  0.2049 -0.0380
 9579W        W11729  14.701   3.152  39.548 -0.2119 -0.0446  0.0856
 9580W        W11730  20.083   4.031  35.630 -0.1100 -0.0774  0.2981
 9581W        W11731   7.655   1.759  35.638 -0.1746 -0.1068  0.0907
 9582W        W11732   5.845   2.817  26.736 -0.1436 -0.2653 -0.0777
 9583W        W11733  17.353   2.140   0.933 -0.2706  0.1526  0.0779
 9584W        W11734   9.825   2.794   1.358 -0.0164  0.0161 -0.2070
 9585W        W11735  16.945   5.579  30.649  0.0974  0.1040  0.2257
 9586W        W11736   6.631   0.027  32.355 -0.0065  0.0906 -0.3057
 9587W        W11737  11.479   4.703   1.701  0.1295 -0.0010 -0.0163
 9588W        W11738  16.387   4.200  18.635  0.1559 -0.0177 -0.3119
 9589W        W11739  10.456   2.726  13.516 -0.1301  0.3660 -0.0806
 9590W        W11740  15.388   4.445  19.576  0.2663 -0.0642  0.1412
 9591W        W11741   5.054   5.022  33.071 -0.1321  0.1489 -0.3237
 9592W        W11742  11.912   5.338   2.831 -0.1321  0.2290  0.1876
 9593W        W11743  19.533   2.242  14.211 -0.0516 -0.1559 -0.1283
 9594W        W11744  13.338   4.959  20.110  0.0521  0.1529  0.2302
 9595W        W11745   4.153   6.570  40.179  0.1799 -0.1672  0.1554
 9596W        W11746   4.833   2.604   2.712  0.0541 -0.2314  0.3149
 9597W        W11747  16.791   1.580   2.851  0.2636  0.4217  0.4217
 9598W        W11748  15.918   3.332   7.769  0.0061  0.1278  0.1294
 9599W        W11749  14.970   0.528  15.156 -0.2227  0.5598 -0.3611
 9600W        W11750   9.114   3.231  11.521 -0.0092 -0.0422  0.1699
 9601W        W11751   3.263   5.855  12.615  0.1410 -0.1316  0.0830
 9602W        W11752   5.125   6.244  11.191  0.2466 -0.0731 -0.2865
 9603W        W11753   3.494   1.057  14.908  0.0682  0.1378  0.1317
 9604W        W11754   5.686   4.989  38.567 -0.1009 -0.4336  0.1562
 9605W        W11755  12.281   4.126  10.144 -0.2291  0.2750  0.0557
 9606W        W11756   8.293   4.870  17.008 -0.0609 -0.0763 -0.2520
 9607W        W11757   1.782   1.304  42.734  0.0091 -0.0536 -0.0424
 9608W        W11758  15.168   3.567  28.992  0.3750 -0.1778 -0.1879
 9609W        W11759  15.668   0.555  12.425 -0.1510  0.1400  0.0495
 9610W        W11760   3.939   3.106   0.269  0.1354 -0.0062 -0.0326
 9611W        W11761  15.341   3.706  19.390 -0.1799  0.2842  0.3013
 9612W        W11762  19.747   1.127  13.907  0.0505 -0.0969  0.2962
 9613W        W11763   0.878   2.418   6.028  0.2186  0.2244 -0.1485
 9614W        W11764  11.201   4.287  36.793 -0.0499 -0.3302 -0.2969
 9615W        W11765   1.716   6.452  36.681 -0.1533  0.0743 -0.1730
 9616W        W11766   3.055   2.515   3.324 -0.0577  0.2090 -0.0804
 9617W        W11767  11.580   2.678   3.437  0.1219 -0.0652  0.0380
 9618W        W11768  10.645   4.288  41.033  0.0616 -0.0483 -0.2058
 9619W        W11769   6.945   3.760   1.434 -0.0610 -0.5119 -0.0788
 9620W        W11770   4.499   0.787  35.387  0.1328 -0.3823  0.0565
 9621W        W11771   5.885   4.936  19.600  0.0861 -0.3348 -0.0361
 9622W        W11772  15.554   2.709  30.673  0.1653  0.2961 -0.0399
 9623W        W11773   2.470   6.454   0.822 -0.0087  0.3258 -0.3521
 9624W        W11774   0.514   5.368   7.162 -0.2714  0.1288  0.0067
 9625W        W11775   5.066   3.991  11.248 -0.1400  0.1817  0.1989
 9626W        W11776  20.904   3.450  44.513 -0.1621  0.1868  0.0492
 9627W        W11777  21.089   5.952  28.699 -0.0834  0.1015 -0.0889
 9628W        W11778   0.822   0.679   7.515 -0.1398 -0.1617 -0.0097
 9629W        W11779   9.127   6.171  35.870 -0.0572  0.3458 -0.0447
 9630W        W11780   0.808   5.880  30.601  0.0267 -0.1631 -0.0802
 9631W        W11781  18.251   5.323  44.502 -0.0099 -0.1344  0.2152
 9632W        W11782   3.054   0.494   6.349 -0.1280  0.0089  0.1520
 9633W        W11783   5.795   6.042  41.692  0.1358  0.1083 -0.1208
 9634W        W11784   4.678   5.545  43.656  0.0405  0.0391 -0.0911
 9635W        W11785  19.362   3.378  32.320 -0.1610 -0.3602  0.0524
 9636W        W11786  12.781   1.227   2.422 -0.0637 -0.0693  0.1277
 9637W        W11787   2.707   1.481  38.930  0.0381  0.2424  0.2927
 9638W        W11788   5.955   0.834  23.173 -0.4099  0.3532 -0.0135
 9639W        W11789  10.901   1.086  34.889 -0.2485  0.0245 -0.0185
 9640W        W11790  10.955   1.967  29.496 -0.2380  0.1522  0.3068
 9641W        W11791  11.332   2.856  29.288  0.2449  0.2088  0.1668
 9642W        W11792  10.660   6.113  32.473  0.0491 -0.3264  0.1946
 9643W        W11793   3.697   5.938   1.738 -0.0059  0.0262 -0.1424
 9644W        W11794  14.078   1.395  12.840  0.1491 -0.1835 -0.2231
 9645W        W11795   3.247   2.378  30.126  0.2136 -0.1883 -0.3600
 9646W        W11796  12.951   2.468  32.990 -0.1963 -0.2547 -0.1884
 9647W        W11797  12.111   6.021  38.532 -0.2331  0.0656 -0.0663
 9648W        W11798   6.405   6.406  27.035 -0.1819  0.2485  0.1269
 9649W        W11799  20.926   0.878   0.125 -0.1025  0.1261 -0.0157
 9650W        W11800   9.573   1.141  28.473 -0.1292 -0.0147 -0.4042
 9651W        W11801   8.198   3.870  42.032  0.2272  0.1991  0.0782
 9652W        W11802   5.130   1.356   7.312 -0.1649 -0.1713  0.2345
 9653W        W11803   8.356   6.512  41.002  0.2947 -0.0387  0.1375
 9654W        W11804   2.258   0.845  25.605  0.0141 -0.1793 -0.5983
 9655W        W11805  11.279   2.436  25.850 -0.2963 -0.0391 -0.0184
 9656W        W11806   4.127   5.620  14.704  0.1464  0.1213  0.0716
 9657W        W11807  13.451   0.086  32.853 -0.0241 -0.1523 -0.0586
 9658W        W11808   6.737   5.477  42.429 -0.0019 -0.0769 -0.0382
 9659W        W11809  16.535   6.351   2.908 -0.3292  0.1157  0.1117
 9660W        W11810  16.830   2.932  19.816 -0.0299 -0.1365 -0.0627
 9661W        W11811  13.898   2.558  43.149 -0.0755  0.0141 -0.0060
 9662W        W11812  12.213   2.024  15.839 -0.0310 -0.1236  0.0694
 9663W        W11813  13.818   4.097  44.476 -0.0689 -0.0224 -0.0768
 9664W        W11814  19.730   3.221  15.192 -0.2213 -0.4566  0.1601
 9665W        W11815  20.519   2.956   2.328 -0.2746 -0.0156  0.2342
 9666W        W11816  15.252   5.144  31.784 -0.0636 -0.3311  0.0576
 9667W        W11817   1.148   0.377  30.911 -0.3052  0.1155 -0.0728
 9668W        W11818   2.111   2.770  43.608 -0.1909 -0.1320  0.1628
 9669W        W11819   5.741   0.174  42.408  0.1398 -0.0272  0.0498
 9670W        W11820  17.399   1.106  30.488 -0.1600  0.0497 -0.3156
 9671W        W11821   7.193   5.294  35.400 -0.1383 -0.1803  0.1407
 9672W        W11822   4.566   1.522  33.128  0.0951  0.2135  0.2792
 9673W        W11823   1.111   1.526   7.950 -0.1953  0.0726 -0.2530
 9674W        W11824  18.715   3.454  14.609 -0.0268 -0.1360  0.0160
 9675W        W11825  10.949   3.360  31.446  0.1153  0.4408 -0.2346
 9676W        W11826  13.633   0.353  36.906 -0.0591  0.1492  0.0703
 9677W        W11827   3.383   2.075  25.656 -0.2178  0.0352  0.2109
 9678W        W11828   5.996   0.761  37.063 -0.0158 -0.2719  0.3719
 9679W        W11829  11.460   0.099  10.938 -0.1362  0.1846 -0.2392
 9680W        W11830  15.726   3.034  10.494 -0.1966  0.1833  0.0974
 9681W        W11831  11.265   4.877  14.377 -0.0194 -0.0881  0.1715
 9682W        W11832   0.164   3.245   7.815  0.0930  0.2447 -0.0390
 9683W        W11833   6.976   5.653   2.762  0.0738 -0.0263 -0.0937
 9684W        W11834  15.153   4.045  40.312 -0.1205 -0.2717 -0.1736
 9685W        W11835   4.295   4.275  31.416  0.0357  0.0709 -0.1864
 9686W        W11836  16.751   0.149  35.528  0.2711 -0.1661 -0.1200
 9687W        W11837   6.170   5.314   8.481  0.2102 -0.0831 -0.1495
 9688W        W11838  15.759   6.112   6.671 -0.3451  0.0643 -0.4163
 9689W        W11839  10.501   0.373  34.696  0.2851 -0.0636 -0.1113
 9690W        W11840  11.589   0.309   4.884 -0.1191 -0.0731  0.3484
 9691W        W11841  11.086   5.634   0.836 -0.2032 -0.2195 -0.3368
 9692W        W11842  13.314   1.521  16.293 -0.2454  0.3197  0.3971
 9693W        W11843   3.169   4.238   1.524 -0.0488 -0.1293 -0.1693
 9694W        W11844  12.987   4.878  11.143 -0.0316  0.0487  0.0521
 9695W        W11845  11.231   6.202  30.398  0.0824  0.1721  0.2226
 9696W        W11846  12.072   1.594   6.033  0.0753  0.3548  0.3602
 9697W        W11847  15.496   3.390  15.184  0.0273 -0.1438 -0.1120
 9698W        W11848  17.745   0.567   3.629 -0.0239 -0.0088 -0.0170
 9699W        W11849  13.412   1.902   7.218  0.1128 -0.0429  0.2099
 9700W        W11850  17.976   1.580   7.396 -0.2219 -0.0438  0.0093
 9701W        W11851   3.765   0.896  27.455  0.3320 -0.3165 -0.1052
 9702W        W11852   8.061   5.515  40.240 -0.1673  0.2870 -0.2157
 9703W        W11853   7.096   2.386  25.445 -0.1261 -0.2758 -0.0683
 9704W        W11854  16.799   0.642  18.023  0.1347  0.4717  0.2141
 9705W        W11855  10.684   3.653   6.118 -0.1480  0.0665  0.1037
 9706W        W11856   3.229   2.090   4.467  0.2592  0.0177 -0.0592
 9707W        W11857  11.298   0.181  41.698  0.2115  0.1960  0.2782
 9708W        W11858  15.602   1.852   6.828  0.0161 -0.2140 -0.0573
 9709W        W11859  15.619   0.310   3.266 -0.0344 -0.1192  0.0894
 9710W        W11860  10.443   4.116   6.021 -0.0701 -0.1358 -0.4045
 9711W        W11861  15.013   1.660  43.908 -0.2037 -0.1599  0.2037
 9712W        W11862  10.846   6.425  13.998  0.0163 -0.0636  0.0461
 9713W        W11863   7.786   0.074  22.143  0.0522  0.0901  0.1116
 9714W        W11864  14.838   3.700  22.216 -0.0854  0.0813 -0.3773
 9715W        W11865  11.462   1.404  15.631  0.1414  0.2270  0.2445
 9716W        W11866  14.238   3.616   3.701  0.0143 -0.1237  0.0950
 9717W        W11867  19.225   0.657  14.853 -0.0165 -0.0423 -0.0489
 9718W        W11868   9.319   2.293   0.345  0.0568  0.1046  0.1932
 9719W        W11869  13.572   4.468   3.471  0.0542 -0.3371  0.1498
 9720W        W11870   9.463   4.723   7.012 -0.2755  0.1531 -0.0316
 9721W        W11871  12.646   1.238  11.469 -0.1022  0.2605 -0.0386
 9722W        W11872  19.992   3.761  41.612 -0.1600  0.2466 -0.1922
 9723W        W11873   9.632   5.446  41.588 -0.0744  0.2203  0.0985
 9724W        W11874  19.196   2.017  31.643  0.0546  0.0306  0.2723
 9725W        W11875   0.307   0.499  30.505  0.0266 -0.2282 -0.1334
 9726W        W11876  13.062   4.311   3.846  0.0402 -0.0342 -0.1256
 9727W        W11877   7.057   3.345  44.829  0.3282 -0.2976  0.0826
 9728W        W11878   6.054   2.220  43.056 -0.3829 -0.0053  0.0474
 9729W        W11879  17.733   5.642  35.282 -0.2917 -0.0446  0.0019
 9730W        W11880  20.599   2.672   7.875 -0.0367 -0.2109  0.1869
 9731W        W11881  20.803   0.438  32.775  0.0553 -0.1567  0.1114
 9732W        W11882   8.202   6.285  44.139 -0.3419 -0.1456 -0.2965
 9733W        W11883   7.653   5.459  42.767  0.0643  0.0451 -0.1179
 9734W        W11884   8.421   3.354  43.520 -0.2319 -0.1105 -0.0689
 9735W        W11885   0.418   6.508  42.253 -0.0971 -0.0124 -0.0422
 9736W        W11886  10.087   2.763  35.183 -0.3247 -0.1490  0.2698
 9737W        W11887  18.608   5.748  16.589  0.0314 -0.2075 -0.1637
 9738W        W11888   4.220   4.815   4.780 -0.1825 -0.2891  0.1534
 9739W        W11889   6.514   5.120  38.324 -0.1254 -0.0564 -0.2046
 9740W        W11890  17.612   0.968  33.177  0.3801  0.1481  0.2082
 9741W        W11891  19.194   2.282  20.415  0.1206 -0.1402  0.0203
 9742W        W11892  13.611   6.325  14.134 -0.0515 -0.2809  0.1182
 9743W        W11893  14.699   5.677  35.127 -0.2856 -0.1077 -0.2995
 9744W        W11894  20.899   6.424  16.583  0.0242  0.1205  0.2005
 9745W        W11895   0.509   4.994  39.939  0.1707 -0.0024  0.1587
 9746W        W11896  14.693   4.154   7.246 -0.0748 -0.1277 -0.2271
 9747W        W11897   0.174   5.064   7.367  0.2332  0.0460 -0.0400
 9748W        W11898   8.211   0.842  38.456  0.2360 -0.3407  0.1258
 9749W        W11899  13.868   5.559  38.297 -0.1188  0.2059 -0.1218
 9750W        W11900  13.368   6.556  42.144  0.0201 -0.1051 -0.1685
 9751W        W11901  19.900   3.101  31.393  0.1819  0.1407 -0.4462
 9752W        W11902   6.740   2.578  36.054 -0.0005 -0.2277 -0.0364
 9753W        W11903  13.515   5.899  35.615 -0.1327  0.0079 -0.2005
 9754W        W11904  11.776   4.320  38.018  0.0962  0.3107 -0.1361
 9755W        W11905  10.073   4.821  26.630 -0.2813  0.2474  0.1129
 9756W        W11906   6.136   6.439  33.109  0.2064 -0.2745  0.0569
 9757W        W11907   9.246   0.886  12.643 -0.0671 -0.2101  0.0590
 9758W        W11908  13.757   4.238   8.316 -0.0839  0.0559 -0.2069
 9759W        W11909  12.303   5.588  37.614  0.1303  0.2423  0.1419
 9760W        W11910   1.221   4.626  30.691  0.0807 -0.1507  0.0039
 9761W        W11911  18.324   5.592  38.340 -0.0317 -0.2181 -0.0003
 9762W        W11912  17.040   2.354  35.277  0.2301 -0.3164  0.1744
 9763W        W11913  18.518   1.927  29.809  0.0409  0.0736 -0.1412
 9764W        W11914  18.361   2.969  13.716  0.0035 -0.0678  0.4184
 9765W        W11915  20.898   2.527  38.871 -0.0146  0.1336  0.1544
 9766W        W11916  18.725   1.280  42.554  0.3007 -0.1810 -0.2786
 9767W        W11917   1.835   3.866  40.519  0.0234 -0.0389  0.4748
 9768W        W11918  20.512   2.809  35.802  0.0516 -0.1725 -0.0191
 9769W        W11919  11.974   2.557  38.168 -0.1680 -0.0897  0.2158
 9770W        W11920   4.880   4.117  34.849 -0.0858  0.0927  0.0277
 9771W        W11921   0.191   2.263   3.384 -0.0717  0.1704  0.0563
 9772W        W11922   9.190   1.454   2.599 -0.0263  0.1388 -0.0949
 9773W        W11923   6.555   4.935  14.541 -0.0652 -0.0038  0.2381
 9774W        W11924   9.700   0.998  38.221  0.0384 -0.0865 -0.0065
 9775W        W11925  15.101   0.597  15.649  0.3332 -0.2032 -0.2056
 9776W        W11926   4.745   6.131  21.235  0.0383 -0.2683  0.1204
 9777W        W11927  13.235   4.890  14.815  0.0399  0.0552 -0.1956
 9778W        W11928   6.494   1.319  29.715 -0.2226 -0.1835  0.3103
 9779W        W11929   1.026   1.093  42.529  0.0420  0.1391  0.0334
 9780W        W11930  17.116   2.812   1.466 -0.1561  0.2705  0.0433
 9781W        W11931   5.540   1.753   1.677  0.0590  0.3305  0.2402
 9782W        W11932  14.310   1.273  44.305  0.1775 -0.0715  0.0545
 9783W        W11933   3.473   2.891  37.104  0.2251 -0.0229  0.0048
 9784W        W11934   6.050   4.502   9.197  0.1564  0.1986 -0.1660
 9785W        W11935  20.043   1.350  34.086  0.2305 -0.4692 -0.0366
 9786W        W11936  19.055   0.236  17.533 -0.1163 -0.1849 -0.0623
 9787W        W11937   6.103   0.737  42.938  0.2202  0.2029 -0.2032
 9788W        W11938   1.082   4.285  39.588  0.1727  0.2164  0.2196
 9789W        W11939  17.328   3.256  39.491 -0.0696 -0.1281  0.1015
 9790W        W11940   8.891   6.524  16.597  0.1641  0.0652 -0.3559
 9791W        W11941  16.617   5.136  13.087 -0.0257  0.0164  0.0422
 9792W        W11942   2.173   1.301  36.036  0.1142 -0.2269  0.0957
 9793W        W11943  18.343   5.615   8.309 -0.2634 -0.0894  0.0897
 9794W        W11944  10.586   1.476   7.761  0.0698  0.0604  0.0732
 9795W        W11945  15.809   2.134  15.334  0.0256  0.1565  0.3497
 9796W        W11946  18.034   5.379  32.013  0.0572  0.0057 -0.1608
 9797W        W11947   5.344   2.327  20.755  0.0928 -0.1863 -0.1045
 9798W        W11948   5.751   0.298  25.094 -0.1607 -0.0767  0.4615
 9799W        W11949  12.535   2.097  36.713 -0.0449  0.1773 -0.2840
 9800W        W11950  13.373   1.178  38.331  0.1136  0.1275  0.0965
 9801W        W11951  15.914   0.832  32.896  0.3113 -0.4826 -0.3546
 9802W        W11952  10.734   4.389  30.105  0.1550  0.2609 -0.1551
 9803W        W11953  12.203   5.386  41.402 -0.1319 -0.2321  0.0883
 9804W        W11954  12.019   1.644  32.590 -0.1475 -0.1016  0.2647
 9805W        W11955   1.270   0.450   7.533 -0.0747  0.1055 -0.4646
 9806W        W11956   2.217   4.231  37.141 -0.0234 -0.1966 -0.0197
 9807W        W11957   7.386   1.464  15.670 -0.0967 -0.1629 -0.0639
 9808W        W11958  13.624   1.900  31.391 -0.1337 -0.1426  0.1786
 9809W        W11959   9.943   1.939  17.580 -0.0263  0.1760  0.3133
 9810W        W11960  13.123   6.096   0.605  0.0725 -0.1262 -0.1302
 9811W        W11961  15.265   4.575  17.716  0.1133  0.1445 -0.0303
 9812W        W11962   4.314   3.700  45.013 -0.0973 -0.6120 -0.2973
 9813W        W11963  20.022   1.134  32.024  0.0177  0.3481 -0.2508
 9814W        W11964  14.961   4.274  11.063 -0.1665  0.4783 -0.2057
 9815W        W11965   4.927   3.941  41.756 -0.1984 -0.0743  0.1467
 9816W        W11966  17.306   3.792   5.023  0.1388 -0.2715 -0.2551
 9817W        W11967  20.658   4.364   3.483 -0.1130 -0.0465  0.1262
 9818W        W11968  15.879   4.408  16.423  0.1601 -0.2492  0.1036
 9819W        W11969   7.465   1.054  43.990 -0.3364 -0.0037  0.0387
 9820W        W11970   4.430   0.808   8.167 -0.1912  0.1436  0.0105
 9821W        W11971   2.794   3.835  36.862  0.0882 -0.1384 -0.0512
 9822W        W11972  17.180   2.902   2.026 -0.0879  0.1912 -0.2184
 9823W        W11973  11.675   2.962  39.432 -0.1765  0.0123 -0.1400
 9824W        W11974  17.282   5.514  21.149  0.1649 -0.1514 -0.0406
 9825W        W11975  18.467   3.803  10.901 -0.0585  0.0792 -0.0733
 9826W        W11976   5.223   4.369  13.721 -0.0839  0.3530  0.2166
 9827W        W11977  20.729   0.119  42.139  0.0240  0.0627 -0.0563
 9828W        W11978  18.997   0.157  11.948 -0.4066  0.0859 -0.1932
 9829W        W11979   2.780   4.970  12.117 -0.0269 -0.2694 -0.0257
 9830W        W11980  16.179   3.940  37.474 -0.0015 -0.3414  0.0411
 9831W        W11981   7.792   5.533  26.839  0.0871 -0.0825  0.2857
 9832W        W11982  14.864   2.955  41.962 -0.1745  0.1351  0.0939
 9833W        W11983  14.568   0.189   9.338 -0.2122 -0.2722  0.3238
 9834W        W11984   3.688   3.550   4.801 -0.0233 -0.1176 -0.0772
 9835W        W11985   9.305   2.543  11.248 -0.0442 -0.1305  0.1547
 9836W        W11986  16.666   2.293  38.072 -0.0380  0.0374  0.1472
 9837W        W11987  18.115   3.269   1.167 -0.0065  0.0059  0.1986
 9838W        W11988  13.563   0.685  16.456  0.3083 -0.1577 -0.1711
 9839W        W11989  14.098   6.581  32.756 -0.0107  0.0556 -0.0149
 9840W        W11990  13.396   4.249   7.485 -0.2246 -0.0090 -0.0446
 9841W        W11991  10.459   0.031  30.930 -0.0144 -0.1222  0.0584
 9842W        W11992  15.006   4.216  36.049  0.1317  0.0007  0.0086
 9843W        W11993   7.935   6.458  34.925  0.1499  0.3013 -0.0490
 9844W        W11994   3.828   3.393  39.455  0.2318  0.0789  0.1362
 9845W        W11995  19.224   5.571  30.176 -0.3422  0.3212  0.0784
 9846W        W11996  13.531   3.730   4.141 -0.2488  0.0787  0.1732
 9847W        W11997   5.234   5.412  20.253  0.1392 -0.0395 -0.1770
 9848W        W11998  17.449   0.834   2.029  0.4819  0.2672 -0.0527
 9849W        W11999  11.229   1.237  39.304 -0.0310 -0.0627 -0.0326
 9850W        W12000  13.271   4.533   8.841 -0.1345 -0.1476  0.0802
 9851W        W12001  17.331   2.714   9.717  0.1026 -0.0632 -0.1278
 9852W        W12002  13.583   1.323  21.157 -0.1801  0.1207  0.2545
 9853W        W12003   6.845   6.432  29.965  0.1020 -0.0376 -0.0966
 9854W        W12004  15.805   1.504  34.908  0.0469 -0.2106  0.0998
 9855W        W12005   2.996   2.678   8.156  0.1850  0.1585  0.0431
 9856W        W12006   0.324   1.204  17.069 -0.1329  0.0227 -0.2933
 9857W        W12007  16.365   6.007   6.272  0.2445 -0.0003 -0.0274
 9858W        W12008  10.984   0.993  31.607 -0.0678 -0.1282  0.2470
 9859W        W12009   5.972   6.148   7.494  0.2610  0.0262  0.1575
 9860W        W12010   7.526   5.946   4.877 -0.2961  0.0069  0.2233
 9861W        W12011   9.966   0.267  12.222  0.1775  0.0401 -0.1829
 9862W        W12012  15.047   1.560  23.058 -0.3172  0.0658  0.1679
 9863W        W12013   4.381   4.159  35.006  0.2799 -0.3124 -0.3669
 9864W        W12014   3.757   3.313  32.186  0.0654  0.2934 -0.2081
 9865W        W12015  12.738   1.824  16.996 -0.0064 -0.0958  0.0490
 9866W        W12016   3.248   5.557   9.141 -0.1058  0.1455 -0.0894
 9867W        W12017  14.020   5.617  14.833 -0.1603 -0.0754 -0.1327
 9868W        W12018   7.598   4.829  23.697 -0.2060 -0.0651 -0.0618
 9869W        W12019  18.995   3.073  16.178  0.0242  0.0580 -0.1783
 9870W        W12020   1.505   0.921  28.788  0.1517  0.1331  0.2600
 9871W        W12021   4.039   2.768  40.121  0.0594  0.2092  0.2608
 9872W        W12022  14.828   2.434  15.839  0.0514 -0.0602  0.0262
 9873W        W12023   4.425   0.866  15.153 -0.0032 -0.1375 -0.1434
 9874W        W12024  10.844   5.642  32.561 -0.1069  0.1817 -0.4085
 9875W        W12025  15.945   2.401  35.878  0.1828  0.0026 -0.3131
 9876W        W12026   9.246   0.412  15.149  0.0901 -0.1377 -0.0813
 9877W        W12027   2.277   4.270  10.538  0.1970  0.0337 -0.1038
 9878W        W12028  13.771   0.085  43.071  0.0711  0.1255  0.0403
 9879W        W12029   9.684   4.557   7.540 -0.0456  0.0121 -0.2277
 9880W        W12030   0.563   0.098   9.919  0.1126  0.0363 -0.1887
 9881W        W12031  15.171   0.550  18.168 -0.0912  0.0160 -0.2362
 9882W        W12032  20.809   3.561   5.144 -0.0617  0.1274 -0.0412
 9883W        W12033  13.299   3.380  10.628 -0.2555  0.2620 -0.0379
 9884W        W12034   4.489   1.104  40.130 -0.0106 -0.0067 -0.1949
 9885W        W12035  10.738   0.913   7.871  0.2484 -0.2751 -0.1026
 9886W        W12036   5.455   1.465   2.665 -0.0482 -0.2644  0.1405
 9887W        W12037  15.241   0.183  32.562 -0.0050 -0.4559  0.2291
 9888W        W12038   8.185   2.420  10.481  0.2645 -0.0820 -0.1705
 9889W        W12039  19.626   4.774   1.218  0.2433 -0.0894  0.1190
 9890W        W12040  20.818   4.635  29.952  0.0617 -0.1574  0.0507
 9891W        W12041   1.524   5.448  16.096 -0.2424  0.1742  0.0669
 9892W        W12042  11.203   2.970   6.731  0.0248 -0.2244 -0.1711
 9893W        W12043   8.480   4.432  42.745  0.1039 -0.0464  0.2611
 9894W        W12044  13.257   0.623  30.824  0.1860  0.2446 -0.0926
 9895W        W12045   1.317   1.296  25.448 -0.1123 -0.4705  0.3737
 9896W        W12046  14.574   5.508   4.382  0.0027 -0.0331  0.2180
 9897W        W12047   2.939   5.609  25.425  0.0965 -0.2680 -0.2029
 9898W        W12048  14.446   1.957  11.088  0.0887 -0.2542  0.1592
 9899W        W12049   2.146   4.118  29.311 -0.2551  0.0962 -0.1556
 9900W        W12050   5.462   0.117   1.033 -0.0553  0.0383  0.1819
 9901W        W12051  20.654   2.436  42.419  0.0090 -0.0987  0.1007
 9902W        W12052  16.389   3.806  35.774  0.2172 -0.1684  0.3194
 9903W        W12053   0.601   4.811  31.250  0.1129 -0.1021 -0.2115
 9904W        W12054  17.880   1.364  37.057  0.0081  0.2293  0.1046
 9905W        W12055   8.230   3.845  43.451 -0.1280  0.1488 -0.0450
 9906W        W12056  18.903   3.002  11.161  0.2774  0.0640 -0.0471
 9907W        W12057   4.941   0.112  42.845 -0.1738 -0.0573 -0.1639
 9908W        W12058   8.886   0.392  24.973 -0.0172 -0.3401  0.1177
 9909W        W12059   5.946   5.649   7.706  0.1282 -0.2480 -0.4236
 9910W        W12060  16.413   4.897  43.743 -0.3322  0.2698  0.2305
 9911W        W12061  21.128   0.096   0.694  0.0746 -0.2004 -0.1828
 9912W        W12062  17.033   5.305   2.385 -0.1651  0.0438  0.0560
 9913W        W12063   0.625   0.539  36.651  0.3376  0.0804 -0.0827
 9914W        W12064  11.162   3.834  13.263 -0.4847 -0.0013 -0.3306
 9915W        W12065  16.741   2.716  43.900 -0.1069  0.1876 -0.0367
 9916W        W12066   4.470   2.778   6.546 -0.2354  0.2330  0.2657
 9917W        W12067  20.353   5.200   7.158  0.3070  0.2281  0.1128
 9918W        W12068   3.541   4.809  35.126 -0.2393 -0.2550 -0.0542
 9919W        W12069  18.295   5.081  40.948  0.3325  0.1453  0.3439
 9920W        W12070   7.223   5.067  39.990  0.3145 -0.1175 -0.2645
 9921W        W12071   2.240   3.759  35.931 -0.0272  0.0208  0.1811
 9922W        W12072   3.945   0.319  14.553  0.1809  0.1306  0.1413
 9923W        W12073  20.959   5.629  45.105 -0.0385  0.1746 -0.3488
 9924W        W12074  17.006   4.067  43.556  0.2497  0.1165  0.0206
 9925W        W12075   5.396   3.494  30.209  0.1624 -0.0849  0.1199
 9926W        W12076   7.516   2.527  31.520 -0.3009  0.1897 -0.2903
 9927W        W12077  12.044   1.084  15.611 -0.2775  0.2457 -0.1525
 9928W        W12078   2.770   3.734  34.916 -0.0589  0.1303  0.1562
 9929W        W12079   0.914   0.128  42.882  0.1572  0.0012  0.0268
 9930W        W12080  15.566   0.072  43.937 -0.0886 -0.1215 -0.1901
 9931W        W12081  13.135   5.603  20.807  0.3550  0.0358 -0.1160
 9932W        W12082  10.705   2.221  36.781  0.2555  0.0397 -0.0655
 9933W        W12083  12.191   6.129   3.937 -0.0625  0.0473  0.3418
 9934W        W12084   7.198   4.434  11.102 -0.0651 -0.2679 -0.1282
 9935W        W12085  17.689   4.789  17.141  0.0301 -0.0011 -0.0704
 9936W        W12086   9.821   0.904   6.921 -0.1376 -0.3025 -0.0006
 9937W        W12087  11.372   4.534  43.746 -0.4141  0.0684 -0.2614
 9938W        W12088   2.830   2.408  25.852  0.1217 -0.0100  0.1306
 9939W        W12089  12.736   1.531  39.371  0.0033  0.0205 -0.0095
 9940W        W12090   3.192   0.910  10.155  0.2082  0.1829 -0.1686
 9941W        W12091   4.815   3.279  42.598 -0.0236 -0.0752  0.0393
 9942W        W12092  13.894   3.145  35.190 -0.1907 -0.0843 -0.1953
 9943W        W12093  18.713   3.289  40.963 -0.1352 -0.2019 -0.2239
 9944W        W12094  17.385   0.421  21.530 -0.2545 -0.1406  0.4067
 9945W        W12095  18.115   0.376  31.848 -0.0227 -0.1333 -0.1971
 9946W        W12096   4.440   2.794  32.384  0.0965 -0.1081  0.3314
 9947W        W12097   6.212   3.331  32.945  0.0967 -0.1021  0.0907
 9948W        W12098   8.620   3.210  27.259  0.1763  0.1783 -0.0798
 9949W        W12099   1.802   0.903  43.024  0.3643 -0.0425 -0.0600
 9950W        W12100   5.837   1.023   8.751  0.2745  0.0327  0.1073
 9951W        W12101  15.116   5.430  21.945  0.3357 -0.0606 -0.3142
 9952W        W12102  18.083   2.165  39.051 -0.2652  0.1355  0.1550
 9953W        W12103   9.262   5.060  16.350 -0.0854  0.2145  0.2555
 9954W        W12104   7.773   2.941  13.367  0.0349  0.1690  0.0796
 9955W        W12105  14.012   4.402  36.312  0.0334 -0.2699  0.1098
 9956W        W12106   6.286   1.543  14.897 -0.1301 -0.1986  0.0037
 9957W        W12107  10.503   6.418  16.011  0.1442  0.3240  0.2213
 9958W        W12108   1.754   3.986   9.783  0.0812  0.0884 -0.1826
 9959W        W12109   4.498   5.027  35.364  0.0305 -0.0350 -0.1779
 9960W        W12110   3.335   3.299   6.391 -0.1341 -0.0789 -0.0878
 9961W        W12111  19.174   1.689   5.242 -0.2372 -0.1207  0.0562
 9962W        W12112  19.981   0.047  36.747  0.1617  0.0850 -0.1090
 9963W        W12113  12.109   2.370  39.511  0.2446  0.0303  0.1946
 9964W        W12114  13.915   5.457  30.459 -0.1454 -0.3408  0.0638
 9965W        W12115  16.907   0.280  23.694 -0.1656  0.0314 -0.0197
 9966W        W12116   6.254   3.111  36.564 -0.0774  0.0354 -0.0416
 9967W        W12117   3.359   5.274  34.947  0.3762  0.0721 -0.2550
 9968W        W12118   5.626   5.519  29.085  0.1100 -0.0907 -0.2598
 9969W        W12119   8.991   5.036  31.711  0.3502 -0.2659 -0.0804
 9970W        W12120  19.392   1.688  35.072 -0.0623  0.2882  0.1012
 9971W        W12121  13.590   5.188   8.633 -0.1293 -0.1144 -0.0154
 9972W        W12122   8.940   3.613  35.123  0.1097 -0.4973  0.0036
 9973W        W12123  11.065   5.928  34.969 -0.0510  0.1141 -0.0059
 9974W        W12124   4.917   3.581   1.647 -0.1915  0.1065  0.0157
 9975W        W12125  11.490   1.036   0.946 -0.2549 -0.1950 -0.2681
 9976W        W12126  10.057   3.157   4.945 -0.1091 -0.1631 -0.2669
 9977W        W12127   6.267   1.390  38.359  0.0205  0.1016 -0.0611
 9978W        W12128   5.873   3.313  10.636  0.0220  0.0104 -0.0438
 9979W        W12129  17.200   0.237   6.897  0.0089  0.0737  0.0703
 9980W        W12130   8.454   3.083   9.784 -0.1122 -0.1224 -0.4588
 9981W        W12131  15.400   3.179  28.568  0.5611  0.1059  0.1368
 9982W        W12132   1.443   5.188  11.929 -0.1526  0.0494 -0.1556
 9983W        W12133  17.057   4.853  23.639 -0.1225 -0.0656 -0.1361
 9984W        W12134   7.899   5.180   8.327  0.1817 -0.1461  0.0848
 9985W        W12135  17.836   1.868  42.571 -0.2122 -0.0938  0.4421
 9986W        W12136   8.821   2.445  24.669 -0.0127 -0.0881 -0.1792
 9987W        W12137  19.534   5.733  17.717 -0.0707 -0.0653 -0.0606
 9988W        W12138   6.839   3.520   4.492  0.1715  0.2715 -0.1513
 9989W        W12139   5.536   2.791  30.972  0.1673  0.0678  0.0784
 9990W        W12140  20.111   0.335  29.996 -0.0792  0.0003  0.0916
 9991W        W12141   9.629   0.313  41.007 -0.1777  0.0117  0.1025
 9992W        W12142  13.889   1.661  18.612  0.2435 -0.1444 -0.0205
 9993W        W12143  15.297   1.020  18.180  0.0335  0.0122  0.1400
 9994W        W12144  17.312   2.662  18.782 -0.0012 -0.3623  0.1462
 9995W        W12145   9.762   5.944  16.473  0.2177  0.2647 -0.0175
 9996W        W12146   9.803   2.558   0.266 -0.2460 -0.0224  0.1733
 9997W        W12147   0.197   1.865  10.966  0.2156  0.2032 -0.2743
 9998W        W12148  13.955   0.899  12.323 -0.0552 -0.0888 -0.1073
 9999W        W12149  10.446   5.731   4.304 -0.0455 -0.1003  0.2661
10000W        W12150  14.481   2.275   7.678  0.1032 -0.3680 -0.0410
10001W        W12151  18.321   5.005   9.238  0.1534  0.0927 -0.0990
10002W        W12152   8.378   4.049  11.091  0.0299  0.3588 -0.4249
10003W        W12153   2.133   5.760  37.829 -0.0340 -0.1230  0.1581
10004W        W12154   1.836   3.548   5.696  0.3382 -0.1530 -0.1127
10005W        W12155  15.445   2.290  38.849  0.1103 -0.1950 -0.0330
10006W        W12156  16.385   4.770  24.763 -0.0970 -0.1827 -0.4014
10007W        W12157  17.990   3.997  12.583 -0.2016  0.3016 -0.1322
10008W        W12158  14.222   3.908  36.266  0.1083 -0.3166  0.2633
10009W        W12159  19.158   1.326   2.346 -0.2263  0.0623  0.1738
10010W        W12160  12.156   1.664  10.454 -0.0474 -0.0593  0.0965
10011W        W12161  20.830   2.102  16.305 -0.1466 -0.2794  0.0044
10012W        W12162   5.782   2.784  34.556  0.1487 -0.1043 -0.2200
10013W        W12163   7.626   3.701  38.294 -0.1005 -0.0048  0.2085
10014W        W12164   0.085   2.610   4.315 -0.1090  0.0381  0.0996
10015W        W12165   1.381   0.426   5.073  0.3009 -0.0227  0.0073
10016W        W12166   1.344   3.665  34.762 -0.0246 -0.1005 -0.1654
10017W        W12167  12.698   3.524   0.362 -0.1413  0.0942 -0.4228
10018W        W12168   5.479   5.056  31.390  0.3168 -0.0868  0.0402
10019W        W12169   7.643   5.369  39.918 -0.0473  0.0144  0.1554
10020W        W12170  10.955   0.406  39.067 -0.1404 -0.2474  0.2906
10021W        W12171  11.199   3.726  15.370 -0.1477  0.0885  0.0943
10022W        W12172   4.561   0.238  32.183 -0.2394 -0.0839 -0.1170
10023W        W12173  13.211   1.717   1.423  0.0326  0.2351 -0.0237
10024W        W12174   5.736   1.020  28.214 -0.1418 -0.0036 -0.2260
10025W        W12175   7.195   5.631   7.896 -0.2432 -0.0107  0.0178
10026W        W12176   9.978   5.081   3.715 -0.2529 -0.0513  0.1711
10027W        W12177  16.645   5.628  36.600 -0.0898 -0.1280 -0.1270
10028W        W12178   4.167   0.781   9.832 -0.0331 -0.1455 -0.3496
10029W        W12179   6.648   5.895  14.067 -0.2250 -0.2148 -0.1421
10030W        W12180  18.386   0.334  29.517  0.0508 -0.0701 -0.0467
10031W        W12181  10.539   3.792  37.848 -0.2100  0.0249  0.2816
10032W        W12182   7.473   3.006   1.191  0.0192  0.2307 -0.0106
10033W        W12183  12.715   5.025   1.153 -0.2114 -0.0249  0.0293
10034W        W12184  10.497   3.453   3.317 -0.3174 -0.2557 -0.1989
10035W        W12185  16.840   0.526  11.109 -0.1692 -0.0068  0.0732
10036W        W12186   8.905   4.681  11.758  0.1962 -0.1324 -0.0652
10037W        W12187  14.193   4.798  15.714 -0.0312  0.0038 -0.2479
10038W        W12188   8.903   1.737  14.859  0.1035 -0.0722  0.0930
10039W        W12189  19.304   5.913  37.963 -0.0502  0.0245  0.0169
10040W        W12190  16.601   5.010   4.988  0.0028 -0.0157 -0.2233
10041W        W12191  20.712   4.583  37.660  0.1991  0.1895  0.0557
10042W        W12192   5.504   0.516   6.181  0.2530  0.2693  0.0285
10043W        W12193  16.394   0.844  31.550  0.1798 -0.0322 -0.3086
10044W        W12194   9.831   4.822  28.862 -0.0743 -0.0310 -0.1120
10045W        W12195   6.110   2.102  29.908  0.1815 -0.0599  0.1691
10046W        W12196  12.594   5.537  15.602 -0.1253 -0.0627 -0.0848
10047W        W12197  12.404   1.814   1.770  0.0077  0.0818 -0.0022
10048W        W12198   9.702   1.580  17.260  0.0857  0.0840  0.1578
10049W        W12199  14.240   6.407   1.724  0.1767 -0.0418  0.0171
10050W        W12200   4.387   2.250  14.707 -0.0430 -0.0276  0.1570
10051W        W12201   8.789   3.561  10.797 -0.2018  0.2935 -0.1842
10052W        W12202  19.547   6.139  10.475  0.0813  0.1079 -0.3038
10053W        W12203  20.297   2.833  16.739 -0.2155  0.0237 -0.0532
10054W        W12204  20.506   2.092  39.792 -0.0432 -0.0128  0.1294
10055W        W12205   1.532   5.882  26.022  0.5535 -0.1688  0.1782
10056W        W12206   9.771   6.486  24.641 -0.2052  0.1225  0.1965
10057W        W12207   2.182   1.878  34.170 -0.1583 -0.1627  0.1031
10058W        W12208   5.092   4.798  31.842  0.3478  0.2205  0.1827
10059W        W12209   2.878   3.682  32.661  0.2040  0.3684  0.0748
10060W        W12210  15.825   4.932  17.060 -0.1339 -0.0990 -0.2886
10061W        W12211   3.096   3.852  44.681 -0.1376 -0.3218  0.0766
10062W        W12212  18.633   2.440   3.531  0.0163  0.1649 -0.0813
10063W        W12213  14.192   1.508  18.199 -0.0155  0.2874  0.1798
10064W        W12214  11.558   1.443  10.264 -0.0064 -0.1476  0.0916
10065W        W12215   0.235   2.464  28.584  0.0046 -0.2092  0.3218
10066W        W12216   9.554   4.029  16.950 -0.0042  0.0840  0.0226
10067W        W12217  20.791   5.847  28.276 -0.1144 -0.0415  0.0532
10068W        W12218   2.831   1.967  35.669  0.0277  0.0032 -0.1317
10069W        W12219   7.418   1.002  22.495  0.1864 -0.1988 -0.1523
10070W        W12220  13.210   4.009  43.778 -0.0533  0.1231  0.0180
10071W        W12221   1.578   5.907   9.207  0.3159 -0.2878  0.1072
10072W        W12222   9.921   3.769  38.506 -0.2244 -0.0578  0.1403
10073W        W12223  15.120   1.946  31.679 -0.0072  0.1083  0.0839
10074W        W12224  16.575   2.881   6.439  0.1594  0.1559 -0.1470
10075W        W12225  13.470   3.289  20.320 -0.0780 -0.0435 -0.1047
10076W        W12226  17.617   4.587  43.159  0.0654 -0.0106 -0.1962
10077W        W12227  10.243   1.531  42.565  0.2136  0.0271  0.1823
10078W        W12228   0.084   1.957  29.205 -0.1777  0.0008 -0.1293
10079W        W12229   2.094   5.275  41.164 -0.0450  0.1423 -0.3403
10080W        W12230  10.781   4.578  17.499 -0.1217 -0.3712 -0.0656
10081W        W12231  20.115   2.977  35.573  0.1170 -0.2194 -0.1897
10082W        W12232   8.420   5.761  39.372 -0.0712  0.5360 -0.1934
10083W        W12233   9.674   3.291  33.094 -0.0917 -0.0958 -0.0081
10084W        W12234  11.692   0.161   9.988 -0.3035 -0.0040  0.0687
10085W        W12235  18.280   0.861  18.904 -0.1196  0.1330 -0.1223
10086W        W12236  12.200   1.200  35.540  0.2306 -0.0093  0.0781
10087W        W12237   8.811   1.873   1.844  0.2741  0.0408 -0.0641
10088W        W12238  18.912   3.661  17.768  0.1963 -0.1982 -0.0893
10089W        W12239  14.634   1.810  44.217  0.1886 -0.2865 -0.2535
10090W        W12240   6.569   1.038   0.220 -0.0520 -0.0085 -0.0861
10091W        W12241  17.437   0.959   0.225 -0.2369  0.0023 -0.0599
10092W        W12242  17.674   6.173   1.467  0.2237 -0.1028  0.2580
10093W        W12243  18.582   1.703  19.467  0.2389 -0.1101 -0.1980
10094W        W12244  15.896   0.825  11.645  0.0905 -0.0873  0.1014
10095W        W12245  10.499   3.438  31.158 -0.4745  0.0277 -0.1573
10096W        W12246   9.856   6.183  42.107 -0.2253  0.4323  0.1775
10097W        W12247   9.906   2.206   7.720  0.1346  0.0323  0.0255
10098W        W12248  14.920   1.596  16.787 -0.1070 -0.2031  0.2285
10099W        W12249  13.315   1.399  14.869  0.1991 -0.2081  0.1377
10100W        W12250  20.121   6.188  33.959 -0.1954 -0.3227 -0.1947
10101W        W12251   4.631   2.752  41.752 -0.1286 -0.1367 -0.1146
10102W        W12252  17.459   5.754  41.993  0.0975 -0.1159 -0.0525
10103W        W12253   5.927   2.404  23.176  0.2166  0.0856 -0.0728
10104W        W12254  13.124   3.207  16.910  0.0355 -0.1713 -0.2267
10105W        W12255  18.786   5.923   3.127 -0.2261  0.0771 -0.0075
10106W        W12256   0.338   4.540  14.001 -0.2373  0.0222  0.2639
10107W        W12257  18.092   4.800   8.828 -0.1347  0.2052 -0.0669
10108W        W12258   5.571   0.740   9.082 -0.0539 -0.2788 -0.0199
10109W        W12259  13.141   4.644  36.577  0.0522  0.0527  0.2439
10110W        W12260  15.665   5.861   8.968  0.6683 -0.3816  0.0756
10111W        W12261   1.377   2.231   6.229  0.1324  0.0724  0.1973
10112W        W12262   2.490   0.696  39.459 -0.3210 -0.1816  0.4957
10113W        W12263  13.109   1.864  34.167 -0.3209 -0.0053  0.1784
10114W        W12264   8.060   1.093  10.230 -0.2233  0.2128 -0.0340
10115W        W12265  10.742   0.366   4.558  0.0383  0.2741 -0.1246
10116W        W12266   0.825   4.418  41.730 -0.2164  0.3678 -0.3349
10117W        W12267  10.785   4.866   0.054 -0.0970  0.0358  0.3016
10118W        W12268  13.565   0.608  36.066  0.0786 -0.2191  0.0163
10119W        W12269  19.040   0.009  38.485 -0.0210  0.0363  0.0066
10120W        W12270  14.717   1.719  35.386  0.0635  0.2373 -0.1748
10121W        W12271   0.514   0.145  38.232 -0.0481 -0.1513 -0.2065
10122W        W12272   8.741   4.993   3.175  0.3291  0.1311 -0.1140
10123W        W12273  13.093   5.823  37.967  0.0574  0.0138  0.1638
10124W        W12274   3.768   5.446   4.138  0.0897  0.3125 -0.0937
10125W        W12275  15.065   6.481   3.855 -0.1634 -0.1574  0.0694
10126W        W12276  13.337   2.046  11.558 -0.2257  0.1354 -0.1260
10127W        W12277   6.840   3.323   6.544 -0.0605  0.0853 -0.2138
10128W        W12278  18.507   5.665  15.108  0.0059 -0.0066 -0.1466
10129W        W12279  16.661   6.147  25.009 -0.3052  0.1044 -0.1022
10130W        W12280  13.292   4.527  13.982  0.2506  0.1537 -0.1467
10131W        W12281   1.887   6.128  27.548  0.0984 -0.1681 -0.2157
10132W        W12282  17.382   5.368  39.230  0.0671  0.2760  0.0273
10133W        W12283  17.565   1.728  44.179 -0.4172 -0.0655  0.4107
10134W        W12284  11.091   1.339   3.963  0.1908  0.2263  0.0260
10135W        W12285  18.153   1.218  20.211 -0.3483  0.0675 -0.2409
10136W        W12286   2.732   6.380  42.978 -0.2482  0.0581  0.3540
10137W        W12287  15.897   0.059  38.622 -0.2458  0.2763  0.3347
10138W        W12288   6.428   3.567  30.201 -0.0149  0.0033 -0.3579
10139W        W12289  14.223   5.064  20.330 -0.1841  0.1138 -0.0159
10140W        W12290   2.928   6.070  34.319  0.4782 -0.0702 -0.3316
10141W        W12291   2.594   0.879  15.031  0.3353 -0.0630  0.0298
10142W        W12292   3.698   4.850  14.268  0.1767 -0.0681  0.0012
10143W        W12293  10.919   6.182  33.357  0.0543 -0.0911 -0.2800
10144W        W12294  20.490   2.044   3.311 -0.0008 -0.2967  0.0314
10145W        W12295  15.085   4.884  39.723  0.1790 -0.4015  0.1437
10146W        W12296   9.637   2.759  17.765 -0.0138 -0.0978 -0.1127
10147W        W12297   1.021   6.387   6.928 -0.1651  0.0801 -0.0670
10148W        W12298  19.198   0.241  42.020 -0.0224  0.1613 -0.3677
10149W        W12299  16.706   3.254  41.138  0.2894 -0.2572  0.2196
10150W        W12300   7.528   1.188  10.098 -0.0488 -0.1192 -0.0500
10151W        W12301   4.809   6.272  26.183  0.0436  0.2416 -0.1331
10152W        W12302  15.593   0.703   9.950  0.2324  0.1499 -0.3180
10153W        W12303   6.139   0.769  21.590  0.0088 -0.0929 -0.1901
10154W        W12304  17.082   6.564   4.057 -0.3399  0.0946  0.0133
10155W        W12305   7.920   1.914  30.562  0.0257  0.1625 -0.1103
10156W        W12306  18.716   5.632  36.439  0.0421 -0.0314 -0.0555
10157W        W12307  19.824   1.470  29.255 -0.0281  0.1361  0.1522
10158W        W12308   4.261   4.525  36.366  0.0281 -0.1984  0.0920
10159W        W12309  19.490   5.164  10.948 -0.3434  0.0215 -0.1040
10160W        W12310  11.106   2.508  29.644  0.0617 -0.2802  0.0504
10161W        W12311   1.927   0.584  33.759  0.1989  0.0364 -0.1381
10162W        W12312  15.601   1.844   0.652 -0.1481  0.2816  0.1123
10163W        W12313   6.760   1.361  42.120  0.1665 -0.0828 -0.0677
10164W        W12314   4.116   5.001  40.866 -0.2496 -0.0086 -0.0469
10165W        W12315   5.373   0.370  31.144 -0.1253 -0.0058  0.3914
10166W        W12316  18.675   5.844  16.053 -0.0564 -0.3051 -0.1978
10167W        W12317  19.423   4.945  40.437  0.0351  0.1790  0.3359
10168W        W12318   7.042   5.904   7.292 -0.1330 -0.0487 -0.0427
10169W        W12319   2.485   3.770  26.883  0.1405  0.2615  0.1274
10170W        W12320  20.976   0.109  28.541  0.0258 -0.0308  0.3066
10171W        W12321  14.126   1.373  13.697  0.4580 -0.0055  0.2346
10172W        W12322   0.163   2.197  30.621  0.0246  0.0303  0.0054
10173W        W12323   9.606   2.782  39.931  0.0949 -0.3040 -0.1145
10174W        W12324  19.754   5.263  33.926 -0.1292 -0.2770  0.2323
10175W        W12325   4.232   0.907  27.235  0.0988  0.0964 -0.3238
10176W        W12326  13.560   4.204   0.636  0.0339  0.2390 -0.1008
10177W        W12327  11.896   6.038   0.975  0.1295  0.3941  0.2375
10178W        W12328  17.528   4.370  41.792 -0.0798  0.1293 -0.0776
10179W        W12329   5.408   3.639  33.060  0.1905  0.0752 -0.0037
10180W        W12330  11.520   2.036  18.943 -0.0041 -0.6089 -0.0373
10181W        W12331   8.704   1.237  10.782  0.1599  0.0762 -0.0094
10182W        W12332  15.265   4.857   0.055  0.4956 -0.4374 -0.0709
10183W        W12333  19.698   2.006  35.247  0.0041 -0.1086  0.3328
10184W        W12334  15.430   2.457  12.344 -0.2215  0.0270 -0.0649
10185W        W12335  20.926   4.297  43.804 -0.4295 -0.0756  0.0963
10186W        W12336   0.512   3.563  11.138  0.0721  0.1735 -0.0636
10187W        W12337  13.822   0.596   3.809  0.0529  0.1087 -0.2950
10188W        W12338  10.529   0.153   0.501 -0.1625  0.0731  0.1022
10189W        W12339   2.825   0.332   9.658  0.0568  0.0007 -0.0897
10190W        W12340   1.260   2.509  13.211 -0.1434 -0.3604  0.2953
10191W        W12341   7.250   1.980  30.279 -0.1483  0.0785 -0.1924
10192W        W12342  14.612   0.223  37.241  0.0779  0.2479 -0.1315
10193W        W12343  14.519   6.426  42.666  0.0613  0.2087  0.2707
10194W        W12344  16.508   5.529   7.049 -0.0079  0.2284  0.1302
10195W        W12345  15.429   0.332  17.483 -0.3048 -0.1204  0.0322
10196W        W12346   2.938   5.140   0.605  0.0815 -0.0190  0.0573
10197W        W12347  19.096   5.204  14.461  0.0613  0.2833 -0.0668
10198W        W12348   4.178   5.806  37.233  0.1395 -0.2338  0.1281
10199W        W12349  10.439   4.006  33.382 -0.0568 -0.1028 -0.1294
10200W        W12350  13.207   1.168  37.669  0.0729 -0.2301 -0.0262
10201W        W12351  18.513   5.642  39.363  0.0534 -0.1108 -0.2648
10202W        W12352  16.803   2.835  24.906  0.0504 -0.4681 -0.1698
10203W        W12353   7.630   3.066  37.117  0.0152 -0.3180  0.0380
10204W        W12354   5.654   3.891  29.384 -0.0086 -0.1152 -0.0337
10205W        W12355  17.064   0.665  29.846 -0.0162 -0.1066  0.2729
10206W        W12356  20.670   3.323  34.292  0.0308  0.2133 -0.0322
10207W        W12357  20.695   4.753  43.766 -0.0748 -0.0513 -0.0866
10208W        W12358   6.781   0.186  44.757  0.3220 -0.0064 -0.0844
10209W        W12359   2.275   4.398   1.319 -0.3518 -0.1241  0.1953
10210W        W12360   6.543   0.617   5.577 -0.1243 -0.1487  0.1221
10211W        W12361  17.384   1.482   0.284 -0.0636  0.0534 -0.1285
10212W        W12362  11.555   1.352  36.110 -0.0139 -0.0752 -0.1785
10213W        W12363   8.947   6.242  33.420  0.0376 -0.1129 -0.2353
10214W        W12364  17.966   1.295  15.882  0.4092  0.2135  0.1324
10215W        W12365   3.185   6.418  24.666 -0.1069 -0.2052 -0.1789
10216W        W12366  14.336   3.840  16.987  0.0438  0.3309 -0.0649
10217W        W12367   9.197   2.744  45.109  0.2228  0.0080 -0.1270
10218W        W12368   3.719   1.260  28.885 -0.0461  0.1402 -0.1722
10219W        W12369   5.218   4.531   8.440  0.0963  0.1390 -0.0304
10220W        W12370   8.454   2.836  42.489 -0.0346 -0.1372 -0.1758
10221W        W12371  14.974   0.575   2.497  0.2349  0.1574  0.4127
10222W        W12372  11.338   1.643   1.408 -0.0562  0.0364 -0.0895
10223W        W12373   6.056   5.059  34.360 -0.0707 -0.0966  0.0477
10224W        W12374   8.692   1.056   1.452 -0.1821 -0.0055  0.0488
10225W        W12375  14.492   5.741  31.785  0.0345  0.3514 -0.0116
10226W        W12376  18.223   0.885  33.057  0.0551 -0.3359  0.0214
10227W        W12377  15.752   4.334  18.112  0.0765  0.2882  0.1795
10228W        W12378   1.683   4.382  30.689  0.0090 -0.0813 -0.1336
10229W        W12379   2.094   4.158  36.298 -0.3054 -0.0442 -0.0770
10230W        W12380   7.590   6.322  29.406  0.1681  0.0151 -0.2987
10231W        W12381   5.971   6.088  31.770  0.0025 -0.2245 -0.1339
10232W        W12382   5.630   4.842  35.523  0.0530  0.0180 -0.0719
10233W        W12383   5.333   1.285  40.368  0.0413 -0.1571  0.0834
10234W        W12384  10.819   5.466  44.523 -0.0679  0.1434 -0.2456
10235W        W12385   3.247   0.648  11.234 -0.1540 -0.1933  0.0608
10236W        W12386  14.208   1.009  29.714 -0.1433  0.3370 -0.1962
10237W        W12387   8.358   5.205  39.251 -0.0092 -0.1054 -0.1757
10238W        W12388  17.579   5.114   4.766  0.1364 -0.0735 -0.2928
10239W        W12389   9.034   5.467   1.966  0.2766  0.0612  0.2921
10240W        W12390  11.018   5.098   9.544 -0.4296 -0.3125 -0.0906
10241W        W12391   9.636   2.890  41.024  0.0723 -0.0301 -0.0001
10242W        W12392  10.702   6.164  12.361 -0.1394 -0.1481 -0.0047
10243W        W12393   7.135   6.175   8.914 -0.1750 -0.1041  0.0075
10244W        W12394  14.935   4.328   5.876 -0.2060 -0.2026  0.3673
10245W        W12395  15.281   0.481  37.663 -0.1114 -0.4125  0.1309
10246W        W12396  15.906   3.792  13.672  0.1621 -0.2372 -0.1029
10247W        W12397  15.024   5.536   5.376 -0.3937  0.1272 -0.0158
10248W        W12398   7.056   4.688  21.491  0.3067  0.0410 -0.0522
10249W        W12399  18.145   6.411  41.895  0.1193  0.1135 -0.0819
10250W        W12400  15.814   5.858  31.339  0.2854  0.0172 -0.3059
10251W        W12401  19.987   6.599   5.227  0.2301  0.0249  0.0062
10252W        W12402   0.040   6.516  39.987  0.1356 -0.1864  0.2322
10253W        W12403   6.926   6.194  14.830 -0.0019  0.1558  0.0775
10254W        W12404  16.618   1.220  13.163 -0.1451 -0.0381  0.0212
10255W        W12405  18.919   5.750   1.941 -0.0266  0.3535 -0.1613
10256W        W12406   8.718   1.754  39.898  0.0989 -0.0901 -0.2618
10257W        W12407   5.810   2.049   8.267  0.2151 -0.1896  0.2508
10258W        W12408  16.661   1.249  11.801  0.1477 -0.0681 -0.0935
10259W        W12409  11.034   1.246  27.826 -0.3784  0.0138  0.1585
10260W        W12410  12.738   4.818  14.622 -0.0356  0.0477 -0.1749
10261W        W12411   8.890   6.590  31.920 -0.0963  0.1228 -0.1380
10262W        W12412  11.360   5.602  42.120 -0.0650  0.0057  0.0930
10263W        W12413  11.911   6.546  27.609  0.0887 -0.0881  0.1773
10264W        W12414  19.560   2.849  35.465  0.1905 -0.0355 -0.1103
10265W        W12415   6.204   4.951   8.116  0.3042 -0.0505 -0.2066
10266W        W12416  16.677   5.637   3.902  0.1614  0.0842  0.1666
10267W        W12417   3.173   3.239  14.744 -0.1171 -0.0926 -0.2497
10268W        W12418   3.367   3.449   8.579 -0.4353  0.2135  0.1841
10269W        W12419  15.912   0.310  30.034  0.1078  0.0173  0.0035
10270W        W12420   1.046   1.217   1.840  0.3490  0.1353 -0.4151
10271W        W12421  15.403   0.324  19.894  0.1177 -0.2129 -0.3523
10272W        W12422   1.007   4.506  27.642  0.2972 -0.0123 -0.0159
10273W        W12423   6.839   0.638   0.403 -0.0735 -0.0105  0.0153
10274W        W12424  10.606   3.953   4.644 -0.0268  0.0981 -0.0609
10275W        W12425  14.474   6.411  22.983 -0.2300  0.0644 -0.0711
10276W        W12426   6.262   2.693  37.412  0.2236 -0.2729 -0.2302
10277W        W12427  15.712   4.241   3.665  0.0673 -0.0365 -0.0854
10278W        W12428   4.678   6.261  39.866  0.2364 -0.0003  0.0544
10279W        W12429   3.200   5.696   7.844 -0.0665 -0.1370  0.1888
10280W        W12430  13.757   1.295  12.462 -0.0524 -0.0224 -0.0601
10281W        W12431  10.668   4.232  42.868 -0.1565 -0.2026 -0.1081
10282W        W12432   7.827   5.005  27.739 -0.1061 -0.0526  0.3325
10283W        W12433  19.485   1.478  14.583 -0.0874 -0.0966  0.0960
10284W        W12434  19.778   4.306   2.647 -0.2403 -0.1254 -0.3180
10285W        W12435   2.753   3.505   1.254  0.0672  0.1096  0.1924
10286W        W12436   4.405   2.227   3.933 -0.1642  0.0188 -0.2491
10287W        W12437   8.936   0.168   7.502  0.0332  0.2856 -0.1988
10288W        W12438  16.385   0.898   1.305  0.3490  0.2331  0.0414
10289W        W12439  15.175   1.717   2.992  0.3029 -0.0925 -0.2158
10290W        W12440  13.468   0.369  20.337 -0.3880 -0.0983 -0.1842
10291W        W12441   0.403   4.055  12.216  0.3108  0.0299  0.0714
10292W        W12442   9.128   2.207  39.596  0.0283 -0.0112  0.0644
10293W        W12443   4.586   5.526  11.034  0.0037 -0.0933 -0.0429
10294W        W12444  18.075   0.535  17.208 -0.0170  0.2531 -0.1201
10295W        W12445  18.289   5.305  36.334  0.1997 -0.0502 -0.0079
10296W        W12446  15.280   6.104  37.026  0.1254  0.1137  0.1608
10297W        W12447   1.524   3.812  15.757 -0.0424 -0.0601 -0.0191
10298W        W12448  20.335   4.421  40.382  0.1140  0.3637 -0.1218
10299W        W12449  13.144   3.476  12.066 -0.1496  0.2478 -0.1734
10300W        W12450   7.063   2.855   4.090  0.0646 -0.3515  0.0547
10301W        W12451   5.161   4.072   3.218 -0.2041 -0.1664  0.2382
10302W        W12452   9.117   1.574   8.468  0.0998 -0.1062  0.1644
10303W        W12453  20.770   5.455   9.465  0.0609 -0.1757 -0.0270
10304W        W12454  14.678   3.970  38.457 -0.1498 -0.1721 -0.1270
10305W        W12455   0.012   4.815  11.278  0.0293  0.0639 -0.1463
10306W        W12456   7.470   5.235  35.836  0.0612 -0.0200 -0.1882
10307W        W12457   8.749   2.286  34.448 -0.2439  0.1495 -0.3620
10308W        W12458   0.548   1.744  43.509 -0.0062 -0.0950  0.1061
10309W        W12459   2.008   2.540  42.300  0.1998 -0.3152 -0.1034
10310W        W12460  18.563   4.315   7.641  0.2667 -0.0611 -0.1278
10311W        W12461  11.596   6.305  44.311  0.2142  0.0389 -0.1354
10312W        W12462  11.943   3.498  41.531 -0.1147  0.1354 -0.0211
10313W        W12463   9.205   1.569  11.462 -0.1359 -0.0865  0.4030
10314W        W12464  18.233   4.006  34.557 -0.1625  0.2330 -0.1629
10315W        W12465  17.760   4.510  30.528  0.0474  0.0648 -0.0374
10316W        W12466   5.157   3.707  26.894  0.3637 -0.0276 -0.0856
10317W        W12467   2.536   0.803   7.024 -0.1606  0.1073  0.0102
10318W        W12468  14.760   3.544   2.182  0.1156 -0.2515 -0.0459
10319W        W12469   3.157   6.577  38.955  0.0678 -0.1487  0.2215
10320W        W12470   8.608   0.424  35.261  0.0294 -0.4007  0.0922
10321W        W12471  11.044   3.975  41.190 -0.0699  0.0460 -0.1065
10322W        W12472   8.519   2.378  43.453  0.0186  0.0735 -0.0037
10323W        W12473   9.483   0.439  29.710  0.1415  0.5005 -0.1172
10324W        W12474  10.848   4.615  10.228 -0.0193 -0.4319 -0.0639
10325W        W12475   4.506   5.474  43.158  0.0770 -0.1784 -0.3297
10326W        W12476   2.494   2.389  31.000 -0.1439 -0.0449  0.1276
10327W        W12477  10.721   5.581  42.771 -0.0187 -0.1788  0.3157
10328W        W12478   9.432   3.171   6.050  0.0838 -0.2646  0.0131
10329W        W12479   9.288   2.594  23.404 -0.0978 -0.0208  0.3051
10330W        W12480   7.471   4.681  32.491  0.0234  0.1368 -0.0330
10331W        W12481  18.545   5.066  20.891  0.1683 -0.3159 -0.0844
10332W        W12482  12.343   5.091  10.014 -0.2340  0.0024 -0.0671
10333W        W12483  15.469   0.829   5.959  0.1614 -0.1704  0.2033
10334W        W12484   7.459   1.078  26.626 -0.3300 -0.0902  0.2889
10335W        W12485   0.428   3.617  39.229 -0.0680 -0.2310  0.0861
10336W        W12486  15.766   3.718  17.997  0.2164  0.1597 -0.3656
10337W        W12487   6.553   6.481  14.702 -0.1333  0.2223  0.4471
10338W        W12488  18.686   1.330  35.461 -0.0347  0.1797  0.0437
10339W        W12489  12.162   1.548  15.013  0.0022  0.2046 -0.0598
10340W        W12490  17.928   0.273  34.805 -0.1578 -0.0275 -0.0658
10341W        W12491  20.299   4.451  10.059  0.2211 -0.3507 -0.0881
10342W        W12492  12.339   5.912  29.333 -0.0154  0.0413  0.0476
10343W        W12493   7.470   5.521   6.525  0.2659  0.0891 -0.1347
10344W        W12494  13.864   2.644  11.585 -0.0535  0.1168  0.0517
10345W        W12495  10.238   0.836  41.908  0.3049 -0.1005  0.2919
10346W        W12496   2.444   2.110  37.058  0.1175  0.4018  0.2280
10347W        W12497  10.834   3.490  14.542 -0.1642  0.0944  0.1878
10348W        W12498  12.100   6.250  28.132  0.1544  0.3970 -0.0016
10349W        W12499   8.375   1.031  43.777  0.2483 -0.2113 -0.0412
10350W        W12500  15.979   3.251  40.474  0.1637  0.1014 -0.3024
10351W        W12501  19.581   3.313   9.771  0.0491  0.1091 -0.0917
10352W        W12502   0.038   2.553  29.981 -0.0879  0.1305 -0.0751
10353W        W12503   8.750   0.729  10.708 -0.0807  0.0715  0.0426
10354W        W12504   6.357   1.680  32.882  0.0287  0.1937  0.1323
10355W        W12505  20.319   4.704   7.515  0.1663 -0.0045 -0.0880
10356W        W12506   2.104   1.372  15.918  0.0986 -0.1937 -0.2268
10357W        W12507   1.871   0.483  30.562 -0.0730  0.1491 -0.3570
10358W        W12508   2.799   3.777  42.084  0.2494 -0.1261  0.0662
10359W        W12509  17.400   0.830  16.288 -0.2156 -0.1184  0.0325
10360W        W12510  12.373   4.751  19.231  0.0165 -0.2632  0.2951
10361W        W12511  12.469   2.840  28.697 -0.1632  0.3799  0.0802
10362W        W12512   2.149   0.280  43.735  0.2136  0.3928  0.1390
10363W        W12513  12.727   4.012  40.921  0.0590  0.0654  0.0093
10364W        W12514  17.054   1.608  35.839  0.0068  0.0907 -0.0878
10365W        W12515   2.518   3.873  36.329 -0.1605  0.1182  0.0679
10366W        W12516  19.132   2.666  32.835 -0.0254  0.0589 -0.0524
10367W        W12517  14.335   1.837  42.152  0.1558  0.0642 -0.0600
10368W        W12518  18.237   5.031  10.067 -0.3066 -0.0496 -0.1615
10369W        W12519   3.900   5.384  44.958  0.0208  0.0647  0.3741
10370W        W12520   5.624   3.278  26.565  0.0191  0.0779  0.1609
10371W        W12521  10.513   4.239  25.883 -0.1154  0.3150 -0.1176
10372W        W12522   0.378   3.819  34.948 -0.1154 -0.0106 -0.1010
10373W        W12523   6.680   6.001  21.896 -0.5082  0.0652 -0.4932
10374W        W12524  11.111   4.966  16.277 -0.2409 -0.2419 -0.1237
10375W        W12525   8.041   0.207  37.941  0.1795  0.2064  0.1020
10376W        W12526  14.679   3.944   8.932  0.0995  0.3736  0.3397
10377W        W12527  10.406   0.028  16.982 -0.0108 -0.1491 -0.3658
10378W        W12528  21.015   1.271  38.636 -0.0097  0.2395 -0.0624
10379W        W12529  16.416   2.563  34.597  0.1242 -0.3255 -0.3493
10380W        W12530   3.921   0.927  23.145 -0.2600  0.0639  0.2569
10381W        W12531   8.319   5.051   2.702  0.3308 -0.0002 -0.3419
10382W        W12532   7.535   2.009  40.166 -0.1693 -0.0697  0.2486
10383W        W12533   3.000   1.598   1.336 -0.2440 -0.0490  0.0568
10384W        W12534   8.790   2.773  16.516 -0.0557  0.0196  0.1289
10385W        W12535  14.250   6.301  32.362  0.2120  0.0440  0.3175
10386W        W12536  13.232   3.860  30.746  0.3432  0.0956  0.0289
10387W        W12537  19.818   4.214  16.230  0.1188 -0.0277  0.2233
10388W        W12538   9.553   0.618  40.308  0.0708  0.2278  0.1054
10389W        W12539   3.001   5.441  28.134  0.0274 -0.1667  0.3268
10390W        W12540  17.483   5.664  22.791 -0.0420 -0.0143 -0.0043
10391W        W12541  19.637   4.688  11.556 -0.2621 -0.0167 -0.0397
10392W        W12542  19.152   2.282  43.229  0.2623 -0.0896 -0.0890
10393W        W12543  20.241   4.173   7.340 -0.2168 -0.0920  0.1844
10394W        W12544  19.659   3.943  36.416  0.1268 -0.0626 -0.0200
10395W        W12545  20.160   2.545   2.291 -0.2165 -0.1777 -0.0345
10396W        W12546   6.914   1.543  24.561  0.1707  0.0199 -0.0873
10397W        W12547   2.749   3.652  10.899  0.0487  0.0370 -0.2686
10398W        W12548   0.348   1.138  13.975  0.0190  0.2423  0.0494
10399W        W12549   1.096   4.329  39.084 -0.2070 -0.1679  0.2543
10400W        W12550   0.878   4.203  14.972  0.0409 -0.3627  0.0702
10401W        W12551   4.357   3.750  21.680  0.1438 -0.1956 -0.0756
10402W        W12552  14.234   1.550  38.255  0.0572  0.2008  0.0121
10403W        W12553  10.772   0.909  32.953 -0.0702 -0.1677 -0.0455
10404W        W12554  20.889   1.518  17.751 -0.1640 -0.1874 -0.2109
10405W        W12555  16.548   5.476   8.043  0.0518  0.0990 -0.0549
10406W        W12556  19.946   6.399   9.760  0.0622  0.3224 -0.0398
10407W        W12557   4.804   0.241  30.311 -0.1268  0.2129 -0.3315
10408W        W12558   5.890   3.008   1.198  0.1317 -0.0737  0.2474
10409W        W12559   2.726   1.101   4.914 -0.2658  0.0953 -0.0450
10410W        W12560   1.340   2.712  34.871  0.0342  0.0492 -0.0886
10411W        W12561   3.834   4.298  42.267  0.1194  0.3943  0.2036
10412W        W12562  16.181   6.210  20.844 -0.0469 -0.4725 -0.4241
10413W        W12563   4.682   1.981   2.120  0.0012 -0.0923  0.0704
10414W        W12564   8.870   5.778  25.689  0.0140 -0.0069 -0.0572
10415W        W12565  14.783   1.271  21.862 -0.3584 -0.2217 -0.2114
10416W        W12566  18.417   5.992  28.912 -0.3263 -0.1601  0.3053
10417W        W12567   1.614   1.215  32.066  0.1129 -0.2183  0.2379
10418W        W12568   6.217   4.573  15.694  0.3191 -0.0225 -0.3746
10419W        W12569  16.729   4.517  14.349  0.1125  0.1569 -0.0284
10420W        W12570  15.031   2.871   8.170  0.0537  0.1045 -0.0900
10421W        W12571  11.954   5.005   1.799  0.1785  0.2924 -0.0737
10422W        W12572   5.950   5.177  32.477 -0.3189 -0.2784  0.0707
10423W        W12573  15.866   3.894  10.803  0.1982  0.0782 -0.0894
10424W        W12574  17.330   5.793  33.439 -0.2038  0.1588 -0.0311
10425W        W12575   1.012   2.276  14.797  0.2688  0.2652 -0.1357
10426W        W12576  20.408   4.426  31.586  0.0516 -0.0010  0.0320
10427W        W12577   4.011   3.421  40.132  0.2766  0.2611  0.2326
10428W        W12578   1.773   2.362  29.413 -0.0178  0.0219  0.1144
10429W        W12579  12.496   5.094   1.856 -0.1951 -0.2752 -0.0725
10430W        W12580   2.070   6.298  42.255 -0.3792  0.0873 -0.1583
10431W        W12581   2.010   6.270   2.421 -0.0424  0.2661 -0.1520
10432W        W12582   1.798   2.567  43.901  0.1129  0.0038  0.2834
10433W        W12583   6.362   6.576  22.854  0.0507  0.0645 -0.0242
10434W        W12584  15.063   3.122  13.303 -0.1132 -0.0451  0.1968
10435W        W12585  15.510   0.208  18.168  0.0414  0.1599 -0.2999
10436W        W12586   8.488   0.701  32.225  0.0865 -0.0295 -0.0719
10437W        W12587  18.287   4.424  23.003 -0.2537  0.1756 -0.1472
10438W        W12588  14.562   3.326  35.277  0.1419  0.3846 -0.1118
10439W        W12589  19.702   3.079   8.304 -0.1998 -0.1540  0.1490
10440W        W12590  11.994   2.760  12.169  0.0907 -0.1461 -0.2621
10441W        W12591  15.355   3.612  36.161 -0.2023 -0.1747 -0.1593
10442W        W12592  20.193   4.034   2.612 -0.2012 -0.0754  0.1415
10443W        W12593  11.603   2.784  31.825  0.1488 -0.1260 -0.0024
10444W        W12594   0.305   4.263  44.201 -0.1818 -0.0234 -0.0509
10445W        W12595   9.655   4.792  28.359 -0.1123  0.0451 -0.2268
10446W        W12596   8.581   5.630  29.559  0.1744  0.0114  0.0918
10447W        W12597  15.698   3.590   5.522  0.2888 -0.1932  0.1465
10448W        W12598   9.627   5.005  14.585 -0.2448  0.1057 -0.0771
10449W        W12599  19.728   0.455  36.891  0.2455 -0.0442 -0.2646
10450W        W12600   6.355   4.443  29.908  0.1130  0.2451 -0.0715
10451W        W12601  14.921   6.435  32.300 -0.0176  0.2244  0.1446
10452W        W12602   3.406   0.503  29.911  0.1148 -0.0288 -0.0468
10453W        W12603   2.442   4.047   4.587  0.0878 -0.1554  0.4296
10454W        W12604  16.816   6.090  31.629 -0.3254 -0.0389 -0.3603
10455W        W12605   5.861   3.978  28.359  0.1428  0.0137  0.0423
10456W        W12606  11.927   5.110  31.415 -0.1444  0.0848  0.2544
10457W        W12607  19.606   3.141   0.673 -0.1051 -0.0623  0.3001
10458W        W12608   0.441   1.972  28.775 -0.0632 -0.1347 -0.1118
10459W        W12609   0.042   4.264  44.723 -0.0409 -0.0146  0.2334
10460W        W12610  15.099   5.636  16.921  0.4236  0.0250  0.1217
10461W        W12611   4.252   4.944  41.829 -0.0668  0.0823  0.3092
10462W        W12612   8.752   2.670  14.810  0.0014  0.1959  0.0489
10463W        W12613   2.269   2.384   9.702  0.0708 -0.0682  0.1846
10464W        W12614   7.388   2.156  42.770 -0.0593  0.1071  0.2102
10465W        W12615  10.766   5.099  10.399  0.1786  0.1680 -0.0104
10466W        W12616   6.495   5.348  15.444  0.2111  0.1568 -0.3370
10467W        W12617   7.862   3.551   6.240 -0.3740  0.2079  0.0879
10468W        W12618  12.120   3.629  14.472 -0.1342  0.2560  0.0568
10469W        W12619   1.389   0.397  10.894  0.0082 -0.0940 -0.2726
10470W        W12620  11.414   3.072   8.698 -0.1069 -0.1544  0.0659
10471W        W12621   6.588   2.377   6.585  0.1482 -0.0187  0.1340
10472W        W12622   6.255   2.200   1.819 -0.0099  0.1103  0.3522
10473W        W12623   5.810   1.144   9.296 -0.0360  0.2094 -0.0120
10474W        W12624  12.055   2.013  14.580 -0.2762 -0.0988  0.0813
10475W        W12625  15.234   3.217  12.800  0.0745  0.0279  0.0498
10476W        W12626   2.314   4.505  38.170 -0.1960  0.0189  0.0361
10477W        W12627   3.523   0.906   8.010 -0.1179 -0.0558  0.2307
10478W        W12628  17.675   0.064  14.571 -0.0101  0.1523 -0.1463
10479W        W12629  17.366   5.672  17.326 -0.0151 -0.2417 -0.1059
10480W        W12630  20.810   5.078  35.817 -0.0375  0.4130  0.0687
10481W        W12631  11.540   1.502  18.890 -0.1770 -0.0710 -0.0164
10482W        W12632  16.580   4.275  10.693 -0.1136 -0.1467  0.1854
10483W        W12633   7.334   0.748   8.486 -0.0205 -0.1777 -0.1195
10484W        W12634  18.714   1.200  43.125 -0.1577  0.2537  0.0808
10485W        W12635  17.358   6.352  35.593  0.2412 -0.0430 -0.0963
10486W        W12636   4.584   4.299  28.651 -0.0332 -0.3023  0.2640
10487W        W12637   2.011   6.554  30.637 -0.0758 -0.0961  0.0516
10488W        W12638   2.170   1.620  28.348  0.0492 -0.0938  0.2077
10489W        W12639  11.141   5.577  35.791 -0.0891  0.0442 -0.1214
10490W        W12640   7.341   6.420  31.359  0.2673 -0.1389  0.1266
10491W        W12641   1.359   4.653  40.912  0.1008  0.1475 -0.1634
10492W        W12642  10.193   4.551  37.503  0.0807  0.1478 -0.2684
10493W        W12643  11.283   6.056  39.257 -0.0311 -0.5396  0.0022
10494W        W12644   8.985   0.444   9.553 -0.1707 -0.1087  0.0637
10495W        W12645   7.015   3.911  26.488 -0.0238  0.0090 -0.3054
10496W        W12646  19.796   2.831   7.168 -0.0373  0.0817 -0.3432
10497W        W12647  18.542   1.384  30.884  0.0439 -0.2941 -0.1721
10498W        W12648  14.573   1.253   2.001 -0.0881 -0.3177  0.2531
10499W        W12649   9.276   2.439  42.167 -0.1555 -0.0062  0.2968
10500W        W12650  12.559   2.601   7.266 -0.0365  0.0730  0.2097
10501W        W12651   1.807   1.847   1.883 -0.0650  0.1714  0.1428
10502W        W12652   4.247   4.084   1.707 -0.0839  0.0541  0.2189
10503W        W12653  17.144   1.482  23.796 -0.1006  0.0844 -0.2382
10504W        W12654   2.217   0.274  38.791  0.0003  0.1126  0.3977
10505W        W12655   0.270   3.050   4.589 -0.1319  0.1817 -0.0929
10506W        W12656   1.126   1.464  15.136  0.1310 -0.0420  0.1681
10507W        W12657  17.073   4.490  12.996 -0.0721 -0.0484  0.0296
10508W        W12658   9.694   4.519  31.896 -0.3100  0.0400  0.0022
10509W        W12659  14.293   2.761   3.785  0.0461  0.2585 -0.1304
10510W        W12660  10.798   0.913   6.602  0.1745  0.0373  0.1391
10511W        W12661   9.599   2.809  38.091 -0.2101  0.0104 -0.0441
10512W        W12662   9.116   5.192   4.745 -0.2682 -0.2676  0.2882
10513W        W12663  18.887   3.666  22.833  0.0144 -0.1525  0.3303
10514W        W12664  19.207   5.378   4.094  0.0088 -0.0963  0.1389
10515W        W12665   0.324   2.629   1.413 -0.1176 -0.1455 -0.0576
10516W        W12666   4.730   1.082   7.506  0.1406  0.0020 -0.0757
10517W        W12667   4.071   3.467  15.580  0.0198  0.0348 -0.1463
10518W        W12668   7.508   3.545  41.920 -0.1944  0.0491 -0.2829
10519W        W12669  14.847   0.038  35.139 -0.2067  0.0651  0.1179
10520W        W12670  19.786   5.802  40.084  0.1992  0.1574  0.0389
10521W        W12671   1.022   5.150  40.772  0.1485 -0.2676  0.2610
10522W        W12672   0.279   1.915  11.442 -0.2925 -0.3590  0.0672
10523W        W12673   6.903   6.414  41.769  0.2168 -0.0167 -0.0505
10524W        W12674   7.576   2.661   4.036 -0.1068  0.0459  0.1119
10525W        W12675   0.825   3.766  28.009  0.0116  0.0525 -0.1844
10526W        W12676   0.858   3.706  27.556 -0.0549  0.4936 -0.1936
10527W        W12677  20.215   2.834  41.043 -0.0350  0.0700 -0.2017
10528W        W12678  20.503   2.072  38.210  0.0077 -0.0179  0.0455
10529W        W12679   6.113   0.602  27.293 -0.1355 -0.1060 -0.0997
10530W        W12680   2.546   0.517  43.356  0.1205 -0.0710 -0.0624
10531W        W12681   7.955   3.889  30.658 -0.0097 -0.0011 -0.0284
10532W        W12682   5.497   6.603  40.380  0.0376  0.2674  0.3268
10533W        W12683  12.014   4.257   1.316 -0.1961  0.2332  0.0082
10534W        W12684   8.006   5.578  27.849  0.2764  0.1246 -0.1459
10535W        W12685   3.510   2.047  11.622 -0.1045 -0.1641 -0.3241
10536W        W12686   8.583   3.459   2.922  0.4024  0.0816 -0.0810
10537W        W12687   5.243   2.259  16.178 -0.0915  0.0716 -0.0029
10538W        W12688  19.859   0.633  32.528  0.0794 -0.1132 -0.1391
10539W        W12689   0.393   6.349   1.875 -0.0641 -0.1240 -0.2481
10540W        W12690  17.027   0.186   3.249  0.2745  0.0640 -0.2668
10541W        W12691  13.474   5.955  11.255 -0.0339 -0.0858  0.0325
10542W        W12692   2.784   5.595  24.317 -0.0255  0.2659 -0.1108
10543W        W12693  11.962   4.401  36.327  0.1150 -0.0596  0.1083
10544W        W12694  19.787   2.719   9.684  0.1171 -0.0964  0.1133
10545W        W12695   1.151   2.647  30.319 -0.2459 -0.2610  0.0957
10546W        W12696   7.106   2.781  33.603  0.0878  0.0339  0.0640
10547W        W12697   6.648   1.042  38.410  0.1287 -0.0174 -0.1510
10548W        W12698  14.756   6.544  16.081 -0.0434 -0.2461 -0.0334
10549W        W12699   8.819   5.429  40.647 -0.1701 -0.1204 -0.1142
10550W        W12700   3.394   5.219  40.559  0.0747 -0.0177  0.2131
10551W        W12701   1.433   3.083  42.144  0.1482 -0.0723 -0.0783
10552W        W12702   2.685   1.963  28.450  0.0059 -0.0018 -0.2462
10553W        W12703  20.285   0.401  43.226  0.0018 -0.0996  0.3439
10554W        W12704   8.444   1.344  44.208 -0.0516 -0.3397 -0.3041
10555W        W12705   3.698   3.508  23.009 -0.0530 -0.1283 -0.1577
10556W        W12706   2.138   4.981  12.561 -0.0986  0.0306  0.0566
10557W        W12707  19.023   5.488   3.062  0.0394  0.1271 -0.1441
10558W        W12708   3.126   2.111   3.610 -0.1056  0.1693 -0.1331
10559W        W12709  11.518   3.023  30.503 -0.1536 -0.2453 -0.0419
10560W        W12710   4.083   5.483  10.981  0.0624  0.0590 -0.3340
10561W        W12711   9.566   3.673   8.798 -0.0427  0.2876 -0.0590
10562W        W12712   5.017   6.043  10.550 -0.0907  0.1288 -0.1258
10563W        W12713   0.434   5.095  28.418  0.1303 -0.1573 -0.0931
10564W        W12714  20.470   4.303  30.687 -0.0040 -0.0981 -0.1796
10565W        W12715  15.872   3.139   4.107  0.0843 -0.1443  0.1297
10566W        W12716  20.422   5.806   4.932 -0.1242 -0.3448 -0.1512
10567W        W12717   8.588   0.032   2.752 -0.0764 -0.1427  0.0882
10568W        W12718  13.726   6.069  18.059 -0.0176  0.2574  0.3356
10569W        W12719  15.905   3.778  43.923 -0.2019 -0.3034  0.0034
10570W        W12720  12.275   2.448   6.630 -0.0729 -0.0215  0.1022
10571W        W12721  13.716   4.261  35.453  0.1442  0.1551  0.0575
10572W        W12722   8.395   3.434  29.983  0.1947 -0.0354  0.0266
10573W        W12723  16.730   2.276  31.300 -0.4071  0.0915 -0.0792
10574W        W12724  17.323   3.987  18.591  0.0612  0.0780 -0.1621
10575W        W12725  16.746   5.969  44.068  0.1201  0.2529 -0.1954
10576W        W12726   4.131   0.202  23.853 -0.2633 -0.2362  0.0904
10577W        W12727   8.200   3.490  24.678 -0.1416 -0.0933  0.0844
10578W        W12728   5.929   3.854  42.284 -0.1403  0.3139  0.1953
10579W        W12729  11.083   5.120   7.025 -0.0312  0.0400 -0.4709
10580W        W12730  20.475   1.678   5.377  0.1660 -0.0362  0.1219
10581W        W12731   6.633   4.712  26.838 -0.0221 -0.1586  0.1634
10582W        W12732  17.426   5.348   6.814 -0.2448 -0.5011 -0.0231
10583W        W12733  16.368   5.677  30.913 -0.2007 -0.0031  0.1015
10584W        W12734  20.453   5.958  44.204  0.0471  0.3439  0.0042
10585W        W12735  20.599   1.885   4.671 -0.0467 -0.1688  0.1119
10586W        W12736   4.832   0.979   3.910  0.0803 -0.1500 -0.0853
10587W        W12737  15.946   0.442  22.030  0.0653  0.0412  0.2526
10588W        W12738  20.664   5.932   9.347  0.1821 -0.3054  0.2165
10589W        W12739  17.379   0.525   8.334  0.0470 -0.2123  0.1539
10590W        W12740  16.096   1.170  36.802  0.4777 -0.0875 -0.0705
10591W        W12741   3.563   1.411  30.154 -0.0291  0.2865  0.1307
10592W        W12742  15.262   3.267  31.148  0.1248 -0.1415  0.1805
10593W        W12743  13.276   5.649  33.149 -0.1121 -0.1901  0.2701
10594W        W12744   8.007   6.595  15.272 -0.0731  0.4130 -0.0185
10595W        W12745  20.994   2.529  10.443 -0.1131 -0.0349  0.1280
10596W        W12746   2.397   4.033  30.285  0.0195 -0.0510  0.0180
10597W        W12747   0.854   1.402  44.032 -0.1623 -0.1460  0.2179
10598W        W12748  16.991   0.134  32.467  0.2376  0.1193 -0.0766
10599W        W12749   2.045   1.621  31.956 -0.0081 -0.1921  0.0926
10600W        W12750   3.645   2.369   2.255 -0.2153  0.1031 -0.2195
10601W        W12751   5.544   2.497  22.275  0.1521 -0.1064 -0.0630
10602W        W12752   3.637   2.220  15.379  0.0594  0.2688 -0.0074
10603W        W12753  13.725   1.300  14.027 -0.1380  0.2378  0.2831
10604W        W12754   6.780   0.966  27.777  0.1458 -0.2981 -0.3379
10605W        W12755  17.482   4.814  15.717 -0.2719 -0.1053 -0.1923
10606W        W12756  19.546   3.858   6.964  0.0253 -0.3111  0.0530
10607W        W12757  10.444   0.774  30.247  0.1968 -0.1585  0.0002
10608W        W12758  11.785   0.357  14.119  0.4472 -0.0771  0.0762
10609W        W12759   8.165   3.932  28.806  0.0854  0.1793 -0.1539
10610W        W12760  10.354   0.659   8.055  0.1648  0.1212 -0.1946
10611W        W12761  19.922   5.215   4.916  0.0739 -0.0135  0.0981
10612W        W12762  10.186   1.609   4.111  0.0368  0.0162  0.2359
10613W        W12763  16.644   2.824  21.213 -0.2423 -0.1165 -0.1938
10614W        W12764   1.409   5.233  41.746  0.0637 -0.1109  0.2441
10615W        W12765   2.815   2.556  36.335  0.0000  0.0425 -0.0590
10616W        W12766  11.274   3.529  14.886  0.1024 -0.0070  0.1076
10617W        W12767  10.156   5.738   6.068 -0.0140  0.4607 -0.2561
10618W        W12768   1.085   2.107  41.851 -0.1888  0.1740 -0.0401
10619W        W12769  20.745   0.588  43.057 -0.3382 -0.0041 -0.0464
10620W        W12770   1.342   2.035  43.875  0.3039  0.2875 -0.1295
10621W        W12771  15.866   5.180  43.818  0.0211  0.2252 -0.0377
10622W        W12772   7.048   0.225  23.980  0.3127 -0.0457  0.1509
10623W        W12773  11.092   0.267  44.798  0.0602  0.1308  0.0604
10624W        W12774   6.136   3.596  28.674  0.1147 -0.0425  0.2646
10625W        W12775  18.654   0.243   5.779 -0.1190 -0.2410 -0.1370
10626W        W12776   7.268   3.650  33.539 -0.0607 -0.1304 -0.1882
10627W        W12777   2.659   1.764  42.731  0.2093 -0.1547 -0.2910
10628W        W12778   4.270   0.656  40.867  0.3196 -0.1194 -0.1765
10629W        W12779   6.064   2.607  31.847  0.1532  0.0717  0.1138
10630W        W12780   3.061   4.996   3.609 -0.1411 -0.0727  0.1986
10631W        W12781   9.774   1.754   8.051  0.3075  0.0615 -0.0238
10632W        W12782  10.611   5.304  25.369  0.0443  0.1379 -0.1082
10633W        W12783   0.877   6.580  29.069 -0.2387  0.3034  0.0064
10634W        W12784  18.569   3.347   1.417  0.2207 -0.0687  0.0522
10635W        W12785   9.779   4.801  16.329  0.1502  0.1731  0.0385
10636W        W12786   8.495   0.725  22.748 -0.0365  0.1378  0.1053
10637W        W12787   9.793   6.345  34.892 -0.1773 -0.0253 -0.1149
10638W        W12788  14.353   4.813  21.904  0.5721  0.0835 -0.1978
10639W        W12789   9.665   1.962   6.276  0.0510  0.0220  0.0128
10640W        W12790  12.565   2.611   0.800  0.0389 -0.3004  0.1350
10641W        W12791  15.558   6.601  12.564 -0.0928  0.0366 -0.1697
10642W        W12792  15.733   1.325  20.967  0.0748  0.2190  0.1659
10643W        W12793   6.597   4.436  16.550  0.0921  0.0767 -0.0833
10644W        W12794  12.267   6.094  29.798 -0.1034 -0.0485  0.2065
10645W        W12795  20.816   2.658  32.315 -0.2796  0.0006 -0.0752
10646W        W12796   9.252   5.967   0.503 -0.2189  0.0762 -0.3665
10647W        W12797  10.278   3.820   0.582  0.1170  0.1276  0.1360
10648W        W12798   4.761   0.500  29.380  0.0740  0.0913 -0.2498
10649W        W12799   5.053   4.075  21.221 -0.0277 -0.0289 -0.2172
10650W        W12800  16.753   0.955   1.020 -0.2760 -0.0084  0.2092
10651W        W12801   8.750   2.879  44.110  0.0817 -0.2392  0.0499
10652W        W12802   7.222   1.571  12.981  0.1897 -0.1512  0.2177
10653W        W12803   3.348   3.833  40.472  0.0459  0.0553 -0.2922
10654W        W12804  13.086   1.939  45.054  0.0640 -0.1066  0.0508
10655W        W12805  11.125   0.004  27.446  0.0092 -0.0701 -0.3380
10656W        W12806  17.308   4.541  11.860  0.2700 -0.1362  0.0493
10657W        W12807   0.425   3.566  31.498  0.0527 -0.4851  0.0427
10658W        W12808  16.980   3.875  19.213 -0.2267 -0.1586  0.1549
10659W        W12809   1.029   1.315  35.401 -0.1682 -0.3279  0.0502
10660W        W12810   8.523   6.176  44.842  0.1060  0.4246 -0.1638
10661W        W12811   6.608   0.267   0.115 -0.0277  0.2823  0.3142
10662W        W12812  16.154   0.986  33.336  0.2682 -0.2281  0.2229
10663W        W12813  13.767   3.629   0.210 -0.0957  0.0755 -0.0202
10664W        W12814  16.518   4.663  22.081  0.1702 -0.4661  0.3911
10665W        W12815  11.946   5.108  32.438  0.0583 -0.0892 -0.1313
10666W        W12816   3.156   2.825  11.590  0.1288  0.0880  0.3620
10667W        W12817   9.157   1.485  39.630 -0.2186  0.0220 -0.0610
10668W        W12818  15.386   5.139  20.251  0.0253 -0.1444 -0.0649
10669W        W12819  17.345   0.880  38.970  0.1330  0.0860  0.0895
10670W        W12820  10.210   0.435  38.842 -0.1051 -0.0943  0.2425
10671W        W12821   5.952   5.335  40.420  0.1033 -0.1463 -0.1027
10672W        W12822  14.685   2.695  33.358  0.0460  0.0984  0.3009
10673W        W12823  10.487   1.125  33.980 -0.0841  0.0640 -0.1778
10674W        W12824   4.161   1.337  33.514  0.1692  0.1432  0.0877
10675W        W12825  11.926   0.578  35.645  0.3420  0.0855  0.2261
10676W        W12826  20.686   3.926   1.046  0.2682 -0.0105  0.0147
10677W        W12827   9.704   0.471  30.889  0.4005 -0.1018 -0.1552
10678W        W12828   3.727   3.789  27.594 -0.0303 -0.3475 -0.0147
10679W        W12829   1.314   5.667   6.488  0.0017  0.0958 -0.1358
10680W        W12830  19.350   2.295   2.282  0.1636  0.2825 -0.1440
10681W        W12831  14.803   6.217  37.747 -0.0092  0.2648 -0.0992
10682W        W12832   5.281   5.793  28.258  0.2363  0.3232  0.1858
10683W        W12833  19.930   0.917  33.973 -0.0233  0.0640 -0.0451
10684W        W12834  12.021   3.839  33.083 -0.0699 -0.3026 -0.1412
10685W        W12835  13.800   1.543  41.331  0.1972  0.2321 -0.2659
10686W        W12836  14.552   2.008  41.010  0.0209 -0.2208 -0.3106
10687W        W12837  13.102   2.022  42.695  0.0649 -0.2061  0.0159
10688W        W12838  19.644   0.181   9.914  0.3676 -0.0539 -0.1595
10689W        W12839   4.804   2.132  12.179 -0.0265 -0.3189  0.2599
10690W        W12840   1.851   3.217   9.145  0.1922 -0.0895 -0.0740
10691W        W12841   6.964   3.674  38.784 -0.1938 -0.0297  0.0178
10692W        W12842  18.532   0.369  32.395 -0.0028 -0.0592 -0.2459
10693W        W12843  13.318   1.678  10.226 -0.0082  0.0997  0.0624
10694W        W12844  19.368   1.969  33.068 -0.2280  0.1531  0.2454
10695W        W12845   7.424   1.899  10.687  0.0864 -0.1349  0.1061
10696W        W12846  15.424   5.199   4.561 -0.3486  0.0563  0.1115
10697W        W12847  19.602   3.035   8.791 -0.0770  0.0076  0.1858
10698W        W12848  16.301   0.238   6.886  0.1868  0.1454 -0.2317
10699W        W12849   9.985   3.422  32.155  0.6222 -0.0215 -0.0187
10700W        W12850  17.970   1.508  35.287 -0.2375  0.1264  0.0009
10701W        W12851  16.388   0.080  30.666  0.0659  0.1274  0.0617
10702W        W12852   9.052   0.458  37.846  0.0987 -0.2292  0.0740
10703W        W12853  10.488   5.886  36.192  0.1381 -0.1626  0.0802
10704W        W12854   4.664   2.996  31.948  0.1217 -0.2588  0.0063
10705W        W12855   5.690   0.637  25.465  0.1518 -0.1426 -0.0431
10706W        W12856   4.568   2.215   6.042  0.2972  0.2420 -0.1891
10707W        W12857  16.055   3.211  17.944 -0.0279 -0.1905  0.1050
10708W        W12858   9.582   3.314  11.711 -0.0753 -0.1173  0.2563
10709W        W12859  10.321   1.781   0.294 -0.0726  0.0041 -0.1436
10710W        W12860   8.516   4.234  14.645 -0.0919  0.0067  0.1090
10711W        W12861  18.225   0.588  22.646 -0.2235 -0.0742 -0.2426
10712W        W12862   6.526   4.293  12.864 -0.1004 -0.1189 -0.0133
10713W        W12863   4.075   4.391   3.874 -0.1222  0.0635  0.1132
10714W        W12864   7.565   2.360  22.868 -0.2975  0.0996 -0.0941
10715W        W12865  11.955   2.063  27.545  0.2266  0.0090  0.3226
10716W        W12866  15.612   3.655  22.222 -0.1339 -0.0400 -0.1100
10717W        W12867  20.647   2.828  43.316  0.2695 -0.0197  0.1794
10718W        W12868   3.153   5.876  28.468  0.1055 -0.0938 -0.1743
10719W        W12869  16.978   2.511  24.528  0.2689 -0.0952 -0.1075
10720W        W12870   3.420   4.816  11.461 -0.0385  0.1040 -0.3560
10721W        W12871   6.152   4.766  40.482  0.0173 -0.1700 -0.1617
10722W        W12872   5.912   1.332   1.921  0.0371 -0.0477 -0.2022
10723W        W12873  15.435   0.108   5.370  0.1607 -0.1843 -0.1189
10724W        W12874   6.537   0.933  24.359 -0.0552 -0.1517  0.1482
10725W        W12875   1.702   3.487  42.555  0.1989  0.4111  0.1396
10726W        W12876  19.885   1.577  41.333 -0.1338 -0.1590  0.1629
10727W        W12877   6.486   4.947   4.304 -0.1161 -0.2454 -0.2937
10728W        W12878   2.003   4.740  13.202 -0.3006  0.1382 -0.2610
10729W        W12879  15.106   3.269   1.646  0.1053 -0.1856 -0.2664
10730W        W12880  11.085   4.786  14.819 -0.2325  0.1362 -0.1607
10731W        W12881  18.124   0.000  44.833  0.3253  0.1750 -0.2169
10732W        W12882   4.644   2.340   1.165 -0.0573  0.0930 -0.3338
10733W        W12883   2.929   5.431  34.517  0.0249 -0.0668  0.3228
10734W        W12884  18.707   6.450  20.796 -0.0058  0.0266  0.3802
10735W        W12885  14.767   2.983  22.845 -0.0406  0.0005 -0.0824
10736W        W12886  15.952   0.478  41.984 -0.0172  0.0492  0.0479
10737W        W12887  10.171   0.736   1.289  0.0856  0.1852 -0.0753
10738W        W12888  14.840   2.045  11.421  0.1641  0.3681 -0.1518
10739W        W12889   5.112   4.002  32.368  0.1361 -0.0684  0.0526
10740W        W12890  19.677   2.024  19.367 -0.0969 -0.2623  0.2006
10741W        W12891  19.690   0.135   4.222 -0.1350 -0.2026  0.0861
10742W        W12892  14.978   5.919  35.443  0.1872  0.0212  0.0163
10743W        W12893  17.750   1.186  10.239  0.1215 -0.1068 -0.0940
10744W        W12894   0.921   6.521  32.160  0.1785 -0.0129  0.0259
10745W        W12895   0.924   1.040  13.150 -0.0476  0.1773 -0.0528
10746W        W12896   9.144   0.957   5.059  0.0071 -0.2622  0.1756
10747W        W12897   9.548   5.978  28.926 -0.0761 -0.3393 -0.0850
10748W        W12898   6.549   3.281  15.636 -0.2412 -0.1861 -0.0897
10749W        W12899  18.263   1.953  12.941 -0.0245  0.1147  0.0108
10750W        W12900   5.062   2.658  22.924  0.3166 -0.0014  0.0431
10751W        W12901  18.229   4.610   2.194  0.0933 -0.2736  0.1665
10752W        W12902   8.828   5.692  32.164 -0.1337  0.3427 -0.0503
10753W        W12903  10.339   4.352  15.158  0.0022 -0.0619  0.1588
10754W        W12904  14.972   4.079  15.490 -0.3275 -0.0227  0.3969
10755W        W12905  20.503   6.220  37.876 -0.0589  0.0442 -0.2582
10756W        W12906  18.934   5.870   9.201  0.0815  0.2951 -0.0859
10757W        W12907   7.933   5.845  17.176  0.0352 -0.0193 -0.0805
10758W        W12908   9.559   5.807  17.209  0.2101  0.0170 -0.0271
10759W        W12909   2.892   3.253  16.413 -0.1189 -0.0587  0.3656
10760W        W12910   3.674   0.332  33.824  0.0846  0.0267 -0.0087
10761W        W12911   3.272   6.238   3.211 -0.1295  0.0163  0.0853
10762W        W12912   8.757   1.134  39.690 -0.0678 -0.1517 -0.0960
10763W        W12913   4.156   4.220  35.902  0.2103 -0.0708 -0.2468
10764W        W12914  10.625   1.517  34.953 -0.1881 -0.2091  0.2434
10765W        W12915   1.009   5.035  12.830  0.1617 -0.1166  0.3351
10766W        W12916   2.861   2.825   9.204 -0.1435  0.1056  0.0083
10767W        W12917  18.860   2.750  13.679  0.0835 -0.1642 -0.2814
10768W        W12918   1.647   4.287  41.849  0.0053  0.1120 -0.0627
10769W        W12919   2.253   6.137   1.136  0.1404 -0.3696  0.0049
10770W        W12920   4.970   3.611   1.172 -0.2990 -0.1370  0.2211
10771W        W12921   2.988   5.901   4.093  0.1027  0.0937  0.1665
10772W        W12922  17.996   3.479  23.882  0.3223  0.0539 -0.0393
10773W        W12923   4.466   0.539  37.146  0.2279  0.0135 -0.1240
10774W        W12924  16.631   6.410  17.131  0.0435  0.2513  0.0793
10775W        W12925  11.922   0.806  44.680 -0.0717  0.1139  0.0651
10776W        W12926   1.171   5.298  26.590 -0.1138  0.3300  0.0049
10777W        W12927  15.961   5.975  44.586  0.2665 -0.0108 -0.0664
10778W        W12928  15.042   0.853  34.235 -0.2055  0.1225 -0.3197
10779W        W12929  19.857   2.191  28.085  0.1202 -0.1689  0.2542
10780W        W12930   3.661   1.441  14.202  0.1122 -0.0678 -0.1125
10781W        W12931   8.615   4.324   2.413 -0.1464 -0.1864 -0.1683
10782W        W12932  19.166   3.296  18.157  0.2144 -0.1216 -0.0231
10783W        W12933   0.718   5.803  16.004  0.2624 -0.1395  0.0157
10784W        W12934   9.512   5.257  44.347  0.2028  0.1297  0.0596
10785W        W12935  15.949   4.944  43.290 -0.0076  0.0009  0.0444
10786W        W12936  12.523   5.246   7.892  0.1580  0.2265  0.0117
10787W        W12937   6.934   5.393  15.131  0.0474  0.2314  0.0679
10788W        W12938   4.666   0.962  12.526  0.3527  0.0011 -0.0374
10789W        W12939   9.440   6.340   7.969 -0.2009  0.3244 -0.3154
10790W        W12940  18.647   5.559   5.613  0.2872 -0.4015 -0.0525
10791W        W12941  21.137   4.441   4.162 -0.4333  0.0815 -0.2259
10792W        W12942  17.804   0.561  14.901  0.1248  0.2918 -0.1911
10793W        W12943   2.021   1.218  38.414 -0.2314  0.2676  0.1531
10794W        W12944  11.453   2.245  18.453  0.0566 -0.0373  0.0723
10795W        W12945   6.604   1.452   6.915  0.1649  0.0241  0.0954
10796W        W12946  17.771   2.275  44.234 -0.1259  0.0432 -0.1073
10797W        W12947   0.337   0.756  29.362  0.0051 -0.2363 -0.1422
10798W        W12948   1.675   1.441  16.596 -0.2694  0.2427  0.3997
10799W        W12949  17.682   0.197  44.025  0.1645 -0.2918 -0.1071
10800W        W12950  17.098   6.570  15.761  0.0671  0.2182 -0.0642
10801W        W12951   4.093   2.404  14.215  0.0175  0.0223  0.1250
10802W        W12952  12.783   4.892  10.199  0.0382 -0.2059  0.0688
10803W        W12953  18.178   3.287  30.109  0.1588 -0.3464 -0.1021
10804W        W12954  19.694   5.709  15.016 -0.1909 -0.3119 -0.0922
10805W        W12955   7.919   5.421   2.658  0.1785 -0.1859 -0.1284
10806W        W12956   3.955   1.547  29.446  0.1840 -0.0789 -0.1159
10807W        W12957  15.092   5.734  31.251  0.5648 -0.0431  0.0600
10808W        W12958  10.942   1.700  15.670 -0.0688  0.0874 -0.1413
10809W        W12959   4.868   1.101  36.826 -0.0233  0.2424  0.0144
10810W        W12960   7.042   2.296  28.626  0.0111  0.0145  0.0636
10811W        W12961  18.667   2.393  22.558 -0.0855 -0.2451  0.1590
10812W        W12962   0.327   2.287  44.215 -0.0698 -0.1066 -0.1158
10813W        W12963  19.029   0.451  41.103 -0.0165 -0.3406 -0.3210
10814W        W12964  13.497   3.442  33.016 -0.0711 -0.0757 -0.0944
10815W        W12965  19.041   2.434   0.451  0.3850  0.0871 -0.1381
10816W        W12966   0.865   6.054  44.116 -0.0921  0.0629  0.1249
10817W        W12967   1.364   2.198   8.116 -0.0708 -0.0680  0.0225
10818W        W12968   4.569   6.227  10.289  0.2292  0.0599  0.0443
10819W        W12969  12.780   1.286  37.501  0.2373 -0.2701 -0.2889
10820W        W12970   4.793   6.400  14.256 -0.0378  0.0851 -0.1714
10821W        W12971  18.446   4.914   4.433 -0.0461  0.1677  0.0071
10822W        W12972   4.970   4.855  25.470 -0.3985 -0.1575  0.1155
10823W        W12973  17.830   6.248  31.386  0.1668  0.0136  0.0088
10824W        W12974   4.968   2.513  42.729  0.0790 -0.0960  0.2306
10825W        W12975   5.002   0.624  42.721  0.0957 -0.0141  0.2083
10826W        W12976   9.563   2.386  25.654 -0.0655  0.1502 -0.0622
10827W        W12977  10.484   5.052  17.626  0.0972  0.3530 -0.1357
10828W        W12978   7.252   6.066  26.001  0.0362  0.0798  0.2043
10829W        W12979  21.059   0.277  11.140 -0.0999 -0.0592 -0.3979
10830W        W12980  18.848   3.937   2.059 -0.1074 -0.3905  0.1897
10831W        W12981  10.717   2.017  28.493 -0.2487  0.0115  0.1764
10832W        W12982  17.370   3.110   6.022  0.0860  0.1646 -0.0764
10833W        W12983  20.077   0.142   6.755 -0.1123  0.0431 -0.2425
10834W        W12984  12.470   6.160  41.728 -0.0621 -0.2093 -0.0910
10835W        W12985   1.872   2.245  42.848  0.0076 -0.3264  0.1880
10836W        W12986   8.126   3.665  29.515  0.1778  0.1136  0.1560
10837W        W12987   1.461   4.581  10.038 -0.1423 -0.0104 -0.3788
10838W        W12988   9.742   5.829  28.072  0.1445 -0.1258  0.0619
10839W        W12989  12.962   2.291   3.727 -0.0835  0.0998  0.2773
10840W        W12990   0.755   1.205   4.048  0.2649  0.1517  0.1636
10841W        W12991  15.583   5.721  37.343 -0.0168 -0.1552 -0.1444
10842W        W12992   6.582   3.651  25.234 -0.1360  0.1911 -0.0193
10843W        W12993   2.052   2.473  16.843  0.2840  0.3121 -0.0442
10844W        W12994  11.450   3.892   9.850 -0.1524 -0.4068 -0.1597
10845W        W12995   5.804   5.590  12.753 -0.0962 -0.0973 -0.1407
10846W        W12996   4.100   1.533  38.618 -0.1679  0.0278  0.1524
10847W        W12997   8.894   2.288   4.870  0.0000  0.0319 -0.0196
10848W        W12998  13.269   5.397   5.810 -0.1194 -0.0432 -0.0264
10849W        W12999   7.369   0.728  39.612 -0.0917 -0.1905 -0.2025
10850W        W13000  17.780   4.930  41.641 -0.0259 -0.0705 -0.0084
10851W        W13001  15.686   5.637   1.292 -0.2724 -0.2173  0.0524
10852W        W13002   9.472   4.600   1.784  0.1131 -0.3082  0.1008
10853W        W13003   5.250   0.175  33.030  0.3198  0.3547 -0.2104
10854W        W13004  20.739   5.557  28.776 -0.1970  0.0828  0.2583
10855W        W13005  12.925   4.566  21.476 -0.2810  0.0670 -0.1547
10856W        W13006  16.434   4.965   3.708  0.1151 -0.2190  0.0883
10857W        W13007   8.481   2.487  25.469 -0.1213 -0.3665  0.0240
10858W        W13008  15.710   4.558  23.557 -0.2337  0.3533 -0.2438
10859W        W13009  12.165   1.463  38.414  0.0424  0.1083  0.1069
10860W        W13010  19.848   6.141  15.245 -0.0325  0.1074  0.2706
10861W        W13011  12.119   5.437  40.653 -0.2282 -0.0940  0.0457
10862W        W13012  18.556   6.438  14.463 -0.0845  0.0770  0.0957
10863W        W13013  12.537   2.251  39.774  0.0495 -0.0879  0.2405
10864W        W13014  13.970   0.926  17.212  0.0700  0.0021  0.0560
10865W        W13015  15.236   3.183  14.052  0.0055  0.0534 -0.0488
10866W        W13016  19.109   1.813  32.110 -0.1369  0.0294  0.1841
10867W        W13017  16.150   4.761  26.165 -0.3996  0.3172  0.3284
10868W        W13018   3.178   5.349  13.759 -0.1303 -0.1996  0.0641
10869W        W13019   3.566   2.235  37.657  0.2598 -0.2511 -0.1522
10870W        W13020  20.713   2.319  30.092 -0.2094 -0.0099  0.0036
10871W        W13021   1.509   0.299  13.040 -0.0099 -0.1015  0.1094
10872W        W13022  11.018   2.220  11.231  0.2012  0.0600 -0.4154
10873W        W13023   2.799   2.939  36.034 -0.2058  0.0237  0.0507
10874W        W13024   8.129   1.421  34.137 -0.1113 -0.1625  0.4266
10875W        W13025  15.032   3.053  28.948 -0.2845 -0.3120 -0.0971
10876W        W13026  20.780   1.446   3.242 -0.2604  0.0043  0.1985
10877W        W13027  10.735   1.653  29.825 -0.1725  0.2300  0.1259
10878W        W13028   7.577   5.058  31.109  0.2021  0.1779 -0.1672
10879W        W13029   1.952   2.291  41.872 -0.0597  0.0278  0.1194
10880W        W13030  17.551   2.601   2.706 -0.1543 -0.0361 -0.3032
10881W        W13031  16.268   1.706   3.667  0.0402 -0.1081 -0.0649
10882W        W13032   2.993   3.206  38.936  0.0417  0.2294 -0.0130
10883W        W13033   8.231   2.721   2.315  0.1548 -0.0437 -0.1064
10884W        W13034  17.073   3.554  40.848  0.2698  0.1695  0.2005
10885W        W13035  18.421   2.334  18.968  0.0213  0.3482  0.1195
10886W        W13036   1.683   1.328  13.679 -0.1527 -0.1403  0.1277
10887W        W13037  16.536   1.297   3.155  0.0017 -0.2038 -0.3799
10888W        W13038   6.049   1.731  33.339  0.0823 -0.3252 -0.2709
10889W        W13039  12.588   0.593  40.634  0.1185  0.3995  0.2853
10890W        W13040  15.161   5.100  43.845  0.1709  0.0526 -0.0332
10891W        W13041   2.522   0.893   8.405 -0.0292  0.0611 -0.0810
10892W        W13042  18.151   5.466   1.984  0.1600  0.0724 -0.0244
10893W        W13043  20.351   1.789  37.134  0.2166  0.0782 -0.1616
10894W        W13044  11.582   3.484  34.612 -0.0376  0.2203 -0.0877
10895W        W13045   2.893   1.994  40.795  0.1214  0.2908 -0.0912
10896W        W13046  17.942   4.939  15.022  0.0832 -0.1566  0.0156
10897W        W13047   3.833   2.719  31.775 -0.0387 -0.0469  0.1095
10898W        W13048   1.698   0.631  39.419  0.1016  0.0500 -0.5193
10899W        W13049   6.644   1.154   2.913  0.0516  0.0314 -0.2094
10900W        W13050  13.764   4.482  18.037 -0.0717 -0.2119 -0.2767
10901W        W13051   8.018   4.392  15.563  0.1133 -0.0018 -0.1478
10902W        W13052  20.847   5.615   1.961 -0.0296 -0.1015  0.1135
10903W        W13053   7.801   3.611   7.118  0.0033 -0.4098 -0.2022
10904W        W13054   0.596   3.638  16.295 -0.3020  0.2414  0.0118
10905W        W13055  19.090   5.192  41.454  0.1554  0.0059  0.2623
10906W        W13056   0.526   2.592   4.722 -0.0953  0.3122 -0.0663
10907W        W13057  15.537   0.048  35.905  0.1714 -0.0337  0.0683
10908W        W13058  14.521   3.882  15.430  0.0345  0.1290 -0.0288
10909W        W13059   5.959   2.622   1.516  0.1906 -0.0381 -0.0493
10910W        W13060   5.325   3.667  27.385 -0.0520 -0.0480 -0.1802
10911W        W13061   9.877   6.058  34.461  0.2280  0.1113  0.1367
10912W        W13062   8.119   3.369  16.297 -0.2307 -0.1483 -0.1445
10913W        W13063   3.679   0.378   4.292 -0.0311 -0.0529 -0.0136
10914W        W13064  15.517   1.798  30.754 -0.0688  0.1506  0.1724
10915W        W13065  12.108   3.904  15.452  0.2539 -0.2233  0.1705
10916W        W13066  17.607   4.401  10.515  0.0247 -0.2106 -0.2676
10917W        W13067   2.531   4.028  41.718  0.3492 -0.2770  0.0244
10918W        W13068  19.920   0.173   9.447 -0.0878 -0.0138  0.0125
10919W        W13069  15.521   2.000  20.575  0.1625  0.1856 -0.1008
10920W        W13070   6.441   5.383  41.986 -0.3019 -0.0698 -0.1057
10921W        W13071  13.769   5.343  28.456  0.0872 -0.0144  0.1386
10922W        W13072  17.716   2.403   3.963 -0.1077  0.2288 -0.2420
10923W        W13073  10.005   0.720  40.034  0.3187  0.0720 -0.1104
10924W        W13074   9.759   6.331  16.165 -0.3104 -0.1243 -0.1543
10925W        W13075  15.627   3.985  44.779 -0.1506 -0.3443 -0.1603
10926W        W13076  18.486   0.585  43.230  0.1067 -0.3326 -0.0678
10927W        W13077  17.696   4.498  43.691 -0.0873  0.1364 -0.0274
10928W        W13078   3.546   5.766  44.961  0.0201 -0.0612  0.0863
10929W        W13079   7.236   5.384  31.781 -0.1585  0.0687  0.1102
10930W        W13080  14.267   1.637   9.832 -0.0132 -0.1348  0.0560
10931W        W13081  11.911   3.467  38.676 -0.2536 -0.1712  0.2973
10932W        W13082  12.534   0.851  33.593 -0.1683  0.0706 -0.1408
10933W        W13083   4.987   3.112   5.487  0.1332 -0.0410  0.3317
10934W        W13084  14.160   2.237  37.357  0.4541  0.1678  0.1929
10935W        W13085  11.637   0.245  18.217 -0.2319  0.2709  0.0555
10936W        W13086  19.459   1.417  16.030 -0.1082 -0.0567 -0.2484
10937W        W13087   2.063   1.190   7.600  0.2909  0.0520  0.1665
10938W        W13088   7.560   2.793  25.619 -0.3254 -0.1599 -0.0163
10939W        W13089  18.925   4.996  44.478  0.0780 -0.0262  0.3977
10940W        W13090   3.632   4.266   1.179 -0.2593 -0.3553  0.0598
10941W        W13091   6.254   4.297   0.931  0.0982 -0.0037 -0.0570
10942W        W13092   9.878   1.072   8.686 -0.3924  0.1101  0.2147
10943W        W13093   3.826   1.642  24.446  0.1439  0.2727 -0.1267
10944W        W13094  16.184   2.113  21.558  0.0965  0.2827 -0.1243
10945W        W13095  13.112   5.643  35.500 -0.1264  0.5335 -0.2269
10946W        W13096   7.354   1.426  37.387  0.2393 -0.1198  0.1045
10947W        W13097   2.968   4.447  41.579  0.0522  0.1378  0.0090
10948W        W13098   4.638   6.022  21.739  0.2124 -0.0945 -0.0861
10949W        W13099   7.378   4.989  25.141 -0.0534  0.1578 -0.2974
10950W        W13100  12.343   0.634  45.018  0.2158 -0.1660 -0.0272
10951W        W13101  14.661   0.611   5.993 -0.0103 -0.1385 -0.0208
10952W        W13102  14.045   4.388  33.244  0.0325 -0.2842 -0.0242
10953W        W13103   6.060   2.398  44.450  0.2384  0.2446  0.0870
10954W        W13104  16.034   4.836   6.288  0.2537  0.0485 -0.3142
10955W        W13105   8.553   6.607  44.526 -0.0673  0.3986 -0.4037
10956W        W13106   4.615   5.090  31.136 -0.2360 -0.0782  0.1394
10957W        W13107   0.830   0.867  42.989 -0.0546 -0.0186 -0.1729
10958W        W13108  16.556   5.192  22.211  0.1386 -0.0649  0.0709
10959W        W13109  19.194   3.662   3.928 -0.1304 -0.3211  0.2982
10960W        W13110   3.770   1.603   8.900 -0.4212 -0.0049  0.1599
10961W        W13111  10.616   6.270  29.754 -0.1120  0.0393 -0.0236
10962W        W13112  12.933   6.477   4.544  0.1610  0.0989 -0.1500
10963W        W13113  16.511   6.457  39.203 -0.4367 -0.0954  0.0178
10964W        W13114   1.279   0.006  36.461  0.1006 -0.4112 -0.2297
10965W        W13115   2.516   4.864  10.207  0.2413 -0.0668  0.2705
10966W        W13116  18.695   6.188   8.488  0.0609 -0.2419  0.1585
10967W        W13117   9.436   1.995  16.211  0.2280 -0.0419  0.1620
10968W        W13118   9.199   1.979  27.789  0.0412  0.3730  0.0676
10969W        W13119   4.568   0.998   9.659 -0.0082 -0.1334  0.1054
10970W        W13120   5.284   5.474  39.148  0.1626 -0.2315  0.1092
10971W        W13121   0.506   6.042  42.520 -0.0556  0.1700  0.2469
10972W        W13122  11.546   2.822  38.952  0.1101  0.0886  0.0252
10973W        W13123   7.556   6.067  14.856  0.1002  0.0133 -0.0296
10974W        W13124   9.185   3.582   8.475  0.1047  0.3038  0.1687
10975W        W13125  16.763   2.720  14.142  0.1435  0.4285 -0.0600
10976W        W13126   1.368   0.544  10.425 -0.0605 -0.0083  0.0266
10977W        W13127   1.881   0.021  40.782  0.3356 -0.0031 -0.0362
10978W        W13128  13.811   4.529   1.251  0.0858 -0.0614 -0.1864
10979W        W13129  10.113   1.959  41.693  0.0597  0.1073  0.0881
10980W        W13130  13.111   5.273  40.464 -0.0038  0.0754 -0.2784
10981W        W13131  18.311   5.116  45.032 -0.1520 -0.2063  0.0053
10982W        W13132  11.793   1.679  17.100  0.0390 -0.0857  0.1583
10983W        W13133   4.225   1.909  22.611 -0.2647 -0.0153  0.2509
10984W        W13134  17.029   5.975  36.513 -0.2747  0.0495  0.2351
10985W        W13135   5.036   1.057  43.939  0.0749 -0.0089 -0.1630
10986W        W13136   4.140   5.928   5.514 -0.0776  0.1555  0.0714
10987W        W13137   0.076   2.774  43.917  0.0254  0.0960  0.0759
10988W        W13138  11.445   6.315   2.183  0.1359 -0.0969 -0.3176
10989W        W13139  12.596   0.624  41.189 -0.3219  0.0177  0.0611
10990W        W13140   6.671   2.009   4.296  0.1597  0.1504 -0.1126
10991W        W13141   8.106   1.550  38.995 -0.3054  0.1729  0.0192
10992W        W13142  12.170   3.871   3.208 -0.4864  0.0989 -0.0367
10993W        W13143   8.133   5.172  38.595 -0.0188 -0.2152 -0.0198
10994W        W13144  16.434   4.895   5.913 -0.2519  0.0009  0.1136
10995W        W13145  11.141   1.823  29.990  0.1320  0.1102 -0.2974
10996W        W13146  16.606   1.295  42.676 -0.1992 -0.1484 -0.1246
10997W        W13147  14.223   2.555   4.415  0.1231  0.1865  0.3730
10998W        W13148   0.053   4.631  30.404  0.0944 -0.0797  0.0600
10999W        W13149   7.144   5.159   5.267 -0.1826 -0.1584  0.2445
11000W        W13150  18.144   4.236   5.850  0.2642 -0.0185  0.1393
11001W        W13151   6.905   3.110  26.185 -0.7221 -0.1445 -0.0697
11002W        W13152   0.942   2.248   8.810 -0.0990  0.1961  0.1788
11003W        W13153  20.876   1.544  35.914 -0.0686 -0.0062  0.1641
11004W        W13154  13.661   0.263  36.406 -0.1601 -0.1823 -0.3251
11005W        W13155   0.659   0.045  45.056  0.2106  0.1034  0.2275
11006W        W13156  10.001   4.276  17.317 -0.3238 -0.2096  0.1352
11007W        W13157   5.605   0.963   6.428 -0.1645 -0.1151  0.0644
11008W        W13158  11.975   1.388  43.244 -0.2401  0.1200 -0.0941
11009W        W13159  10.540   2.348  34.513  0.0530  0.1712 -0.0613
11010W        W13160  16.891   1.061  25.567  0.1298  0.2249 -0.0552
11011W        W13161  15.661   2.696  23.573  0.2576  0.1397  0.1988
11012W        W13162  18.516   1.452  21.036  0.2278 -0.2500 -0.0324
11013W        W13163   9.308   2.250   6.009 -0.0354 -0.1047 -0.0354
11014W        W13164  13.627   5.060  16.238  0.1359 -0.1458 -0.2422
11015W        W13165   4.418   2.164  30.230  0.2647 -0.0137 -0.0759
11016W        W13166   5.940   0.027  35.540 -0.0262  0.1443 -0.1510
11017W        W13167   9.205   6.419   5.553 -0.0210 -0.0486  0.1820
11018W        W13168   1.947   3.704  26.804 -0.0228  0.0998 -0.2275
11019W        W13169   0.076   6.008   8.271 -0.1355  0.0381 -0.0244
11020W        W13170   3.175   0.852  25.555  0.2944 -0.1244  0.1160
11021W        W13171   7.681   4.356   6.890 -0.0949 -0.0864  0.1145
11022W        W13172  14.102   2.276  15.479  0.2492 -0.0773  0.0097
11023W        W13173  15.674   2.467  42.841 -0.1600 -0.1323 -0.0941
11024W        W13174  20.804   5.894  29.164 -0.0642 -0.0209 -0.0458
11025W        W13175  16.239   1.427  16.657  0.2016 -0.3555 -0.0128
11026W        W13176   0.950   0.033  33.494 -0.0392 -0.3200 -0.1362
11027W        W13177  16.609   3.700  34.866  0.0070 -0.1374 -0.0163
11028W        W13178  15.680   1.202  18.394 -0.1380 -0.1531  0.0370
11029W        W13179   1.402   5.441  31.031  0.1278 -0.1388 -0.1582
11030W        W13180  12.124   5.129  16.902  0.1373 -0.0179  0.3088
11031W        W13181   8.083   6.578  12.097  0.0837  0.1063  0.1024
11032W        W13182  19.032   5.794  15.009 -0.2462 -0.1030  0.2049
11033W        W13183  12.372   2.306  38.062 -0.0784  0.0461  0.0080
11034W        W13184   1.805   1.832  13.499 -0.1028 -0.0375 -0.0777
11035W        W13185   2.326   1.082  44.168 -0.2073 -0.1127  0.1566
11036W        W13186   2.401   4.020  35.463  0.0120 -0.4125  0.1204
11037W        W13187  17.626   2.238  18.818  0.1816  0.0395  0.0443
11038W        W13188   6.181   2.806  39.598 -0.0643  0.0693 -0.2076
11039W        W13189   7.321   2.971   1.835 -0.1375 -0.1703 -0.1555
11040W        W13190  15.984   0.559  18.756  0.2549 -0.0712  0.0828
11041W        W13191   8.336   0.570  34.168  0.1213  0.0905 -0.3406
11042W        W13192   7.577   6.105  28.641 -0.0973 -0.0698  0.1209
11043W        W13193  17.774   5.134  43.427  0.0378 -0.2352  0.2552
11044W        W13194  17.511   5.386  33.832  0.1814  0.3030 -0.3852
11045W        W13195  20.009   3.097  19.833  0.1052 -0.1135  0.0812
11046W        W13196  11.807   0.578   0.046  0.0079  0.5559 -0.1995
11047W        W13197  13.530   6.537  41.447  0.3312 -0.2056  0.0254
11048W        W13198   4.775   1.871  13.940  0.2073 -0.0141  0.0597
11049W        W13199   2.608   6.484  11.157  0.0130 -0.0144 -0.3160
11050W        W13200  17.805   3.099  16.995  0.1645 -0.0095  0.1084
11051W        W13201   2.230   6.138  41.706  0.1907 -0.0249  0.0190
11052W        W13202   2.491   6.279  13.242 -0.0304 -0.1975  0.1361
11053W        W13203  13.764   1.900  35.913 -0.1774 -0.2373 -0.2266
11054W        W13204  10.063   1.552  11.449  0.0529  0.0149 -0.0716
11055W        W13205  10.757   1.712  34.433  0.0641  0.2071  0.3511
11056W        W13206   2.977   1.933  45.099  0.2253  0.1174 -0.0535
11057W        W13207   8.108   0.986  31.092 -0.0529 -0.1355  0.2813
11058W        W13208   3.273   3.753  29.821  0.2169  0.2582 -0.0599
11059W        W13209  13.746   2.463  44.605  0.0221 -0.2936 -0.3543
11060W        W13210   8.216   2.379  42.657  0.3135 -0.2186  0.2315
11061W        W13211  18.478   5.352  19.572 -0.1183 -0.0773 -0.2014
11062W        W13212  11.304   3.439  12.710 -0.0358 -0.2694  0.0416
11063W        W13213   2.288   5.143  37.265 -0.2227  0.0860  0.2212
11064W        W13214  15.850   2.314   8.041  0.3275  0.2512 -0.0333
11065W        W13215   7.811   4.950  41.081 -0.0938  0.3198 -0.2466
11066W        W13216  13.129   1.024   1.943 -0.1612  0.1500 -0.2041
11067W        W13217  18.096   1.651  19.389 -0.4161 -0.0797  0.0292
11068W        W13218   3.517   4.060  42.737 -0.0021 -0.0997  0.0583
11069W        W13219   0.814   1.968  35.587  0.1123  0.0453  0.0309
11070W        W13220  17.200   0.987  11.072  0.1428 -0.3049 -0.1689
11071W        W13221  19.021   4.655  42.166 -0.1309 -0.0858  0.0483
11072W        W13222  15.256   3.503  32.416 -0.0901 -0.0044 -0.0619
11073W        W13223  11.753   6.331  11.970 -0.2423 -0.3047  0.2816
11074W        W13224   5.573   3.645  11.307  0.1024  0.2216 -0.2000
11075W        W13225   3.821   0.159  24.245 -0.0421 -0.0244  0.2536
11076W        W13226   2.491   5.627  32.304 -0.1472  0.0455  0.0236
11077W        W13227   9.012   3.167  39.606 -0.0053  0.2475  0.1623
11078W        W13228  12.192   5.346   5.179 -0.1992 -0.3623  0.0474
11079W        W13229   1.871   1.591   4.633 -0.3130  0.2097  0.0880
11080W        W13230  14.839   0.887  40.728 -0.2290  0.0357 -0.2492
11081W        W13231   8.746   1.239  15.786 -0.1732  0.3591  0.0191
11082W        W13232  12.485   3.775  33.108  0.1296 -0.1188 -0.4676
11083W        W13233   6.936   5.581   8.816 -0.1556  0.4046 -0.1980
11084W        W13234   9.727   2.721  14.866  0.0330  0.0013  0.0955
11085W        W13235  10.259   3.517  32.904 -0.2321 -0.0574 -0.0081
11086W        W13236  12.370   0.153  39.363 -0.0042  0.0651  0.1213
11087W        W13237  10.296   0.227  16.095 -0.2267 -0.0998  0.2707
11088W        W13238  11.457   5.211  35.876 -0.1131  0.0300  0.2706
11089W        W13239   2.083   1.339  33.998  0.0474  0.2061  0.3872
11090W        W13240   9.501   0.178   2.001  0.0867 -0.1283 -0.0712
11091W        W13241  20.211   5.054  30.523 -0.2277  0.0055 -0.0972
11092W        W13242  16.846   3.617   8.539 -0.1563  0.2585  0.1497
11093W        W13243  18.773   5.835  45.046 -0.0725  0.2118  0.3182
11094W        W13244  15.582   3.342   9.184 -0.0898  0.0256  0.1896
11095W        W13245   7.522   6.292   2.839 -0.5275 -0.0384 -0.2435
11096W        W13246   9.655   3.530  42.903  0.0187 -0.0035  0.1731
11097W        W13247  12.167   3.770  27.987  0.2665  0.1729 -0.2471
11098W        W13248  19.721   5.335  36.457 -0.0388  0.1637  0.1155
11099W        W13249  20.730   6.407   4.192 -0.0845  0.0624  0.2366
11100W        W13250  11.213   4.683  11.416 -0.3154 -0.0587 -0.1921
11101W        W13251  17.139   4.601  12.366  0.0838  0.0512  0.1608
11102W        W13252  16.832   3.870  37.781  0.0928 -0.3028  0.0325
11103W        W13253   9.395   0.367  26.865 -0.4489 -0.1912 -0.1109
11104W        W13254  18.912   3.212   4.093  0.0822  0.0186  0.0285
11105W        W13255  17.211   6.465  30.632  0.1947 -0.0700  0.0308
11106W        W13256   7.392   6.515  14.768  0.2626 -0.0018 -0.3658
11107W        W13257  19.855   1.822  19.865 -0.0587  0.2340  0.1054
11108W        W13258  13.903   3.449  12.047 -0.3128 -0.0748 -0.3168
11109W        W13259   1.324   4.170  30.401  0.0371 -0.0193  0.1652
11110W        W13260  20.611   0.879   7.118 -0.0618 -0.0638  0.0502
11111W        W13261   4.309   6.413   6.873  0.1119 -0.1421  0.0660
11112W        W13262   4.423   4.509  45.100  0.0206  0.1696 -0.4186
11113W        W13263   1.458   4.375  31.666 -0.5758  0.0804  0.0666
11114W        W13264   5.863   4.692   5.982 -0.2671  0.2706  0.0807
11115W        W13265  21.082   1.991  13.692 -0.1262  0.1845 -0.3643
11116W        W13266   0.578   1.018  32.745 -0.1748 -0.2778 -0.3181
11117W        W13267  11.763   3.418  12.991  0.1110  0.1837  0.0113
11118W        W13268   9.098   0.136  43.107  0.1649 -0.1185 -0.3048
11119W        W13269   8.910   0.318  33.502 -0.1803  0.0859  0.2977
11120W        W13270  15.482   3.333  29.532  0.0560  0.1106  0.0667
11121W        W13271   6.825   3.156  22.649 -0.0723 -0.1233 -0.0819
11122W        W13272  17.095   4.428   1.172 -0.0494  0.1838  0.1867
11123W        W13273  18.413   0.886  17.426 -0.2344 -0.1306 -0.1229
11124W        W13274  12.245   3.622  40.685 -0.0972 -0.2243  0.0958
11125W        W13275   5.587   2.714  41.215 -0.0762 -0.1513 -0.0812
11126W        W13276  16.959   5.272   6.408 -0.2549  0.1773 -0.2823
11127W        W13277   4.392   5.337   2.254  0.0917 -0.0815 -0.2339
11128W        W13278   9.261   1.464  36.979  0.1511  0.2416 -0.1321
11129W        W13279  14.429   1.475  13.242 -0.1454  0.0587 -0.0723
11130W        W13280   6.776   1.241   1.888  0.0597  0.2015 -0.1895
11131W        W13281   0.216   5.257   9.371 -0.0126 -0.1630 -0.0276
11132W        W13282   3.147   1.926   7.170 -0.2233  0.3156  0.0913
11133W        W13283   6.515   0.456  37.849 -0.0321 -0.1982  0.0127
11134W        W13284  13.530   4.142  11.389  0.0515 -0.2489 -0.1098
11135W        W13285   1.609   4.116   9.288 -0.1973 -0.0960 -0.2113
11136W        W13286   3.967   2.622  34.882 -0.0207  0.1928  0.0627
11137W        W13287   5.254   5.370  38.540 -0.0351 -0.1697 -0.0435
11138W        W13288   6.701   5.787   9.707  0.1405 -0.0035  0.1704
11139W        W13289   3.575   1.219   9.124 -0.2849 -0.1154 -0.0783
11140W        W13290  13.586   1.891   1.180 -0.1893  0.1203  0.0494
11141W        W13291  17.102   5.540  12.875  0.2486 -0.1289  0.0748
11142W        W13292  15.056   3.670  43.409  0.2696 -0.0357  0.1149
11143W        W13293   4.210   2.392  36.383  0.4444 -0.1340  0.0969
11144W        W13294  18.408   3.750   3.652  0.0379 -0.2105 -0.0083
11145W        W13295   2.748   4.236   4.963 -0.2556 -0.1044 -0.0370
11146W        W13296  17.713   5.805  11.033  0.0526 -0.0791  0.2418
11147W        W13297   9.304   6.016  39.176 -0.1053 -0.0530 -0.2299
11148W        W13298   4.601   5.040   4.992  0.2083  0.5015 -0.2603
11149W        W13299  20.954   1.439  43.793 -0.0727 -0.2114 -0.1005
11150W        W13300  13.370   4.167   9.193  0.0319 -0.2459 -0.3067
11151W        W13301   3.269   4.417   4.785 -0.0214  0.0296 -0.1885
11152W        W13302   3.760   4.475  29.386  0.0764  0.0542  0.0787
11153W        W13303  10.209   0.938  24.082  0.1802 -0.0616  0.0083
11154W        W13304   3.720   3.171  41.974  0.0145 -0.1065 -0.0863
11155W        W13305   4.460   1.792  41.415  0.2447  0.2120  0.1003
11156W        W13306  13.023   5.048  42.869  0.0013  0.0596 -0.0770
11157W        W13307  21.046   0.054  44.577  0.2688 -0.0885 -0.1576
11158W        W13308  14.807   3.697  41.762 -0.0663  0.3532  0.0102
11159W        W13309   0.838   6.397   9.053  0.0710 -0.0615  0.5248
11160W        W13310  13.941   5.610   5.528  0.1102 -0.1117 -0.0368
11161W        W13311  15.959   6.251  14.989 -0.0975 -0.0405 -0.0384
11162W        W13312  15.422   6.277  20.945 -0.1286 -0.2641  0.0462
11163W        W13313  10.901   6.097  11.924 -0.0650 -0.1457  0.2989
11164W        W13314   9.642   4.241  24.929  0.1501  0.1139  0.0605
11165W        W13315   1.337   4.782   5.391 -0.0695 -0.1410  0.1531
11166W        W13316   2.763   2.080  11.203 -0.2593 -0.0231 -0.1702
11167W        W13317  15.069   3.086  15.434  0.0079 -0.1634 -0.1793
11168W        W13318  13.318   3.603  37.365 -0.0122 -0.0318  0.0892
11169W        W13319  14.192   5.904  42.465 -0.1693 -0.2754 -0.0404
11170W        W13320   7.519   2.256   8.428 -0.0900 -0.0374  0.1712
11171W        W13321  19.389   0.309  31.834  0.2155 -0.3880  0.1368
11172W        W13322   7.963   6.114  10.578  0.3473 -0.0408 -0.1231
11173W        W13323  13.148   1.954  29.547 -0.1456  0.0688  0.2228
11174W        W13324   6.630   3.281  40.338 -0.1004 -0.1971  0.2727
11175W        W13325   5.319   1.150   4.520 -0.1958 -0.2184 -0.0023
11176W        W13326  16.538   0.610  32.000  0.2935  0.0688  0.4572
11177W        W13327  17.293   5.308   7.297  0.0429 -0.2184 -0.2960
11178W        W13328   4.806   0.196  43.716  0.0573  0.0777  0.1645
11179W        W13329   5.640   1.560   4.264 -0.1876  0.2467  0.0277
11180W        W13330   5.975   6.287  23.081  0.1949 -0.0387  0.1692
11181W        W13331  17.990   3.568  38.629 -0.0568 -0.1167 -0.3719
11182W        W13332  20.689   3.602  33.332 -0.1434  0.0616  0.0289
11183W        W13333   3.026   2.588  44.633 -0.1819  0.0149 -0.2222
11184W        W13334  11.968   3.838  34.555 -0.0495 -0.0972 -0.1134
11185W        W13335   0.756   5.203   0.811 -0.2517  0.1031  0.2247
11186W        W13336   0.287   3.163   8.919  0.0473  0.2415  0.0171
11187W        W13337  14.685   6.086  36.844  0.0554  0.0707  0.0252
11188W        W13338   7.915   6.086  42.191 -0.3285 -0.0417  0.3119
11189W        W13339   0.247   5.469  34.845 -0.1076 -0.2581  0.3378
11190W        W13340  17.421   5.678   3.984 -0.0009 -0.2898  0.0349
11191W        W13341   0.880   4.794   9.047  0.1430  0.0770  0.4528
11192W        W13342  12.719   3.363  15.917  0.1280 -0.0577  0.1015
11193W        W13343  12.492   1.481  12.753 -0.4381  0.6437 -0.5511
11194W        W13344   9.745   0.711  16.626  0.1434  0.1049 -0.3059
11195W        W13345  17.787   0.888  37.279 -0.4652 -0.2287 -0.2796
11196W        W13346   6.245   2.150  20.143 -0.0558  0.2141 -0.2176
11197W        W13347  14.787   3.001  10.019 -0.2280 -0.2591 -0.1130
11198W        W13348  16.144   5.755   9.198 -0.2728 -0.0923  0.0244
11199W        W13349   5.110   1.038  33.423  0.1376  0.0393 -0.1571
11200W        W13350   3.082   1.763  43.508 -0.0925  0.0951  0.2475
11201W        W13351   1.387   4.985  39.939 -0.1464 -0.1188  0.0136
11202W        W13352   3.623   4.384  28.608 -0.0396  0.1911  0.1296
11203W        W13353  20.213   4.663   3.780 -0.0945  0.1397 -0.0127
11204W        W13354   3.910   5.688  38.696  0.0360  0.1442  0.0098
11205W        W13355  11.795   3.106  29.433  0.1480  0.0471  0.1436
11206W        W13356  10.161   6.012  15.992 -0.0418  0.1460 -0.3907
11207W        W13357   2.759   4.074  10.616  0.1198 -0.1630 -0.4209
11208W        W13358   0.764   2.080   1.947 -0.0147 -0.0820 -0.1102
11209W        W13359  10.795   6.282   9.612  0.0023 -0.1745 -0.2720
11210W        W13360  20.005   0.698  21.484  0.0973 -0.0508 -0.0718
11211W        W13361   2.340   6.570  16.004  0.0416  0.1616 -0.1625
11212W        W13362   3.923   1.186  37.857 -0.1600 -0.1191 -0.0191
11213W        W13363   1.682   3.160  42.985  0.1926 -0.1786 -0.2845
11214W        W13364  19.251   3.998   9.092  0.0310  0.1298  0.3100
11215W        W13365   6.583   2.497  39.756  0.1237 -0.2596 -0.0188
11216W        W13366   2.056   3.649  30.097 -0.0600 -0.1014  0.1184
11217W        W13367  13.325   2.590  38.204  0.1621  0.0569 -0.0110
11218W        W13368   8.276   4.983  27.911 -0.3805  0.0480 -0.0093
11219W        W13369  20.177   5.205  18.337  0.2060  0.0664 -0.0808
11220W        W13370  17.595   2.272  42.275 -0.0889 -0.0051  0.1465
11221W        W13371   6.034   5.976  27.191  0.0358  0.1835  0.1046
11222W        W13372   2.392   5.654   8.455 -0.1971  0.0506  0.0435
11223W        W13373  20.976   1.177  41.556 -0.1152  0.0758  0.0010
11224W        W13374  14.592   6.582   3.627 -0.1022 -0.2267 -0.0553
11225W        W13375   5.347   0.013  10.824  0.2492  0.2295 -0.0440
11226W        W13376  15.615   0.732   2.601  0.0533 -0.3046 -0.0831
11227W        W13377   2.515   1.182   3.444 -0.0297  0.0050 -0.0156
11228W        W13378  15.256   6.252   0.035  0.2849  0.1195 -0.0375
11229W        W13379  13.302   3.743  34.639  0.0006 -0.0972 -0.1380
11230W        W13380  18.806   2.092  16.951  0.0491  0.0447 -0.0995
11231W        W13381   7.643   2.655  31.054  0.0411  0.0144 -0.1111
11232W        W13382  18.440   5.043  17.881  0.0071 -0.1819 -0.3150
11233W        W13383  13.238   4.969  28.781  0.1675 -0.3924 -0.0756
11234W        W13384  15.844   6.345  30.021 -0.0350 -0.1177 -0.0887
11235W        W13385  18.097   1.989  34.380  0.0414 -0.0223  0.2162
11236W        W13386   3.344   6.595  32.713 -0.0409 -0.2442 -0.0065
11237W        W13387   8.368   2.015   7.169  0.2023  0.0586  0.1617
11238W        W13388   2.497   4.157  44.277  0.3131 -0.3585  0.2249
11239W        W13389  17.502   0.268   4.860  0.1280 -0.0537  0.0234
11240W        W13390  14.108   5.146  44.538  0.1864 -0.0110 -0.1732
11241W        W13391   2.719   4.346  32.291 -0.2150 -0.2853 -0.0603
11242W        W13392  18.693   5.421   9.043 -0.2809 -0.0535  0.1060
11243W        W13393  17.054   4.976  38.404 -0.1902  0.2649  0.1912
11244W        W13394   9.027   2.315   9.399  0.1304 -0.0047 -0.1945
11245W        W13395  11.309   1.303  12.454  0.3144  0.1114 -0.2197
11246W        W13396   2.915   2.473  43.383 -0.0129 -0.1676 -0.2240
11247W        W13397   2.936   1.001  27.630 -0.0349  0.2174  0.0742
11248W        W13398   1.766   0.729  25.817  0.1591 -0.1201  0.4257
11249W        W13399   7.001   4.675   7.599  0.1119 -0.0900 -0.1419
11250W        W13400   4.866   0.189  34.958 -0.1180 -0.2813 -0.1713
11251W        W13401   5.668   6.196  25.892 -0.0665  0.0535  0.0350
11252W        W13402   2.743   4.558   1.388 -0.0720 -0.0462 -0.1562
11253W        W13403   6.520   4.511  25.025  0.0386 -0.0799 -0.2238
11254W        W13404   3.551   6.311   2.447 -0.0063 -0.0667  0.2392
11255W        W13405  21.103   1.967  13.171  0.0341 -0.0153 -0.1913
11256W        W13406   4.994   1.014  15.883 -0.0844 -0.1398  0.2970
11257W        W13407   6.079   0.128   7.582 -0.0390  0.1247 -0.0076
11258W        W13408  20.676   0.869  14.331  0.1612 -0.1556 -0.1196
11259W        W13409  14.727   0.067  15.043  0.1615 -0.0911  0.1625
11260W        W13410   4.692   1.415  12.698  0.3749  0.1964  0.0065
11261W        W13411  17.893   0.622   4.798  0.0334  0.1362 -0.0899
11262W        W13412   0.730   3.496   3.272  0.1053  0.1164  0.2720
11263W        W13413   7.258   0.092  10.234  0.2956 -0.1649  0.1825
11264W        W13414  19.007   6.217  20.108 -0.0511 -0.3404  0.0574
11265W        W13415  11.724   1.995  44.647 -0.1426  0.0709 -0.2458
11266W        W13416  20.344   2.348  19.186 -0.0228  0.4380 -0.2133
11267W        W13417  16.375   6.093   7.409 -0.0654  0.0824  0.0461
11268W        W13418   2.175   4.535  16.074 -0.0479 -0.0780 -0.2507
11269W        W13419  20.098   0.361  14.943 -0.0078  0.0306  0.1589
11270W        W13420  19.241   5.510  12.205 -0.2327 -0.0820  0.0170
11271W        W13421   8.345   2.068  31.761  0.0651 -0.1246 -0.2334
11272W        W13422   5.451   5.206  26.287 -0.2038 -0.0221 -0.2542
11273W        W13423  18.621   6.356  31.696 -0.2151 -0.2043  0.2306
11274W        W13424   1.708   2.283  33.418  0.1010 -0.1064  0.1497
11275W        W13425   4.670   4.942  41.538 -0.2211 -0.3515 -0.0104
11276W        W13426  18.368   5.390   0.835  0.1876 -0.1403  0.1275
11277W        W13427  18.232   6.254  19.352 -0.1242  0.0774 -0.0055
11278W        W13428   5.104   1.301  41.799  0.0620  0.0930  0.2089
11279W        W13429  11.032   4.559  39.529  0.0690  0.1719 -0.2441
11280W        W13430  12.662   3.671   7.285 -0.2294  0.0242  0.0827
11281W        W13431  14.831   2.781  18.463 -0.0271  0.1064 -0.2706
11282W        W13432   5.537   2.282   8.654 -0.1190 -0.0301  0.3101
11283W        W13433  19.370   2.789   4.272  0.0823 -0.0006  0.2050
11284W        W13434  19.532   0.790  11.473  0.0683 -0.1215 -0.2174
11285W        W13435  19.655   0.699  20.466  0.1190 -0.1128  0.0523
11286W        W13436  19.425   5.309  38.125 -0.1434  0.3162 -0.1005
11287W        W13437   3.033   5.710  33.460  0.1095  0.0602 -0.1644
11288W        W13438   4.509   0.043   0.086 -0.0440 -0.2520  0.4855
11289W        W13439  18.459   4.468  38.842 -0.1290 -0.2058  0.0271
11290W        W13440  12.211   1.031  29.828  0.2248  0.3216 -0.0686
11291W        W13441   6.523   0.612  43.965  0.1551 -0.1216 -0.1951
11292W        W13442  11.501   1.943  31.724 -0.0606 -0.1701  0.3318
11293W        W13443  17.600   5.439   8.901 -0.0504  0.0492 -0.1722
11294W        W13444   5.954   0.538  29.871  0.0245 -0.2138 -0.0803
11295W        W13445   1.695   0.496  36.366 -0.0202 -0.0991  0.1010
11296W        W13446  14.468   5.543  22.587 -0.2530  0.1197 -0.0400
11297W        W13447  12.719   5.900  29.700 -0.0307 -0.0420  0.0627
11298W        W13448  11.928   5.349  43.429 -0.2640 -0.0507 -0.0605
11299W        W13449   5.846   5.572  30.202 -0.4056 -0.3588  0.0863
11300W        W13450   5.037   5.648  36.894  0.0971 -0.1726 -0.0216
11301W        W13451  15.869   4.477  22.516  0.2002 -0.0660 -0.2092
11302W        W13452  15.271   4.328  14.495 -0.2221 -0.1275 -0.4902
11303W        W13453  14.911   6.484  36.060 -0.3902  0.1309  0.0120
11304W        W13454  10.733   1.784  16.130  0.0530  0.1720  0.0051
11305W        W13455  19.342   3.822   1.280  0.1945 -0.1279 -0.3223
11306W        W13456  15.301   0.125  39.135 -0.0785 -0.0143 -0.1041
11307W        W13457   6.246   4.075   4.911  0.1642 -0.3785  0.1394
11308W        W13458  13.909   5.855  12.164 -0.3994  0.1158  0.2644
11309W        W13459   2.072   5.067  29.907  0.2098  0.2170 -0.0097
11310W        W13460  19.945   0.430  13.288  0.0387  0.1968  0.0865
11311W        W13461   5.368   1.035   6.932 -0.1808 -0.1451 -0.1123
11312W        W13462  12.913   0.049  10.595 -0.0674 -0.0037 -0.1974
11313W        W13463  13.104   3.088  42.649  0.3427  0.0581 -0.1909
11314W        W13464   7.236   2.116  10.267 -0.2471  0.1842  0.1127
11315W        W13465   9.137   4.948   1.548  0.0358  0.0993 -0.0416
11316W        W13466  14.363   1.561   3.202  0.0691  0.0775  0.0707
11317W        W13467   8.692   2.838  37.373  0.1022  0.0831 -0.0658
11318W        W13468  17.092   5.266   1.038  0.2787 -0.1045 -0.0064
11319W        W13469   6.142   1.413   7.345 -0.0983  0.0327 -0.0531
11320W        W13470  13.556   0.666   6.097  0.1927 -0.3198  0.0718
11321W        W13471   6.565   5.107  38.845  0.1920  0.1741 -0.0157
11322W        W13472   0.772   4.977  37.352  0.0594 -0.3338  0.0851
11323W        W13473  10.927   4.148  17.295 -0.0425 -0.2014 -0.2091
11324W        W13474  13.997   2.202  29.027 -0.0937  0.0814 -0.1712
11325W        W13475  17.362   4.931   7.639 -0.1350  0.0511 -0.0767
11326W        W13476  18.101   1.787  17.566 -0.0332 -0.0106 -0.1215
11327W        W13477  17.267   2.173   3.556  0.1172  0.0735  0.0824
11328W        W13478   5.935   3.397  21.709 -0.0123  0.0935 -0.0328
11329W        W13479  19.326   4.990  39.032 -0.2197  0.0785  0.0943
11330W        W13480  19.533   5.158  17.721  0.0586 -0.0935  0.2052
11331W        W13481   1.802   2.319   9.588  0.1162  0.0142  0.1452
11332W        W13482  11.664   1.672  28.451 -0.1241 -0.0986 -0.2406
11333W        W13483   6.421   5.179   3.846 -0.0446 -0.3084 -0.1546
11334W        W13484   8.974   0.066  12.667  0.1697  0.1014  0.1006
11335W        W13485   9.817   3.442   8.380  0.2325  0.2953  0.2208
11336W        W13486  17.740   5.159  37.748 -0.1701  0.2303 -0.1282
11337W        W13487  13.433   3.910  14.755 -0.1593 -0.0243 -0.3960
11338W        W13488   1.019   2.869   2.587  0.1606  0.2160  0.1681
11339W        W13489   7.540   2.350  12.234 -0.2038  0.0207  0.0734
11340W        W13490   9.284   0.621   4.090  0.0332  0.1029 -0.0217
11341W        W13491  19.602   3.249   2.594 -0.1268 -0.3137 -0.1877
11342W        W13492  18.165   4.763  12.734 -0.2769  0.2241 -0.0951
11343W        W13493   5.541   6.221   2.006  0.0175 -0.1371  0.2767
11344W        W13494  11.382   5.707  40.311 -0.0470 -0.3858  0.3112
11345W        W13495  19.369   2.240   1.128 -0.2457  0.0990  0.0943
11346W        W13496  13.179   1.741  39.506 -0.1681  0.0328  0.0939
11347W        W13497   5.082   1.705   3.486 -0.1523 -0.1999 -0.0672
11348W        W13498   5.021   1.045  12.127  0.2535  0.3978 -0.1469
11349W        W13499   9.185   3.341  29.604 -0.2346 -0.3315 -0.0090
11350W        W13500  15.330   4.022  33.545  0.1800  0.0337  0.0285
11351W        W13501  16.306   3.829  38.588 -0.1340 -0.0696  0.0854
11352W        W13502   8.669   3.760  23.466 -0.0650 -0.1781 -0.0510
11353W        W13503   3.163   2.263  36.586 -0.1626 -0.0719  0.0003
11354W        W13504  19.812   2.555  29.198 -0.2313 -0.2731  0.0671
11355W        W13505  18.567   2.832  21.520  0.1119  0.0560 -0.3353
11356W        W13506  15.925   6.493  10.514  0.2396  0.2394  0.1040
11357W        W13507  16.089   1.676   0.732  0.2166 -0.2595  0.0654
11358W        W13508  20.154   4.036   4.345  0.0211 -0.3861  0.3108
11359W        W13509  19.211   2.530  40.497 -0.0321  0.0254  0.1621
11360W        W13510   6.124   5.781   9.792  0.0131 -0.0554  0.0103
11361W        W13511   8.719   2.511  37.745 -0.1177  0.0282  0.4546
11362W        W13512   5.822   1.732  15.760  0.2258 -0.0917  0.0587
11363W        W13513  21.030   5.023  35.361  0.0048 -0.1080  0.1338
11364W        W13514  18.665   6.200   8.954 -0.0944  0.0402 -0.3621
11365W        W13515   1.206   4.100  14.187 -0.0301  0.2317 -0.0080
11366W        W13516   8.490   6.283  15.883  0.3957  0.0673 -0.1420
11367W        W13517   6.202   6.152   8.455 -0.0414  0.2646  0.0145
11368W        W13518  16.878   2.070  12.141 -0.0886  0.0497 -0.1367
11369W        W13519  16.394   2.532  29.712  0.1270 -0.0210  0.3453
11370W        W13520   7.245   6.466   5.622 -0.2903 -0.0400  0.1800
11371W        W13521  13.824   5.624  36.620 -0.3004  0.0485  0.0856
11372W        W13522  18.737   6.466  40.997  0.0787 -0.1085 -0.2930
11373W        W13523  20.309   1.883  32.693 -0.1244 -0.1620  0.0538
11374W        W13524   0.969   5.320  31.473 -0.1085  0.1293  0.0967
11375W        W13525  12.702   5.908  28.865  0.3304 -0.5214  0.1194
11376W        W13526  16.435   6.314  19.182 -0.0047 -0.3457  0.1646
11377W        W13527   4.196   2.208  10.171 -0.2931 -0.0504 -0.0610
11378W        W13528  15.027   0.535  35.214 -0.2279  0.1128 -0.2502
11379W        W13529   5.752   4.428  26.897  0.2629  0.2327 -0.1194
11380W        W13530   2.350   5.283   2.735  0.0736 -0.1290  0.1160
11381W        W13531  19.733   3.985   4.034  0.0651 -0.3812 -0.0709
11382W        W13532  18.630   1.532  12.161 -0.1548  0.2321 -0.0371
11383W        W13533  18.812   6.594  43.325  0.2248 -0.0356 -0.0315
11384W        W13534   2.124   2.096   2.586 -0.1807 -0.0750 -0.0778
11385W        W13535   7.229   1.952  38.350 -0.1524 -0.0472  0.0730
11386W        W13536  19.629   0.728  29.633  0.0205 -0.0912 -0.2289
11387W        W13537   9.092   0.056   6.582  0.0457  0.1520  0.1435
11388W        W13538   7.326   0.267   7.490  0.0991  0.1700  0.1731
11389W        W13539  10.362   2.367  28.315 -0.2869  0.1124  0.0857
11390W        W13540  12.572   2.271  28.017  0.0342  0.1153  0.0093
11391W        W13541  19.071   1.437  38.974  0.3907  0.2519 -0.1957
11392W        W13542   1.761   5.190   0.599 -0.2023 -0.0088 -0.1236
11393W        W13543  14.502   4.586  37.502 -0.0932 -0.1102  0.0127
11394W        W13544  18.356   0.498  36.762 -0.1299  0.0032  0.3602
11395W        W13545   6.235   1.713   2.896 -0.0867  0.1955 -0.0611
11396W        W13546   0.385   4.228   6.354 -0.2369 -0.0682 -0.1899
11397W        W13547   3.942   4.434  27.326  0.3287  0.0154  0.1923
11398W        W13548  11.601   2.238  39.638 -0.2130 -0.2208 -0.0784
11399W        W13549   1.738   3.366  43.526 -0.2974  0.2906 -0.1279
11400W        W13550  13.420   5.964  29.546 -0.0751  0.1115  0.3275
11401W        W13551   6.471   1.726  10.201 -0.0106  0.0348  0.0541
11402W        W13552   6.756   1.036  44.127 -0.1136 -0.0621 -0.2638
11403W        W13553   4.473   1.196  35.119  0.1483  0.2803  0.1150
11404W        W13554  14.470   4.213   6.757  0.2345 -0.2055  0.0186
11405W        W13555  16.660   1.527   7.056 -0.2315 -0.0637 -0.3758
11406W        W13556  11.085   0.104  30.581 -0.0184  0.2357 -0.0311
11407W        W13557   8.451   0.223  36.011 -0.1195  0.1366 -0.1031
11408W        W13558  11.189   6.253   5.015 -0.4500 -0.2774 -0.0435
11409W        W13559  16.606   3.644   1.635  0.0936  0.1577  0.1558
11410W        W13560   8.537   5.977   7.383 -0.3183  0.0603  0.2516
11411W        W13561   6.051   3.086  29.935  0.2507 -0.0024  0.3334
11412W        W13562  14.385   0.668  37.943 -0.0720  0.0473  0.0297
11413W        W13563   6.316   5.460  45.075  0.1197 -0.0991 -0.1492
11414W        W13564   6.131   2.161  40.898 -0.1092 -0.0519 -0.0746
11415W        W13565  11.966   4.300  42.851 -0.3853 -0.0455 -0.2375
11416W        W13566  12.891   2.395   6.531  0.1583  0.0608 -0.0924
11417W        W13567  16.890   4.204  40.114 -0.2530 -0.1861 -0.1295
11418W        W13568   3.846   2.568  28.504 -0.0295 -0.0066 -0.2444
11419W        W13569   2.858   4.326  25.727 -0.0373  0.2313  0.1295
11420W        W13570  10.791   4.757  39.079  0.0420  0.1054 -0.1707
11421W        W13571  20.569   6.021  29.978  0.4104  0.1213  0.2253
11422W        W13572  19.318   6.495  17.901 -0.1754  0.4009 -0.1688
11423W        W13573  16.083   1.015  31.183 -0.1607  0.1386  0.0221
11424W        W13574  18.670   6.381  12.310  0.3219 -0.2463 -0.1485
11425W        W13575   1.677   5.944  33.095  0.3195 -0.1933 -0.3079
11426W        W13576  16.025   5.254  21.017  0.2378 -0.0915 -0.0203
11427W        W13577   0.069   1.323  30.068 -0.0091  0.2076 -0.2202
11428W        W13578  16.883   2.488  29.900  0.2276  0.1644 -0.2722
11429W        W13579  18.931   0.629   1.173 -0.0743 -0.0768  0.0276
11430W        W13580  17.356   5.097   3.835 -0.3560 -0.0610  0.2119
11431W        W13581  20.390   3.914  10.164 -0.0733 -0.3292  0.0955
11432W        W13582  19.988   4.890  35.561  0.0023 -0.0780  0.3118
11433W        W13583  16.855   2.284  19.871 -0.4898 -0.4699 -0.1053
11434W        W13584  11.997   4.018   2.708 -0.3708 -0.0253 -0.3332
11435W        W13585   0.279   5.199   1.876  0.0180 -0.1669  0.2938
11436W        W13586  19.518   3.765   3.505  0.1216  0.2273  0.4288
11437W        W13587  10.799   0.511  29.857  0.1819 -0.0912 -0.0987
11438W        W13588   5.343   2.331  38.320 -0.1870 -0.0546  0.3291
11439W        W13589   9.384   5.983   1.676 -0.0547  0.1108 -0.1397
11440W        W13590  18.903   5.769   8.713  0.1165  0.3018  0.2977
11441W        W13591   8.142   1.563  41.687 -0.1129 -0.1381 -0.0463
11442W        W13592   0.409   5.823  44.015  0.0842  0.0390  0.1099
11443W        W13593  10.466   3.895   8.398  0.2080 -0.1173  0.0651
11444W        W13594   8.920   1.834  39.369 -0.0898  0.5831 -0.0040
11445W        W13595  12.686   0.728  39.599 -0.4971 -0.0001  0.0772
11446W        W13596   6.800   4.270  28.258  0.1269 -0.3230 -0.1130
11447W        W13597  10.923   3.127   1.271  0.1838 -0.2463 -0.3117
11448W        W13598  15.312   2.130   8.738  0.0654 -0.3135  0.0206
11449W        W13599  10.817   5.596  11.778 -0.1656 -0.0903  0.1417
11450W        W13600   1.758   3.950  11.687 -0.2280 -0.0548  0.2220
11451W        W13601  16.162   5.268  30.211 -0.1991 -0.1248 -0.1171
11452W        W13602  14.621   3.608   1.227  0.0778 -0.1901  0.3779
11453W        W13603  10.231   3.914   4.239  0.1448 -0.2005  0.0892
11454W        W13604  15.659   0.347  32.361 -0.0254 -0.1604 -0.0275
11455W        W13605   3.883   5.203  34.046 -0.3198  0.2765  0.1433
11456W        W13606   5.314   1.655  31.413  0.2768 -0.0003 -0.2643
11457W        W13607  12.631   3.010  16.297  0.2592 -0.0012  0.0475
11458W        W13608  13.620   4.703  30.573  0.3025  0.2874  0.1781
11459W        W13609  12.393   3.134   2.975  0.2297 -0.0903  0.0502
11460W        W13610   5.253   0.376  14.843  0.0789 -0.0132  0.3044
11461W        W13611  13.720   0.782  39.170 -0.0298  0.2496 -0.1253
11462W        W13612  11.780   2.510   8.120 -0.1221  0.0444 -0.0722
11463W        W13613   5.437   1.574  11.573 -0.2895  0.0699  0.1904
11464W        W13614   8.990   4.864   6.777 -0.2709  0.0498  0.0654
11465W        W13615  16.634   4.120  21.952  0.0961  0.1772 -0.1311
11466W        W13616   8.315   3.288   8.769  0.0928 -0.0219  0.0653
11467W        W13617  11.793   0.238   2.560 -0.1868 -0.1883  0.0064
11468W        W13618   8.138   4.449  34.291  0.3469  0.0650  0.3169
11469W        W13619   4.697   4.853   9.221 -0.3070  0.0835  0.1832
11470W        W13620   9.378   5.856  12.614 -0.1562  0.1550 -0.1163
11471W        W13621  10.852   5.469  17.069 -0.1209  0.0790 -0.0172
11472W        W13622   8.482   6.249  16.421  0.1299 -0.1902 -0.0193
11473W        W13623   7.510   1.103   8.795 -0.1359 -0.1684  0.1083
11474W        W13624  12.048   1.383  30.639  0.0521 -0.0378 -0.0907
11475W        W13625  16.220   4.464  10.367 -0.0796  0.2627  0.3425
11476W        W13626  10.063   3.415   4.128  0.1211 -0.1581  0.1622
11477W        W13627  11.175   0.155   4.679 -0.0235 -0.0391 -0.2534
11478W        W13628   1.840   3.300   3.265  0.0676 -0.2407 -0.1217
11479W        W13629   9.026   6.043  31.819 -0.0125 -0.1308  0.2697
11480W        W13630   5.713   3.859   2.287 -0.0857  0.0970  0.3236
11481W        W13631   1.717   2.896   1.914  0.1870  0.1029 -0.1513
11482W        W13632  18.526   3.830  17.361 -0.2507  0.0879 -0.1730
11483W        W13633  20.922   2.106  10.715 -0.2663 -0.0706  0.0415
11484W        W13634  19.773   5.862   3.201 -0.1630 -0.1169  0.2061
11485W        W13635   3.638   6.340  44.086  0.3004  0.1498 -0.1005
11486W        W13636  14.870   1.351  35.011  0.0345 -0.0742 -0.0932
11487W        W13637   1.016   0.389   1.410  0.0201  0.0760 -0.1592
11488W        W13638  13.603   3.838  38.292 -0.0933  0.2260 -0.1473
11489W        W13639   8.783   3.805  40.713 -0.0231 -0.0197 -0.2119
11490W        W13640   6.547   2.874   6.501 -0.1099  0.1214 -0.3775
11491W        W13641   6.772   5.653  32.854 -0.0117  0.1672  0.0945
11492W        W13642   3.974   0.973  31.050  0.2182 -0.1832 -0.0229
11493W        W13643  13.294   0.712  17.888 -0.1046  0.0086 -0.2532
11494W        W13644   1.524   1.219  38.017  0.4709  0.1065 -0.1961
11495W        W13645   3.808   4.618  14.763 -0.0942  0.2861  0.5050
11496W        W13646  20.428   3.393   0.252  0.0715 -0.2993  0.1254
11497W        W13647   6.078   3.545  25.231 -0.2146 -0.0443 -0.0574
11498W        W13648   3.026   5.687   2.441 -0.0683  0.1072 -0.4781
11499W        W13649  13.620   4.707  30.006 -0.0391  0.2406 -0.1227
11500W        W13650  16.502   4.098  14.320 -0.0510 -0.0693 -0.4625
11501W        W13651   4.729   1.529  14.439  0.1623 -0.1419 -0.1907
11502W        W13652   1.333   6.267  41.971  0.0352 -0.0809  0.3213
11503W        W13653  14.396   3.011  32.844 -0.1730 -0.0080 -0.1916
11504W        W13654  20.191   0.242  14.427  0.0534 -0.0058 -0.2001
11505W        W13655   8.991   0.682  28.068  0.0676 -0.0200  0.1029
11506W        W13656   9.626   1.307  11.527 -0.1152  0.0646 -0.0174
11507W        W13657   3.518   2.401   6.944 -0.1321  0.2068 -0.4326
11508W        W13658  14.719   0.046   6.012  0.1297 -0.1056 -0.1531
11509W        W13659   4.472   1.133   2.771  0.2015  0.0006 -0.0819
11510W        W13660   6.326   3.711  23.134 -0.2805  0.5447  0.0266
11511W        W13661  13.738   2.387  37.193 -0.0104 -0.0070 -0.0155
11512W        W13662   1.445   1.737   0.644 -0.1404  0.2857  0.0850
11513W        W13663   6.414   1.939  20.951  0.1940  0.0536  0.0488
11514W        W13664   5.030   5.329  21.166 -0.2121  0.0454  0.0896
11515W        W13665  16.251   5.907   7.882 -0.1042  0.1714  0.5276
11516W        W13666   2.784   5.098  37.057 -0.1537  0.1252 -0.0460
11517W        W13667   6.185   3.498  29.257 -0.0577 -0.0813  0.0420
11518W        W13668  10.761   6.132  31.780  0.4530 -0.0900 -0.1937
11519W        W13669   2.079   6.558  11.390  0.2194  0.1587  0.1834
11520W        W13670  14.860   5.188  30.516  0.0758 -0.0400  0.1068
11521W        W13671  20.924   5.020  43.405 -0.0410 -0.0746  0.1469
11522W        W13672  20.121   3.121  11.402 -0.3111 -0.0124 -0.0858
11523W        W13673   2.644   1.476   0.656 -0.4191  0.0183 -0.1151
11524W        W13674  14.325   6.297  13.719 -0.0096  0.0456 -0.2646
11525W        W13675   7.261   5.074   6.727 -0.0821  0.1710  0.2359
11526W        W13676  11.719   3.409  12.386  0.2476 -0.0452  0.0580
11527W        W13677   0.471   0.269  31.361 -0.0539 -0.1404 -0.0507
11528W        W13678  17.910   3.788  40.880  0.0177  0.0241 -0.0886
11529W        W13679  20.749   0.560  11.752 -0.1312 -0.0107 -0.1344
11530W        W13680  18.503   6.422  44.496  0.0424  0.2738 -0.0224
11531W        W13681   5.590   0.954   5.925 -0.1586 -0.2196  0.0333
11532W        W13682   2.129   3.183  41.881  0.0484  0.2126  0.1984
11533W        W13683  16.798   1.618  39.235  0.2461 -0.0188  0.1013
11534W        W13684   1.987   3.387   6.212  0.0301 -0.2468 -0.1285
11535W        W13685  15.168   0.842  30.589 -0.2700  0.0460 -0.0839
11536W        W13686   6.941   0.867  35.010 -0.2136  0.0203 -0.0905
11537W        W13687   0.337   2.390   5.181 -0.0121 -0.2330 -0.1806
11538W        W13688  18.191   1.583  20.703 -0.1174 -0.3792  0.0220
11539W        W13689  15.283   2.433  41.177 -0.2058 -0.0114  0.2150
11540W        W13690  12.355   5.895  39.656  0.0254  0.0126 -0.2410
11541W        W13691   9.271   3.834  12.802  0.2122  0.0385  0.2789
11542W        W13692  10.881   0.077  34.600  0.1268 -0.1158  0.0684
11543W        W13693  12.192   5.464  13.030  0.0870  0.1698 -0.0875
11544W        W13694  20.789   0.905  36.089 -0.2065 -0.0566 -0.4002
11545W        W13695  10.319   2.710  33.548  0.1805  0.0209 -0.1035
11546W        W13696   3.072   3.292  25.566  0.0374 -0.0618 -0.2642
11547W        W13697   5.561   5.180  20.529 -0.1539  0.2024  0.0029
11548W        W13698   7.373   5.649  34.639  0.0824 -0.0062  0.3119
11549W        W13699  13.393   0.946  12.128 -0.2031 -0.2522 -0.0953
11550W        W13700  16.922   4.979  24.789  0.1349  0.2047 -0.3348
11551W        W13701  14.474   2.274  21.781 -0.1657  0.2632 -0.0843
11552W        W13702   6.840   2.011  35.089 -0.1229  0.0728 -0.0158
11553W        W13703   5.727   1.283  30.992 -0.2146  0.1835  0.0536
11554W        W13704  17.633   1.428  33.358  0.0331 -0.1345  0.0329
11555W        W13705   1.085   0.712  12.348  0.1902 -0.3335 -0.0353
11556W        W13706  12.671   1.084  16.705 -0.0839 -0.3834 -0.0172
11557W        W13707  14.339   0.234   6.379  0.0268 -0.1481  0.0788
11558W        W13708   2.846   4.540  42.623  0.0804 -0.3823 -0.1456
11559W        W13709  12.812   0.691  19.358 -0.4001  0.1381 -0.1759
11560W        W13710  16.958   0.965  38.436 -0.0322 -0.0212  0.3520
11561W        W13711   1.748   5.707  31.568 -0.0156  0.0154 -0.3276
11562W        W13712  16.985   6.415  41.582 -0.0008 -0.0497 -0.2594
11563W        W13713  19.949   2.804  32.658 -0.0320  0.2917  0.2914
11564W        W13714  10.365   6.443  28.783  0.0837 -0.0139  0.1326
11565W        W13715   3.955   2.397  38.662 -0.2544  0.1908 -0.2190
11566W        W13716  17.581   2.816  32.750  0.1669  0.2890  0.0762
11567W        W13717  20.925   5.231  15.125 -0.1443  0.1059 -0.2271
11568W        W13718   5.027   6.450  28.110 -0.0560  0.2621 -0.0119
11569W        W13719   9.047   5.345  27.877 -0.1070  0.2218  0.0080
11570W        W13720  14.787   1.679   3.487  0.1842 -0.0108 -0.0318
11571W        W13721  16.123   2.746   0.639  0.0501 -0.1200  0.3446
11572W        W13722  18.985   4.383   9.840 -0.0990 -0.2566 -0.1633
11573W        W13723   2.764   0.948  14.545 -0.0627  0.1483  0.0507
11574W        W13724  10.727   3.683  17.096  0.1917 -0.2237  0.0397
11575W        W13725  12.971   3.647   1.378 -0.1265  0.1654 -0.0358
11576W        W13726  10.604   3.027  36.798 -0.1877  0.3017 -0.2493
11577W        W13727   1.666   1.912  40.540 -0.0656 -0.3628  0.4543
11578W        W13728  10.909   1.348  40.212  0.2023  0.1058  0.0932
11579W        W13729  16.359   0.490   9.477  0.0476 -0.1147  0.0616
11580W        W13730  13.797   3.129  33.333 -0.1380 -0.0409 -0.1974
11581W        W13731   4.171   3.718   5.010 -0.2541 -0.0107  0.5056
11582W        W13732  19.945   3.460  12.402 -0.1232 -0.0442  0.0578
11583W        W13733   6.082   4.627  22.379 -0.1708  0.1516 -0.1910
11584W        W13734  19.687   1.340  11.447  0.1990  0.1433 -0.0228
11585W        W13735   1.306   0.027  31.762 -0.3337 -0.1013  0.1522
11586W        W13736  11.350   4.992  28.383 -0.2697 -0.2186 -0.1199
11587W        W13737  16.427   3.617   9.026 -0.1676 -0.0925  0.2066
11588W        W13738  12.260   2.676  40.889 -0.0538 -0.0984  0.2658
11589W        W13739   0.072   2.300   0.654 -0.1661  0.1787 -0.2756
11590W        W13740  19.946   4.641  16.015 -0.0684 -0.2289 -0.0486
11591W        W13741  14.024   3.264  37.016  0.4996 -0.0148  0.1752
11592W        W13742   1.820   5.118   7.052  0.0832  0.0463 -0.3087
11593W        W13743   1.905   5.182  36.052  0.2039  0.2375 -0.0279
11594W        W13744  11.653   1.814  40.282 -0.0288  0.3402  0.4057
11595W        W13745  17.457   0.382  36.068  0.1362  0.2475  0.2777
11596W        W13746  17.580   4.297  12.216 -0.0672 -0.0078 -0.0279
11597W        W13747  15.881   6.291   7.799 -0.0347  0.1259  0.1060
11598W        W13748  18.776   1.708  38.194  0.1308  0.1747  0.0470
11599W        W13749   5.601   1.520  21.063  0.0620  0.1667 -0.2624
11600W        W13750   0.610   4.436  38.843 -0.0679  0.0506  0.1728
11601W        W13751   9.635   2.289   7.315 -0.2021  0.1691  0.1018
11602W        W13752   4.341   2.789  26.991 -0.2023  0.1554 -0.3249
11603W        W13753  19.403   4.898  11.978 -0.0954 -0.0145 -0.0606
11604W        W13754   6.142   0.482   7.217  0.1892  0.2605 -0.1437
11605W        W13755  16.652   5.067  40.711  0.2662 -0.1217  0.0225
11606W        W13756   5.010   5.655   9.188 -0.0586 -0.0046  0.0071
11607W        W13757  10.976   4.438  33.993 -0.2917 -0.1462 -0.0656
11608W        W13758  12.169   1.670  35.314 -0.1226  0.0515 -0.1316
11609W        W13759  15.577   5.887  18.245 -0.0281  0.0427  0.1207
11610W        W13760   8.495   5.009  14.032  0.0131  0.0224  0.2214
11611W        W13761  15.956   0.395  29.337  0.0351  0.1415  0.2136
11612W        W13762   2.228   0.238  10.874 -0.0006  0.1720  0.1076
11613W        W13763   5.885   6.490  10.864 -0.1644  0.1117 -0.0304
11614W        W13764  18.467   1.289  40.964  0.0589  0.1695  0.3413
11615W        W13765   2.411   4.922  36.102  0.1634 -0.1833  0.0452
11616W        W13766   9.193   1.190  29.572 -0.1498 -0.0327 -0.0666
11617W        W13767   7.765   4.572  14.635  0.0212 -0.0095 -0.1022
11618W        W13768   1.274   4.554  13.834 -0.1989 -0.3241  0.0883
11619W        W13769   2.620   2.997   3.162  0.0635  0.1106  0.1618
11620W        W13770  18.067   1.439   6.048  0.1393 -0.2354 -0.0564
11621W        W13771   5.841   3.245  11.637 -0.0470 -0.1691 -0.1745
11622W        W13772   2.058   0.915  45.054 -0.1015 -0.0293  0.0190
11623W        W13773  14.087   4.853   7.270  0.4444  0.1142 -0.0403
11624W        W13774  14.661   2.561   2.061 -0.2212 -0.0667 -0.0724
11625W        W13775  12.114   4.275  17.931  0.2272 -0.1479  0.2903
11626W        W13776  12.465   4.523  39.534  0.0088 -0.3207  0.0202
11627W        W13777   8.424   0.893   5.588 -0.0208  0.2289 -0.3195
11628W        W13778   4.129   3.612  32.415  0.0081 -0.1275 -0.1177
11629W        W13779   9.713   4.484  37.496  0.0473  0.1065 -0.3841
11630W        W13780   4.708   2.667  31.589  0.3505  0.0209 -0.0297
11631W        W13781   1.987   5.664   2.599 -0.4579  0.0863  0.2711
11632W        W13782  13.134   0.718  38.222 -0.2608 -0.0679 -0.5104
11633W        W13783   1.272   3.644  31.840 -0.1159 -0.4469 -0.2196
11634W        W13784  14.894   6.247  14.045 -0.1313  0.1191 -0.0607
11635W        W13785  18.543   1.814  15.408 -0.2600  0.1319  0.0060
11636W        W13786  14.413   0.497  34.874  0.0888  0.1394  0.0476
11637W        W13787   0.662   4.220  39.955 -0.4540  0.1151 -0.1052
11638W        W13788   6.526   4.868  36.809 -0.1029  0.2378 -0.1400
11639W        W13789   5.456   6.156  34.989  0.1037  0.0494  0.3072
11640W        W13790  16.865   1.022  24.208 -0.1375 -0.2059  0.0307
11641W        W13791  18.757   3.671  21.364  0.1456 -0.2210  0.1448
11642W        W13792  11.328   0.843  34.499 -0.0547 -0.3240  0.0313
11643W        W13793   2.328   4.166  38.490 -0.3345 -0.1754 -0.1778
11644W        W13794   4.566   4.256   7.602  0.3877  0.2342  0.0331
11645W        W13795  18.813   1.434   4.703 -0.2750  0.0967  0.1741
11646W        W13796  20.191   6.245  40.502 -0.0157  0.2966 -0.3918
11647W        W13797   5.254   4.225  30.828  0.1845  0.2334 -0.0643
11648W        W13798  17.689   0.765  33.644 -0.0751 -0.0921  0.0191
11649W        W13799   8.187   0.484  36.399 -0.2934 -0.2501 -0.1123
11650W        W13800  16.620   2.654  23.565  0.1286 -0.3730 -0.2196
11651W        W13801   8.377   3.684  42.562  0.2920  0.0123  0.1479
11652W        W13802   4.512   3.734  14.580  0.1939 -0.2957 -0.1613
11653W        W13803  16.786   0.040  16.377 -0.1811  0.0707  0.1508
11654W        W13804  14.653   0.037  32.693  0.0085  0.2013 -0.2931
11655W        W13805  18.820   4.119  38.897  0.2216 -0.0370 -0.2483
11656W        W13806  18.777   0.058  29.740  0.0448  0.0778 -0.1266
11657W        W13807   3.814   3.383   6.068 -0.0243 -0.0790 -0.1140
11658W        W13808  14.773   4.297   7.676 -0.0616  0.0259  0.1168
11659W        W13809  20.532   1.442  19.124 -0.0061  0.4425  0.0078
11660W        W13810   1.510   1.139   0.454 -0.0852  0.0802 -0.1645
11661W        W13811  18.797   1.001  30.690  0.1334 -0.0005  0.3801
11662W        W13812  20.616   2.309  17.431 -0.2076  0.1154  0.3879
11663W        W13813   7.410   2.723  44.263 -0.3929  0.0814 -0.1452
11664W        W13814  12.192   2.866   1.019  0.4280 -0.1575 -0.3489
11665W        W13815   4.011   3.135   5.700  0.0965 -0.1093 -0.2514
11666W        W13816   4.326   5.342   8.447  0.0488 -0.1636 -0.1141
11667W        W13817   0.068   3.996  15.613  0.0920 -0.0153 -0.0666
11668W        W13818  16.757   1.116  14.421 -0.1103 -0.0592 -0.2258
11669W        W13819  18.673   2.882  20.684  0.1899  0.0220  0.0211
11670W        W13820   7.537   3.383  35.661 -0.0371 -0.1404  0.0526
11671W        W13821   5.881   6.381  43.171 -0.1433  0.2288  0.2954
11672W        W13822   8.068   5.176  30.352  0.2035 -0.0725 -0.1184
11673W        W13823  19.772   4.387  14.587  0.0964 -0.0441 -0.4245
11674W        W13824   4.047   2.702  38.233  0.0004 -0.4615  0.0701
11675W        W13825   2.753   3.712   3.263 -0.1110  0.0150 -0.1337
11676W        W13826  18.952   2.716   7.268  0.1571 -0.2559  0.2909
11677W        W13827   1.837   6.553  35.432  0.3516  0.0071 -0.0678
11678W        W13828   8.011   0.226   2.155 -0.1773 -0.0828 -0.0410
11679W        W13829   6.770   0.238  12.652  0.0454  0.1595  0.0260
11680W        W13830   2.397   2.176  35.587  0.2681  0.0400  0.0987
11681W        W13831  18.535   0.330  41.092  0.0611 -0.1588  0.1267
11682W        W13832   1.643   6.088  12.857 -0.0442  0.2214 -0.4090
11683W        W13833  13.371   6.287  37.742  0.0655  0.0348 -0.2937
11684W        W13834  14.582   0.289  35.875 -0.2241  0.3801 -0.0895
11685W        W13835  14.438   2.070  22.756 -0.0197  0.0342  0.1487
11686W        W13836   6.657   2.407   1.231  0.3099 -0.0353  0.0988
11687W        W13837   2.621   4.294  15.513 -0.1581  0.7268 -0.1124
11688W        W13838   2.298   2.312   0.147 -0.2590  0.1627 -0.0726
11689W        W13839   9.656   4.033  14.583 -0.1792  0.0119  0.0593
11690W        W13840  12.055   0.549  41.311  0.2553 -0.1144  0.1861
11691W        W13841   0.747   5.264  38.257 -0.3398 -0.0014  0.1292
11692W        W13842  12.959   2.995  44.371 -0.1493  0.0193 -0.1807
11693W        W13843  20.883   4.605  18.156  0.1481  0.0682  0.2937
11694W        W13844  13.223   1.960   2.303 -0.2318  0.0508 -0.1066
11695W        W13845  13.921   0.465  41.784  0.1028 -0.0892 -0.2613
11696W        W13846  16.506   5.447  41.605  0.0209  0.2351 -0.4277
11697W        W13847   4.766   3.844  31.593 -0.2570 -0.1810  0.2069
11698W        W13848   9.537   3.411  10.497 -0.1299 -0.1582 -0.1650
11699W        W13849   2.932   3.744   5.128 -0.3957 -0.1566 -0.2375
11700W        W13850   5.221   6.204   1.623  0.1406 -0.1306 -0.2177
11701W        W13851  16.126   0.839   2.377  0.0952 -0.1323 -0.0010
11702W        W13852  16.763   4.646  19.589 -0.1775 -0.0113  0.0026
11703W        W13853  17.825   5.327  10.272 -0.1707  0.1965 -0.0737
11704W        W13854   0.224   6.546  31.621 -0.0402  0.0711  0.0207
11705W        W13855   4.127   3.607  31.719 -0.1369  0.2075  0.2014
11706W        W13856  12.379   4.725  17.953  0.1963 -0.0063  0.0216
11707W        W13857  12.451   4.464   8.975 -0.1666 -0.0133  0.2930
11708W        W13858   1.091   5.580  36.331 -0.1869  0.1472 -0.2279
11709W        W13859   4.950   2.028  27.651  0.0663  0.1660  0.1561
11710W        W13860   0.346   2.823  40.683 -0.2534  0.2630 -0.1561
11711W        W13861  11.038   0.810  31.134  0.0861  0.3238  0.0213
11712W        W13862   0.376   2.930   0.965  0.0508  0.2602  0.1613
11713W        W13863   7.889   0.887  29.762  0.0868 -0.0011  0.0282
11714W        W13864   0.505   6.232  11.946  0.1647 -0.2258  0.0347
11715W        W13865   6.736   5.054  39.811  0.2223 -0.4170  0.1279
11716W        W13866   9.548   6.382   5.922  0.0240  0.1511  0.0773
11717W        W13867  11.941   0.809  38.649 -0.1401  0.0256 -0.1555
11718W        W13868  14.737   0.181  21.500  0.1543 -0.3156 -0.2749
11719W        W13869   5.501   4.271   0.008  0.1790  0.0296 -0.2636
11720W        W13870  11.055   1.357   6.941  0.2724 -0.3486  0.1008
11721W        W13871   5.773   1.608  33.940 -0.1167 -0.0844  0.2298
11722W        W13872   1.351   0.412  13.944 -0.0090 -0.1685  0.0195
11723W        W13873  14.847   2.904   6.926  0.2831 -0.0145 -0.0722
11724W        W13874   9.354   4.618  32.280  0.0241  0.0805 -0.1067
11725W        W13875   4.644   2.911  37.067 -0.0941  0.1596  0.0004
11726W        W13876   9.338   0.903   1.046  0.0741  0.0137 -0.1048
11727W        W13877   9.108   5.644  34.379  0.1863  0.2662 -0.1746
11728W        W13878   9.450   1.170  42.977  0.1955 -0.2063 -0.0424
11729W        W13879   0.191   2.662   6.682 -0.0621  0.3162 -0.2097
11730W        W13880  13.292   4.595   4.443 -0.2058 -0.2878  0.0813
11731W        W13881  12.342   1.179  31.691  0.2037  0.2241 -0.2301
11732W        W13882   6.459   2.903   5.652 -0.0400  0.0738  0.2178
11733W        W13883   7.442   1.374  35.307  0.0896 -0.2857  0.2488
11734W        W13884  11.400   5.642   7.517  0.2317 -0.1448  0.1409
11735W        W13885   9.976   5.583  41.945  0.2634  0.1265  0.1166
11736W        W13886   1.113   0.863   2.920 -0.1813  0.1741  0.0352
11737W        W13887   6.462   2.875  41.474  0.2424  0.1722 -0.2269
11738W        W13888   4.544   3.089  43.059 -0.1675 -0.2404  0.0947
11739W        W13889  17.740   5.819  40.167 -0.1407 -0.0401  0.3258
11740W        W13890  14.040   3.531  36.067  0.2065 -0.0251 -0.0026
11741W        W13891  14.871   4.192  32.160  0.1047 -0.5525  0.0648
11742W        W13892  15.114   5.177  38.746  0.0032  0.1160  0.0415
11743W        W13893  20.066   0.687  41.732  0.1848 -0.0584  0.0083
11744ION     NA13894  13.799   4.858  44.458 -0.0370  0.5136  0.0277
11745ION     NA13895   8.342   0.308  17.046 -0.1864  0.0797 -0.2401
11746ION     NA13896   8.450   3.179  37.446  0.0246 -0.1431  0.0086
11747ION     NA13897   5.153   1.763  32.153  0.3701 -0.1893  0.2370
11748ION     NA13898   1.845   2.813  37.980 -0.1699 -0.1020 -0.4378
11749ION     NA13899   7.794   0.971   2.742  0.1779 -0.1850  0.2185
11750ION     NA13900   4.748   0.845  37.171 -0.0859 -0.5152 -0.3658
11751ION     NA13901   1.578   4.608  26.390 -0.1205 -0.2849  0.1508
11752ION     NA13902   0.122   6.489  33.904  0.1889  0.3715 -0.1952
11753ION     NA13903  17.921   3.355   6.224 -0.0414  0.2649 -0.1110
11754ION     NA13904   1.527   4.502   9.229 -0.3209  0.0269  0.3646
11755ION     NA13905  15.501   1.013   9.187 -0.3464 -0.1137 -0.2125
11756ION     NA13906  16.333   1.944  23.879  0.0413  0.5076  0.3606
11757ION     NA13907   4.153   0.092  26.646  0.1789  0.0705 -0.6772
11758ION     NA13908  19.196   3.106   8.973  0.0385  0.3483 -0.0301
11759ION     NA13909  17.910   4.283  43.299 -0.1552  0.1173 -0.1183
11760ION     NA13910   6.332   3.838  31.127  0.1935 -0.4564  0.1809
11761ION     NA13911  19.541   5.127  42.389  0.0164 -0.3571 -0.0922
11762ION     NA13912  12.470   6.394   1.084 -0.0952 -0.2984  0.0474
11763ION     NA13913  12.367   1.759  17.835 -0.6161  0.3252  0.1295
11764ION     NA13914   9.540   2.171   7.923 -0.2696 -0.3842  0.1022
11765ION     NA13915   7.297   6.110   1.391 -0.1205 -0.3066  0.9514
11766ION     NA13916   8.715   5.899   4.748 -0.2583 -0.0144  0.0821
11767ION     NA13917   2.987   3.856  43.460 -0.5066  0.5935  0.1667
11768ION     NA13918  19.146   3.450  42.349 -0.1139  0.1085 -0.4278
11769ION     NA13919  21.049   4.693  36.543  0.2367  0.2688  0.2957
11770ION     NA13920   9.248   2.543   7.202 -0.0881  0.2729  0.3643
11771ION     NA13921  14.024   4.405  34.654 -0.6792  0.2704 -0.1810
11772ION     NA13922   7.881   5.946  33.810 -0.1435 -0.1180  0.0637
11773ION     NA13923  17.383   4.340  40.950  0.0172  0.2533  0.0472
11774ION     NA13924   9.814   4.225  15.974  0.1841 -0.3475  0.1415
11775ION     NA13925   9.890   6.366  27.563 -0.2129  0.0804  0.3462
11776ION     NA13926  19.938   3.104   9.862  0.1900 -0.3191  0.5680
11777ION     NA13927  13.742   5.796   0.781 -0.2017  0.1184  0.1165
11778ION     NA13928   0.724   4.077   2.586 -0.0320 -0.0116 -0.2164
11779ION     NA13929  13.823   3.739   3.795 -0.1622 -0.0505  0.3347
11780ION     NA13930  19.439   0.051  42.385 -0.3774  0.2469  0.3679
11781ION     NA13931  10.796   3.360   9.810  0.1364  0.1474 -0.1007
11782ION     NA13932   5.802   0.197   5.952  0.5846  0.0122  0.4757
11783ION     NA13933   2.443   1.713  29.151  0.4602  0.5046 -0.1274
11784ION     NA13934  20.385   2.247  34.204 -0.1358 -0.0722  0.0771
11785ION     NA13935  13.958   5.022  38.835  0.2322 -0.2996 -0.1199
11786ION     NA13936  19.153   2.979   5.169 -0.1172  0.4647  0.2836
11787ION     NA13937  13.963   4.462  37.691 -0.3112 -0.2279 -0.3536
11788ION     NA13938  14.149   3.130  18.241  0.0638 -0.5687  0.0513
11789ION     NA13939  10.881   0.198  40.653 -0.1914  0.2216  0.1907
11790ION     NA13940   3.180   4.168  11.468  0.3294 -0.5155 -0.2335
11791ION     NA13941   2.967   2.242  30.464 -0.4359 -0.0314 -0.4028
11792ION     NA13942  16.897   4.829  43.783 -0.2579 -0.1556  0.0192
11793ION     NA13943   6.650   0.253  14.814  0.0205 -0.1725 -0.0920
11794ION     NA13944  16.439   3.468  38.080 -0.3929 -0.0639 -0.2440
11795ION     NA13945   1.847   6.200  32.340 -0.0267  0.0194 -0.2110
11796ION     NA13946  19.919   1.844  13.446 -0.2968  0.1255  0.1756
11797ION     NA13947  18.769   1.467  16.092 -0.1504 -0.3350 -0.1108
11798ION     NA13948  10.327   1.835  11.632  0.1385 -0.0009 -0.1520
11799ION     NA13949   7.308   3.798  30.342 -0.1596 -0.0264  0.2867
11800ION     NA13950   2.463   0.306  37.409  0.1441 -0.2383 -0.1692
11801ION     NA13951  14.229   6.464   7.926 -0.4027  0.2796  0.0698
11802ION     NA13952  11.188   3.852   3.970  0.3781 -0.0889  0.4050
11803ION     NA13953  14.883   6.034  29.938  0.1211 -0.4757 -0.0118
11804ION     NA13954  14.295   4.622   2.507 -0.2507  0.0070  0.0510
11805ION     NA13955  14.171   4.119  31.601  0.1950 -0.2435  0.0214
11806ION     NA13956   0.082   1.058  32.868  0.0470  0.0337  0.2521
11807ION     NA13957  18.655   2.072  37.693  0.0332 -0.0875  0.1881
11808ION     NA13958  16.765   5.383  17.828  0.4088  0.1740 -0.4635
11809ION     NA13959  19.315   3.307   2.954 -0.1821 -0.1814  0.1932
11810ION     NA13960  16.273   0.203  36.850 -0.0944  0.0038 -0.0275
11811ION     NA13961  12.912   0.180  15.018  0.2474  0.0776 -0.2972
11812ION     NA13962   3.568   3.011  30.448  0.5380  0.5134 -0.1171
11813ION     NA13963  12.145   5.967   1.357  0.0204  0.1549  0.0783
11814ION     NA13964   6.252   1.393  14.467 -0.3657  0.4067  0.0498
11815ION     NA13965  17.654   0.454  40.292  0.5316 -0.3416 -0.1313
11816ION     NA13966  15.377   3.447   0.989  0.1313  0.2668  0.1458
11817ION     NA13967   3.274   4.633  34.838  0.3214  0.0419  0.8582
11818ION     NA13968   2.032   0.458  40.718  0.1794 -0.0679  0.1434
11819ION     NA13969  12.063   4.256   4.635  0.2565 -0.2278 -0.2681
11820ION     NA13970  13.780   3.508  16.453  0.2973 -0.0064  0.2938
11821ION     NA13971  17.973   6.035   3.072  0.3015 -0.1655  0.0433
11822ION     NA13972   9.428   3.845   3.144 -0.2802 -0.3769  0.1685
11823ION     NA13973  10.184   5.553  39.815 -0.0267  0.0966 -0.1129
11824ION     NA13974  20.686   0.901   6.292 -0.2048 -0.0760  0.1854
11825ION     NA13975  21.003   6.186  40.234  0.2522  0.1484  0.2211
11826ION     NA13976  18.604   5.457   8.624  0.0031 -0.1293  0.0102
11827ION     NA13977   8.004   3.489  30.235  0.3299 -0.0734  0.1797
11828ION     NA13978  17.345   5.083  36.281  0.0166  0.3021 -0.0635
11829ION     NA13979  14.540   6.079  32.574 -0.2783 -0.1711  0.4308
11830ION     NA13980  17.996   1.805   6.943  0.0426  0.3249  0.1275
11831ION     NA13981   7.956   3.865   4.461 -0.0297  0.0396  0.1158
11832ION     NA13982  13.170   3.388   8.950 -0.2016 -0.3383  0.0758
11833ION     NA13983  10.199   5.271   9.279 -0.0159 -0.0056 -0.3872
11834ION     NA13984   4.376   4.404  12.378 -0.5675  0.0866  0.3694
11835ION     NA13985   5.478   5.998  21.867  0.5516 -0.2286 -0.0729
11836ION     NA13986   7.325   0.662  31.443 -0.0794 -0.0516  0.1674
11837ION     NA13987  20.458   0.473   0.826  0.2350  0.1888 -0.1410
11838ION     NA13988  18.469   5.683  35.562 -0.3989 -0.0343 -0.4849
11839ION     NA13989   9.708   2.280  33.258  0.6459 -0.2685 -0.5172
11840ION     NA13990  14.617   3.079  28.815 -0.1067  0.0378  0.0571
11841ION     NA13991  19.957   0.798  14.941 -0.1605 -0.2875 -0.1547
11842ION     NA13992  10.745   2.266  28.174  0.1975 -0.3161  0.3429
11843ION     NA13993   2.486   1.071  30.934  0.3848  0.1718 -0.1137
11844ION     NA13994  17.249   2.293  18.935  0.4134  0.1011 -0.3221
11845ION     NA13995   3.124   2.748  31.062  0.0408  0.1515 -0.1885
11846ION     NA13996   2.385   6.274  29.056 -0.2013 -0.5802  0.0030
11847ION     NA13997   9.636   1.182   0.615 -0.0731  0.0600 -0.0632
11848ION     NA13998  17.306   2.563   7.290  0.2192 -0.1589  0.0681
11849ION     NA13999  12.476   6.299  37.112  0.1314 -0.4244 -0.0999
11850ION     NA14000   0.583   5.397  12.283  0.4143 -0.2925  0.1456
11851ION     NA14001  16.377   0.886  13.025  0.1920  0.1527 -0.0848
11852ION     NA14002  17.550   1.684  42.316 -0.1770  0.2025  0.1027
11853ION     NA14003   8.333   3.509  30.927  0.0119  0.7000  0.3318
11854ION     NA14004   0.254   3.924  11.256 -0.1453 -0.5201  0.0829
11855ION     NA14005  10.245   2.499  29.222 -0.0987  0.3592  0.1030
11856ION     NA14006   5.960   2.634   0.087  0.0765  0.0243  0.3715
11857ION     NA14007  11.653   0.442  14.905 -0.1325 -0.1763 -0.0032
11858ION     NA14008  20.591   4.976  16.727  0.1748 -0.0412 -0.4438
11859ION     NA14009   6.464   0.131   3.477 -0.2039 -0.0375 -0.2861
11860ION     NA14010  18.891   1.002  42.129  0.3741  0.2808  0.2913
11861ION     NA14011  18.643   5.622  29.569 -0.0783  0.1456  0.1367
11862ION     NA14012  19.390   5.184  10.023 -0.2741 -0.1237  0.0669
11863ION     NA14013   9.816   0.534  31.313 -0.4266  0.1662  0.2764
11864ION     NA14014  13.068   0.220   2.995 -0.0679 -0.1344 -0.3526
11865ION     NA14015   1.467   5.673   8.337  0.2457  0.0809  0.0750
11866ION     NA14016  13.416   3.040  16.688  0.0554 -0.4608 -0.0336
11867ION     NA14017   5.960   2.360  27.798  0.3415  0.1276  0.1280
11868ION     NA14018  21.143   2.705  44.720  0.1479 -0.2067  0.2849
11869ION     NA14019  12.498   4.932  44.904  0.1051 -0.0962  0.3578
11870ION     NA14020   3.859   2.193   9.886 -0.0472  0.0402  0.0864
11871ION     NA14021   1.080   1.495  17.238  0.2264 -0.0602  0.3148
11872ION     NA14022   8.206   1.054   5.157 -0.1138  0.0598  0.0825
11873ION     NA14023  20.053   1.891   5.361  0.3885  0.2216  0.2252
11874ION     NA14024  14.790   3.149  30.607 -0.0598 -0.1651  0.0366
11875ION     NA14025   2.794   2.073  43.570  0.1226 -0.1812  0.3593
11876ION     NA14026   4.932   2.754  34.879 -0.2536 -0.0109 -0.0716
11877ION     NA14027  15.931   1.139  41.530  0.1331  0.4144 -0.0553
11878ION     NA14028   2.410   1.184  43.719 -0.0732  0.0251 -0.0853
11879ION     NA14029  12.135   4.149  29.833 -0.2297 -0.0175 -0.3458
11880ION     NA14030  18.381   1.666   3.323  0.3286  0.1788  0.0412
11881ION     NA14031   2.213   3.483   9.168  0.1615  0.3246  0.0468
11882ION     NA14032  17.302   5.163  33.090  0.1029  0.1001 -0.0380
11883ION     NA14033   7.837   4.514  34.857 -0.2702  0.0383  0.1215
11884ION     NA14034  11.011   6.387  31.514  0.0375 -0.3813 -0.6385
11885ION     NA14035  16.687   1.661  13.117 -0.5266  0.1538  0.4342
11886ION     NA14036  14.609   0.533  30.987 -0.0530 -0.0844  0.2209
11887ION     NA14037  15.992   6.262  20.406 -0.2864  0.4734  0.1250
11888ION     NA14038  13.471   2.441  44.963  0.0109  0.1776 -0.2518
11889ION     NA14039  12.527   2.328  39.280  0.1104 -0.1553 -0.2993
11890ION     NA14040  10.098   3.525  26.085  0.0904 -0.1433  0.0783
11891ION     NA14041  16.991   5.748  35.610  0.1787 -0.2460  0.1116
11892ION     NA14042  17.266   5.329   9.599  0.4782 -0.2337 -0.1572
11893ION     NA14043   4.755   6.174   8.838  0.2137 -0.0945  0.1891
11894ION     NA14044  14.009   2.356   0.813 -0.1369  0.3521 -0.1711
11895ION     NA14045  12.629   2.759  30.592 -0.3335  0.1601  0.1264
11896ION     NA14046   5.429   5.080   7.950 -0.4265 -0.1196  0.1203
11897ION     NA14047  17.084   3.218  42.962  0.1886 -0.0413  0.1863
11898ION     NA14048   7.498   0.438  32.368 -0.0909 -0.0355 -0.3069
11899ION     NA14049  14.422   5.450  35.393 -0.3566 -0.3669 -0.1268
11900ION     NA14050  19.034   5.153   2.646  0.2585 -0.1401  0.3464
11901ION     NA14051   5.338   3.342  36.771  0.0711 -0.0926 -0.1862
11902ION     NA14052  20.090   6.503   1.942  0.2320  0.3786 -0.1080
11903ION     NA14053  15.304   0.582  32.299 -0.2679  0.1711 -0.4118
11904ION     NA14054   1.753   5.408  31.842  0.0471  0.1673 -0.2099
11905ION     NA14055  16.065   4.674  13.863  0.2727 -0.0542  0.1799
11906ION     NA14056  11.621   2.675   3.015 -0.1451 -0.1383  0.4515
11907ION     NA14057   5.880   6.043   8.974  0.0034 -0.0894 -0.0272
11908ION     NA14058  13.021   4.954  35.086  0.4121  0.0716  0.0540
11909ION     NA14059  16.817   1.388  43.084  0.4969  0.1720 -0.3221
11910ION     NA14060  19.367   6.038  43.421  0.1364 -0.2460 -0.2046
11911ION     NA14061   0.193   1.587  31.224 -0.0116 -0.3686  0.2456
11912ION     NA14062  12.421   3.325  12.475 -0.2783  0.0927 -0.3446
11913ION     NA14063  20.970   5.137  42.939  0.0716  0.1064  0.0941
11914ION     NA14064  19.683   1.806  17.848  0.3251  0.0832  0.1619
11915ION     NA14065  19.085   5.255   0.782  0.1627 -0.0073  0.3724
11916ION     NA14066  10.396   5.070  38.876  0.1522 -0.1611 -0.4984
11917ION     NA14067   8.175   2.741  34.482  0.1284  0.3819  0.3406
11918ION     NA14068  15.632   6.082   0.240  0.1706 -0.3444 -0.2807
11919ION     NA14069  14.204   6.557  37.378 -0.0876  0.1791 -0.3731
11920ION     NA14070   4.088   0.497   0.768 -0.2325  0.0109 -0.2665
11921ION     NA14071   5.365   0.151  20.998  0.1576  0.1135 -0.0163
11922ION     NA14072   5.424   2.706   3.133 -0.3530  0.5113  0.2777
11923ION     NA14073   1.351   0.020  12.196  0.1196 -0.4880 -0.2141
11924ION     NA14074   8.937   6.225  38.355  0.4320  0.1936 -0.3657
11925ION     NA14075  14.776   5.216  34.375  0.0026  0.3063  0.1471
11926ION     NA14076  17.844   5.173   3.234  0.1063 -0.3759  0.4305
11927ION     NA14077   9.489   6.431  13.965  0.1145 -0.1219 -0.1364
11928ION     NA14078  20.946   2.473  36.539  0.0054 -0.2636  0.1767
11929ION     NA14079   5.138   4.127  29.932 -0.6129 -0.1245  0.0671
11930ION     NA14080  12.556   2.488  20.510 -0.2191  0.1057  0.2909
11931ION     NA14081   9.723   2.822   5.130  0.0864  0.3172  0.1078
11932ION     NA14082   9.012   1.881  16.434  0.4006 -0.4089 -0.0284
11933ION     NA14083  17.981   0.661  20.491  0.0749  0.0809  0.1693
11934ION     NA14084  18.096   0.153   9.360  0.0399  0.1425 -0.4783
11935ION     NA14085  19.858   3.790   0.616 -0.3826 -0.1978 -0.1110
11936ION     NA14086  18.749   3.226  11.539 -0.2751  0.0203 -0.0210
11937ION     NA14087  12.234   3.827  39.770 -0.2196 -0.5013  0.0277
11938ION     NA14088   5.208   3.690  12.056  0.0381 -0.1830 -0.1200
11939ION     CL14089   3.014   5.357  44.286  0.0018 -0.3408  0.0316
11940ION     CL14090   9.891   5.940  30.387  0.0622 -0.2084 -0.0091
11941ION     CL14091  17.557   2.609  41.985 -0.0054  0.0774  0.2827
11942ION     CL14092  12.431   5.573  44.854 -0.0111  0.0259  0.3146
11943ION     CL14093  15.382   6.070   3.958  0.1525  0.0444  0.2859
11944ION     CL14094   7.030   4.237  10.028  0.4279 -0.0837  0.0406
11945ION     CL14095  14.736   4.832  36.521 -0.3055  0.2825 -0.0540
11946ION     CL14096  15.366   0.647  37.282  0.3872 -0.1509  0.4653
11947ION     CL14097   2.576   2.818  36.690 -0.0109 -0.0096 -0.0491
11948ION     CL14098  17.599   3.273   6.377  0.0227 -0.0901 -0.1752
11949ION     CL14099  11.706   5.013   7.975 -0.4983  0.1052  0.0476
11950ION     CL14100  20.317   1.705  33.853  0.1447 -0.3475 -0.1276
11951ION     CL14101  13.686   0.116   2.652 -0.3925 -0.2503  0.3824
11952ION     CL14102   7.211   6.169  41.709 -0.1515  0.1733  0.3475
11953ION     CL14103  20.904   3.277  16.983 -0.1326 -0.0826 -0.0781
11954ION     CL14104   8.290   5.965  34.249 -0.7682 -0.1396 -0.1259
11955ION     CL14105  14.291   4.362   9.834  0.0248  0.0157 -0.2500
11956ION     CL14106   2.896   4.104  12.440  0.3778  0.3735  0.0279
11957ION     CL14107   6.910   1.859   4.601 -0.2456 -0.5975 -0.1463
11958ION     CL14108   9.860   0.202  31.186  0.1295  0.4581 -0.1954
11959ION     CL14109   4.607   3.467   3.031  0.2152  0.0281  0.3760
11960ION     CL14110  16.705   5.305  11.813 -0.2851 -0.2762 -0.2591
11961ION     CL14111   7.811   3.438   4.632  0.0621 -0.1147 -0.1051
11962ION     CL14112   3.093   5.099   5.151 -0.2806  0.0364 -0.2528
11963ION     CL14113   1.769   4.744  26.996 -0.5617  0.0945  0.0429
11964ION     CL14114   0.933   2.516  34.514 -0.0133 -0.0754 -0.0512
11965ION     CL14115  17.899   6.496  30.079 -0.0456  0.0377 -0.2709
11966ION     CL14116  20.669   2.578  30.918 -0.4553 -0.0759  0.1418
11967ION     CL14117  20.813   5.167   7.020  0.2873  0.1755 -0.4291
11968ION     CL14118  11.201   1.014   8.444 -0.2555  0.1434 -0.0847
11969ION     CL14119  19.007   2.175  32.347  0.1208 -0.0557  0.0279
11970ION     CL14120  11.128   2.477  32.979 -0.0919  0.4760 -0.3979
11971ION     CL14121  16.858   2.029   9.532 -0.1346  0.1357 -0.0079
11972ION     CL14122  17.771   6.513   0.418  0.0200  0.1430  0.2172
11973ION     CL14123  11.031   4.794  33.751  0.0087  0.3733  0.4425
11974ION     CL14124  10.138   4.687  15.420 -0.2247  0.4399  0.0124
11975ION     CL14125   6.628   2.445  13.396 -0.0610  0.5234  0.0139
11976ION     CL14126  17.211   4.688  35.942  0.0832  0.2475  0.1983
11977ION     CL14127  11.314   3.529  32.160 -0.0509 -0.2398  0.0448
11978ION     CL14128  11.565   3.962   7.293  0.2455  0.0934  0.2323
11979ION     CL14129   5.936   2.787  34.961  0.2680 -0.0935 -0.2132
11980ION     CL14130  10.863   6.515  16.886 -0.2950  0.4942  0.0671
11981ION     CL14131   4.261   5.467  33.288  0.2162  0.4618  0.5124
11982ION     CL14132   3.555   3.361  37.196 -0.1361 -0.1943 -0.1654
11983ION     CL14133  20.782   2.750  36.659 -0.1000 -0.1957 -0.2757
11984ION     CL14134  10.425   2.220  11.856  0.0759  0.0067  0.2018
11985ION     CL14135  10.447   0.038   6.040 -0.5442  0.2325  0.1719
11986ION     CL14136  15.642   5.605  23.303  0.2334 -0.1683  0.1722
11987ION     CL14137  10.799   6.396  36.518 -0.0954 -0.0203 -0.4421
11988ION     CL14138  11.719   0.877  34.900 -0.1683 -0.1905  0.1173
11989ION     CL14139  15.973   5.973  45.019  0.0127  0.0194  0.2329
11990ION     CL14140   1.393   5.084  13.614  0.5153 -0.1424  0.2848
11991ION     CL14141   0.627   1.308  38.793  0.0773  0.2005  0.2207
11992ION     CL14142  14.775   5.855  13.932  0.3370 -0.1890  0.0086
11993ION     CL14143  11.171   4.837  42.122  0.2778  0.2024  0.0369
11994ION     CL14144  17.753   6.322  44.062  0.3005  0.0220  0.0157
11995ION     CL14145  12.878   2.901  39.064  0.2244 -0.1193 -0.0575
11996ION     CL14146  10.770   4.626  31.225 -0.3258  0.1358  0.0709
11997ION     CL14147  11.131   4.562   4.147 -0.0113 -0.1285 -0.2648
11998ION     CL14148  16.979   0.938  12.010  0.1108 -0.1287  0.1824
11999ION     CL14149   9.030   4.147   5.731 -0.0974 -0.1685 -0.2082
12000ION     CL14150  11.852   3.558  34.242 -0.3508 -0.2214 -0.3128
12001ION     CL14151  15.126   3.221  22.780 -0.2578 -0.1405 -0.3165
12002ION     CL14152  18.243   2.237  10.317 -0.3246 -0.3257  0.0392
12003ION     CL14153  14.297   6.383  11.365  0.2465 -0.0736 -0.3916
12004ION     CL14154   3.085   1.340   5.902 -0.0227 -0.6463 -0.3545
12005ION     CL14155  11.488   6.574   0.434  0.4250 -0.1483  0.1304
12006ION     CL14156  10.865   0.907  34.501  0.2554  0.2314 -0.0472
12007ION     CL14157   0.303   1.423   8.275 -0.3090 -0.0283 -0.0980
12008ION     CL14158   5.667   2.485  27.670  0.1815  0.0454  0.4003
12009ION     CL14159  20.097   5.871  35.086  0.3370 -0.3551  0.2383
12010ION     CL14160   4.405   5.587   4.230  0.0790 -0.2602  0.0417
12011ION     CL14161  11.312   2.754  42.285 -0.1945 -0.0045 -0.1375
12012ION     CL14162  13.757   4.732  30.989  0.3766  0.2258  0.1402
12013ION     CL14163  13.928   6.399   8.482  0.5091 -0.2507 -0.3485
12014ION     CL14164  10.461   4.078  12.076 -0.2242 -0.0470 -0.2168
12015ION     CL14165   3.260   0.245   1.096  0.1857 -0.0415  0.1142
12016ION     CL14166   9.667   2.015  10.592 -0.0487  0.0428 -0.4016
12017ION     CL14167   0.708   0.853  43.376  0.1849  0.1114 -0.2295
12018ION     CL14168   8.851   3.961  32.715 -0.0962  0.0378 -0.2606
12019ION     CL14169   8.224   6.294  32.738 -0.0535 -0.2194  0.3214
12020ION     CL14170  16.003   5.965  44.159  0.4827 -0.2070 -0.0208
12021ION     CL14171   5.918   1.872   5.288 -0.1415 -0.2055  0.1690
12022ION     CL14172  13.267   1.986   8.010  0.0543  0.2048 -0.2797
12023ION     CL14173  12.536   0.993   3.771 -0.3819  0.2656 -0.0429
12024ION     CL14174   3.993   0.937  28.907 -0.3650  0.4090  0.2316
12025ION     CL14175  11.393   3.561  17.425  0.1553  0.1842  0.2747
12026ION     CL14176   6.067   2.795  36.812 -0.5626  0.7163 -0.1312
12027ION     CL14177  20.840   3.876  44.761  0.0268  0.0993  0.3518
12028ION     CL14178  10.314   0.192  35.035 -0.2154 -0.1604  0.0283
12029ION     CL14179  10.908   1.948  34.108  0.1392  0.3346  0.2167
12030ION     CL14180  14.423   1.069  15.654  0.2855  0.2872 -0.0025
12031ION     CL14181   8.798   2.009   2.259 -0.0333 -0.3677 -0.1947
12032ION     CL14182   6.959   3.230  40.065 -0.5131  0.3130 -0.1529
12033ION     CL14183   7.396   5.332  23.883 -0.2806 -0.1439  0.0460
12034ION     CL14184   6.227   2.237  28.188 -0.2684 -0.0238 -0.1121
12035ION     CL14185  20.409   3.887  34.952 -0.1409 -0.2983 -0.5505
12036ION     CL14186  18.900   5.880  30.000 -0.3398  0.0584 -0.1940
12037ION     CL14187   7.926   2.913   6.773  0.2219  0.2062  0.4045
12038ION     CL14188  16.624   1.706  12.218  0.0091 -0.0853  0.1496
12039ION     CL14189  20.364   0.068   9.625  0.0394 -0.0366  0.1704
12040ION     CL14190   4.451   5.371   2.662  0.0427  0.1879 -0.0331
12041ION     CL14191  18.445   5.142  30.505 -0.1747  0.1796 -0.0263
12042ION     CL14192   3.058   5.113  41.117  0.1948 -0.3172 -0.0286
12043ION     CL14193   5.329   4.498  13.315  0.2271  0.1673 -0.4044
12044ION     CL14194   9.304   1.546  14.328 -0.3448 -0.2101 -0.0749
12045ION     CL14195   2.468   3.264   6.688 -0.3266  0.1143  0.2311
12046ION     CL14196  19.280   4.290  31.320  0.1873 -0.1404 -0.0720
12047ION     CL14197  19.393   1.237  39.626  0.0347 -0.1892 -0.0913
12048ION     CL14198  14.219   3.731  11.966 -0.0078  0.6212 -0.2537
12049ION     CL14199  18.638   3.370   5.360  0.0393 -0.3821 -0.3679
12050ION     CL14200   1.958   6.374  29.722 -0.2492 -0.0354 -0.0406
12051ION     CL14201  17.694   2.599  39.779 -0.4045 -0.5174  0.1140
12052ION     CL14202   2.251   1.283  10.977 -0.0772 -0.0231  0.1847
12053ION     CL14203   9.593   4.841  39.022 -0.0869 -0.2010  0.1421
12054ION     CL14204  14.064   2.959  10.764  0.1616 -0.1013 -0.4381
12055ION     CL14205   1.049   6.256   2.172 -0.1706  0.2455 -0.1252
12056ION     CL14206   6.867   0.455  32.105  0.4344  0.0159 -0.1571
12057ION     CL14207   9.689   3.274   8.875 -0.0740  0.1025  0.0118
12058ION     CL14208   5.745   3.931  26.257 -0.2600 -0.3157 -0.1519
12059ION     CL14209  18.855   5.321  19.252 -0.4758 -0.0887 -0.3415
12060ION     CL14210  17.009   3.758   7.386  0.1182 -0.1398 -0.3503
12061ION     CL14211  15.517   2.659   5.916  0.1479  0.2608  0.6705
12062ION     CL14212   9.187   5.585  15.255 -0.3585  0.2718 -0.1066
12063ION     CL14213  14.310   6.098  36.979 -0.0438 -0.3036  0.0252
12064ION     CL14214  11.855   4.217  18.228 -0.2525  0.1210 -0.1412
12065ION     CL14215  14.818   5.728  18.316  0.1085 -0.3822 -0.1483
12066ION     CL14216   0.417   0.933   5.661  0.2698  0.5127 -0.0509
12067ION     CL14217   5.383   3.713  42.553  0.3327  0.0306 -0.1897
12068ION     CL14218   5.858   4.862  25.662  0.3908  0.4933 -0.4305
12069ION     CL14219   1.263   5.077  35.699  0.5803 -0.2476  0.5516
12070ION     CL14220  17.633   1.676  17.584  0.2031  0.2697 -0.2492
12071ION     CL14221   5.043   2.923  23.255 -0.0542  0.3316  0.1152
12072ION     CL14222  13.375   2.333   4.878 -0.0057 -0.1772 -0.5048
12073ION     CL14223  11.582   6.354  39.107 -0.1322 -0.0885  0.0872
12074ION     CL14224   4.361   1.421  23.922  0.0250 -0.0098  0.1859
12075ION     CL14225  19.689   1.451   6.486 -0.5176 -0.1641 -0.1952
12076ION     CL14226  14.535   3.023  18.290 -0.0465 -0.1655  0.2172
12077ION     CL14227  11.697   2.241  38.277  0.1443 -0.4432  0.0652
12078ION     CL14228   2.763   5.260  32.276  0.0221 -0.1078  0.0546
12079ION     CL14229  16.204   1.282  43.620 -0.2685 -0.0286  0.2058
12080ION     CL14230   5.499   0.290  41.154  0.3242  0.0357 -0.6969
12081ION     CL14231  12.917   4.223  10.737  0.1526 -0.0263  0.1258
12082ION     CL14232  14.603   5.848   4.096  0.4901 -0.0208 -0.1752
12083ION     CL14233  12.893   6.208  32.913  0.1804 -0.1415  0.0481
12084DPPC   NC314234   6.669   1.605  20.039 -0.0585 -0.2379  0.2798
12084DPPC   PO414235   6.493   1.386  19.751 -0.2162 -0.1361  0.0039
12084DPPC   GL114236   6.626   1.469  19.385  0.4212 -0.2572  0.2219
12084DPPC   GL214237   6.627   1.697  19.295  0.1073 -0.0669  0.0124
12084DPPC   C1A14238   6.899   1.303  19.193  0.2242  0.1279 -0.1829
12084DPPC   C2A14239   7.070   1.297  18.856  0.1328 -0.0277  0.1216
12084DPPC   C3A14240   7.316   1.223  18.399  0.1867  0.2010 -0.1271
12084DPPC   C4A14241   7.552   1.218  17.963 -0.1051 -0.1136  0.1816
12084DPPC   C1B14242   6.712   1.625  18.966 -0.0532  0.0322 -0.2356
12084DPPC   C2B14243   6.885   1.698  18.568 -0.5658  0.0669 -0.2621
12084DPPC   C3B14244   7.216   1.640  18.129  0.0210  0.1369 -0.0299
12084DPPC   C4B14245   7.423   1.666  17.705 -0.2113 -0.0525  0.0531
12085DPPC   NC314246   4.990   0.580  20.344 -0.1247 -0.0532 -0.0129
12085DPPC   PO414247   5.103   0.754  19.956  0.0973  0.1300 -0.0334
12085DPPC   GL114248   4.845   0.609  19.570  0.1319 -0.1816  0.1018
12085DPPC   GL214249   5.130   0.335  19.591  0.2406  0.0379  0.4777
12085DPPC   C1A14250   4.621   0.805  19.357 -0.1063 -0.1310  0.0735
12085DPPC   C2A14251   4.427   0.809  19.030 -0.2236  0.3648  0.1427
12085DPPC   C3A14252   4.151   0.808  18.590  0.0985 -0.2279  0.1939
12085DPPC   C4A14253   3.880   0.768  18.207 -0.1424 -0.0506 -0.1835
12085DPPC   C1B14254   4.974   0.380  19.213 -0.2166  0.1957 -0.3416
12085DPPC   C2B14255   4.757   0.420  18.910  0.1106  0.0318  0.0406
12085DPPC   C3B14256   4.450   0.374  18.573 -0.1042 -0.0901  0.0261
12085DPPC   C4B14257   4.252   0.410  18.179  0.0625 -0.0487 -0.2371
12086DPPC   NC314258   6.400   4.874  19.447  0.0007  0.1119  0.3748
12086DPPC   PO414259   6.186   5.167  19.249  0.1074  0.3707  0.0615
12086DPPC   GL114260   6.219   5.179  18.867 -0.1794  0.1750  0.2462
12086DPPC   GL214261   5.972   5.098  18.763  0.0276  0.1126 -0.1003
12086DPPC   C1A14262   6.506   5.064  18.692 -0.5291  0.0381  0.3803
12086DPPC   C2A14263   6.663   5.112  18.327  0.3175  0.1606  0.0930
12086DPPC   C3A14264   6.853   5.247  17.922  0.0224 -0.1064  0.4200
12086DPPC   C4A14265   7.166   5.297  17.469 -0.1442 -0.2809  0.0051
12086DPPC   C1B14266   5.968   5.125  18.400 -0.3783 -0.0138 -0.2648
12086DPPC   C2B14267   6.156   5.069  18.027 -0.1439 -0.1471  0.1428
12086DPPC   C3B14268   6.400   5.156  17.601  0.4308  0.3547 -0.1230
12086DPPC   C4B14269   6.743   5.340  17.278  0.3432  0.0056  0.0003
12087DPPC   NC314270   3.185   5.948  22.696  0.0860 -0.1939  0.1757
12087DPPC   PO414271   3.143   6.327  22.762  0.0013  0.0358  0.0851
12087DPPC   GL114272   2.834   6.246  22.423  0.2950 -0.1442 -0.1568
12087DPPC   GL214273   3.030   6.289  22.230 -0.5375  0.2005 -0.1212
12087DPPC   C1A14274   2.545   6.344  22.271 -0.0544  0.1207  0.5116
12087DPPC   C2A14275   2.275   6.314  21.958 -0.0402  0.2542 -0.2652
12087DPPC   C3A14276   1.899   6.322  21.593  0.0850  0.1434 -0.1491
12087DPPC   C4A14277   1.581   6.331  21.289  0.1913 -0.0917  0.1735
12087DPPC   C1B14278   2.925   6.183  21.881 -0.2433 -0.0119 -0.2117
12087DPPC   C2B14279   2.665   6.399  21.649 -0.0405 -0.0698 -0.2105
12087DPPC   C3B14280   2.306   6.389  21.302 -0.0867 -0.1404  0.2808
12087DPPC   C4B14281   1.940   6.421  20.961 -0.3092 -0.1398  0.0601
12088DPPC   NC314282   6.200   0.903  19.809 -0.2410 -0.2447 -0.0788
12088DPPC   PO414283   6.035   1.228  19.604  0.2276  0.2896  0.0274
12088DPPC   GL114284   6.187   1.328  19.320 -0.0541  0.1406  0.0953
12088DPPC   GL214285   6.211   1.632  19.330  0.1005  0.3849 -0.1811
12088DPPC   C1A14286   6.060   1.262  19.010  0.1878 -0.1341  0.2486
12088DPPC   C2A14287   5.851   0.960  18.786 -0.2546 -0.1393  0.0788
12088DPPC   C3A14288   5.745   1.055  18.369  0.2098 -0.1970 -0.0208
12088DPPC   C4A14289   5.504   1.043  17.871  0.0797  0.3096 -0.1345
12088DPPC   C1B14290   6.140   1.937  19.144  0.1510 -0.1114  0.0273
12088DPPC   C2B14291   6.132   2.351  18.957 -0.1658  0.0765 -0.0802
12088DPPC   C3B14292   6.196   2.827  18.818 -0.0585  0.0689  0.0634
12088DPPC   C4B14293   6.068   3.258  18.873  0.0672 -0.0821 -0.0667
12089DPPC   NC314294   4.686   5.414  21.858 -0.0232 -0.2476  0.2227
12089DPPC   PO414295   4.341   5.580  21.767 -0.2529  0.1421  0.2573
12089DPPC   GL114296   4.075   5.436  21.479 -0.3129 -0.1069 -0.1786
12089DPPC   GL214297   4.117   5.173  21.486  0.3149  0.1063 -0.1340
12089DPPC   C1A14298   3.804   5.599  21.249 -0.0151  0.0718 -0.1452
12089DPPC   C2A14299   3.581   5.755  20.942 -0.1522  0.0628 -0.3186
12089DPPC   C3A14300   3.239   5.731  20.596  0.0231 -0.1451  0.0810
12089DPPC   C4A14301   2.880   5.695  20.274 -0.0209  0.0293  0.1629
12089DPPC   C1B14302   3.911   4.943  21.196  0.2268 -0.1230 -0.2053
12089DPPC   C2B14303   3.590   4.887  20.926  0.0855  0.1806  0.2473
12089DPPC   C3B14304   3.313   4.827  20.523 -0.1374  0.2380  0.2697
12089DPPC   C4B14305   3.012   4.877  20.174 -0.2817 -0.0769 -0.2128
12090DPPC   NC314306   6.090   5.906  19.467  0.0869  0.0570  0.0791
12090DPPC   PO414307   5.847   6.102  19.171  0.1843 -0.2172 -0.0665
12090DPPC   GL114308   5.830   6.135  18.808 -0.4222 -0.1147 -0.2554
12090DPPC   GL214309   5.647   5.964  18.748 -0.0249  0.1490 -0.0462
12090DPPC   C1A14310   5.979   6.254  18.499  0.3545 -0.0687 -0.0380
12090DPPC   C2A14311   6.251   6.407  18.178 -0.0417  0.0212 -0.0402
12090DPPC   C3A14312   6.441   6.465  17.753  0.0678 -0.0122 -0.1825
12090DPPC   C4A14313   6.635   6.483  17.309 -0.1205  0.1476 -0.2424
12090DPPC   C1B14314   5.515   5.919  18.417 -0.1444  0.0111 -0.0205
12090DPPC   C2B14315   5.385   5.917  18.050  0.0898 -0.0542  0.0478
12090DPPC   C3B14316   5.199   5.806  17.685 -0.1436 -0.2831 -0.0243
12090DPPC   C4B14317   5.142   5.670  17.226  0.0346 -0.1480  0.0070
12091DPPC   NC314318   4.180   1.976  21.161 -0.2283 -0.0939  0.4057
12091DPPC   PO414319   4.467   2.249  21.055 -0.0693  0.0283 -0.2893
12091DPPC   GL114320   4.468   2.099  20.653 -0.1744  0.3294 -0.1548
12091DPPC   GL214321   4.166   2.071  20.668  0.1397 -0.1315 -0.0174
12091DPPC   C1A14322   4.624   2.000  20.358 -0.0196 -0.1048 -0.1257
12091DPPC   C2A14323   4.478   1.959  19.951  0.1474 -0.1764  0.1667
12091DPPC   C3A14324   4.205   2.011  19.517  0.0407  0.2298 -0.2391
12091DPPC   C4A14325   3.828   1.954  19.159 -0.1841 -0.0134 -0.0267
12091DPPC   C1B14326   3.919   2.211  20.442  0.2556  0.0090  0.2312
12091DPPC   C2B14327   3.625   2.249  20.166 -0.2570  0.3248  0.1993
12091DPPC   C3B14328   3.294   2.345  19.789 -0.3637  0.1826 -0.2766
12091DPPC   C4B14329   3.026   2.261  19.360  0.2399 -0.3634 -0.2187
12092DPPC   NC314330   4.350   4.146  21.966 -0.0289 -0.1565  0.1018
12092DPPC   PO414331   4.175   4.392  21.692  0.3269 -0.0960 -0.2759
12092DPPC   GL114332   3.799   4.338  21.532  0.1308 -0.1248  0.0183
12092DPPC   GL214333   3.646   4.342  21.747 -0.0810 -0.1634  0.0264
12092DPPC   C1A14334   3.532   4.367  21.250 -0.2949 -0.0506  0.1691
12092DPPC   C2A14335   3.298   4.407  20.878  0.1654 -0.0039 -0.1485
12092DPPC   C3A14336   3.057   4.431  20.493 -0.1895 -0.0756 -0.0948
12092DPPC   C4A14337   2.695   4.425  20.158  0.3538  0.0102 -0.1267
12092DPPC   C1B14338   3.287   4.339  21.637 -0.0457 -0.1972 -0.3010
12092DPPC   C2B14339   3.027   4.295  21.330  0.0286  0.0142  0.0154
12092DPPC   C3B14340   2.808   4.321  20.930  0.1003 -0.1127 -0.0053
12092DPPC   C4B14341   2.447   4.305  20.594 -0.1504 -0.0253  0.0640
12093DPPC   NC314342   4.150   4.091  21.304 -0.2273 -0.2708 -0.2818
12093DPPC   PO414343   4.422   3.971  20.990 -0.1444  0.1239 -0.0981
12093DPPC   GL114344   4.086   4.000  20.785  0.1358  0.0149 -0.1712
12093DPPC   GL214345   4.231   4.049  20.520 -0.0102 -0.1577  0.2128
12093DPPC   C1A14346   3.696   4.020  20.722 -0.1787 -0.0896 -0.0427
12093DPPC   C2A14347   3.360   4.057  20.432  0.0375 -0.0588  0.1813
12093DPPC   C3A14348   3.084   4.067  20.056 -0.1600  0.0346  0.2029
12093DPPC   C4A14349   2.727   4.044  19.667  0.1068  0.0888  0.2921
12093DPPC   C1B14350   4.009   4.177  20.290  0.3057  0.3513 -0.2040
12093DPPC   C2B14351   3.695   4.126  20.023 -0.0233  0.3196 -0.3902
12093DPPC   C3B14352   3.425   4.103  19.613  0.2626  0.2802 -0.0179
12093DPPC   C4B14353   3.066   3.995  19.302  0.2747 -0.1377  0.0426
12094DPPC   NC314354   4.386   2.731  21.102 -0.0701 -0.0698 -0.2874
12094DPPC   PO414355   4.648   2.823  20.788 -0.2462  0.0693 -0.1218
12094DPPC   GL114356   4.720   2.766  20.411  0.1517  0.3516  0.1140
12094DPPC   GL214357   4.562   2.915  20.334  0.0039 -0.0857 -0.2141
12094DPPC   C1A14358   4.520   2.496  20.243  0.0771 -0.1624  0.0203
12094DPPC   C2A14359   4.107   2.421  20.067 -0.3595 -0.0357 -0.0128
12094DPPC   C3A14360   3.860   2.362  19.708 -0.0672  0.1223 -0.1465
12094DPPC   C4A14361   3.566   2.385  19.336 -0.2658 -0.0890 -0.3001
12094DPPC   C1B14362   4.262   2.891  20.111 -0.1563  0.1184  0.3719
12094DPPC   C2B14363   4.087   2.845  19.771  0.3248 -0.2549  0.1983
12094DPPC   C3B14364   3.747   2.875  19.464 -0.4007  0.0885  0.3758
12094DPPC   C4B14365   3.455   2.882  19.072 -0.1719 -0.0274 -0.1228
12095DPPC   NC314366   6.004   2.502  19.582 -0.0221  0.0214 -0.3524
12095DPPC   PO414367   5.945   2.920  19.615 -0.1042 -0.1555  0.1802
12095DPPC   GL114368   6.219   3.008  19.339  0.1097 -0.1108 -0.1453
12095DPPC   GL214369   5.992   2.849  19.212 -0.1216 -0.1132 -0.2499
12095DPPC   C1A14370   6.528   3.025  19.200  0.5071  0.2769  0.0575
12095DPPC   C2A14371   6.817   3.089  18.860  0.0232 -0.3229  0.0909
12095DPPC   C3A14372   7.046   3.022  18.462 -0.3643  0.0274 -0.1864
12095DPPC   C4A14373   7.262   2.974  18.077  0.1107  0.0140 -0.2662
12095DPPC   C1B14374   5.796   2.577  19.130  0.2556 -0.0350  0.0083
12095DPPC   C2B14375   5.515   2.358  18.877 -0.0212 -0.0315  0.0812
12095DPPC   C3B14376   5.191   2.286  18.447 -0.0496  0.3255 -0.0393
12095DPPC   C4B14377   4.986   2.467  18.030  0.0728  0.0619 -0.1766
12096DPPC   NC314378   6.044   5.130  20.388 -0.1439 -0.1477 -0.0190
12096DPPC   PO414379   6.460   5.242  20.345  0.1276  0.0748  0.0324
12096DPPC   GL114380   6.710   5.279  20.000  0.0887  0.0974  0.3212
12096DPPC   GL214381   6.598   5.066  19.848 -0.1413 -0.0806 -0.1326
12096DPPC   C1A14382   7.014   5.269  19.829  0.0665  0.1833  0.2410
12096DPPC   C2A14383   7.183   5.313  19.456  0.1077  0.0431 -0.3030
12096DPPC   C3A14384   7.386   5.285  19.047 -0.0863 -0.2628 -0.0721
12096DPPC   C4A14385   7.660   5.232  18.663 -0.1340  0.0500 -0.1153
12096DPPC   C1B14386   6.832   4.946  19.566 -0.2793  0.0103 -0.1454
12096DPPC   C2B14387   7.086   4.868  19.239  0.0259  0.4442  0.2442
12096DPPC   C3B14388   7.345   4.853  18.844  0.4077  0.0837  0.2462
12096DPPC   C4B14389   7.487   4.799  18.367  0.2071 -0.0652 -0.2886
12097DPPC   NC314390   4.617   4.938  20.699  0.0990 -0.1177 -0.0401
12097DPPC   PO414391   4.859   5.205  20.516 -0.2239  0.0360 -0.1614
12097DPPC   GL114392   4.759   5.129  20.100  0.0179  0.1962 -0.2845
12097DPPC   GL214393   4.839   4.874  20.119 -0.1020  0.1917  0.1215
12097DPPC   C1A14394   4.628   5.159  19.736 -0.0471 -0.0438 -0.1173
12097DPPC   C2A14395   4.318   5.102  19.455 -0.0703  0.1611 -0.2630
12097DPPC   C3A14396   3.979   5.084  19.076 -0.2615  0.0951  0.1107
12097DPPC   C4A14397   3.702   5.060  18.651 -0.0947 -0.0737  0.2606
12097DPPC   C1B14398   4.686   4.565  19.937  0.1527  0.0039 -0.3133
12097DPPC   C2B14399   4.342   4.613  19.731  0.1032 -0.0823  0.2345
12097DPPC   C3B14400   4.010   4.690  19.372 -0.2656  0.3787  0.2668
12097DPPC   C4B14401   3.708   4.651  18.943  0.0372  0.2447 -0.3350
12098DPPC   NC314402   3.669   1.873  22.417 -0.3458  0.2640 -0.0152
12098DPPC   PO414403   3.322   2.016  22.406 -0.0128 -0.1253 -0.0942
12098DPPC   GL114404   3.078   1.867  22.154 -0.1149  0.0763  0.4259
12098DPPC   GL214405   2.904   2.111  22.275 -0.1019  0.2412  0.1666
12098DPPC   C1A14406   2.944   1.718  21.813  0.2170  0.1962  0.0417
12098DPPC   C2A14407   2.725   1.574  21.499 -0.1942  0.3429  0.1840
12098DPPC   C3A14408   2.357   1.573  21.142  0.0750 -0.0025  0.3000
12098DPPC   C4A14409   1.982   1.549  20.825 -0.1062 -0.1753 -0.2123
12098DPPC   C1B14410   2.646   1.949  22.049 -0.1415  0.0804 -0.0057
12098DPPC   C2B14411   2.427   1.935  21.688 -0.1168 -0.1750  0.0287
12098DPPC   C3B14412   2.073   1.949  21.374 -0.0406 -0.1496  0.4134
12098DPPC   C4B14413   1.730   1.933  20.961 -0.4292 -0.0159  0.3052
12099DPPC   NC314414   5.547   0.580  19.849 -0.0175 -0.0046 -0.0458
12099DPPC   PO414415   5.827   0.681  19.599 -0.1294 -0.3020 -0.1691
12099DPPC   GL114416   5.778   0.987  19.207  0.1044  0.3037 -0.2016
12099DPPC   GL214417   6.035   0.886  19.217  0.0705 -0.5580 -0.3475
12099DPPC   C1A14418   5.469   0.986  19.038 -0.0905 -0.0264  0.2411
12099DPPC   C2A14419   5.252   1.041  18.683 -0.0640  0.2584  0.0199
12099DPPC   C3A14420   5.057   0.998  18.256  0.2004 -0.0489 -0.0166
12099DPPC   C4A14421   4.778   0.976  17.847 -0.1289 -0.0492 -0.0849
12099DPPC   C1B14422   6.283   0.847  18.927 -0.0699 -0.1333 -0.1053
12099DPPC   C2B14423   6.470   0.752  18.571  0.0176  0.2217 -0.0822
12099DPPC   C3B14424   6.688   0.798  18.161  0.0018 -0.3633 -0.2076
12099DPPC   C4B14425   6.834   0.777  17.657  0.2147  0.3205 -0.2207
12100DPPC   NC314426   5.852   4.387  19.267 -0.1799  0.1157 -0.1446
12100DPPC   PO414427   6.267   4.428  19.344  0.2075 -0.0871 -0.3600
12100DPPC   GL114428   6.239   4.329  18.959  0.2442 -0.1000  0.1936
12100DPPC   GL214429   6.046   4.157  18.875 -0.2191 -0.1293 -0.3711
12100DPPC   C1A14430   6.528   4.223  18.731 -0.0964 -0.1859 -0.1442
12100DPPC   C2A14431   6.720   4.300  18.306  0.4230  0.0763  0.3358
12100DPPC   C3A14432   7.028   4.399  17.939  0.0317 -0.0906  0.1268
12100DPPC   C4A14433   7.308   4.437  17.501 -0.1530 -0.0540  0.1547
12100DPPC   C1B14434   6.097   4.257  18.513  0.3734  0.0976 -0.4784
12100DPPC   C2B14435   6.266   4.301  18.142  0.2136 -0.3179  0.0079
12100DPPC   C3B14436   6.387   4.282  17.717 -0.1415  0.0208  0.0694
12100DPPC   C4B14437   6.512   4.249  17.257  0.0373 -0.0816 -0.2134
12101DPPC   NC314438   4.743   3.261  20.546  0.0220 -0.1518 -0.3645
12101DPPC   PO414439   5.000   3.098  20.291  0.0250  0.2449  0.1598
12101DPPC   GL114440   4.956   3.232  19.862 -0.0834  0.4393  0.3270
12101DPPC   GL214441   4.961   2.946  19.805  0.0827 -0.1691 -0.1356
12101DPPC   C1A14442   4.887   3.335  19.559  0.2233 -0.2332  0.0040
12101DPPC   C2A14443   4.666   3.372  19.248  0.2777 -0.3105  0.2391
12101DPPC   C3A14444   4.302   3.383  18.928 -0.0969  0.1196 -0.3586
12101DPPC   C4A14445   4.037   3.306  18.560  0.0008  0.0324 -0.0589
12101DPPC   C1B14446   4.682   2.944  19.573  0.0605  0.0322  0.0891
12101DPPC   C2B14447   4.344   2.962  19.369 -0.4850  0.2356 -0.2159
12101DPPC   C3B14448   4.009   2.941  19.030  0.1611 -0.2567 -0.3154
12101DPPC   C4B14449   3.701   2.973  18.646 -0.1715 -0.1865 -0.3154
12102DPPC   NC314450   4.490   1.175  21.466 -0.2546 -0.2190  0.1653
12102DPPC   PO414451   4.317   1.520  21.359  0.3193 -0.3067 -0.1752
12102DPPC   GL114452   4.132   1.546  21.021  0.0536  0.0368 -0.1244
12102DPPC   GL214453   3.931   1.363  21.002  0.6377 -0.2922 -0.2088
12102DPPC   C1A14454   3.942   1.716  20.757  0.0352  0.0707  0.2475
12102DPPC   C2A14455   3.675   1.813  20.411  0.1625  0.2584  0.1499
12102DPPC   C3A14456   3.339   1.799  20.094 -0.0977 -0.0182 -0.0807
12102DPPC   C4A14457   3.071   1.895  19.720  0.0429  0.0396  0.1747
12102DPPC   C1B14458   3.789   1.300  20.711  0.2705  0.0069  0.0503
12102DPPC   C2B14459   3.477   1.314  20.436  0.0002  0.4033  0.0888
12102DPPC   C3B14460   3.184   1.292  20.104 -0.1281 -0.0711 -0.1510
12102DPPC   C4B14461   2.859   1.373  19.710 -0.1884  0.1589 -0.2207
12103DPPC   NC314462   5.224   4.906  20.338  0.1659 -0.0837 -0.0137
12103DPPC   PO414463   5.259   5.019  19.991 -0.2198  0.0082  0.0368
12103DPPC   GL114464   5.002   4.926  19.716  0.1523  0.1667 -0.1308
12103DPPC   GL214465   5.014   5.138  19.524  0.0068  0.2693  0.3443
12103DPPC   C1A14466   4.718   4.793  19.517  0.0080 -0.1253 -0.0795
12103DPPC   C2A14467   4.503   4.667  19.227 -0.3317  0.0322  0.2344
12103DPPC   C3A14468   4.220   4.766  18.834  0.0272 -0.1021  0.2650
12103DPPC   C4A14469   3.945   4.649  18.484  0.0370  0.4018 -0.2365
12103DPPC   C1B14470   4.771   5.202  19.249  0.2855 -0.3317 -0.3120
12103DPPC   C2B14471   4.479   5.207  18.940  0.1841 -0.1424  0.3549
12103DPPC   C3B14472   4.257   5.175  18.548 -0.1237  0.2055 -0.0941
12103DPPC   C4B14473   3.960   5.112  18.095  0.3296  0.3652  0.0519
12104DPPC   NC314474   2.369   2.799  23.412  0.2903 -0.1086  0.1814
12104DPPC   PO414475   2.565   2.713  23.043 -0.0202  0.1226  0.1341
12104DPPC   GL114476   2.201   2.796  22.830  0.2887 -0.2003 -0.1025
12104DPPC   GL214477   2.378   3.006  22.691 -0.3367 -0.0619 -0.0107
12104DPPC   C1A14478   1.899   2.642  22.690  0.0663  0.1244  0.0651
12104DPPC   C2A14479   1.500   2.599  22.541 -0.2225 -0.0225  0.0378
12104DPPC   C3A14480   1.193   2.672  22.185 -0.0149  0.2057 -0.0861
12104DPPC   C4A14481   0.907   2.662  21.796  0.2207 -0.0549  0.0356
12104DPPC   C1B14482   2.291   3.174  22.354  0.3643  0.2714 -0.1745
12104DPPC   C2B14483   2.048   3.153  22.058  0.1057 -0.0077  0.1377
12104DPPC   C3B14484   1.675   3.212  21.794  0.1497  0.0688 -0.1294
12104DPPC   C4B14485   1.429   3.130  21.412  0.4132 -0.0015  0.1742
12105DPPC   NC314486   4.333   4.714  21.356 -0.0704 -0.0401 -0.0118
12105DPPC   PO414487   4.532   4.581  21.042  0.0244 -0.0013 -0.0656
12105DPPC   GL114488   4.263   4.477  20.745 -0.1115  0.4402  0.0228
12105DPPC   GL214489   4.088   4.452  21.031 -0.1584  0.1153 -0.3313
12105DPPC   C1A14490   4.112   4.582  20.408 -0.1115  0.1734 -0.3606
12105DPPC   C2A14491   3.911   4.561  20.002 -0.2006 -0.1770 -0.1986
12105DPPC   C3A14492   3.591   4.623  19.648 -0.1790  0.0574 -0.1243
12105DPPC   C4A14493   3.304   4.507  19.263  0.1477 -0.2608 -0.0746
12105DPPC   C1B14494   3.769   4.454  20.813 -0.4007  0.2034 -0.0666
12105DPPC   C2B14495   3.646   4.488  20.420 -0.0421 -0.0540 -0.1100
12105DPPC   C3B14496   3.337   4.463  20.088  0.0789  0.3217  0.0303
12105DPPC   C4B14497   3.045   4.484  19.684  0.0856  0.1230 -0.2025
12106DPPC   NC314498   6.563   0.531  19.867 -0.1307  0.0627 -0.1164
12106DPPC   PO414499   6.339   0.515  19.528  0.0218  0.3591 -0.0994
12106DPPC   GL114500   6.165   0.280  19.161  0.1054 -0.0110  0.2727
12106DPPC   GL214501   6.409   0.140  19.134 -0.1156 -0.4034  0.1955
12106DPPC   C1A14502   5.867   0.432  19.025  0.2693  0.2835  0.3069
12106DPPC   C2A14503   5.504   0.547  18.969  0.2128  0.1327  0.0517
12106DPPC   C3A14504   5.156   0.583  18.623 -0.3156  0.1459  0.1127
12106DPPC   C4A14505   4.828   0.464  18.236 -0.1115  0.3273 -0.1504
12106DPPC   C1B14506   6.627   0.315  18.838 -0.0714  0.3293  0.4979
12106DPPC   C2B14507   6.871   0.370  18.464 -0.2629  0.1396 -0.0641
12106DPPC   C3B14508   7.000   0.455  18.006  0.2138 -0.1979  0.1191
12106DPPC   C4B14509   7.281   0.373  17.599  0.5503 -0.2719  0.2389
12107DPPC   NC314510   4.703   1.250  20.721 -0.0624 -0.2467  0.0316
12107DPPC   PO414511   4.438   1.161  20.953  0.3154  0.0798 -0.1036
12107DPPC   GL114512   4.258   0.878  20.805  0.0573 -0.3131  0.2297
12107DPPC   GL214513   4.216   0.644  20.841 -0.1793 -0.5744 -0.0612
12107DPPC   C1A14514   4.007   0.971  20.531 -0.0259 -0.3117 -0.2676
12107DPPC   C2A14515   3.782   1.011  20.187 -0.3162 -0.1643 -0.1920
12107DPPC   C3A14516   3.497   0.999  19.848 -0.0113  0.5930  0.3265
12107DPPC   C4A14517   3.146   1.022  19.547 -0.1068  0.3634 -0.1365
12107DPPC   C1B14518   3.915   0.503  20.671 -0.0146  0.0193 -0.1793
12107DPPC   C2B14519   3.675   0.550  20.353  0.1639 -0.1277 -0.2250
12107DPPC   C3B14520   3.357   0.569  19.990  0.0318  0.2964 -0.2364
12107DPPC   C4B14521   3.070   0.488  19.635  0.1599  0.0072  0.0659
12108DPPC   NC314522   4.077   2.663  22.346 -0.1304  0.0011 -0.0999
12108DPPC   PO414523   3.692   2.638  22.225 -0.0865 -0.1185 -0.2684
12108DPPC   GL114524   3.330   2.697  22.027  0.0112 -0.0183 -0.0733
12108DPPC   GL214525   3.387   2.525  21.725  0.2097  0.0200  0.3602
12108DPPC   C1A14526   3.041   2.781  21.810 -0.4150  0.0231 -0.2662
12108DPPC   C2A14527   2.736   2.847  21.574 -0.0537  0.4065 -0.1918
12108DPPC   C3A14528   2.353   2.876  21.309 -0.0313  0.0394 -0.3916
12108DPPC   C4A14529   2.147   2.967  20.898  0.2283  0.2855 -0.2103
12108DPPC   C1B14530   3.133   2.524  21.475 -0.2494 -0.0390  0.1583
12108DPPC   C2B14531   2.860   2.564  21.205 -0.2327  0.1374 -0.2878
12108DPPC   C3B14532   2.480   2.493  20.863 -0.1142  0.0639 -0.0045
12108DPPC   C4B14533   2.127   2.436  20.543  0.1395 -0.2052  0.0082
12109DPPC   NC314534   3.706   4.965  22.726 -0.3163 -0.1186 -0.1008
12109DPPC   PO414535   3.543   4.659  22.509 -0.1277 -0.2383  0.0089
12109DPPC   GL114536   3.510   4.856  22.025 -0.1351 -0.0608 -0.3415
12109DPPC   GL214537   3.256   4.931  22.196  0.2527  0.1956 -0.2342
12109DPPC   C1A14538   3.510   4.828  21.683  0.1720  0.1339  0.0574
12109DPPC   C2A14539   3.323   4.844  21.301  0.1082 -0.1326 -0.1543
12109DPPC   C3A14540   3.001   4.843  20.933 -0.0136  0.0299  0.0193
12109DPPC   C4A14541   2.646   4.771  20.560 -0.0545  0.0204  0.2925
12109DPPC   C1B14542   2.959   5.127  22.037  0.4526 -0.1739  0.2312
12109DPPC   C2B14543   2.644   5.108  21.793  0.1360 -0.2975  0.0768
12109DPPC   C3B14544   2.292   5.097  21.422  0.2237  0.1575 -0.0905
12109DPPC   C4B14545   2.050   5.048  21.014  0.0298 -0.1209 -0.0964
12110DPPC   NC314546   6.030   3.423  19.640 -0.0454 -0.1010  0.1158
12110DPPC   PO414547   5.676   3.605  19.717  0.1601 -0.1927  0.1031
12110DPPC   GL114548   5.222   3.582  19.602  0.1875 -0.0803 -0.1715
12110DPPC   GL214549   5.266   3.413  19.381 -0.1726 -0.0023  0.2115
12110DPPC   C1A14550   4.982   3.817  19.419  0.2595  0.5726 -0.0337
12110DPPC   C2A14551   4.680   3.888  19.109 -0.3000 -0.0691 -0.0865
12110DPPC   C3A14552   4.364   3.884  18.815  0.1052 -0.0234 -0.0133
12110DPPC   C4A14553   4.132   3.837  18.411  0.1255 -0.2500  0.3739
12110DPPC   C1B14554   5.076   3.515  19.094  0.0760  0.0458  0.1677
12110DPPC   C2B14555   4.808   3.507  18.776 -0.2547 -0.1577  0.1701
12110DPPC   C3B14556   4.474   3.421  18.451  0.0252 -0.1612 -0.2068
12110DPPC   C4B14557   4.348   3.499  17.975  0.0494 -0.0170 -0.0269
12111DPPC   NC314558   6.998   3.171  20.468  0.1801 -0.1589 -0.1029
12111DPPC   PO414559   6.601   3.079  20.378  0.0921 -0.2957 -0.0622
12111DPPC   GL114560   6.732   2.871  20.021 -0.3086 -0.2586 -0.0614
12111DPPC   GL214561   6.900   2.675  20.130 -0.2154  0.1361  0.3523
12111DPPC   C1A14562   6.875   2.965  19.709  0.0611 -0.2649 -0.3071
12111DPPC   C2A14563   7.038   3.100  19.373  0.0776  0.0183 -0.3345
12111DPPC   C3A14564   7.291   3.123  18.982 -0.1375 -0.1580 -0.1635
12111DPPC   C4A14565   7.596   3.066  18.599 -0.2354 -0.1081 -0.0189
12111DPPC   C1B14566   7.205   2.696  19.888 -0.2294 -0.2589  0.2974
12111DPPC   C2B14567   7.395   2.697  19.494 -0.1849 -0.2398  0.0219
12111DPPC   C3B14568   7.634   2.699  19.099  0.0857 -0.0657 -0.1932
12111DPPC   C4B14569   7.859   2.652  18.677  0.1639 -0.1147 -0.2530
12112DPPC   NC314570   5.953   0.192  19.599 -0.0178 -0.1678  0.1319
12112DPPC   PO414571   5.783   0.073  19.919  0.1496 -0.0174  0.0203
12112DPPC   GL114572   5.445   0.093  19.711 -0.0053 -0.1124 -0.1035
12112DPPC   GL214573   5.555   0.252  19.541  0.1715 -0.3270  0.5624
12112DPPC   C1A14574   5.156  -0.113  19.580 -0.5338  0.0273 -0.0346
12112DPPC   C2A14575   4.924  -0.116  19.284  0.1481  0.1978 -0.0385
12112DPPC   C3A14576   4.578  -0.088  18.976 -0.0664  0.0177  0.0069
12112DPPC   C4A14577   4.315  -0.174  18.604  0.0381 -0.0400 -0.0664
12112DPPC   C1B14578   5.391   0.237  19.247  0.2808  0.0542 -0.1430
12112DPPC   C2B14579   5.166   0.101  18.930 -0.1760  0.1098 -0.2067
12112DPPC   C3B14580   4.845   0.029  18.556 -0.1609  0.5839 -0.3263
12112DPPC   C4B14581   4.583   0.012  18.141 -0.1120 -0.0414  0.3047
12113DPPC   NC314582   4.259   1.762  22.083 -0.1113 -0.2035  0.1837
12113DPPC   PO414583   4.024   1.709  21.800  0.1659  0.1224 -0.0520
12113DPPC   GL114584   3.943   1.776  21.463  0.2324 -0.2193  0.0451
12113DPPC   GL214585   3.816   2.032  21.525  0.3274  0.2432 -0.2853
12113DPPC   C1A14586   3.675   1.791  21.200 -0.2182  0.1796  0.0283
12113DPPC   C2A14587   3.457   1.756  20.849 -0.1447 -0.0641  0.2184
12113DPPC   C3A14588   3.091   1.742  20.525 -0.1227  0.1025 -0.0156
12113DPPC   C4A14589   2.716   1.741  20.140  0.1488 -0.1405 -0.1147
12113DPPC   C1B14590   3.530   2.169  21.369 -0.4926  0.0430  0.0694
12113DPPC   C2B14591   3.282   2.150  21.121  0.1318  0.2021 -0.1744
12113DPPC   C3B14592   2.904   2.224  20.806  0.0823  0.1747 -0.0307
12113DPPC   C4B14593   2.566   2.057  20.468 -0.0411  0.1138  0.2041
12114DPPC   NC314594   4.671   5.862  20.807 -0.2221  0.2474  0.1942
12114DPPC   PO414595   4.576   5.492  20.879  0.0604 -0.4417 -0.1567
12114DPPC   GL114596   4.375   5.301  20.555  0.0936  0.4276  0.2939
12114DPPC   GL214597   4.575   5.489  20.327  0.0143  0.2876  0.3723
12114DPPC   C1A14598   4.069   5.355  20.383  0.2065 -0.1355  0.1059
12114DPPC   C2A14599   3.793   5.376  20.085  0.3399  0.1827 -0.1556
12114DPPC   C3A14600   3.479   5.403  19.728  0.2210  0.1207 -0.1661
12114DPPC   C4A14601   3.115   5.334  19.357  0.0444  0.1681 -0.1236
12114DPPC   C1B14602   4.500   5.544  19.972 -0.3687 -0.1352  0.2209
12114DPPC   C2B14603   4.146   5.539  19.726 -0.1456  0.0656  0.0927
12114DPPC   C3B14604   3.852   5.460  19.379 -0.2966 -0.3503 -0.0473
12114DPPC   C4B14605   3.504   5.415  19.052  0.0480 -0.2338  0.2800
12115DPPC   NC314606   5.642   4.298  20.169  0.1548 -0.5073 -0.3504
12115DPPC   PO414607   5.303   4.464  20.102 -0.2078  0.5701 -0.3374
12115DPPC   GL114608   5.086   4.403  19.792 -0.3918 -0.2077  0.0006
12115DPPC   GL214609   5.075   4.527  19.537  0.0692 -0.0497  0.4663
12115DPPC   C1A14610   4.865   4.130  19.680 -0.1153 -0.4397 -0.1061
12115DPPC   C2A14611   4.495   4.200  19.495 -0.3812 -0.0757 -0.4084
12115DPPC   C3A14612   4.215   4.272  19.146 -0.0273  0.1815  0.3362
12115DPPC   C4A14613   3.987   4.213  18.729  0.0666  0.0781  0.0180
12115DPPC   C1B14614   4.941   4.479  19.221 -0.2453  0.1609 -0.0381
12115DPPC   C2B14615   4.674   4.346  18.907 -0.0164  0.2628  0.3071
12115DPPC   C3B14616   4.381   4.297  18.517  0.4305  0.1233  0.0943
12115DPPC   C4B14617   4.055   4.317  18.061 -0.1257 -0.0798 -0.0129
12116DPPC   NC314618   4.752   4.180  20.640 -0.0256 -0.0038  0.1190
12116DPPC   PO414619   4.908   4.546  20.540  0.1173 -0.3060 -0.0272
12116DPPC   GL114620   4.604   4.562  20.377 -0.0793 -0.3513 -0.0880
12116DPPC   GL214621   4.442   4.314  20.287  0.0202 -0.1453 -0.3960
12116DPPC   C1A14622   4.384   4.793  20.153 -0.4034 -0.3020  0.2325
12116DPPC   C2A14623   4.270   5.106  19.979  0.0002 -0.0223 -0.0672
12116DPPC   C3A14624   3.831   5.086  19.691  0.1207 -0.0345 -0.1824
12116DPPC   C4A14625   3.559   5.023  19.292  0.1563  0.2165 -0.1908
12116DPPC   C1B14626   4.373   4.187  19.936  0.0119  0.4391 -0.1388
12116DPPC   C2B14627   4.048   4.207  19.689  0.2684  0.1252  0.3226
12116DPPC   C3B14628   3.718   4.233  19.272  0.3951  0.0913 -0.0176
12116DPPC   C4B14629   3.363   4.164  18.940 -0.1365  0.0605  0.1507
12117DPPC   NC314630   5.351   3.398  20.037  0.2924  0.0595  0.0287
12117DPPC   PO414631   5.150   3.638  20.287 -0.2081 -0.1065  0.2132
12117DPPC   GL114632   4.842   3.515  20.138  0.0291 -0.0003  0.1988
12117DPPC   GL214633   4.873   3.732  19.886 -0.1130 -0.2801 -0.0946
12117DPPC   C1A14634   4.552   3.360  20.099  0.1109  0.1052 -0.0510
12117DPPC   C2A14635   4.360   3.360  19.677  0.0442 -0.0471  0.2024
12117DPPC   C3A14636   4.017   3.368  19.331  0.0343  0.1212 -0.0366
12117DPPC   C4A14637   3.680   3.309  19.032 -0.1779 -0.0995 -0.0857
12117DPPC   C1B14638   4.615   3.759  19.686  0.2323 -0.2423  0.3273
12117DPPC   C2B14639   4.271   3.751  19.352  0.0167  0.2537 -0.0055
12117DPPC   C3B14640   3.907   3.804  19.042  0.1925 -0.1569  0.1144
12117DPPC   C4B14641   3.663   3.639  18.694 -0.2516 -0.1162 -0.0806
12118DPPC   NC314642   5.374   5.914  20.451  0.0954 -0.1092 -0.0594
12118DPPC   PO414643   5.455   5.849  20.075  0.0593 -0.1190  0.1386
12118DPPC   GL114644   5.263   5.963  19.660  0.0164  0.2300 -0.0535
12118DPPC   GL214645   5.025   6.039  19.865 -0.2157 -0.0625 -0.0403
12118DPPC   C1A14646   5.108   6.049  19.327  0.0562 -0.1567 -0.0744
12118DPPC   C2A14647   4.958   6.108  18.930  0.1283  0.1235 -0.0254
12118DPPC   C3A14648   4.729   6.091  18.513  0.2218 -0.0242  0.4939
12118DPPC   C4A14649   4.353   6.081  18.202 -0.0416  0.0237 -0.2960
12118DPPC   C1B14650   4.796   6.168  19.569  0.1735 -0.3877 -0.0381
12118DPPC   C2B14651   4.604   6.083  19.220  0.2710  0.1596 -0.3092
12118DPPC   C3B14652   4.348   5.966  18.823 -0.0597  0.1204  0.1835
12118DPPC   C4B14653   3.913   5.961  18.515  0.1599  0.2522 -0.1612
12119DPPC   NC314654   6.579   6.228  19.668 -0.3125 -0.1743  0.1943
12119DPPC   PO414655   6.302   6.385  19.443  0.0657 -0.0890  0.0208
12119DPPC   GL114656   6.542   6.087  19.251 -0.2550 -0.6489 -0.2251
12119DPPC   GL214657   6.328   6.138  18.997  0.1003 -0.0124  0.0711
12119DPPC   C1A14658   6.790   6.072  18.978  0.0166  0.0064 -0.0551
12119DPPC   C2A14659   6.901   6.062  18.551 -0.2689 -0.0116  0.0827
12119DPPC   C3A14660   7.169   6.157  18.171 -0.3855  0.2968 -0.2896
12119DPPC   C4A14661   7.323   6.232  17.704 -0.1619  0.0428 -0.0344
12119DPPC   C1B14662   6.160   6.430  18.886  0.4609 -0.1553  0.2993
12119DPPC   C2B14663   6.079   6.774  18.669 -0.1204 -0.3246 -0.2349
12119DPPC   C3B14664   5.729   7.067  18.514  0.1549 -0.0177 -0.3429
12119DPPC   C4B14665   5.416   7.249  18.184 -0.0316  0.3570 -0.0754
12120DPPC   NC314666   6.343   5.826  20.148 -0.0099  0.2794 -0.2560
12120DPPC   PO414667   6.480   5.775  19.792  0.1101 -0.3322 -0.0664
12120DPPC   GL114668   6.742   5.762  19.489  0.1553  0.3082  0.1370
12120DPPC   GL214669   6.950   5.943  19.476 -0.2268 -0.0625 -0.1830
12120DPPC   C1A14670   6.943   5.619  19.175  0.3435  0.2421 -0.2618
12120DPPC   C2A14671   7.191   5.737  18.844  0.0957 -0.0723  0.3859
12120DPPC   C3A14672   7.444   5.694  18.448 -0.1604  0.0234 -0.0524
12120DPPC   C4A14673   7.608   5.865  18.022  0.0175 -0.2262 -0.0344
12120DPPC   C1B14674   7.138   6.123  19.216  0.1776 -0.0232  0.0184
12120DPPC   C2B14675   7.339   6.204  18.856  0.0855  0.2371  0.4996
12120DPPC   C3B14676   7.650   6.200  18.443  0.1105  0.4715 -0.1727
12120DPPC   C4B14677   7.738   6.325  18.000 -0.4013 -0.2297 -0.0756
12121DPPC   NC314678   6.378   4.131  19.724  0.0585 -0.3532  0.1807
12121DPPC   PO414679   6.547   3.960  20.014  0.0758  0.1373 -0.0154
12121DPPC   GL114680   7.031   3.995  19.912 -0.0778  0.1525  0.0263
12121DPPC   GL214681   6.890   4.064  19.674 -0.1210 -0.1320 -0.5690
12121DPPC   C1A14682   7.320   4.024  19.721 -0.0960  0.0012  0.6308
12121DPPC   C2A14683   7.592   3.956  19.372 -0.1312 -0.3919  0.0358
12121DPPC   C3A14684   7.831   4.036  18.995  0.0514 -0.0157  0.4042
12121DPPC   C4A14685   8.027   3.992  18.550 -0.1272 -0.1846 -0.0216
12121DPPC   C1B14686   7.001   3.995  19.321 -0.3170  0.6416 -0.1128
12121DPPC   C2B14687   7.258   3.918  19.005 -0.1682  0.0188  0.0123
12121DPPC   C3B14688   7.483   3.946  18.593 -0.1041 -0.3776  0.1194
12121DPPC   C4B14689   7.567   3.958  18.173 -0.1996  0.2275  0.0195
12122DPPC   NC314690   4.704   3.613  21.206  0.1376  0.2594  0.1856
12122DPPC   PO414691   4.915   3.714  20.859  0.1111 -0.1301  0.0743
12122DPPC   GL114692   4.655   3.723  20.491  0.1312  0.1442 -0.3428
12122DPPC   GL214693   4.473   3.656  20.688 -0.1635  0.2556 -0.0973
12122DPPC   C1A14694   4.413   3.750  20.236  0.3559  0.2907  0.3388
12122DPPC   C2A14695   4.114   3.739  19.937  0.1033 -0.1057 -0.1012
12122DPPC   C3A14696   3.768   3.737  19.583 -0.1594 -0.3477 -0.2205
12122DPPC   C4A14697   3.455   3.705  19.200  0.3740 -0.0482  0.0869
12122DPPC   C1B14698   4.117   3.654  20.559  0.1879 -0.0802  0.2159
12122DPPC   C2B14699   3.763   3.618  20.295 -0.1687  0.1207 -0.2952
12122DPPC   C3B14700   3.418   3.672  19.967 -0.0870  0.0188  0.2352
12122DPPC   C4B14701   3.080   3.658  19.672  0.0450  0.3341  0.0005
12123DPPC   NC314702   3.983   1.208  21.425  0.1241 -0.2659  0.1899
12123DPPC   PO414703   3.888   0.992  21.733 -0.1256 -0.3212  0.0698
12123DPPC   GL114704   3.595   0.837  21.480 -0.3244 -0.2454  0.0701
12123DPPC   GL214705   3.689   0.523  21.541 -0.0122 -0.3678 -0.1522
12123DPPC   C1A14706   3.388   0.802  21.161  0.2032 -0.2414 -0.1471
12123DPPC   C2A14707   3.102   0.796  20.837 -0.1607  0.0848  0.1512
12123DPPC   C3A14708   2.749   0.819  20.507 -0.1088  0.1995 -0.3067
12123DPPC   C4A14709   2.318   0.772  20.288  0.1982 -0.0531  0.0756
12123DPPC   C1B14710   3.388   0.409  21.345  0.0247  0.0480 -0.1652
12123DPPC   C2B14711   3.027   0.371  21.122  0.2930 -0.0678  0.1737
12123DPPC   C3B14712   2.681   0.380  20.819 -0.0435  0.1145  0.1326
12123DPPC   C4B14713   2.454   0.321  20.438  0.0628 -0.1143  0.1437
12124DPPC   NC314714   3.298   5.640  23.079  0.1971 -0.0490  0.0015
12124DPPC   PO414715   3.344   5.462  22.715  0.0384 -0.1642  0.2622
12124DPPC   GL114716   3.069   5.476  22.408  0.2124 -0.0938 -0.0082
12124DPPC   GL214717   2.870   5.371  22.458 -0.0678 -0.4309 -0.6125
12124DPPC   C1A14718   3.190   5.473  22.044  0.1753  0.3478 -0.1900
12124DPPC   C2A14719   2.969   5.579  21.708  0.0591 -0.2914  0.3150
12124DPPC   C3A14720   2.558   5.532  21.410 -0.0188 -0.0513 -0.1204
12124DPPC   C4A14721   2.247   5.501  21.018  0.1436 -0.1501  0.0646
12124DPPC   C1B14722   2.636   5.524  22.266 -0.6211 -0.0579  0.0005
12124DPPC   C2B14723   2.357   5.499  21.889 -0.1266 -0.3520  0.0490
12124DPPC   C3B14724   2.042   5.532  21.533  0.1014 -0.0119 -0.0620
12124DPPC   C4B14725   1.710   5.537  21.116  0.3328  0.0588 -0.0175
12125DPPC   NC314726   3.527   6.306  22.353 -0.0660  0.1174  0.0242
12125DPPC   PO414727   3.711   6.273  21.998  0.0094 -0.0490 -0.0628
12125DPPC   GL114728   3.404   6.244  21.848 -0.3820  0.1840  0.0721
12125DPPC   GL214729   3.259   6.459  21.725 -0.0060  0.0413 -0.4020
12125DPPC   C1A14730   3.221   6.039  21.626 -0.3847 -0.0566 -0.2910
12125DPPC   C2A14731   2.861   6.039  21.384  0.0756 -0.0633 -0.0397
12125DPPC   C3A14732   2.497   5.913  21.141 -0.0898 -0.1096 -0.3214
12125DPPC   C4A14733   2.220   6.041  20.792 -0.0769 -0.1785 -0.2649
12125DPPC   C1B14734   3.106   6.463  21.417  0.2536 -0.2898  0.0415
12125DPPC   C2B14735   2.801   6.497  21.110  0.1871 -0.3165  0.0331
12125DPPC   C3B14736   2.494   6.454  20.750  0.0125  0.2448  0.3039
12125DPPC   C4B14737   2.143   6.459  20.462 -0.0465  0.2911  0.0352
12126DPPC   NC314738   3.642   4.022  22.095 -0.1335 -0.2377  0.0087
12126DPPC   PO414739   3.902   3.970  21.798  0.0670 -0.1990 -0.1129
12126DPPC   GL114740   3.658   3.932  21.426 -0.0619  0.0435 -0.0787
12126DPPC   GL214741   3.428   3.923  21.668 -0.4380  0.0406  0.2446
12126DPPC   C1A14742   3.442   3.887  21.128  0.0385 -0.2121 -0.2674
12126DPPC   C2A14743   3.124   3.944  20.846  0.2181  0.0328  0.2648
12126DPPC   C3A14744   2.773   4.004  20.477 -0.1106 -0.0607  0.2409
12126DPPC   C4A14745   2.457   3.878  20.145 -0.0557 -0.1412  0.2141
12126DPPC   C1B14746   3.086   3.883  21.593 -0.2666  0.0879  0.1171
12126DPPC   C2B14747   2.788   3.871  21.326 -0.0529  0.0458  0.0149
12126DPPC   C3B14748   2.567   3.834  20.953  0.0954 -0.0698 -0.2667
12126DPPC   C4B14749   2.266   3.821  20.563 -0.0412 -0.2675 -0.0973
12127DPPC   NC314750   5.313   3.952  19.938 -0.1985  0.0543  0.4958
12127DPPC   PO414751   5.529   4.148  19.672 -0.1552 -0.3233 -0.0967
12127DPPC   GL114752   5.224   4.151  19.367  0.1098 -0.0414  0.1688
12127DPPC   GL214753   5.352   4.422  19.252  0.1172 -0.3119 -0.0290
12127DPPC   C1A14754   5.086   4.057  19.093 -0.2542  0.1390  0.1025
12127DPPC   C2A14755   4.993   3.993  18.668  0.0093  0.1307  0.0141
12127DPPC   C3A14756   4.863   3.812  18.283 -0.0730 -0.0183 -0.2591
12127DPPC   C4A14757   4.905   3.475  17.908  0.1404 -0.1059 -0.1121
12127DPPC   C1B14758   5.227   4.557  18.888 -0.0221 -0.2893  0.4041
12127DPPC   C2B14759   5.024   4.526  18.543 -0.2252  0.0975 -0.1214
12127DPPC   C3B14760   4.744   4.433  18.155 -0.1840 -0.0104 -0.1712
12127DPPC   C4B14761   4.491   4.058  18.038 -0.2154 -0.2213  0.0173
12128DPPC   NC314762   5.862   5.440  19.499  0.0279  0.1570  0.1152
12128DPPC   PO414763   5.644   5.735  19.528  0.4025 -0.0972  0.1078
12128DPPC   GL114764   5.344   5.646  19.326  0.1353 -0.1469  0.0773
12128DPPC   GL214765   5.418   5.863  19.118 -0.1501 -0.1073 -0.0348
12128DPPC   C1A14766   5.019   5.665  19.108  0.0691  0.5145  0.2303
12128DPPC   C2A14767   4.728   5.669  18.832 -0.0826  0.0777  0.3653
12128DPPC   C3A14768   4.477   5.619  18.445 -0.0419  0.0054  0.0815
12128DPPC   C4A14769   4.230   5.616  18.025 -0.2810  0.2428  0.0610
12128DPPC   C1B14770   5.275   5.799  18.786  0.0996 -0.3487  0.2606
12128DPPC   C2B14771   5.093   5.782  18.429 -0.0319 -0.0254 -0.0539
12128DPPC   C3B14772   4.776   5.770  18.100  0.0157 -0.2175  0.0076
12128DPPC   C4B14773   4.629   5.703  17.564 -0.1093 -0.0254  0.0212
12129DPPC   NC314774   5.353   2.859  20.039  0.1083 -0.0930 -0.2785
12129DPPC   PO414775   5.543   2.622  19.843 -0.2131  0.0349  0.1223
12129DPPC   GL114776   5.496   2.549  19.488 -0.2587 -0.0909  0.1945
12129DPPC   GL214777   5.627   2.247  19.458  0.1356 -0.1528  0.1623
12129DPPC   C1A14778   5.313   2.615  19.174 -0.0210 -0.1469  0.0595
12129DPPC   C2A14779   5.145   2.684  18.799 -0.1941 -0.0674  0.0228
12129DPPC   C3A14780   4.764   2.669  18.463  0.0778  0.2826  0.0615
12129DPPC   C4A14781   4.399   2.590  18.071  0.1522 -0.2048  0.0486
12129DPPC   C1B14782   5.685   2.103  19.154  0.0005  0.1262 -0.1123
12129DPPC   C2B14783   5.723   1.878  18.842 -0.0346  0.0305  0.0848
12129DPPC   C3B14784   5.623   1.891  18.395 -0.0733 -0.1609  0.3559
12129DPPC   C4B14785   5.257   1.952  18.047  0.0953 -0.0769  0.1037
12130DPPC   NC314786   6.237   4.842  20.054  0.1269 -0.5640 -0.0827
12130DPPC   PO414787   6.450   4.565  19.897 -0.1106 -0.0859  0.0392
12130DPPC   GL114788   6.848   4.503  19.669 -0.0743  0.1586  0.1740
12130DPPC   GL214789   6.704   4.482  19.439  0.0385  0.0967  0.1991
12130DPPC   C1A14790   7.113   4.417  19.426 -0.1189  0.0239 -0.0309
12130DPPC   C2A14791   7.398   4.366  19.148  0.1213  0.3499  0.1740
12130DPPC   C3A14792   7.602   4.432  18.731 -0.1339  0.0059 -0.1001
12130DPPC   C4A14793   7.864   4.389  18.308 -0.0176 -0.2475 -0.0670
12130DPPC   C1B14794   6.852   4.348  19.126  0.1119  0.1678  0.0088
12130DPPC   C2B14795   7.050   4.347  18.760  0.1157 -0.1932 -0.0345
12130DPPC   C3B14796   7.277   4.351  18.393 -0.1092 -0.4212  0.3392
12130DPPC   C4B14797   7.531   4.447  17.939 -0.0303 -0.0116 -0.0004
12131DPPC   NC314798   4.534   6.543  21.043 -0.0827  0.2477  0.4122
12131DPPC   PO414799   4.830   6.788  20.889 -0.0732 -0.0703  0.0321
12131DPPC   GL114800   4.612   6.944  20.603 -0.2110 -0.2220  0.0434
12131DPPC   GL214801   4.364   6.901  20.713 -0.0007  0.0985  0.1907
12131DPPC   C1A14802   4.577   6.860  20.250 -0.1402  0.4404  0.0925
12131DPPC   C2A14803   4.375   6.797  19.876  0.0219  0.1588 -0.1242
12131DPPC   C3A14804   4.028   6.834  19.519 -0.1919 -0.0622  0.2479
12131DPPC   C4A14805   3.672   6.881  19.126 -0.2659  0.2437 -0.2020
12131DPPC   C1B14806   4.167   6.809  20.406  0.2020  0.1457 -0.3114
12131DPPC   C2B14807   3.868   6.752  20.102 -0.3724 -0.3641  0.0331
12131DPPC   C3B14808   3.601   6.763  19.702 -0.1520  0.0991 -0.1142
12131DPPC   C4B14809   3.301   6.618  19.413 -0.1443 -0.1003  0.0626
12132DPPC   NC314810   3.350   0.202  22.669 -0.2654  0.0881 -0.1649
12132DPPC   PO414811   3.238   0.060  22.316 -0.0049 -0.0781 -0.1853
12132DPPC   GL114812   2.825   0.099  22.150  0.2032  0.3471 -0.0417
12132DPPC   GL214813   2.906   0.190  21.884 -0.0978 -0.0597  0.0850
12132DPPC   C1A14814   2.467   0.150  22.069 -0.2299  0.1207  0.2565
12132DPPC   C2A14815   2.241   0.162  21.705 -0.0844  0.3226  0.0648
12132DPPC   C3A14816   1.907   0.125  21.312 -0.0957  0.0820  0.0399
12132DPPC   C4A14817   1.606   0.267  21.004 -0.0554  0.1756 -0.0100
12132DPPC   C1B14818   2.674   0.258  21.641 -0.4670  0.1585  0.1294
12132DPPC   C2B14819   2.465   0.297  21.302  0.2944  0.1612  0.1633
12132DPPC   C3B14820   2.158   0.255  20.901 -0.2621  0.1704  0.0205
12132DPPC   C4B14821   1.808   0.248  20.526  0.2215 -0.1646 -0.0584
12133DPPC   NC314822   6.595   4.708  20.904 -0.0522 -0.0989  0.1067
12133DPPC   PO414823   6.423   4.779  20.530 -0.1939 -0.1468 -0.2125
12133DPPC   GL114824   6.700   4.851  20.231 -0.2541 -0.1014  0.3696
12133DPPC   GL214825   6.903   4.996  20.411  0.2942 -0.2257  0.3872
12133DPPC   C1A14826   6.939   4.861  19.985  0.2360 -0.1383 -0.5983
12133DPPC   C2A14827   7.265   4.897  19.745 -0.1519 -0.0394 -0.1746
12133DPPC   C3A14828   7.552   4.905  19.324  0.0119 -0.0699 -0.1671
12133DPPC   C4A14829   7.819   4.855  18.958 -0.2164  0.1170  0.2724
12133DPPC   C1B14830   7.167   5.253  20.256  0.1234  0.2999 -0.0712
12133DPPC   C2B14831   7.428   5.316  19.981 -0.0976  0.6485 -0.3705
12133DPPC   C3B14832   7.692   5.357  19.548 -0.4265 -0.0214 -0.3811
12133DPPC   C4B14833   7.941   5.336  19.125  0.0273  0.2193 -0.2995
12134DPPC   NC314834   6.480   2.582  20.283 -0.1485 -0.1731 -0.0517
12134DPPC   PO414835   6.460   2.544  19.899  0.2327 -0.1288 -0.0261
12134DPPC   GL114836   6.541   2.711  19.539  0.1146 -0.0180 -0.2311
12134DPPC   GL214837   6.383   2.580  19.340 -0.1648  0.0689  0.0852
12134DPPC   C1A14838   6.842   2.685  19.294  0.3207  0.1116  0.2490
12134DPPC   C2A14839   7.156   2.649  19.038  0.3980 -0.2883  0.0297
12134DPPC   C3A14840   7.366   2.626  18.640 -0.0294 -0.1883 -0.1594
12134DPPC   C4A14841   7.586   2.608  18.238  0.0857 -0.0023  0.1181
12134DPPC   C1B14842   6.542   2.550  19.002 -0.5364 -0.1888  0.1632
12134DPPC   C2B14843   6.796   2.584  18.641 -0.0316  0.2596 -0.0619
12134DPPC   C3B14844   7.015   2.608  18.234 -0.1097  0.3550 -0.0609
12134DPPC   C4B14845   7.291   2.522  17.820  0.3267 -0.0329 -0.0350
12135DPPC   NC314846   5.652   5.442  19.017 -0.0022  0.1062  0.2238
12135DPPC   PO414847   5.986   5.643  19.096 -0.0554 -0.0667 -0.1224
12135DPPC   GL114848   6.208   5.580  18.814  0.0797 -0.1186 -0.1250
12135DPPC   GL214849   5.926   5.493  18.620  0.1889 -0.0346 -0.0006
12135DPPC   C1A14850   6.340   5.517  18.454  0.0959 -0.2940  0.2492
12135DPPC   C2A14851   6.445   5.547  18.073 -0.0313 -0.1778  0.0698
12135DPPC   C3A14852   6.720   5.650  17.638 -0.1865 -0.0733  0.0427
12135DPPC   C4A14853   7.088   5.752  17.300 -0.0899 -0.5860 -0.0484
12135DPPC   C1B14854   5.899   5.777  18.356 -0.1311 -0.1334  0.3133
12135DPPC   C2B14855   6.076   5.954  18.008 -0.2258 -0.0419 -0.2023
12135DPPC   C3B14856   6.332   6.006  17.661 -0.3084 -0.1049 -0.1231
12135DPPC   C4B14857   6.608   5.932  17.221 -0.1433  0.4091  0.3646
12136DPPC   NC314858   4.072   3.357  21.699 -0.1682  0.2835  0.0810
12136DPPC   PO414859   3.993   2.951  21.739 -0.3232  0.1462 -0.1983
12136DPPC   GL114860   3.695   2.931  21.529 -0.0200  0.2950  0.2566
12136DPPC   GL214861   3.667   2.710  21.315  0.1300  0.0162  0.1087
12136DPPC   C1A14862   3.315   2.957  21.441  0.0030  0.0485  0.1023
12136DPPC   C2A14863   3.044   3.115  21.201  0.1312 -0.4007  0.2337
12136DPPC   C3A14864   2.644   3.001  20.874 -0.2145  0.0617 -0.1371
12136DPPC   C4A14865   2.400   2.877  20.448 -0.1585  0.0334 -0.1198
12136DPPC   C1B14866   3.364   2.731  21.046 -0.1135  0.4419 -0.1437
12136DPPC   C2B14867   3.105   2.730  20.747 -0.1681  0.0271 -0.0038
12136DPPC   C3B14868   2.802   2.581  20.428 -0.0117  0.4026 -0.1109
12136DPPC   C4B14869   2.398   2.499  20.128 -0.1360 -0.3548 -0.3045
12137DPPC   NC314870   4.867   2.380  20.611 -0.0399 -0.0915 -0.3299
12137DPPC   PO414871   5.117   2.474  20.309  0.2401  0.0266 -0.1269
12137DPPC   GL114872   4.964   2.477  19.953 -0.0130  0.1425  0.4568
12137DPPC   GL214873   5.124   2.555  19.748  0.3052 -0.1405  0.0770
12137DPPC   C1A14874   4.639   2.504  19.782 -0.2308 -0.2443  0.0203
12137DPPC   C2A14875   4.332   2.486  19.537  0.2999 -0.0028 -0.0596
12137DPPC   C3A14876   4.031   2.488  19.212 -0.1870  0.0963  0.3098
12137DPPC   C4A14877   3.745   2.502  18.846  0.0847 -0.1286  0.1764
12137DPPC   C1B14878   4.964   2.556  19.435  0.0524  0.1482 -0.2468
12137DPPC   C2B14879   4.675   2.630  19.178  0.0047 -0.1969 -0.1372
12137DPPC   C3B14880   4.367   2.602  18.833  0.0940 -0.0043 -0.4110
12137DPPC   C4B14881   4.014   2.607  18.450  0.1113 -0.0259 -0.1083
12138DPPC   NC314882   5.496   3.803  19.313 -0.1996  0.3042 -0.2158
12138DPPC   PO414883   5.585   4.082  19.042  0.2078  0.3214 -0.0633
12138DPPC   GL114884   5.494   3.917  18.701 -0.0802 -0.1239 -0.1350
12138DPPC   GL214885   5.712   4.028  18.563 -0.1545  0.4019  0.0763
12138DPPC   C1A14886   5.301   3.646  18.554 -0.2452 -0.0730  0.1211
12138DPPC   C2A14887   5.300   3.384  18.197 -0.1460 -0.2498  0.1191
12138DPPC   C3A14888   5.476   3.256  17.772 -0.0367  0.1920 -0.0153
12138DPPC   C4A14889   5.322   3.207  17.293 -0.5079  0.0785  0.1773
12138DPPC   C1B14890   5.777   3.762  18.301 -0.1610 -0.0927 -0.3396
12138DPPC   C2B14891   6.020   3.750  17.929  0.0140  0.0403 -0.0408
12138DPPC   C3B14892   6.302   3.810  17.513  0.0238 -0.3083  0.0761
12138DPPC   C4B14893   6.615   3.762  17.061  0.0341  0.1368 -0.3448
12139DPPC   NC314894   5.629   1.388  20.265 -0.0291 -0.1648 -0.0146
12139DPPC   PO414895   5.713   1.072  20.042  0.1782  0.0495 -0.2965
12139DPPC   GL114896   5.617   1.133  19.636 -0.1320 -0.1589 -0.0874
12139DPPC   GL214897   5.454   0.941  19.587 -0.3670 -0.0946  0.0861
12139DPPC   C1A14898   5.447   1.332  19.341 -0.0543 -0.0534 -0.1436
12139DPPC   C2A14899   5.157   1.356  19.086  0.1498 -0.2346  0.0318
12139DPPC   C3A14900   4.938   1.413  18.697 -0.0895  0.1414  0.1667
12139DPPC   C4A14901   4.653   1.392  18.298 -0.1527  0.1162  0.1517
12139DPPC   C1B14902   5.162   0.853  19.383  0.1671  0.1603 -0.1788
12139DPPC   C2B14903   4.967   0.866  19.047  0.0033  0.2290  0.0182
12139DPPC   C3B14904   4.711   0.866  18.614  0.1859  0.1480 -0.4177
12139DPPC   C4B14905   4.496   0.841  18.242  0.2567  0.0939 -0.1136
12140DPPC   NC314906   6.509   3.842  20.849 -0.3343 -0.0394  0.2828
12140DPPC   PO414907   6.819   3.840  21.122  0.2222 -0.2756  0.2042
12140DPPC   GL114908   7.157   3.835  20.874 -0.3409  0.1373  0.5390
12140DPPC   GL214909   7.050   3.583  20.697 -0.2593  0.0393 -0.0361
12140DPPC   C1A14910   7.321   4.087  20.639  0.0976 -0.0190  0.4769
12140DPPC   C2A14911   7.504   4.072  20.316 -0.3151  0.2693  0.3530
12140DPPC   C3A14912   7.754   4.093  19.866  0.0250  0.2475 -0.0690
12140DPPC   C4A14913   8.052   4.040  19.476  0.3513  0.1866  0.0447
12140DPPC   C1B14914   7.264   3.526  20.401 -0.0336 -0.1693 -0.0912
12140DPPC   C2B14915   7.267   3.585  19.966  0.0316  0.3206 -0.1892
12140DPPC   C3B14916   7.645   3.578  19.682  0.0612  0.0379 -0.1215
12140DPPC   C4B14917   7.948   3.566  19.284  0.0793  0.2802  0.1139
12141DPPC   NC314918   5.098   1.584  20.862 -0.0293 -0.0185 -0.0267
12141DPPC   PO414919   5.183   1.403  20.530 -0.3123 -0.1658  0.0408
12141DPPC   GL114920   4.888   1.508  20.339  0.3186 -0.2745 -0.2665
12141DPPC   GL214921   4.708   1.607  20.446  0.2866  0.0314 -0.1737
12141DPPC   C1A14922   4.796   1.545  19.957  0.2562  0.1236 -0.1974
12141DPPC   C2A14923   4.604   1.662  19.593  0.1468 -0.2433  0.3439
12141DPPC   C3A14924   4.281   1.658  19.181 -0.0228 -0.2682 -0.1480
12141DPPC   C4A14925   4.003   1.639  18.804 -0.1039 -0.3721 -0.1960
12141DPPC   C1B14926   4.469   1.485  20.201  0.1980  0.0310  0.0639
12141DPPC   C2B14927   4.212   1.465  19.877  0.0232 -0.2182 -0.1824
12141DPPC   C3B14928   3.939   1.504  19.471  0.1034  0.1192 -0.0262
12141DPPC   C4B14929   3.628   1.488  19.102  0.2592 -0.1050  0.1834
12142DPPC   NC314930   5.334   6.315  20.104  0.0636 -0.1633 -0.2126
12142DPPC   PO414931   5.023   6.214  20.307 -0.1389  0.4272  0.2847
12142DPPC   GL114932   4.728   5.936  20.261  0.0553 -0.0848 -0.0840
12142DPPC   GL214933   4.965   5.761  20.247  0.2868 -0.3038  0.0770
12142DPPC   C1A14934   4.557   5.955  19.942 -0.0405 -0.1159 -0.1128
12142DPPC   C2A14935   4.333   5.970  19.615  0.2221  0.4066 -0.1242
12142DPPC   C3A14936   4.007   5.908  19.273  0.1119  0.0206  0.3148
12142DPPC   C4A14937   3.677   5.863  18.924 -0.1058  0.0220  0.0184
12142DPPC   C1B14938   4.890   5.618  19.892 -0.1411 -0.1488 -0.2134
12142DPPC   C2B14939   4.754   5.655  19.505  0.0552 -0.3407  0.0096
12142DPPC   C3B14940   4.384   5.623  19.196 -0.1193 -0.0462 -0.2352
12142DPPC   C4B14941   4.033   5.515  18.861  0.0583  0.1442  0.1309
12143DPPC   NC314942   6.143   1.700  19.869  0.0401 -0.0280  0.2112
12143DPPC   PO414943   5.751   1.592  19.829 -0.0784 -0.1014  0.0886
12143DPPC   GL114944   5.630   1.773  19.431  0.0414 -0.1427 -0.1751
12143DPPC   GL214945   5.792   1.573  19.296  0.0597  0.3007  0.1150
12143DPPC   C1A14946   5.366   1.778  19.141 -0.1282  0.0829  0.0687
12143DPPC   C2A14947   5.190   1.860  18.736  0.0535 -0.0224 -0.2421
12143DPPC   C3A14948   4.926   1.801  18.374  0.1693 -0.1397  0.1032
12143DPPC   C4A14949   4.636   1.825  17.969 -0.0090 -0.0274 -0.3357
12143DPPC   C1B14950   5.697   1.406  18.988  0.0609 -0.5977  0.1945
12143DPPC   C2B14951   5.473   1.474  18.647  0.0156 -0.0094  0.3102
12143DPPC   C3B14952   5.368   1.428  18.195 -0.2122  0.0169 -0.2092
12143DPPC   C4B14953   5.045   1.470  17.794 -0.0350  0.0845  0.0936
12144DPPC   NC314954   4.666   5.656  21.356  0.1501  0.2737 -0.2934
12144DPPC   PO414955   4.527   5.268  21.371 -0.0105 -0.0040 -0.1038
12144DPPC   GL114956   4.194   5.288  21.061  0.0957  0.3760  0.0021
12144DPPC   GL214957   4.308   5.041  21.033  0.2370  0.0179  0.2844
12144DPPC   C1A14958   3.922   5.411  20.829  0.1621  0.5087  0.0055
12144DPPC   C2A14959   3.650   5.411  20.558  0.0708  0.1678  0.1646
12144DPPC   C3A14960   3.305   5.354  20.274 -0.0449 -0.1291  0.3095
12144DPPC   C4A14961   2.982   5.369  19.932  0.1293  0.4814  0.1078
12144DPPC   C1B14962   4.075   4.886  20.769 -0.1358  0.1237 -0.5742
12144DPPC   C2B14963   3.807   4.946  20.398  0.2686  0.3429  0.0006
12144DPPC   C3B14964   3.514   4.946  20.082 -0.2114  0.1156  0.2057
12144DPPC   C4B14965   3.232   4.998  19.723  0.3182 -0.0155 -0.1716
12145DPPC   NC314966   4.601   0.570  21.045  0.2383  0.0658 -0.3021
12145DPPC   PO414967   4.725   0.744  20.717  0.0253  0.1392 -0.2998
12145DPPC   GL114968   4.391   0.691  20.425  0.1627 -0.2786 -0.0721
12145DPPC   GL214969   4.429   0.980  20.412 -0.0283 -0.2592 -0.0361
12145DPPC   C1A14970   4.144   0.645  20.175 -0.2394  0.2050 -0.0359
12145DPPC   C2A14971   3.891   0.560  19.846  0.3446  0.0607  0.2605
12145DPPC   C3A14972   3.535   0.578  19.518  0.0598 -0.3162  0.1795
12145DPPC   C4A14973   3.214   0.450  19.157 -0.2106  0.1636 -0.0319
12145DPPC   C1B14974   4.278   1.064  20.115 -0.0873 -0.2192  0.1932
12145DPPC   C2B14975   4.014   1.034  19.790 -0.1578  0.1690  0.0226
12145DPPC   C3B14976   3.726   1.075  19.445  0.3000 -0.0551  0.0346
12145DPPC   C4B14977   3.357   0.988  19.100 -0.2897 -0.1543  0.0183
12146DPPC   NC314978   3.897   5.631  22.170 -0.1446 -0.1313 -0.4405
12146DPPC   PO414979   3.901   5.344  21.917 -0.0378  0.0782  0.0796
12146DPPC   GL114980   3.537   5.236  21.787  0.0791  0.1095 -0.0791
12146DPPC   GL214981   3.664   5.281  21.520  0.2092 -0.5297  0.1745
12146DPPC   C1A14982   3.210   5.179  21.614  0.0124 -0.1955 -0.0409
12146DPPC   C2A14983   3.012   5.248  21.242 -0.0780 -0.2682 -0.2214
12146DPPC   C3A14984   2.589   5.112  20.965 -0.1801  0.1159 -0.0014
12146DPPC   C4A14985   2.249   5.153  20.594  0.1668  0.1589  0.0726
12146DPPC   C1B14986   3.539   5.254  21.172 -0.1978  0.1452  0.1110
12146DPPC   C2B14987   3.288   5.287  20.830  0.1071 -0.0375 -0.2213
12146DPPC   C3B14988   2.937   5.239  20.534 -0.1306  0.1599  0.1601
12146DPPC   C4B14989   2.597   5.131  20.170 -0.0074  0.0625  0.0403
12147DPPC   NC314990   2.908   4.725  22.955 -0.0898  0.1009 -0.2546
12147DPPC   PO414991   3.187   4.461  22.814  0.1537 -0.0171 -0.0219
12147DPPC   GL114992   2.813   4.451  22.558 -0.1472 -0.1669  0.1645
12147DPPC   GL214993   2.947   4.562  22.377  0.3192 -0.2033  0.5785
12147DPPC   C1A14994   2.458   4.431  22.480  0.0577  0.0224 -0.0919
12147DPPC   C2A14995   2.165   4.554  22.196 -0.1659  0.3555  0.3063
12147DPPC   C3A14996   1.844   4.517  21.876  0.0536  0.1257  0.0308
12147DPPC   C4A14997   1.599   4.555  21.486  0.0097 -0.0495  0.1606
12147DPPC   C1B14998   2.706   4.686  22.107 -0.2457  0.1431 -0.2230
12147DPPC   C2B14999   2.453   4.666  21.797  0.0486  0.1806  0.2735
12147DPPC   C3B15000   2.103   4.596  21.412 -0.1817 -0.0209  0.0179
12147DPPC   C4B15001   1.850   4.553  20.983 -0.2576 -0.0869  0.0790
12148DPPC   NC315002   5.210   1.217  20.079 -0.1568  0.0180 -0.3085
12148DPPC   PO415003   4.879   1.062  20.290 -0.3241  0.0692 -0.1923
12148DPPC   GL115004   4.631   0.900  19.995  0.1844  0.0373  0.1348
12148DPPC   GL215005   4.637   0.653  19.969 -0.1238  0.0867 -0.2990
12148DPPC   C1A15006   4.691   1.100  19.695 -0.2595  0.1922  0.1324
12148DPPC   C2A15007   4.361   1.141  19.482 -0.0200  0.1476 -0.0036
12148DPPC   C3A15008   4.035   1.174  19.080  0.2269 -0.0597 -0.0128
12148DPPC   C4A15009   3.682   1.158  18.718  0.2199 -0.1004 -0.1701
12148DPPC   C1B15010   4.406   0.667  19.675  0.2828  0.1220 -0.1928
12148DPPC   C2B15011   4.111   0.685  19.412  0.1473 -0.0906 -0.0288
12148DPPC   C3B15012   3.796   0.736  18.977 -0.1274  0.4715 -0.0980
12148DPPC   C4B15013   3.608   0.669  18.585 -0.1943  0.2559  0.4211
12149DPPC   NC315014   3.726   4.018  22.928  0.2581 -0.1104  0.0219
12149DPPC   PO415015   3.516   4.127  22.619 -0.0463 -0.2035 -0.2951
12149DPPC   GL115016   3.168   4.215  22.403  0.2377 -0.1837 -0.3431
12149DPPC   GL215017   3.343   4.388  22.228  0.1037  0.0682  0.0238
12149DPPC   C1A15018   2.833   4.149  22.283  0.1031 -0.0799  0.4460
12149DPPC   C2A15019   2.442   4.145  22.109  0.0589 -0.1136  0.1516
12149DPPC   C3A15020   2.152   4.145  21.700  0.1389 -0.2252  0.1041
12149DPPC   C4A15021   1.890   4.150  21.324  0.0038 -0.3620  0.0515
12149DPPC   C1B15022   3.122   4.535  21.981  0.1571 -0.1921  0.3472
12149DPPC   C2B15023   3.046   4.724  21.673 -0.1989  0.1799  0.0097
12149DPPC   C3B15024   2.690   4.733  21.377 -0.2112 -0.0003 -0.0371
12149DPPC   C4B15025   2.422   4.641  20.976  0.1720  0.0970  0.0667
12150DPPC   NC315026   3.186   1.680  22.991  0.1073 -0.0358  0.1183
12150DPPC   PO415027   2.929   1.980  23.076 -0.0827  0.2821  0.2490
12150DPPC   GL115028   2.875   2.158  22.699 -0.0127 -0.0878 -0.4202
12150DPPC   GL215029   2.647   2.328  22.810 -0.1638  0.0165  0.1369
12150DPPC   C1A15030   2.625   1.953  22.538 -0.5685  0.3029 -0.0745
12150DPPC   C2A15031   2.317   1.819  22.345 -0.1273 -0.0254 -0.0241
12150DPPC   C3A15032   2.060   1.810  21.970  0.1062 -0.0556 -0.1092
12150DPPC   C4A15033   1.628   1.800  21.632  0.0184 -0.0271  0.1719
12150DPPC   C1B15034   2.403   2.490  22.581  0.0341 -0.3203  0.1169
12150DPPC   C2B15035   2.181   2.733  22.336 -0.1961  0.0391 -0.0386
12150DPPC   C3B15036   1.839   2.691  22.036  0.1842 -0.0688 -0.0287
12150DPPC   C4B15037   1.432   2.754  21.740 -0.1197  0.0894  0.1262
12151DPPC   NC315038   5.918   3.403  20.225 -0.0250  0.0154  0.0524
12151DPPC   PO415039   5.780   3.117  20.070 -0.0322 -0.3857 -0.3054
12151DPPC   GL115040   5.532   3.124  19.699 -0.0732  0.0511  0.0411
12151DPPC   GL215041   5.662   3.230  19.475  0.3175  0.4215 -0.2445
12151DPPC   C1A15042   5.224   2.938  19.496  0.1757 -0.1194 -0.1874
12151DPPC   C2A15043   5.014   2.992  19.157 -0.0011  0.0526  0.0896
12151DPPC   C3A15044   4.597   3.024  18.907 -0.0091  0.1102  0.3157
12151DPPC   C4A15045   4.322   2.951  18.448  0.1118  0.1666  0.1800
12151DPPC   C1B15046   5.572   2.961  19.208 -0.1890  0.0285  0.1778
12151DPPC   C2B15047   5.604   2.874  18.810  0.0886  0.1312 -0.1281
12151DPPC   C3B15048   5.422   2.949  18.367 -0.0144 -0.2380 -0.0882
12151DPPC   C4B15049   5.080   2.974  18.040  0.0655 -0.2359  0.2616
12152DPPC   NC315050   4.210   0.308  21.681  0.4175 -0.0689  0.1772
12152DPPC   PO415051   4.515   0.292  21.414 -0.0589 -0.1381  0.3267
12152DPPC   GL115052   4.212   0.240  21.145 -0.3579 -0.1142 -0.3204
12152DPPC   GL215053   3.984   0.317  21.305  0.0175 -0.1199 -0.1731
12152DPPC   C1A15054   4.032   0.103  20.883  0.2743 -0.1126 -0.0840
12152DPPC   C2A15055   3.689   0.126  20.673  0.0327  0.1201 -0.0299
12152DPPC   C3A15056   3.411   0.130  20.294 -0.1667 -0.3681 -0.1366
12152DPPC   C4A15057   3.118  -0.023  19.900 -0.2406 -0.2278 -0.1169
12152DPPC   C1B15058   3.701   0.137  21.200 -0.0123  0.1537  0.1308
12152DPPC   C2B15059   3.371  -0.044  21.025  0.0329  0.0024 -0.0135
12152DPPC   C3B15060   3.033  -0.087  20.631  0.0344  0.1362  0.0755
12152DPPC   C4B15061   2.743  -0.138  20.229  0.0962 -0.0782  0.0052
12153DPPC   NC315062   6.158   0.546  20.595 -0.0727  0.4562 -0.2251
12153DPPC   PO415063   6.382   0.744  20.315 -0.0612  0.0767 -0.2636
12153DPPC   GL115064   6.848   0.763  20.358  0.0986 -0.2202 -0.1089
12153DPPC   GL215065   6.867   0.533  20.204 -0.0975  0.2757 -0.2075
12153DPPC   C1A15066   7.178   0.955  20.368 -0.0356 -0.0873 -0.0102
12153DPPC   C2A15067   7.553   0.915  20.295  0.2849  0.2002 -0.2063
12153DPPC   C3A15068   7.860   0.901  19.912  0.1880  0.0923 -0.0530
12153DPPC   C4A15069   8.203   0.887  19.454  0.2308 -0.0488 -0.2782
12153DPPC   C1B15070   7.102   0.729  20.008  0.0340  0.1623  0.1765
12153DPPC   C2B15071   7.365   0.974  19.780  0.1359 -0.2600  0.0754
12153DPPC   C3B15072   7.676   0.944  19.442  0.3848  0.0379  0.1708
12153DPPC   C4B15073   7.958   0.905  19.014  0.1915  0.1877  0.2141
12154DPPC   NC315074   3.846   2.490  21.727 -0.2524 -0.1384 -0.1971
12154DPPC   PO415075   4.064   2.525  21.358  0.1854  0.1006 -0.3563
12154DPPC   GL115076   4.030   2.435  20.953 -0.0444 -0.2008  0.2136
12154DPPC   GL215077   4.212   2.559  20.707 -0.3252 -0.2148 -0.0261
12154DPPC   C1A15078   3.700   2.257  20.810 -0.0643 -0.1000  0.5038
12154DPPC   C2A15079   3.375   2.181  20.559  0.0460  0.1089  0.1734
12154DPPC   C3A15080   3.032   2.172  20.192  0.1618  0.2028  0.0921
12154DPPC   C4A15081   2.723   2.235  19.837  0.0687  0.0251 -0.0897
12154DPPC   C1B15082   4.040   2.716  20.453 -0.2659 -0.0596 -0.4480
12154DPPC   C2B15083   3.770   2.806  20.155  0.0759 -0.1981  0.0260
12154DPPC   C3B15084   3.476   2.820  19.809  0.2364  0.0268  0.0279
12154DPPC   C4B15085   3.128   2.780  19.472 -0.1835  0.0287  0.2901
12155DPPC   NC315086   3.189   1.025  22.501  0.1538 -0.0860  0.3085
12155DPPC   PO415087   3.503   1.160  22.255 -0.0094  0.0203 -0.1338
12155DPPC   GL115088   3.472   1.125  21.890  0.0792  0.2910  0.0991
12155DPPC   GL215089   3.479   0.838  21.933  0.0595  0.2458 -0.2452
12155DPPC   C1A15090   3.230   1.190  21.616  0.1003  0.2521  0.5735
12155DPPC   C2A15091   2.969   1.143  21.258  0.0586  0.3110  0.1687
12155DPPC   C3A15092   2.629   1.182  20.890 -0.2482 -0.1901 -0.0768
12155DPPC   C4A15093   2.272   1.212  20.559  0.1281  0.0827 -0.0210
12155DPPC   C1B15094   3.215   0.761  21.675 -0.1018  0.0962 -0.2188
12155DPPC   C2B15095   2.880   0.694  21.428  0.1841  0.1346 -0.2667
12155DPPC   C3B15096   2.621   0.768  21.092  0.0047 -0.1040  0.0977
12155DPPC   C4B15097   2.298   0.721  20.761 -0.2155  0.1847 -0.1006
12156DPPC   NC315098   2.404   6.158  23.637 -0.1040  0.2018  0.1288
12156DPPC   PO415099   2.570   5.976  23.349 -0.1507 -0.2612 -0.0006
12156DPPC   GL115100   2.422   5.778  23.032 -0.2867 -0.1629 -0.1518
12156DPPC   GL215101   2.222   5.990  23.045 -0.4200  0.0635 -0.1054
12156DPPC   C1A15102   2.317   5.563  22.731 -0.1648 -0.0460  0.0240
12156DPPC   C2A15103   2.199   5.373  22.339  0.0385 -0.0126  0.2248
12156DPPC   C3A15104   1.846   5.376  21.997  0.1928 -0.1438  0.1239
12156DPPC   C4A15105   1.525   5.362  21.632  0.1450  0.4553  0.1977
12156DPPC   C1B15106   2.025   5.941  22.750  0.0682 -0.1353  0.0687
12156DPPC   C2B15107   1.844   5.719  22.456  0.2548 -0.2083  0.1385
12156DPPC   C3B15108   1.477   5.724  22.074 -0.0598 -0.0892 -0.1157
12156DPPC   C4B15109   1.160   5.681  21.667 -0.2111 -0.0848 -0.1758
12157DPPC   NC315110   6.867   3.951  20.450 -0.3491 -0.0178  0.0433
12157DPPC   PO415111   6.692   3.572  20.429 -0.0932  0.0221  0.0190
12157DPPC   GL115112   6.805   3.345  20.038  0.2960  0.3188 -0.3002
12157DPPC   GL215113   6.779   3.622  19.863 -0.0287 -0.1227  0.0441
12157DPPC   C1A15114   7.081   3.113  20.041 -0.3574  0.2331  0.1779
12157DPPC   C2A15115   7.414   3.140  19.833 -0.0904  0.0347 -0.0546
12157DPPC   C3A15116   7.685   3.095  19.423  0.0971  0.0738  0.0482
12157DPPC   C4A15117   7.984   3.134  19.002 -0.1388  0.0869 -0.1766
12157DPPC   C1B15118   6.973   3.600  19.571 -0.1367  0.0298 -0.0295
12157DPPC   C2B15119   7.294   3.511  19.288  0.2056 -0.1334 -0.0709
12157DPPC   C3B15120   7.593   3.583  18.926 -0.2184  0.2196 -0.1664
12157DPPC   C4B15121   7.819   3.543  18.509  0.0173 -0.0306  0.0215
12158DPPC   NC315122   6.586   3.283  19.638  0.5633  0.0257 -0.2015
12158DPPC   PO415123   6.431   3.658  19.561 -0.0498 -0.1377 -0.1527
12158DPPC   GL115124   6.705   3.548  19.246  0.1731 -0.0785 -0.0791
12158DPPC   GL215125   6.448   3.538  19.114 -0.1396  0.3085  0.0199
12158DPPC   C1A15126   6.977   3.464  18.964  0.0612 -0.1413  0.1156
12158DPPC   C2A15127   7.223   3.451  18.618 -0.0256 -0.0736 -0.1618
12158DPPC   C3A15128   7.385   3.488  18.180 -0.0001  0.2059 -0.2992
12158DPPC   C4A15129   7.732   3.534  17.866 -0.3064  0.0367 -0.1415
12158DPPC   C1B15130   6.512   3.512  18.742  0.1038 -0.0335 -0.3958
12158DPPC   C2B15131   6.746   3.441  18.416  0.1796 -0.3624 -0.0890
12158DPPC   C3B15132   6.970   3.508  17.929  0.2240 -0.1726  0.1029
12158DPPC   C4B15133   7.252   3.381  17.558 -0.2174 -0.0325 -0.0497
12159DPPA   PO415134   6.379   0.084  19.843  0.2281 -0.0777 -0.2196
12159DPPA   GL115135   6.630   0.084  19.529 -0.2466 -0.4546 -0.4559
12159DPPA   GL215136   6.735   0.328  19.531  0.2745  0.3364  0.1946
12159DPPA   C1A15137   6.798  -0.089  19.247  0.0100  0.1724  0.1608
12159DPPA   C2A15138   6.967  -0.070  18.858  0.1831 -0.3768  0.2418
12159DPPA   C3A15139   7.260  -0.060  18.519 -0.3514  0.0282  0.1609
12159DPPA   C4A15140   7.383  -0.003  18.041  0.2126 -0.2365  0.0155
12159DPPA   C1B15141   6.901   0.465  19.256  0.1312  0.4526 -0.3767
12159DPPA   C2B15142   7.152   0.389  18.931  0.0345  0.2167 -0.2351
12159DPPA   C3B15143   7.420   0.436  18.583 -0.1309  0.1425 -0.1072
12159DPPA   C4B15144   7.649   0.427  18.134 -0.0390 -0.0342 -0.1426
12160DPPA   PO415145   4.597   1.706  20.868 -0.1157  0.3654 -0.0797
12160DPPA   GL115146   4.290   1.677  20.562  0.5299  0.2157 -0.1863
12160DPPA   GL215147   4.209   1.374  20.562  0.0540  0.0828 -0.0906
12160DPPA   C1A15148   4.178   1.793  20.295  0.1633  0.2831  0.0787
12160DPPA   C2A15149   3.961   1.885  19.970  0.2062 -0.0659  0.0030
12160DPPA   C3A15150   3.656   1.884  19.643 -0.0422  0.0519 -0.1056
12160DPPA   C4A15151   3.346   1.897  19.206  0.2465 -0.0461  0.1281
12160DPPA   C1B15152   3.919   1.428  20.294 -0.4221 -0.3656  0.0417
12160DPPA   C2B15153   3.651   1.484  19.964  0.2552  0.0527 -0.0010
12160DPPA   C3B15154   3.349   1.491  19.590 -0.0272 -0.1838 -0.0887
12160DPPA   C4B15155   3.014   1.437  19.257  0.0320 -0.4093  0.0209
12161DPPA   PO415156   6.785   2.099  20.097  0.1661  0.0118 -0.0301
12161DPPA   GL115157   7.074   2.032  19.727  0.0103  0.2234 -0.2435
12161DPPA   GL215158   6.964   1.761  19.687  0.2228 -0.4989 -0.1320
12161DPPA   C1A15159   7.260   2.178  19.458 -0.2446 -0.2472  0.4020
12161DPPA   C2A15160   7.386   2.225  19.064 -0.1525  0.1036  0.1966
12161DPPA   C3A15161   7.655   2.198  18.608  0.2449 -0.1441  0.0964
12161DPPA   C4A15162   7.943   2.147  18.202  0.0264  0.1408  0.2098
12161DPPA   C1B15163   7.038   1.714  19.358  0.1467  0.0210  0.2160
12161DPPA   C2B15164   7.261   1.723  19.026 -0.0492 -0.0268 -0.2480
12161DPPA   C3B15165   7.459   1.752  18.601 -0.0079  0.0951  0.0632
12161DPPA   C4B15166   7.749   1.651  18.190  0.1312  0.1626 -0.0885
12162DPPA   PO415167   2.202   3.327  16.861 -0.0758 -0.1272  0.1178
12162DPPA   GL115168   2.319   3.153  17.310  0.2375  0.0618 -0.0217
12162DPPA   GL215169   2.249   3.464  17.335 -0.1976  0.0156 -0.0611
12162DPPA   C1A15170   2.570   3.076  17.520 -0.1453 -0.2087 -0.5096
12162DPPA   C2A15171   2.832   3.217  17.819 -0.0205  0.0185 -0.1546
12162DPPA   C3A15172   3.045   3.214  18.229  0.1613  0.0504  0.1988
12162DPPA   C4A15173   3.366   3.278  18.527  0.0689  0.0789  0.0108
12162DPPA   C1B15174   2.423   3.549  17.635 -0.4013 -0.3647  0.3164
12162DPPA   C2B15175   2.568   3.582  18.023 -0.2691  0.2816 -0.0390
12162DPPA   C3B15176   2.797   3.666  18.421 -0.1471  0.1764  0.0918
12162DPPA   C4B15177   3.133   3.639  18.703 -0.1112 -0.0915  0.1168
12163DPPA   PO415178   4.236   5.920  21.451 -0.3071  0.1142 -0.2049
12163DPPA   GL115179   4.295   6.094  21.055  0.3762  0.0064 -0.2134
12163DPPA   GL215180   4.187   5.808  20.932  0.0290  0.2512  0.1125
12163DPPA   C1A15181   4.159   6.298  20.752  0.0914  0.0865 -0.2233
12163DPPA   C2A15182   3.965   6.387  20.404 -0.2035  0.0290 -0.1780
12163DPPA   C3A15183   3.619   6.328  20.080  0.1799 -0.0168 -0.1272
12163DPPA   C4A15184   3.344   6.225  19.631 -0.0314 -0.0056 -0.1719
12163DPPA   C1B15185   3.999   5.867  20.655 -0.1001  0.2422  0.0296
12163DPPA   C2B15186   3.678   5.880  20.339  0.2651  0.1630 -0.0806
12163DPPA   C3B15187   3.339   5.776  20.006 -0.0271  0.0973  0.0847
12163DPPA   C4B15188   3.031   5.734  19.651 -0.0632 -0.0061 -0.0696
12164DPPA   PO415189   5.331   1.743  20.116  0.0038  0.2932  0.2150
12164DPPA   GL115190   5.269   1.804  19.650 -0.2484 -0.0209 -0.0152
12164DPPA   GL215191   5.211   1.506  19.664 -0.4034  0.4881 -0.2826
12164DPPA   C1A15192   5.015   1.794  19.386 -0.0545  0.2147  0.1765
12164DPPA   C2A15193   4.803   1.773  19.065  0.0491 -0.4870 -0.4156
12164DPPA   C3A15194   4.484   1.846  18.746  0.3106 -0.2628  0.1913
12164DPPA   C4A15195   4.209   1.736  18.372  0.1365 -0.0513  0.1190
12164DPPA   C1B15196   4.949   1.325  19.454  0.3676  0.0008  0.0600
12164DPPA   C2B15197   4.686   1.244  19.158  0.2471 -0.1558 -0.1195
12164DPPA   C3B15198   4.428   1.259  18.730  0.2632  0.0430  0.2422
12164DPPA   C4B15199   4.134   1.255  18.343 -0.0385 -0.3633 -0.0493
12165DPPA   PO415200   3.690   5.908  22.545 -0.0991  0.0349 -0.0737
12165DPPA   GL115201   3.409   5.824  22.256 -0.4457 -0.1805  0.2328
12165DPPA   GL215202   3.504   5.847  22.009  0.0345  0.5820  0.0242
12165DPPA   C1A15203   3.050   5.856  22.266 -0.1715  0.0537  0.3356
12165DPPA   C2A15204   2.688   5.868  22.049  0.0038 -0.1710  0.3313
12165DPPA   C3A15205   2.352   5.956  21.632  0.0935 -0.0590  0.1604
12165DPPA   C4A15206   2.009   5.969  21.224 -0.0214  0.0005 -0.1900
12165DPPA   C1B15207   3.403   5.664  21.720 -0.3636  0.0806 -0.2193
12165DPPA   C2B15208   3.301   5.620  21.328  0.1653  0.0955 -0.2911
12165DPPA   C3B15209   2.951   5.657  20.973  0.0601  0.0577 -0.1826
12165DPPA   C4B15210   2.538   5.580  20.624 -0.1995  0.0987  0.1262
12166DPPA   PO415211   5.334   0.304  20.131  0.0582 -0.0095 -0.1334
12166DPPA   GL115212   5.036   0.093  19.944  0.1174  0.1328 -0.2297
12166DPPA   GL215213   4.869  -0.090  20.023  0.0687 -0.0178 -0.0655
12166DPPA   C1A15214   4.754   0.230  19.739  0.2660 -0.0224 -0.1956
12166DPPA   C2A15215   4.583   0.321  19.381  0.0175 -0.0815 -0.0152
12166DPPA   C3A15216   4.281   0.327  19.044  0.0706  0.2018  0.2576
12166DPPA   C4A15217   3.963   0.324  18.642 -0.1764 -0.0842 -0.0020
12166DPPA   C1B15218   4.581  -0.177  19.814  0.0604 -0.3345 -0.0033
12166DPPA   C2B15219   4.337  -0.192  19.463 -0.0695 -0.0026  0.0665
12166DPPA   C3B15220   4.093  -0.181  19.076  0.1294 -0.0603 -0.3268
12166DPPA   C4B15221   3.764  -0.195  18.650  0.0847  0.2444 -0.1579
12167DPPA   PO415222   6.189   5.337  19.894 -0.3384  0.2554  0.3139
12167DPPA   GL115223   6.544   5.368  19.561  0.0783  0.1056  0.5242
12167DPPA   GL215224   6.370   5.532  19.378  0.1785 -0.0960  0.0292
12167DPPA   C1A15225   6.749   5.244  19.251 -0.0358  0.2376 -0.2862
12167DPPA   C2A15226   6.905   5.240  18.917 -0.0039 -0.0345 -0.1562
12167DPPA   C3A15227   7.121   5.299  18.568 -0.0805  0.0340 -0.0918
12167DPPA   C4A15228   7.369   5.302  18.154  0.0801  0.2437  0.2715
12167DPPA   C1B15229   6.526   5.669  19.094  0.3414 -0.2416  0.2195
12167DPPA   C2B15230   6.684   5.661  18.700  0.0899  0.0751  0.1101
12167DPPA   C3B15231   6.896   5.654  18.262  0.0939  0.0734 -0.2439
12167DPPA   C4B15232   7.204   5.682  17.864  0.0994  0.1706  0.3146
12168DPPA   PO415233   3.540   3.082  21.933 -0.0740 -0.0273 -0.2151
12168DPPA   GL115234   3.165   3.407  21.952 -0.0116  0.2611  0.1866
12168DPPA   GL215235   3.078   3.224  22.185  0.0300  0.4327  0.1753
12168DPPA   C1A15236   2.907   3.456  21.677  0.0473  0.3748  0.0868
12168DPPA   C2A15237   2.666   3.411  21.327  0.1569 -0.1597 -0.0162
12168DPPA   C3A15238   2.341   3.425  20.961 -0.1124 -0.1481 -0.0257
12168DPPA   C4A15239   2.006   3.337  20.581  0.0875 -0.1442 -0.0794
12168DPPA   C1B15240   2.748   3.220  22.012  0.3031 -0.1903  0.1374
12168DPPA   C2B15241   2.449   3.256  21.737  0.0049 -0.0241 -0.0788
12168DPPA   C3B15242   2.119   3.285  21.393 -0.2253  0.1563 -0.0312
12168DPPA   C4B15243   1.741   3.251  21.032 -0.0939  0.0110 -0.0582
12169DPPA   PO415244   4.155   0.728  21.300  0.1815 -0.1268  0.1681
12169DPPA   GL115245   3.775   0.660  21.123  0.0572 -0.1944  0.2118
12169DPPA   GL215246   3.865   0.862  20.911  0.1196 -0.0985 -0.0549
12169DPPA   C1A15247   3.528   0.462  20.928  0.1056  0.1520  0.0537
12169DPPA   C2A15248   3.236   0.357  20.664  0.1349  0.0817  0.0475
12169DPPA   C3A15249   2.966   0.326  20.282  0.1195 -0.1702  0.0310
12169DPPA   C4A15250   2.652   0.392  19.964  0.2003 -0.0214  0.2926
12169DPPA   C1B15251   3.529   0.846  20.644  0.0681 -0.1643 -0.3636
12169DPPA   C2B15252   3.228   0.857  20.372 -0.0405 -0.0099 -0.0089
12169DPPA   C3B15253   2.920   0.814  19.993  0.1266 -0.2769 -0.3536
12169DPPA   C4B15254   2.670   0.868  19.557  0.0384  0.1855 -0.1394
12170DPPA   PO415255   5.764   2.183  19.971 -0.0343  0.3730 -0.1227
12170DPPA   GL115256   5.368   2.223  19.837 -0.1359  0.0063 -0.0306
12170DPPA   GL215257   5.162   2.117  19.983  0.0715  0.0299  0.2084
12170DPPA   C1A15258   5.183   2.215  19.515 -0.0243  0.0839 -0.0451
12170DPPA   C2A15259   5.106   2.165  19.143  0.2750  0.0169  0.3613
12170DPPA   C3A15260   4.803   2.220  18.778  0.1102  0.1367  0.1998
12170DPPA   C4A15261   4.559   2.184  18.328 -0.0118 -0.2237 -0.1138
12170DPPA   C1B15262   4.905   1.999  19.744  0.4191 -0.1806  0.0301
12170DPPA   C2B15263   4.701   2.173  19.460 -0.0812 -0.0145  0.0403
12170DPPA   C3B15264   4.367   2.181  19.093 -0.0779 -0.1729 -0.0332
12170DPPA   C4B15265   4.085   2.152  18.661 -0.0704 -0.1046 -0.1186
12171DPPA   PO415266   3.511   0.629  22.383 -0.0178  0.0929  0.0012
12171DPPA   GL115267   3.190   0.682  22.171  0.0259  0.0438 -0.2666
12171DPPA   GL215268   3.022   0.498  22.302  0.2796  0.0138 -0.2494
12171DPPA   C1A15269   2.988   0.981  22.024 -0.2817 -0.2340 -0.1327
12171DPPA   C2A15270   2.701   1.071  21.720 -0.2661 -0.0088 -0.2464
12171DPPA   C3A15271   2.445   1.130  21.394  0.2429  0.1590 -0.0868
12171DPPA   C4A15272   2.078   1.105  21.075  0.0848 -0.3412 -0.1196
12171DPPA   C1B15273   2.765   0.626  21.995  0.3416  0.2845 -0.4516
12171DPPA   C2B15274   2.472   0.656  21.714  0.0481 -0.0365  0.2781
12171DPPA   C3B15275   2.127   0.629  21.293 -0.1673  0.2334 -0.0392
12171DPPA   C4B15276   1.848   0.658  20.943  0.0889  0.1291 -0.1696
12172DPPA   PO415277   5.015   6.236  20.794  0.3338  0.1243 -0.2615
12172DPPA   GL115278   4.668   6.279  20.599 -0.1309 -0.0876  0.2152
12172DPPA   GL215279   4.499   6.507  20.592 -0.1451  0.0276 -0.2548
12172DPPA   C1A15280   4.379   6.054  20.487 -0.4194 -0.2666 -0.1284
12172DPPA   C2A15281   4.161   5.860  20.179 -0.3872  0.0593  0.3872
12172DPPA   C3A15282   3.793   5.844  19.787  0.0975 -0.2343 -0.1060
12172DPPA   C4A15283   3.479   5.782  19.413  0.1409  0.4001  0.2789
12172DPPA   C1B15284   4.474   6.420  20.219  0.1135 -0.1868  0.0276
12172DPPA   C2B15285   4.156   6.310  19.914 -0.1810  0.1023  0.0246
12172DPPA   C3B15286   3.817   6.307  19.539  0.1310 -0.0604 -0.0017
12172DPPA   C4B15287   3.527   6.337  19.103 -0.1475  0.5059 -0.1773
12173DPPA   PO415288   3.987   2.172  22.153  0.3199  0.0608 -0.0154
12173DPPA   GL115289   3.606   2.084  21.934 -0.1587  0.1020  0.1384
12173DPPA   GL215290   3.453   2.306  22.065 -0.1939 -0.0336  0.2501
12173DPPA   C1A15291   3.328   2.058  21.692  0.0594 -0.0715 -0.1129
12173DPPA   C2A15292   2.952   2.042  21.475  0.0898 -0.1518 -0.0337
12173DPPA   C3A15293   2.605   1.978  21.168 -0.4121  0.1665  0.1100
12173DPPA   C4A15294   2.229   1.995  20.818  0.0827  0.0839  0.1496
12173DPPA   C1B15295   3.103   2.327  21.994  0.0007  0.1140  0.0395
12173DPPA   C2B15296   2.698   2.381  21.841 -0.4616 -0.0802  0.1387
12173DPPA   C3B15297   2.369   2.386  21.478 -0.2347 -0.0783  0.1443
12173DPPA   C4B15298   2.055   2.366  21.109 -0.0480  0.1284 -0.0665
12174DPPA   PO415299   4.181   6.446  21.374  0.2743  0.1236  0.0018
12174DPPA   GL115300   3.873   6.196  21.283 -0.0936 -0.2700 -0.1869
12174DPPA   GL215301   3.627   6.200  21.445 -0.0753  0.1157  0.0357
12174DPPA   C1A15302   3.785   6.265  20.937 -0.2137 -0.0668  0.1244
12174DPPA   C2A15303   3.503   6.240  20.647  0.0241  0.1248 -0.0271
12174DPPA   C3A15304   3.181   6.110  20.292  0.2277 -0.1614 -0.1617
12174DPPA   C4A15305   2.874   6.131  19.901 -0.2245 -0.4241  0.0948
12174DPPA   C1B15306   3.405   6.128  21.203  0.0290 -0.0213 -0.0323
12174DPPA   C2B15307   3.141   6.124  20.936 -0.1084  0.0536  0.0209
12174DPPA   C3B15308   2.813   6.048  20.607  0.1477 -0.0847 -0.1004
12174DPPA   C4B15309   2.400   6.055  20.312 -0.0475 -0.2049 -0.0219
12175DPPA   PO415310   4.023   3.607  21.247 -0.1733  0.0244  0.1103
12175DPPA   GL115311   3.700   3.571  20.945 -0.4554 -0.4696 -0.1908
12175DPPA   GL215312   3.915   3.389  20.827  0.2321 -0.0778 -0.1214
12175DPPA   C1A15313   3.476   3.660  20.663 -0.0380  0.1280  0.2021
12175DPPA   C2A15314   3.162   3.592  20.366 -0.1216 -0.3045 -0.1135
12175DPPA   C3A15315   2.811   3.554  20.130  0.2256  0.0899  0.0767
12175DPPA   C4A15316   2.497   3.472  19.762 -0.0741 -0.0635  0.1206
12175DPPA   C1B15317   3.719   3.245  20.541 -0.2877  0.1470 -0.4981
12175DPPA   C2B15318   3.463   3.197  20.262  0.0559 -0.0015  0.1104
12175DPPA   C3B15319   3.217   3.232  19.937  0.1089  0.0070 -0.0408
12175DPPA   C4B15320   2.886   3.216  19.641 -0.3406  0.0635 -0.0037
12176DPPA   PO415321   4.437   3.225  21.006 -0.0735  0.0753  0.2721
12176DPPA   GL115322   4.182   2.992  20.755  0.0803  0.4667  0.2305
12176DPPA   GL215323   4.192   3.149  20.482  0.2435 -0.0303  0.1552
12176DPPA   C1A15324   3.854   2.858  20.795 -0.1734  0.2718 -0.1365
12176DPPA   C2A15325   3.569   2.699  20.659 -0.3829 -0.1542  0.0279
12176DPPA   C3A15326   3.284   2.620  20.265 -0.0360  0.0633 -0.1327
12176DPPA   C4A15327   2.946   2.666  19.935  0.2070  0.0813 -0.0330
12176DPPA   C1B15328   4.038   3.292  20.195  0.0393  0.4705 -0.3074
12176DPPA   C2B15329   3.791   3.266  19.865  0.2177  0.2350 -0.0505
12176DPPA   C3B15330   3.471   3.280  19.507  0.2246  0.1303 -0.2971
12176DPPA   C4B15331   3.119   3.194  19.191 -0.0922 -0.3096 -0.1741
12177DPPA   PO415332   3.542   1.624  22.034  0.1184 -0.0892 -0.0446
12177DPPA   GL115333   3.411   1.593  21.588  0.1564 -0.1670  0.2302
12177DPPA   GL215334   3.642   1.521  21.612  0.1383  0.5045  0.2626
12177DPPA   C1A15335   3.221   1.637  21.288  0.0509  0.2055 -0.0045
12177DPPA   C2A15336   2.939   1.638  21.003 -0.0849  0.0516  0.0200
12177DPPA   C3A15337   2.611   1.597  20.640 -0.0358  0.2834 -0.0042
12177DPPA   C4A15338   2.215   1.661  20.322 -0.7095 -0.1477 -0.1420
12177DPPA   C1B15339   3.541   1.334  21.302  0.1909 -0.0502  0.1154
12177DPPA   C2B15340   3.329   1.332  20.942  0.2727 -0.0722 -0.2110
12177DPPA   C3B15341   3.039   1.276  20.563 -0.1133  0.1227 -0.1144
12177DPPA   C4B15342   2.631   1.233  20.256 -0.1324 -0.2422 -0.1272
12178DPPA   PO415343   6.633   1.227  20.315  0.1271  0.0638 -0.0004
12178DPPA   GL115344   6.935   1.094  20.008  0.0635  0.2542 -0.1548
12178DPPA   GL215345   6.750   0.933  19.857  0.0759 -0.0406 -0.0819
12178DPPA   C1A15346   7.038   1.283  19.750  0.2973 -0.0271 -0.0875
12178DPPA   C2A15347   7.294   1.350  19.446  0.1165  0.2086  0.0526
12178DPPA   C3A15348   7.573   1.351  19.050 -0.2376 -0.1004  0.2390
12178DPPA   C4A15349   7.825   1.303  18.641  0.0755 -0.0459 -0.2447
12178DPPA   C1B15350   6.989   0.862  19.562  0.1881  0.2127 -0.0739
12178DPPA   C2B15351   7.231   0.936  19.212 -0.0604 -0.0482 -0.2139
12178DPPA   C3B15352   7.469   0.934  18.793  0.4164  0.1026  0.1495
12178DPPA   C4B15353   7.789   0.886  18.425 -0.1445 -0.3446 -0.0467
12179DPPA   PO415354   5.662   4.834  19.107  0.0483 -0.0682 -0.3133
12179DPPA   GL115355   5.576   4.688  18.700  0.1380 -0.2838  0.1124
12179DPPA   GL215356   5.543   4.970  18.613 -0.2200  0.3819 -0.1258
12179DPPA   C1A15357   5.466   4.432  18.470  0.1303 -0.2033 -0.0344
12179DPPA   C2A15358   5.327   4.065  18.248  0.1094 -0.0264  0.1663
12179DPPA   C3A15359   5.478   3.727  17.920 -0.2131  0.0394 -0.1659
12179DPPA   C4A15360   5.689   3.692  17.445 -0.0768 -0.0066  0.0416
12179DPPA   C1B15361   5.284   4.998  18.380 -0.2421 -0.0059  0.1456
12179DPPA   C2B15362   4.984   4.899  18.157 -0.0394  0.1443 -0.0293
12179DPPA   C3B15363   4.717   4.868  17.765  0.0040 -0.0624  0.0817
12179DPPA   C4B15364   4.445   4.877  17.392 -0.1261 -0.2070 -0.2166
12180DPPA   PO415365   3.663   3.539  21.858  0.0037  0.0274  0.0702
12180DPPA   GL115366   3.573   3.466  21.371 -0.1996 -0.2590 -0.0457
12180DPPA   GL215367   3.290   3.472  21.508  0.0302 -0.1078  0.1185
12180DPPA   C1A15368   3.444   3.253  21.088 -0.3430  0.1461 -0.0727
12180DPPA   C2A15369   3.266   3.169  20.719  0.1079 -0.0238 -0.0657
12180DPPA   C3A15370   2.886   3.068  20.364  0.0229  0.0027  0.2453
12180DPPA   C4A15371   2.560   2.992  19.981  0.1458  0.0056 -0.2075
12180DPPA   C1B15372   3.141   3.571  21.189  0.2178 -0.1279  0.0693
12180DPPA   C2B15373   2.936   3.491  20.871 -0.1601  0.0392  0.4359
12180DPPA   C3B15374   2.583   3.441  20.538 -0.2771  0.4402 -0.1174
12180DPPA   C4B15375   2.268   3.431  20.176 -0.0453 -0.1473  0.0722
12181DPPA   PO415376   5.626   6.246  19.721  0.0078 -0.1359  0.0141
12181DPPA   GL115377   5.470   6.377  19.308  0.0442 -0.0542 -0.0541
12181DPPA   GL215378   5.759   6.539  19.245  0.2577  0.1951  0.2588
12181DPPA   C1A15379   5.379   6.296  18.912  0.2441 -0.0136  0.2576
12181DPPA   C2A15380   5.240   6.285  18.536 -0.0965 -0.0801 -0.0574
12181DPPA   C3A15381   5.056   6.275  18.101  0.1363  0.0283 -0.2882
12181DPPA   C4A15382   5.345   6.317  17.658 -0.3662 -0.0219  0.0216
12181DPPA   C1B15383   5.673   6.652  18.901  0.0971  0.2518  0.2333
12181DPPA   C2B15384   5.639   6.577  18.527 -0.1726 -0.0000 -0.0231
12181DPPA   C3B15385   5.693   6.346  18.072  0.1746 -0.0548 -0.0756
12181DPPA   C4B15386   5.901   6.319  17.603  0.3102 -0.0996  0.2044
12182DPPA   PO415387   6.518   1.974  19.670  0.0535  0.1396 -0.1132
12182DPPA   GL115388   6.423   2.174  19.292  0.0606 -0.1461 -0.0692
12182DPPA   GL215389   6.738   2.242  19.334  0.0475 -0.3396  0.0443
12182DPPA   C1A15390   6.502   2.089  18.970 -0.1081  0.0567  0.0393
12182DPPA   C2A15391   6.608   2.087  18.546  0.1233 -0.0623 -0.3456
12182DPPA   C3A15392   6.845   2.141  18.144  0.0289 -0.0647 -0.0378
12182DPPA   C4A15393   7.053   1.994  17.735 -0.0011 -0.1382  0.0088
12182DPPA   C1B15394   6.943   2.107  19.001 -0.0580 -0.1278 -0.4619
12182DPPA   C2B15395   7.119   2.167  18.657  0.2283  0.0260  0.1185
12182DPPA   C3B15396   7.345   2.131  18.244 -0.1365 -0.1491  0.1556
12182DPPA   C4B15397   7.606   2.147  17.827 -0.0500 -0.0453  0.5033
12183DPPA   PO415398   8.690   4.666  16.785  0.2072  0.3528  0.3049
12183DPPA   GL115399   8.664   4.634  17.170 -0.0176 -0.0345  0.2421
12183DPPA   GL215400   8.751   4.903  17.204  0.2456  0.1052 -0.0507
12183DPPA   C1A15401   8.657   4.470  17.490 -0.0422 -0.0173 -0.0512
12183DPPA   C2A15402   8.553   4.433  17.883  0.5564 -0.0933  0.0886
12183DPPA   C3A15403   8.346   4.520  18.339 -0.0537  0.1191 -0.3133
12183DPPA   C4A15404   8.153   4.429  18.772 -0.0628  0.0739 -0.1042
12183DPPA   C1B15405   8.726   5.112  17.511  0.1569  0.2416 -0.1361
12183DPPA   C2B15406   8.754   5.365  17.823  0.1896 -0.0170 -0.1985
12183DPPA   C3B15407   8.430   5.378  18.248  0.0074 -0.0400  0.1347
12183DPPA   C4B15408   8.167   5.350  18.679 -0.0815 -0.1235  0.0143
12184DPPC   NC315409   2.546   2.573  16.818  0.2979  0.0617 -0.0704
12184DPPC   PO415410   2.451   2.188  16.881 -0.0115  0.1417 -0.2988
12184DPPC   GL115411   2.516   2.020  17.279  0.0731 -0.2966 -0.1722
12184DPPC   GL215412   2.635   1.773  17.114  0.3989  0.2120 -0.0213
12184DPPC   C1A15413   2.724   2.008  17.590 -0.0991 -0.1142  0.0717
12184DPPC   C2A15414   2.953   1.892  17.903 -0.0294  0.1017  0.0575
12184DPPC   C3A15415   3.232   2.008  18.298  0.2226  0.0371 -0.1078
12184DPPC   C4A15416   3.530   1.920  18.731 -0.2813 -0.0443 -0.0628
12184DPPC   C1B15417   2.846   1.585  17.293  0.1356  0.3765  0.2077
12184DPPC   C2B15418   3.095   1.520  17.573  0.1081 -0.0179 -0.3587
12184DPPC   C3B15419   3.327   1.544  17.990  0.0480 -0.1262 -0.2849
12184DPPC   C4B15420   3.657   1.555  18.328 -0.2745 -0.2446  0.2257
12185DPPC   NC315421   0.668   2.802  18.135  0.0112 -0.0925  0.0965
12185DPPC   PO415422   0.781   3.188  18.026 -0.3063 -0.1831  0.3670
12185DPPC   GL115423   1.039   3.342  18.329  0.2018 -0.0240  0.1836
12185DPPC   GL215424   1.084   3.594  18.083 -0.1529  0.0813 -0.0392
12185DPPC   C1A15425   1.220   3.423  18.637 -0.0426 -0.2723 -0.0472
12185DPPC   C2A15426   1.467   3.345  18.988  0.1741 -0.0478 -0.0898
12185DPPC   C3A15427   1.696   3.382  19.384  0.1638  0.2398 -0.3742
12185DPPC   C4A15428   1.975   3.461  19.757  0.2936  0.1697 -0.0846
12185DPPC   C1B15429   1.413   3.734  18.214  0.1968  0.1179 -0.2055
12185DPPC   C2B15430   1.691   3.570  18.473 -0.0208  0.1607 -0.1950
12185DPPC   C3B15431   1.941   3.503  18.903 -0.0036 -0.2124  0.2145
12185DPPC   C4B15432   2.242   3.508  19.275  0.0210  0.4229  0.0298
12186DPPC   NC315433   2.578   0.280  15.698 -0.0905 -0.0212  0.1720
12186DPPC   PO415434   2.582   0.447  16.027 -0.1888 -0.0092  0.0077
12186DPPC   GL115435   2.835   0.559  16.410 -0.1157  0.3339 -0.2341
12186DPPC   GL215436   2.789   0.283  16.515 -0.0985 -0.1543 -0.0027
12186DPPC   C1A15437   2.848   0.657  16.737 -0.1700 -0.1625 -0.0984
12186DPPC   C2A15438   3.018   0.580  17.136 -0.2883  0.1265  0.2148
12186DPPC   C3A15439   3.312   0.673  17.450 -0.0515 -0.0495  0.2613
12186DPPC   C4A15440   3.591   0.752  17.794 -0.0241  0.1217  0.1857
12186DPPC   C1B15441   3.107   0.270  16.730  0.1460 -0.1617 -0.0116
12186DPPC   C2B15442   3.435   0.363  16.949 -0.4822 -0.0167 -0.1110
12186DPPC   C3B15443   3.670   0.336  17.375  0.1670  0.1076 -0.0031
12186DPPC   C4B15444   3.956   0.379  17.700  0.1793  0.2855 -0.0405
12187DPPC   NC315445   1.209   2.522  17.584 -0.1545  0.1084 -0.1795
12187DPPC   PO415446   1.464   2.186  17.494  0.0944 -0.2888  0.1656
12187DPPC   GL115447   1.869   2.205  17.721  0.2571  0.0652 -0.1522
12187DPPC   GL215448   1.857   2.543  17.656 -0.3550 -0.1461 -0.1144
12187DPPC   C1A15449   2.093   1.953  17.855 -0.1281 -0.3326 -0.0736
12187DPPC   C2A15450   2.439   1.889  18.101 -0.0349  0.1145  0.0893
12187DPPC   C3A15451   2.691   1.879  18.498  0.1499 -0.2344  0.0390
12187DPPC   C4A15452   3.007   1.874  18.841 -0.0643 -0.3593 -0.2053
12187DPPC   C1B15453   2.140   2.616  17.899 -0.2376 -0.0837 -0.2069
12187DPPC   C2B15454   2.314   2.704  18.245 -0.0039  0.0482 -0.1058
12187DPPC   C3B15455   2.634   2.747  18.622  0.0104  0.0416  0.0647
12187DPPC   C4B15456   2.871   2.739  19.057  0.2877  0.1733  0.1359
12188DPPC   NC315457  20.937   6.366  19.102 -0.2038 -0.2057 -0.2486
12188DPPC   PO415458  20.935   6.781  19.169 -0.2154 -0.2311  0.0407
12188DPPC   GL115459  21.283   7.010  19.402  0.0040  0.0658  0.1665
12188DPPC   GL215460  21.330   6.655  19.380  0.0936 -0.0099 -0.0005
12188DPPC   C1A15461  21.556   7.077  19.622  0.0401  0.1131 -0.1051
12188DPPC   C2A15462  21.909   7.147  19.877 -0.0633  0.0048 -0.0837
12188DPPC   C3A15463  22.279   7.172  20.195  0.0202 -0.0413 -0.3169
12188DPPC   C4A15464  22.593   7.258  20.613  0.2670  0.0943  0.1944
12188DPPC   C1B15465  21.406   6.611  19.718 -0.0006 -0.0901 -0.3027
12188DPPC   C2B15466  21.744   6.687  19.896 -0.4407 -0.1020  0.1228
12188DPPC   C3B15467  22.102   6.675  20.202 -0.0460 -0.1220  0.0341
12188DPPC   C4B15468  22.424   6.711  20.533  0.0277  0.1808  0.0870
12189DPPC   NC315469   0.785   0.454  18.234  0.0628 -0.0474  0.0032
12189DPPC   PO415470   0.572   0.248  18.456  0.0170 -0.0322  0.2598
12189DPPC   GL115471   0.734   0.116  18.798  0.0233  0.1709  0.0007
12189DPPC   GL215472   0.925   0.252  18.728 -0.0304 -0.3935 -0.1311
12189DPPC   C1A15473   0.922  -0.046  19.000  0.0407  0.0267  0.0971
12189DPPC   C2A15474   1.185  -0.148  19.283 -0.2602  0.0073 -0.1836
12189DPPC   C3A15475   1.526  -0.265  19.619  0.1892 -0.2596  0.0829
12189DPPC   C4A15476   1.843  -0.231  19.949  0.4526  0.0835  0.3155
12189DPPC   C1B15477   1.211   0.372  19.001 -0.0633 -0.2559  0.0549
12189DPPC   C2B15478   1.482   0.318  19.311 -0.1441 -0.1866 -0.1732
12189DPPC   C3B15479   1.779   0.217  19.638 -0.1178 -0.0083 -0.0206
12189DPPC   C4B15480   2.004   0.280  20.021 -0.1528 -0.0567 -0.1724
12190DPPC   NC315481   8.944   3.906  17.024 -0.0418 -0.0931 -0.2713
12190DPPC   PO415482   9.197   3.979  17.311  0.0747  0.1174  0.0328
12190DPPC   GL115483   9.239   3.807  17.703  0.0757 -0.0284 -0.1653
12190DPPC   GL215484   9.425   4.076  17.736 -0.1312  0.2154  0.2048
12190DPPC   C1A15485   9.156   3.719  18.063  0.3939  0.2017 -0.0222
12190DPPC   C2A15486   9.045   3.539  18.417  0.0099 -0.0198 -0.0993
12190DPPC   C3A15487   8.833   3.578  18.816  0.1975 -0.0114  0.1103
12190DPPC   C4A15488   8.560   3.608  19.275 -0.1748 -0.0929 -0.0417
12190DPPC   C1B15489   9.339   4.404  17.894 -0.0722 -0.3615  0.1580
12190DPPC   C2B15490   9.140   4.631  18.127 -0.0235 -0.2007  0.0144
12190DPPC   C3B15491   8.887   4.463  18.479  0.2146 -0.0188 -0.2483
12190DPPC   C4B15492   8.665   4.448  18.917 -0.0637  0.0986  0.0252
12191DPPC   NC315493   1.862   1.272  17.146  0.2645  0.2609  0.1759
12191DPPC   PO415494   1.640   1.323  17.442 -0.0769  0.1841  0.0720
12191DPPC   GL115495   1.666   1.350  17.899 -0.0897  0.2599  0.0471
12191DPPC   GL215496   1.698   1.622  17.860  0.3716  0.0336 -0.3085
12191DPPC   C1A15497   1.818   1.223  18.224 -0.3691  0.1750 -0.1172
12191DPPC   C2A15498   1.943   1.300  18.577  0.2313 -0.0366  0.0265
12191DPPC   C3A15499   2.211   1.338  18.952 -0.0707  0.1148  0.4105
12191DPPC   C4A15500   2.542   1.299  19.306 -0.1492 -0.0982 -0.2561
12191DPPC   C1B15501   1.866   1.725  18.169  0.0347 -0.0834 -0.0953
12191DPPC   C2B15502   2.094   1.762  18.496  0.1619 -0.0541 -0.2125
12191DPPC   C3B15503   2.352   1.800  18.894  0.1350 -0.1828  0.2517
12191DPPC   C4B15504   2.678   1.823  19.240 -0.1411  0.4614 -0.1035
12192DPPC   NC315505   4.345   5.068  15.488 -0.4179 -0.2715 -0.0972
12192DPPC   PO415506   3.993   5.271  15.575 -0.2554  0.0140 -0.1627
12192DPPC   GL115507   3.988   5.349  16.037  0.2500  0.1663 -0.1922
12192DPPC   GL215508   3.749   5.100  16.048  0.0136 -0.1567 -0.0451
12192DPPC   C1A15509   4.131   5.259  16.388 -0.0244 -0.2603  0.2009
12192DPPC   C2A15510   4.212   5.241  16.794 -0.2687  0.1212  0.1029
12192DPPC   C3A15511   4.032   5.133  17.279  0.0938 -0.0269 -0.0942
12192DPPC   C4A15512   3.730   4.704  17.357 -0.0970 -0.0043  0.0824
12192DPPC   C1B15513   3.690   4.935  16.321 -0.2188  0.0033 -0.1415
12192DPPC   C2B15514   3.949   4.806  16.632  0.0495 -0.1498 -0.2151
12192DPPC   C3B15515   4.294   4.736  16.933 -0.0819  0.0673  0.1280
12192DPPC   C4B15516   4.707   4.536  17.160  0.3320 -0.1746  0.0309
12193DPPC   NC315517   2.039   5.053  16.839  0.0832  0.1638  0.0701
12193DPPC   PO415518   1.858   5.063  17.161  0.1021  0.1570  0.2142
12193DPPC   GL115519   2.094   5.079  17.499 -0.1175  0.0480  0.0197
12193DPPC   GL215520   2.342   4.913  17.430 -0.1618  0.0826 -0.1935
12193DPPC   C1A15521   2.136   5.210  17.842  0.0811  0.0208 -0.1165
12193DPPC   C2A15522   2.247   5.375  18.150 -0.0278 -0.1986 -0.2135
12193DPPC   C3A15523   2.492   5.291  18.562  0.3889 -0.2862  0.0141
12193DPPC   C4A15524   2.814   5.300  18.904 -0.1409 -0.0711 -0.0700
12193DPPC   C1B15525   2.485   4.938  17.770 -0.0652  0.0555 -0.1353
12193DPPC   C2B15526   2.681   4.923  18.169  0.2275 -0.1059 -0.0733
12193DPPC   C3B15527   2.967   4.999  18.516  0.1929  0.0739 -0.1191
12193DPPC   C4B15528   3.248   5.006  18.900 -0.0861 -0.4089  0.2264
12194DPPC   NC315529   2.226   6.310  16.432  0.0951  0.4255 -0.0233
12194DPPC   PO415530   2.187   6.563  16.748 -0.2308  0.2109 -0.2608
12194DPPC   GL115531   2.521   6.805  16.838 -0.0746  0.0096  0.2849
12194DPPC   GL215532   2.402   7.081  16.820 -0.5148  0.4695  0.2034
12194DPPC   C1A15533   2.789   6.787  17.125  0.2911 -0.1342 -0.4401
12194DPPC   C2A15534   3.094   6.818  17.451  0.3289  0.2651 -0.1254
12194DPPC   C3A15535   3.343   6.909  17.840 -0.2231  0.3063 -0.0011
12194DPPC   C4A15536   3.729   6.880  18.147  0.0101  0.2152  0.0228
12194DPPC   C1B15537   2.564   7.161  17.157  0.2017  0.1354 -0.2159
12194DPPC   C2B15538   2.683   7.145  17.516 -0.2639 -0.0895 -0.2270
12194DPPC   C3B15539   2.920   7.183  17.900 -0.0040  0.0438  0.2400
12194DPPC   C4B15540   3.230   7.218  18.241 -0.0504 -0.0540 -0.0496
12195DPPC   NC315541   2.786   1.597  16.307  0.0888  0.0506 -0.0881
12195DPPC   PO415542   2.513   1.302  16.378 -0.0486 -0.0815  0.0891
12195DPPC   GL115543   2.668   1.021  16.645 -0.4347  0.1666  0.2376
12195DPPC   GL215544   2.476   0.943  16.806  0.0831 -0.4846 -0.0649
12195DPPC   C1A15545   2.983   1.091  16.826 -0.0692 -0.0711  0.4032
12195DPPC   C2A15546   3.285   1.087  17.102  0.0746  0.0443 -0.1172
12195DPPC   C3A15547   3.545   1.115  17.476 -0.2244  0.0758  0.0826
12195DPPC   C4A15548   3.798   1.172  17.929  0.3332 -0.2524 -0.0950
12195DPPC   C1B15549   2.652   1.023  17.113 -0.2845 -0.0868  0.0288
12195DPPC   C2B15550   2.809   1.020  17.468 -0.5384  0.0171  0.0610
12195DPPC   C3B15551   3.152   1.049  17.884  0.1197 -0.0366  0.4329
12195DPPC   C4B15552   3.454   1.094  18.229 -0.0467  0.1630  0.3711
12196DPPC   NC315553   7.182   5.942  16.736 -0.2709  0.1155  0.0117
12196DPPC   PO415554   7.193   6.340  16.729 -0.2111 -0.1826  0.0729
12196DPPC   GL115555   7.258   6.492  17.087 -0.0269 -0.1184 -0.3478
12196DPPC   GL215556   7.075   6.212  17.068 -0.3485 -0.0900 -0.2735
12196DPPC   C1A15557   7.363   6.585  17.419 -0.0236 -0.1470  0.2863
12196DPPC   C2A15558   7.638   6.649  17.626 -0.0526 -0.0448  0.0583
12196DPPC   C3A15559   8.017   6.709  17.908  0.3104 -0.0336 -0.1913
12196DPPC   C4A15560   8.120   7.099  18.171  0.0055  0.1631 -0.2936
12196DPPC   C1B15561   6.964   6.212  17.420  0.0161  0.1844  0.0645
12196DPPC   C2B15562   6.825   6.139  17.755  0.1035  0.0405  0.1029
12196DPPC   C3B15563   6.645   6.061  18.106 -0.0045  0.0735  0.4273
12196DPPC   C4B15564   6.335   6.009  18.553 -0.2593 -0.0493 -0.0942
12197DPPC   NC315565   6.627   4.141  16.016  0.0242  0.1507  0.2178
12197DPPC   PO415566   6.270   4.245  16.066 -0.0909  0.0167 -0.0406
12197DPPC   GL115567   6.059   4.349  16.564  0.1569 -0.2573 -0.1276
12197DPPC   GL215568   5.964   4.401  16.320  0.1067 -0.0281  0.1842
12197DPPC   C1A15569   5.979   4.573  16.845  0.3555 -0.2473 -0.0029
12197DPPC   C2A15570   5.691   4.739  17.157  0.0456  0.3389  0.1726
12197DPPC   C3A15571   5.586   4.558  17.589  0.2787 -0.1580  0.0657
12197DPPC   C4A15572   5.349   4.564  18.082  0.2682  0.3631  0.1047
12197DPPC   C1B15573   5.696   4.646  16.448  0.1433 -0.1952 -0.0259
12197DPPC   C2B15574   5.478   4.616  16.759  0.0211 -0.1540 -0.0718
12197DPPC   C3B15575   5.274   4.470  17.197  0.1398 -0.3343  0.0156
12197DPPC   C4B15576   5.086   4.493  17.676  0.0119  0.1111  0.1399
12198DPPC   NC315577   3.327   3.734  15.634 -0.2812 -0.0994  0.2764
12198DPPC   PO415578   3.609   3.773  15.843 -0.1990  0.0611 -0.0404
12198DPPC   GL115579   3.495   3.804  16.269 -0.1111 -0.3819 -0.1644
12198DPPC   GL215580   3.528   3.560  16.311 -0.0629  0.2095 -0.3520
12198DPPC   C1A15581   3.793   3.874  16.512  0.3144  0.1418  0.0604
12198DPPC   C2A15582   4.135   3.912  16.828 -0.0329  0.1037 -0.1496
12198DPPC   C3A15583   4.517   4.026  17.108 -0.0039 -0.2140 -0.3211
12198DPPC   C4A15584   4.948   4.140  17.285 -0.0362  0.1169  0.0999
12198DPPC   C1B15585   3.652   3.469  16.652 -0.0026 -0.2227  0.3896
12198DPPC   C2B15586   4.013   3.462  16.870  0.0885  0.0914 -0.1466
12198DPPC   C3B15587   4.330   3.552  17.159  0.4477 -0.0110 -0.1076
12198DPPC   C4B15588   4.576   3.765  17.529 -0.1327  0.2194 -0.3155
12199DPPC   NC315589   7.643   2.675  16.404 -0.0749  0.0729 -0.0844
12199DPPC   PO415590   7.771   2.440  16.690  0.0642  0.3057 -0.2780
12199DPPC   GL115591   7.593   2.406  17.111  0.1161  0.0323  0.1565
12199DPPC   GL215592   7.313   2.383  17.091 -0.3129  0.0011 -0.0797
12199DPPC   C1A15593   7.682   2.503  17.469 -0.0279  0.0563 -0.0406
12199DPPC   C2A15594   7.838   2.651  17.830 -0.0657  0.0272 -0.0152
12199DPPC   C3A15595   8.077   2.679  18.219  0.2334 -0.2063 -0.0836
12199DPPC   C4A15596   8.485   2.708  18.473  0.0704 -0.1454 -0.0549
12199DPPC   C1B15597   7.107   2.385  17.376  0.1232 -0.0364 -0.0653
12199DPPC   C2B15598   6.791   2.507  17.611 -0.3406  0.0294  0.0770
12199DPPC   C3B15599   6.539   2.514  18.085 -0.1652 -0.0302 -0.1541
12199DPPC   C4B15600   6.313   2.512  18.447 -0.0298  0.2477 -0.1000
12200DPPC   NC315601   0.828   4.817  18.138 -0.0167 -0.2571 -0.2170
12200DPPC   PO415602   1.102   4.672  18.294 -0.2056 -0.1426 -0.0467
12200DPPC   GL115603   1.178   4.563  18.686  0.2178 -0.2084  0.4320
12200DPPC   GL215604   1.334   4.773  18.681  0.1166 -0.0698 -0.0531
12200DPPC   C1A15605   1.270   4.314  18.955 -0.2142 -0.0469 -0.0243
12200DPPC   C2A15606   1.424   4.283  19.335  0.1593 -0.0104  0.0900
12200DPPC   C3A15607   1.737   4.221  19.715 -0.1581  0.4265 -0.0677
12200DPPC   C4A15608   2.096   4.272  20.040  0.1049 -0.0854 -0.0636
12200DPPC   C1B15609   1.722   4.781  18.708 -0.1171  0.4728 -0.0134
12200DPPC   C2B15610   2.044   4.846  18.920  0.2299  0.0752  0.1292
12200DPPC   C3B15611   2.417   4.829  19.348 -0.0010 -0.0171  0.0661
12200DPPC   C4B15612   2.728   4.853  19.764 -0.0314 -0.0347  0.1919
12201DPPC   NC315613   0.913   1.290  18.011  0.0203  0.1521  0.3030
12201DPPC   PO415614   1.275   1.286  18.109  0.1424  0.2454 -0.3720
12201DPPC   GL115615   1.414   1.022  18.343 -0.0022  0.0101 -0.0474
12201DPPC   GL215616   1.232   0.754  18.280  0.0037  0.0544 -0.1218
12201DPPC   C1A15617   1.508   1.052  18.687  0.4087 -0.0212  0.0443
12201DPPC   C2A15618   1.691   1.169  19.039 -0.2371 -0.3015 -0.0980
12201DPPC   C3A15619   1.999   1.209  19.365  0.0245 -0.0298  0.2351
12201DPPC   C4A15620   2.336   1.254  19.781 -0.0402  0.2080  0.1506
12201DPPC   C1B15621   1.344   0.608  18.618  0.0758  0.1721  0.0406
12201DPPC   C2B15622   1.503   0.712  19.032 -0.3228 -0.2665  0.2001
12201DPPC   C3B15623   1.786   0.755  19.434 -0.1763  0.1405  0.2331
12201DPPC   C4B15624   2.143   0.822  19.740  0.2278  0.0440 -0.2030
12202DPPC   NC315625   4.498   0.985  16.052  0.1711  0.2095 -0.0664
12202DPPC   PO415626   4.649   0.618  16.152 -0.0250 -0.1320  0.0422
12202DPPC   GL115627   4.779   0.463  16.505  0.0007  0.2524 -0.2051
12202DPPC   GL215628   4.742   0.159  16.500 -0.2965  0.2877  0.0773
12202DPPC   C1A15629   5.042   0.634  16.696 -0.0733  0.1728  0.2621
12202DPPC   C2A15630   5.218   0.734  17.033  0.1716  0.3268 -0.0058
12202DPPC   C3A15631   5.447   0.707  17.433 -0.1842 -0.1505  0.0642
12202DPPC   C4A15632   5.838   0.676  17.778 -0.2215 -0.1373 -0.7483
12202DPPC   C1B15633   4.767  -0.076  16.768  0.1747  0.2036 -0.0547
12202DPPC   C2B15634   4.612  -0.434  16.866 -0.1646 -0.0123  0.0936
12202DPPC   C3B15635   4.362  -0.872  16.936  0.2299 -0.0101  0.2236
12202DPPC   C4B15636   4.072  -0.976  17.340 -0.0707  0.0731 -0.0179
12203DPPC   NC315637   3.217   0.917  15.823 -0.0128  0.0344 -0.1422
12203DPPC   PO415638   3.100   0.556  16.003 -0.2492 -0.1370  0.0378
12203DPPC   GL115639   3.293   0.521  16.422 -0.0296 -0.1312  0.1741
12203DPPC   GL215640   3.478   0.406  16.325  0.0468 -0.0364 -0.1249
12203DPPC   C1A15641   3.366   0.720  16.699  0.0037 -0.0867 -0.2470
12203DPPC   C2A15642   3.671   0.783  16.990  0.2112  0.0617 -0.2386
12203DPPC   C3A15643   3.920   0.779  17.356 -0.2048  0.1116 -0.3795
12203DPPC   C4A15644   4.275   0.786  17.698  0.2667  0.3671  0.0778
12203DPPC   C1B15645   3.745   0.669  16.440  0.2860  0.2224  0.2406
12203DPPC   C2B15646   4.018   0.888  16.647  0.2014 -0.2183  0.1308
12203DPPC   C3B15647   4.262   0.857  17.075  0.0127 -0.3355  0.2887
12203DPPC   C4B15648   4.609   0.863  17.380  0.0010 -0.1789 -0.1939
12204DPPC   NC315649   0.136   5.365  19.038  0.0677  0.0247  0.4491
12204DPPC   PO415650  -0.166   5.314  19.269  0.2615 -0.1975 -0.0302
12204DPPC   GL115651   0.063   5.300  19.561  0.3577  0.1325  0.2212
12204DPPC   GL215652   0.274   5.399  19.454 -0.0671 -0.0837 -0.1734
12204DPPC   C1A15653   0.187   5.082  19.809 -0.2052 -0.1230 -0.0277
12204DPPC   C2A15654   0.538   4.893  20.055  0.0856 -0.1594  0.0008
12204DPPC   C3A15655   0.904   4.898  20.387  0.0202  0.2011  0.3156
12204DPPC   C4A15656   1.226   4.886  20.767  0.0971 -0.3656  0.0599
12204DPPC   C1B15657   0.507   5.381  19.700 -0.1639 -0.1897  0.1955
12204DPPC   C2B15658   0.780   5.402  20.006  0.0552  0.1857 -0.0509
12204DPPC   C3B15659   1.084   5.406  20.350 -0.0490 -0.4346  0.0033
12204DPPC   C4B15660   1.409   5.453  20.707  0.0375 -0.0774  0.4603
12205DPPC   NC315661   0.973   6.521  18.240  0.1183 -0.2335 -0.2154
12205DPPC   PO415662   1.264   6.338  18.048  0.2192  0.0644 -0.1772
12205DPPC   GL115663   1.599   6.440  18.319  0.1335 -0.1123 -0.3383
12205DPPC   GL215664   1.346   6.469  18.486 -0.2407  0.0421 -0.0102
12205DPPC   C1A15665   1.906   6.607  18.448 -0.1985  0.1612  0.2245
12205DPPC   C2A15666   2.161   6.637  18.765  0.2435 -0.2555  0.2883
12205DPPC   C3A15667   2.421   6.596  19.106  0.0934  0.0891  0.2109
12205DPPC   C4A15668   2.760   6.671  19.533 -0.0564  0.1643  0.0321
12205DPPC   C1B15669   1.494   6.594  18.804  0.1681  0.1505 -0.1531
12205DPPC   C2B15670   1.721   6.521  19.151 -0.2594 -0.0142  0.1241
12205DPPC   C3B15671   2.065   6.453  19.481  0.1075  0.0017 -0.0896
12205DPPC   C4B15672   2.383   6.514  19.842 -0.0128 -0.0022  0.0898
12206DPPC   NC315673   2.994   2.402  16.230  0.1628  0.0887 -0.1350
12206DPPC   PO415674   2.700   2.151  16.410  0.1105  0.1028 -0.1025
12206DPPC   GL115675   2.917   1.870  16.709  0.3303  0.2244  0.1266
12206DPPC   GL215676   3.032   2.155  16.698  0.0491 -0.1945 -0.1110
12206DPPC   C1A15677   3.026   1.863  17.072  0.1237 -0.2189  0.1095
12206DPPC   C2A15678   3.152   1.994  17.437 -0.1039 -0.0822 -0.1718
12206DPPC   C3A15679   3.394   2.029  17.805 -0.0322  0.1095 -0.1479
12206DPPC   C4A15680   3.712   2.013  18.182  0.0840  0.3724 -0.1331
12206DPPC   C1B15681   3.325   2.165  16.940 -0.3519  0.1200 -0.3302
12206DPPC   C2B15682   3.607   2.125  17.250 -0.0984  0.0019 -0.0259
12206DPPC   C3B15683   3.882   2.142  17.596  0.0023 -0.1865  0.1851
12206DPPC   C4B15684   4.126   2.210  18.050  0.1083  0.3099  0.0698
12207DPPC   NC315685   1.692   5.892  17.221  0.1148  0.1614  0.2899
12207DPPC   PO415686   1.763   5.983  17.586 -0.2897 -0.2077  0.0114
12207DPPC   GL115687   1.868   5.638  17.836  0.4530 -0.3860 -0.1018
12207DPPC   GL215688   1.698   5.433  17.969  0.0161 -0.0724 -0.2413
12207DPPC   C1A15689   2.048   5.797  18.120  0.0745  0.1698  0.2865
12207DPPC   C2A15690   2.467   5.835  18.234  0.0924  0.2236  0.2850
12207DPPC   C3A15691   2.834   5.801  18.576 -0.1983  0.0028  0.0444
12207DPPC   C4A15692   3.180   5.771  18.931 -0.1978  0.0747  0.4607
12207DPPC   C1B15693   1.793   5.293  18.327 -0.1271 -0.0219  0.0069
12207DPPC   C2B15694   1.975   5.321  18.668 -0.0065 -0.0719  0.0047
12207DPPC   C3B15695   2.314   5.235  19.049 -0.3183  0.1637  0.0321
12207DPPC   C4B15696   2.655   5.291  19.419  0.3351  0.0562 -0.3039
12208DPPC   NC315697   0.542   4.550  19.184 -0.0394  0.0204  0.1884
12208DPPC   PO415698   0.731   4.487  18.825  0.0829  0.0855  0.0697
12208DPPC   GL115699   1.056   4.786  19.057 -0.4027 -0.1488 -0.3025
12208DPPC   GL215700   0.912   4.769  19.300  0.2428  0.1634  0.2926
12208DPPC   C1A15701   1.376   4.690  19.142 -0.1037 -0.3346 -0.2519
12208DPPC   C2A15702   1.745   4.724  19.316 -0.0462  0.3936 -0.0668
12208DPPC   C3A15703   1.980   4.643  19.714 -0.0523 -0.0695  0.2480
12208DPPC   C4A15704   2.263   4.749  20.120  0.1424  0.0175  0.1352
12208DPPC   C1B15705   1.172   4.676  19.551 -0.6772  0.1535 -0.0331
12208DPPC   C2B15706   1.468   4.624  19.858  0.1526 -0.0777  0.0133
12208DPPC   C3B15707   1.758   4.637  20.201 -0.1169 -0.2816  0.1859
12208DPPC   C4B15708   2.102   4.677  20.564 -0.0925  0.0359  0.1561
12209DPPC   NC315709   0.591   3.681  18.031  0.3481 -0.3326  0.0775
12209DPPC   PO415710   0.713   3.725  18.379  0.1276 -0.0710 -0.1596
12209DPPC   GL115711   0.831   3.697  18.765  0.1669 -0.0530 -0.2725
12209DPPC   GL215712   0.873   4.008  18.800  0.2715 -0.1301  0.2660
12209DPPC   C1A15713   0.957   3.425  18.964 -0.0384  0.3490 -0.2189
12209DPPC   C2A15714   1.013   3.206  19.309 -0.2317  0.0290 -0.1548
12209DPPC   C3A15715   1.325   3.303  19.733  0.0388  0.1043  0.0623
12209DPPC   C4A15716   1.657   3.379  20.141 -0.0394  0.0672  0.0838
12209DPPC   C1B15717   1.146   3.881  19.005  0.0093 -0.2363 -0.2176
12209DPPC   C2B15718   1.278   3.714  19.324  0.0215  0.0372  0.0471
12209DPPC   C3B15719   1.541   3.759  19.728  0.2418 -0.0894  0.0160
12209DPPC   C4B15720   1.898   3.832  20.052  0.1678 -0.1495 -0.2527
12210DPPC   NC315721   1.996   4.628  17.281  0.1796  0.0615  0.1538
12210DPPC   PO415722   1.906   4.246  17.227  0.0515  0.1174  0.3661
12210DPPC   GL115723   1.918   4.182  17.567  0.0026  0.0728  0.1290
12210DPPC   GL215724   1.675   4.103  17.637  0.1027  0.1543  0.2468
12210DPPC   C1A15725   2.137   4.324  17.813  0.0174  0.3879 -0.2614
12210DPPC   C2A15726   2.403   4.489  18.077  0.1730  0.1051  0.0983
12210DPPC   C3A15727   2.687   4.473  18.448  0.1082 -0.0896 -0.2000
12210DPPC   C4A15728   3.022   4.534  18.853 -0.0594 -0.2088 -0.0093
12210DPPC   C1B15729   1.749   4.066  17.987 -0.0872  0.3492 -0.0588
12210DPPC   C2B15730   1.822   4.018  18.409 -0.1644  0.0662 -0.2605
12210DPPC   C3B15731   2.109   3.998  18.853 -0.0613 -0.2850 -0.1191
12210DPPC   C4B15732   2.464   4.002  19.223  0.2010  0.1047  0.1616
12211DPPC   NC315733  21.034   5.862  19.171  0.0424  0.3045 -0.0939
12211DPPC   PO415734  21.007   5.808  19.560 -0.0592 -0.0137 -0.2121
12211DPPC   GL115735  21.478   5.826  19.779  0.4400  0.3727 -0.0370
12211DPPC   GL215736  21.285   5.573  19.915  0.0306  0.0987 -0.0094
12211DPPC   C1A15737  21.651   5.799  20.142  0.1828  0.0105  0.1090
12211DPPC   C2A15738  21.848   5.756  20.466  0.3232 -0.3968 -0.1048
12211DPPC   C3A15739  22.240   5.760  20.855 -0.0264 -0.2251  0.1569
12211DPPC   C4A15740  22.491   5.933  21.205 -0.2556  0.1305 -0.0229
12211DPPC   C1B15741  21.467   5.391  20.198  0.2137  0.1289  0.0926
12211DPPC   C2B15742  21.745   5.295  20.506 -0.2840  0.2220 -0.1431
12211DPPC   C3B15743  22.058   5.286  20.866  0.0119 -0.0524  0.0556
12211DPPC   C4B15744  22.317   5.372  21.262  0.0016 -0.0825 -0.0767
12212DPPC   NC315745   1.517   2.693  16.798 -0.3522 -0.2024  0.2328
12212DPPC   PO415746   1.781   2.934  16.907  0.0166 -0.0516 -0.0294
12212DPPC   GL115747   2.065   2.813  17.232 -0.1623  0.2491 -0.1628
12212DPPC   GL215748   2.257   2.867  17.050 -0.0569 -0.1547  0.5071
12212DPPC   C1A15749   2.284   2.730  17.524  0.1987 -0.1591  0.1741
12212DPPC   C2A15750   2.573   2.709  17.824 -0.0030  0.1258  0.0931
12212DPPC   C3A15751   2.896   2.765  18.191  0.2512  0.0950 -0.0858
12212DPPC   C4A15752   3.207   2.783  18.621 -0.0027 -0.1432  0.0683
12212DPPC   C1B15753   2.645   2.840  17.191 -0.3536 -0.0306 -0.0894
12212DPPC   C2B15754   2.929   2.862  17.413 -0.0076  0.1116  0.0486
12212DPPC   C3B15755   3.231   2.861  17.787  0.1382 -0.2377 -0.0917
12212DPPC   C4B15756   3.477   2.965  18.167  0.2898 -0.0374  0.0832
12213DPPC   NC315757   2.304   3.240  16.345  0.0623 -0.1833 -0.3911
12213DPPC   PO415758   2.500   3.013  16.626  0.2416 -0.2744 -0.1295
12213DPPC   GL115759   2.816   3.105  16.850  0.2577 -0.0613  0.0048
12213DPPC   GL215760   2.610   3.222  17.011 -0.2925  0.1825 -0.3913
12213DPPC   C1A15761   3.106   2.991  17.037 -0.1121 -0.0636  0.1026
12213DPPC   C2A15762   3.411   2.909  17.279 -0.2179 -0.1018 -0.0414
12213DPPC   C3A15763   3.744   2.942  17.648 -0.0369  0.0596 -0.0806
12213DPPC   C4A15764   4.012   3.001  18.036 -0.2455  0.0633 -0.1287
12213DPPC   C1B15765   2.864   3.349  17.200 -0.0012  0.0409  0.3053
12213DPPC   C2B15766   3.210   3.327  17.438 -0.3477 -0.1456 -0.2941
12213DPPC   C3B15767   3.371   3.371  17.807  0.0390 -0.0917  0.0265
12213DPPC   C4B15768   3.749   3.375  18.134 -0.0857  0.1351  0.0465
12214DPPC   NC315769   4.261   0.048  15.775 -0.1595  0.1770 -0.3109
12214DPPC   PO415770   4.428   0.030  16.163 -0.0841 -0.3294  0.1792
12214DPPC   GL115771   4.472  -0.210  16.509  0.1557 -0.1916 -0.0283
12214DPPC   GL215772   4.655  -0.267  16.402  0.1465  0.0507 -0.1516
12214DPPC   C1A15773   4.226  -0.528  16.499 -0.1713  0.1580  0.3436
12214DPPC   C2A15774   3.992  -0.838  16.465 -0.0502  0.2639 -0.1719
12214DPPC   C3A15775   3.721  -1.214  16.405 -0.0056  0.0892  0.1716
12214DPPC   C4A15776   3.299  -1.491  16.469  0.0631  0.2835  0.2327
12214DPPC   C1B15777   4.694  -0.642  16.460  0.0110  0.1521  0.1277
12214DPPC   C2B15778   4.914  -0.845  16.773  0.4063  0.0096  0.0182
12214DPPC   C3B15779   5.436  -0.827  16.860  0.0732 -0.1235  0.1243
12214DPPC   C4B15780   5.890  -0.622  16.927  0.1665  0.1227  0.1918
12215DPPC   NC315781   1.778   1.841  17.340 -0.2028 -0.0933  0.2618
12215DPPC   PO415782   2.064   2.135  17.243  0.0028  0.0203 -0.0274
12215DPPC   GL115783   2.226   2.308  17.588 -0.1689  0.2611  0.0443
12215DPPC   GL215784   2.362   2.456  17.236 -0.4296  0.1161  0.2424
12215DPPC   C1A15785   2.477   2.263  17.862 -0.0181  0.4239  0.2335
12215DPPC   C2A15786   2.734   2.271  18.174 -0.1251 -0.1091  0.2912
12215DPPC   C3A15787   2.967   2.362  18.532  0.0819 -0.0837 -0.4024
12215DPPC   C4A15788   3.242   2.392  18.947  0.0990  0.0738 -0.0198
12215DPPC   C1B15789   2.670   2.462  17.455 -0.4690  0.0865 -0.0635
12215DPPC   C2B15790   3.001   2.381  17.687 -0.1589 -0.0319 -0.0863
12215DPPC   C3B15791   3.253   2.449  18.075 -0.0304 -0.1417 -0.1177
12215DPPC   C4B15792   3.533   2.398  18.437 -0.0727  0.2496  0.1913
12216DPPC   NC315793   6.977   4.697  16.427 -0.2440 -0.1059 -0.1411
12216DPPC   PO415794   7.238   4.871  16.642  0.1301 -0.0484 -0.2058
12216DPPC   GL115795   6.804   4.876  16.817  0.1671 -0.0544 -0.0828
12216DPPC   GL215796   6.936   5.121  16.880  0.1901 -0.0617 -0.1535
12216DPPC   C1A15797   6.599   4.814  17.140  0.4575  0.0806  0.0333
12216DPPC   C2A15798   6.250   4.739  17.376 -0.1526  0.1582 -0.1917
12216DPPC   C3A15799   6.053   4.631  17.793  0.0737  0.0408 -0.0015
12216DPPC   C4A15800   5.885   4.671  18.292  0.1941 -0.4812 -0.2161
12216DPPC   C1B15801   6.547   5.214  16.922 -0.2140 -0.1386  0.2377
12216DPPC   C2B15802   6.203   5.165  17.147 -0.1200  0.1996  0.1426
12216DPPC   C3B15803   5.857   5.031  17.532  0.0250 -0.0725 -0.0101
12216DPPC   C4B15804   5.650   4.939  17.968 -0.1404  0.1758  0.2579
12217DPPC   NC315805   6.421   6.067  16.426 -0.0861 -0.0532 -0.0892
12217DPPC   PO415806   6.466   5.724  16.513  0.0425  0.0994  0.1830
12217DPPC   GL115807   6.345   5.642  16.960  0.2524 -0.2422 -0.0944
12217DPPC   GL215808   6.326   5.963  16.858  0.1875 -0.1044 -0.0477
12217DPPC   C1A15809   6.310   5.580  17.329  0.3603  0.4370 -0.0782
12217DPPC   C2A15810   6.039   5.465  17.658  0.2055 -0.1907  0.0590
12217DPPC   C3A15811   5.691   5.477  18.070 -0.1589  0.3685  0.1904
12217DPPC   C4A15812   5.507   5.394  18.510 -0.1222 -0.1846  0.0634
12217DPPC   C1B15813   6.309   6.263  17.086 -0.2699 -0.1828  0.1779
12217DPPC   C2B15814   6.178   6.625  17.242  0.0829  0.0580 -0.2686
12217DPPC   C3B15815   6.091   6.812  17.681  0.0178  0.1987  0.2734
12217DPPC   C4B15816   5.895   6.878  18.118  0.0570 -0.1136 -0.1316
12218DPPC   NC315817   3.302   1.662  16.017  0.1009  0.2530 -0.0717
12218DPPC   PO415818   3.643   1.835  16.032 -0.0108  0.0789 -0.1624
12218DPPC   GL115819   3.807   1.821  16.323  0.0435 -0.3783 -0.1531
12218DPPC   GL215820   3.811   1.492  16.333 -0.2461 -0.0460 -0.1808
12218DPPC   C1A15821   3.821   2.179  16.536 -0.1005  0.2968  0.2058
12218DPPC   C2A15822   3.979   2.169  16.938 -0.3461  0.0595  0.0398
12218DPPC   C3A15823   4.290   2.302  17.277 -0.2103  0.0886  0.3105
12218DPPC   C4A15824   4.617   2.236  17.663 -0.1969 -0.2845  0.1109
12218DPPC   C1B15825   3.957   1.368  16.649 -0.3202 -0.0144  0.1949
12218DPPC   C2B15826   4.264   1.394  16.979  0.0780 -0.0688 -0.2295
12218DPPC   C3B15827   4.682   1.387  17.237  0.3306  0.1208  0.0662
12218DPPC   C4B15828   5.132   1.643  17.214  0.1622  0.0862  0.0526
12219DPPC   NC315829   9.345   6.235  17.328 -0.0585 -0.0556  0.2302
12219DPPC   PO415830   9.206   6.511  17.026  0.0508  0.1524  0.1174
12219DPPC   GL115831   9.171   6.784  17.262  0.1123  0.2381 -0.2770
12219DPPC   GL215832   9.064   6.997  17.260  0.1876 -0.2593 -0.0487
12219DPPC   C1A15833   9.174   6.612  17.593  0.0492  0.0393  0.0065
12219DPPC   C2A15834   8.888   6.393  17.801 -0.1541 -0.0454 -0.1665
12219DPPC   C3A15835   8.413   6.329  17.994  0.2941 -0.2083  0.0934
12219DPPC   C4A15836   8.209   6.253  18.403 -0.0688  0.0517  0.0835
12219DPPC   C1B15837   8.781   6.968  17.523 -0.1704  0.2123  0.0021
12219DPPC   C2B15838   8.613   6.855  17.924 -0.0407 -0.0358 -0.2299
12219DPPC   C3B15839   8.400   6.753  18.375  0.0498  0.2621 -0.0310
12219DPPC   C4B15840   8.178   6.580  18.780 -0.1319 -0.1775 -0.0456
12220DPPC   NC315841   9.809   5.642  17.676 -0.2120 -0.0853  0.1488
12220DPPC   PO415842   9.688   6.023  17.651 -0.2351 -0.0103  0.0844
12220DPPC   GL115843   9.447   6.338  17.877  0.0766  0.1745 -0.0503
12220DPPC   GL215844   9.400   6.079  18.018 -0.5756 -0.1173  0.0149
12220DPPC   C1A15845   9.262   6.624  18.049 -0.0455 -0.1233 -0.0231
12220DPPC   C2A15846   8.913   6.651  18.263  0.1602  0.0449  0.1147
12220DPPC   C3A15847   8.744   6.672  18.677 -0.3115 -0.0422  0.0989
12220DPPC   C4A15848   8.512   6.745  19.061 -0.2125  0.1136 -0.1188
12220DPPC   C1B15849   9.069   6.136  18.170 -0.3367  0.3729 -0.1527
12220DPPC   C2B15850   8.753   6.178  18.454  0.0496  0.0181  0.1958
12220DPPC   C3B15851   8.520   6.278  18.887 -0.2801  0.4703 -0.0556
12220DPPC   C4B15852   8.212   6.273  19.211 -0.1019 -0.0252  0.0378
12221DPPC   NC315853   2.771   0.911  16.185 -0.0822  0.0827 -0.2308
12221DPPC   PO415854   3.042   1.215  16.156 -0.4767  0.0062 -0.0445
12221DPPC   GL115855   3.215   1.465  16.568  0.2380 -0.2059  0.0362
12221DPPC   GL215856   3.420   1.365  16.437 -0.3114 -0.1734  0.1393
12221DPPC   C1A15857   3.196   1.501  16.947 -0.0502  0.0237  0.0142
12221DPPC   C2A15858   3.474   1.606  17.231  0.3610  0.0508 -0.1368
12221DPPC   C3A15859   3.681   1.613  17.598 -0.0153  0.0358  0.1664
12221DPPC   C4A15860   4.013   1.582  17.972 -0.0809  0.0868  0.0234
12221DPPC   C1B15861   3.587   1.335  16.754  0.3994 -0.0690  0.1711
12221DPPC   C2B15862   3.828   1.228  17.070 -0.0731  0.0874  0.2025
12221DPPC   C3B15863   4.107   1.262  17.502  0.0967 -0.2346 -0.3261
12221DPPC   C4B15864   4.393   1.290  17.888  0.1698  0.1176  0.0173
12222DPPC   NC315865   2.837   5.876  16.314 -0.1157  0.0287  0.0946
12222DPPC   PO415866   2.640   6.201  16.194 -0.0259 -0.0892  0.1471
12222DPPC   GL115867   2.632   6.466  16.540  0.1314 -0.0129 -0.0413
12222DPPC   GL215868   2.552   6.287  16.775 -0.1267 -0.1905 -0.0717
12222DPPC   C1A15869   2.964   6.425  16.687 -0.0188 -0.1453 -0.2879
12222DPPC   C2A15870   3.180   6.484  17.030 -0.1133  0.0699  0.0967
12222DPPC   C3A15871   3.439   6.505  17.456  0.0335 -0.0677 -0.1677
12222DPPC   C4A15872   3.798   6.461  17.819  0.1954 -0.0416  0.0222
12222DPPC   C1B15873   2.575   6.372  17.136  0.2781 -0.0066 -0.2475
12222DPPC   C2B15874   2.722   6.330  17.513  0.2445  0.0544 -0.2332
12222DPPC   C3B15875   3.155   6.404  17.872  0.1731  0.1699  0.0505
12222DPPC   C4B15876   3.481   6.406  18.213  0.0931 -0.2665  0.1472
12223DPPC   NC315877   2.007   1.995  16.729 -0.1863  0.1083  0.0920
12223DPPC   PO415878   1.975   1.696  16.897 -0.1110  0.1449 -0.0256
12223DPPC   GL115879   2.171   1.569  17.284  0.4122 -0.0453  0.2687
12223DPPC   GL215880   2.411   1.433  17.243 -0.0305  0.1415  0.1408
12223DPPC   C1A15881   2.092   1.535  17.637 -0.0170 -0.1003  0.0360
12223DPPC   C2A15882   2.154   1.406  18.018  0.1460  0.2457  0.1402
12223DPPC   C3A15883   2.437   1.412  18.396 -0.0656  0.2716 -0.1541
12223DPPC   C4A15884   2.693   1.461  18.825 -0.0366  0.0966  0.2450
12223DPPC   C1B15885   2.541   1.533  17.626 -0.2143  0.0462 -0.0085
12223DPPC   C2B15886   2.766   1.459  17.966 -0.2462 -0.0797 -0.1062
12223DPPC   C3B15887   3.000   1.502  18.380 -0.0962  0.3198  0.1074
12223DPPC   C4B15888   3.258   1.407  18.798 -0.3112  0.2485  0.4142
12224DPPC   NC315889   7.534   1.949  16.875 -0.1166 -0.0045 -0.0861
12224DPPC   PO415890   7.354   1.608  16.843 -0.0600 -0.0899 -0.0648
12224DPPC   GL115891   6.932   1.722  17.047 -0.4427 -0.1288  0.0608
12224DPPC   GL215892   7.038   1.487  17.223  0.0050  0.1465 -0.1610
12224DPPC   C1A15893   6.794   1.913  17.261 -0.0276 -0.3993 -0.1364
12224DPPC   C2A15894   6.593   2.008  17.597  0.0728 -0.0608  0.1555
12224DPPC   C3A15895   6.318   2.056  18.027  0.2780  0.1374  0.3360
12224DPPC   C4A15896   6.060   2.027  18.482  0.0250 -0.1455 -0.1238
12224DPPC   C1B15897   6.925   1.628  17.561  0.0032  0.0659 -0.0239
12224DPPC   C2B15898   6.709   1.609  17.892  0.2349 -0.1570  0.2970
12224DPPC   C3B15899   6.497   1.573  18.342 -0.0600  0.0890  0.0176
12224DPPC   C4B15900   6.201   1.635  18.766  0.0331  0.1692 -0.2335
12225DPPC   NC315901   0.909   6.069  17.877  0.0289 -0.1195 -0.2452
12225DPPC   PO415902   0.691   6.065  18.205 -0.1106  0.3075  0.0962
12225DPPC   GL115903   1.024   5.948  18.592 -0.1612  0.1560  0.0412
12225DPPC   GL215904   1.186   6.002  18.357 -0.2617  0.1528  0.2376
12225DPPC   C1A15905   1.185   6.186  18.828 -0.0315  0.2115 -0.0040
12225DPPC   C2A15906   1.469   6.060  19.162 -0.0531  0.1202  0.0811
12225DPPC   C3A15907   1.832   6.013  19.418 -0.0166  0.0679 -0.1615
12225DPPC   C4A15908   2.148   6.013  19.813 -0.1896 -0.0924  0.1592
12225DPPC   C1B15909   1.504   6.107  18.537 -0.1534  0.0623 -0.2323
12225DPPC   C2B15910   1.868   6.211  18.809  0.0293  0.1721 -0.2906
12225DPPC   C3B15911   2.221   6.102  19.098  0.4507 -0.0725  0.1321
12225DPPC   C4B15912   2.477   6.171  19.467 -0.2720  0.1522  0.0500
12226DPPC   NC315913   0.802   1.981  18.371 -0.2480 -0.0305 -0.2392
12226DPPC   PO415914   0.612   2.330  18.409  0.1781 -0.2040 -0.1340
12226DPPC   GL115915   1.099   2.307  18.632  0.1410 -0.3533  0.1683
12226DPPC   GL215916   0.963   2.528  18.734  0.0013 -0.1165  0.1418
12226DPPC   C1A15917   1.438   2.257  18.427  0.4286 -0.0527 -0.0029
12226DPPC   C2A15918   1.817   2.172  18.648 -0.0319 -0.3232  0.3228
12226DPPC   C3A15919   2.092   2.195  19.035  0.4092  0.0287 -0.1450
12226DPPC   C4A15920   2.376   2.192  19.468  0.0607 -0.0481 -0.1817
12226DPPC   C1B15921   1.050   2.464  19.068 -0.1754  0.0305  0.0336
12226DPPC   C2B15922   1.247   2.388  19.441 -0.0634 -0.0537 -0.5321
12226DPPC   C3B15923   1.570   2.436  19.734 -0.3053  0.1590  0.0308
12226DPPC   C4B15924   1.802   2.578  20.165 -0.1140  0.2234 -0.0524
12227DPPC   NC315925   9.262   0.672  16.900  0.2437 -0.0790  0.1923
12227DPPC   PO415926   9.581   0.573  17.113  0.1320  0.1062 -0.2532
12227DPPC   GL115927   9.393   0.675  17.442  0.1889 -0.0183 -0.3207
12227DPPC   GL215928   9.421   0.909  17.584  0.1456  0.1104  0.1657
12227DPPC   C1A15929   9.255   0.467  17.682 -0.2439  0.2409  0.0241
12227DPPC   C2A15930   9.011   0.518  17.990  0.1838  0.4435 -0.1902
12227DPPC   C3A15931   8.725   0.513  18.369  0.2948  0.2279 -0.1423
12227DPPC   C4A15932   8.386   0.490  18.734  0.0861 -0.0216  0.0043
12227DPPC   C1B15933   9.274   0.974  17.882  0.1622 -0.0711 -0.4054
12227DPPC   C2B15934   9.044   0.963  18.223 -0.2368 -0.2419 -0.0437
12227DPPC   C3B15935   8.777   0.963  18.636  0.0948 -0.2719 -0.0157
12227DPPC   C4B15936   8.527   0.828  19.063  0.0243 -0.0362  0.1622
12228DPPC   NC315937   6.999   1.715  16.537  0.2402 -0.1909 -0.1004
12228DPPC   PO415938   7.052   2.080  16.730  0.1110 -0.1602 -0.3742
12228DPPC   GL115939   6.729   2.192  16.967  0.0122  0.1546 -0.0118
12228DPPC   GL215940   6.524   1.991  16.851 -0.1939 -0.0373  0.0646
12228DPPC   C1A15941   6.556   2.302  17.273  0.0012 -0.1779 -0.2118
12228DPPC   C2A15942   6.332   2.421  17.570 -0.0300  0.1735 -0.0816
12228DPPC   C3A15943   6.049   2.472  17.975  0.0142  0.1247  0.2084
12228DPPC   C4A15944   5.806   2.476  18.414  0.0185  0.0321 -0.1546
12228DPPC   C1B15945   6.296   1.934  17.179  0.3452 -0.1733 -0.1471
12228DPPC   C2B15946   6.106   1.993  17.489  0.1229  0.1047  0.0754
12228DPPC   C3B15947   5.750   2.068  17.868 -0.0189  0.1775  0.0628
12228DPPC   C4B15948   5.510   2.459  18.029  0.0370 -0.1893  0.1841
12229DPPC   NC315949   0.196   4.901  18.853  0.0780  0.0376  0.0360
12229DPPC   PO415950   0.158   4.938  19.279  0.0327  0.1002  0.3248
12229DPPC   GL115951   0.578   5.015  19.405 -0.1173 -0.2082  0.1998
12229DPPC   GL215952   0.626   5.051  19.120 -0.2366  0.2255  0.3735
12229DPPC   C1A15953   0.833   5.137  19.626  0.3809 -0.1543 -0.0467
12229DPPC   C2A15954   1.111   4.988  19.904 -0.2006 -0.0795  0.1405
12229DPPC   C3A15955   1.442   5.025  20.248  0.1706  0.0253 -0.1672
12229DPPC   C4A15956   1.744   5.009  20.649 -0.3340 -0.0100 -0.0418
12229DPPC   C1B15957   0.950   5.199  19.192 -0.1214 -0.0295 -0.3838
12229DPPC   C2B15958   1.311   5.104  19.424 -0.2964 -0.2107 -0.0521
12229DPPC   C3B15959   1.609   5.109  19.809 -0.1465  0.1159  0.2017
12229DPPC   C4B15960   1.908   5.118  20.179  0.1939  0.2303  0.2472
12230DPPC   NC315961   1.770   3.330  17.189 -0.2298  0.1125  0.0977
12230DPPC   PO415962   1.592   3.387  17.544 -0.0311 -0.0505 -0.0252
12230DPPC   GL115963   1.862   3.399  17.886  0.0821  0.0160  0.3057
12230DPPC   GL215964   1.556   3.293  18.067 -0.0993 -0.1658  0.0221
12230DPPC   C1A15965   2.021   3.599  18.138  0.1695  0.1393 -0.5982
12230DPPC   C2A15966   2.234   3.628  18.488  0.1946 -0.1384 -0.5411
12230DPPC   C3A15967   2.497   3.654  18.923 -0.3652  0.3932  0.0271
12230DPPC   C4A15968   2.792   3.586  19.309  0.0790 -0.0379 -0.3155
12230DPPC   C1B15969   1.548   3.155  18.392 -0.1260 -0.0664  0.2005
12230DPPC   C2B15970   1.735   2.995  18.751  0.0685 -0.2209 -0.0629
12230DPPC   C3B15971   2.022   2.982  19.180 -0.1768  0.2618  0.0926
12230DPPC   C4B15972   2.222   3.083  19.592  0.0527  0.0056  0.0448
12231DPPC   NC315973   0.274   0.244  18.875  0.2190  0.0236  0.0530
12231DPPC   PO415974   0.322  -0.160  19.020 -0.1686  0.0658  0.0838
12231DPPC   GL115975   0.603  -0.303  19.217  0.1466  0.4294  0.0862
12231DPPC   GL215976   0.738  -0.509  19.024 -0.3978 -0.1211 -0.2225
12231DPPC   C1A15977   0.646  -0.294  19.605 -0.2138 -0.3944 -0.2097
12231DPPC   C2A15978   0.991  -0.251  19.831  0.3061  0.1366 -0.1260
12231DPPC   C3A15979   1.339  -0.281  20.123  0.0657 -0.0036 -0.0036
12231DPPC   C4A15980   1.663  -0.227  20.467  0.2052 -0.0479  0.0916
12231DPPC   C1B15981   0.976  -0.593  19.319  0.3619  0.0417 -0.2689
12231DPPC   C2B15982   1.233  -0.694  19.640 -0.4346 -0.1870  0.0941
12231DPPC   C3B15983   1.618  -0.707  19.927  0.1637  0.0825 -0.1000
12231DPPC   C4B15984   1.852  -0.706  20.319  0.2273  0.1318  0.4010
12232DPPC   NC315985   2.832   3.919  16.116  0.0968 -0.1516 -0.1166
12232DPPC   PO415986   2.568   3.687  16.270  0.3033 -0.1988  0.1350
12232DPPC   GL115987   2.634   3.554  16.643  0.0317  0.4582  0.2355
12232DPPC   GL215988   2.466   3.829  16.770 -0.0522  0.0875 -0.0203
12232DPPC   C1A15989   2.923   3.554  16.880 -0.1268 -0.2424  0.0855
12232DPPC   C2A15990   3.287   3.441  16.987  0.2755 -0.2164 -0.2698
12232DPPC   C3A15991   3.652   3.378  17.276 -0.1306 -0.0846  0.1566
12232DPPC   C4A15992   3.886   3.402  17.673  0.0225 -0.0747  0.0644
12232DPPC   C1B15993   2.629   3.750  17.136 -0.2330 -0.0055  0.0047
12232DPPC   C2B15994   2.876   3.683  17.464 -0.0729 -0.1199 -0.0893
12232DPPC   C3B15995   3.038   3.725  17.847 -0.2283 -0.0290  0.1217
12232DPPC   C4B15996   3.313   3.721  18.248  0.1141  0.0579 -0.0529
12233DPPC   NC315997   1.405   2.050  17.971 -0.0589  0.1328  0.1234
12233DPPC   PO415998   1.110   1.791  18.030 -0.2984  0.0982 -0.2602
12233DPPC   GL115999   1.363   1.721  18.338  0.4834  0.2178 -0.1009
12233DPPC   GL216000   1.233   1.843  18.597 -0.3608 -0.3164  0.7634
12233DPPC   C1A16001   1.666   1.684  18.598 -0.1401  0.2399 -0.1974
12233DPPC   C2A16002   1.862   1.652  18.958 -0.2092 -0.2105  0.1127
12233DPPC   C3A16003   2.162   1.657  19.367 -0.2402 -0.2788 -0.0384
12233DPPC   C4A16004   2.524   1.786  19.689  0.0252  0.0345  0.2190
12233DPPC   C1B16005   1.436   1.923  18.881  0.3273  0.0016  0.0911
12233DPPC   C2B16006   1.608   2.012  19.249 -0.1516  0.1049  0.2642
12233DPPC   C3B16007   1.921   2.114  19.619  0.1926 -0.0103 -0.1023
12233DPPC   C4B16008   2.134   2.148  20.040  0.0038 -0.1681  0.0467
12234DPPC   NC316009   7.301   0.858  16.913  0.0374  0.0182  0.1536
12234DPPC   PO416010   7.368   1.181  17.090 -0.1539  0.0752 -0.0278
12234DPPC   GL116011   7.249   0.928  17.439 -0.1639 -0.0303 -0.1473
12234DPPC   GL216012   7.042   1.131  17.480 -0.0137  0.1787  0.0725
12234DPPC   C1A16013   7.296   0.806  17.816  0.0110  0.1232  0.0244
12234DPPC   C2A16014   7.325   0.782  18.234  0.0392  0.1694 -0.0539
12234DPPC   C3A16015   7.009   0.845  18.574 -0.0041 -0.0783  0.1579
12234DPPC   C4A16016   6.738   0.813  19.040 -0.0031 -0.0110  0.0445
12234DPPC   C1B16017   7.113   1.278  17.788  0.0372 -0.4062  0.0804
12234DPPC   C2B16018   6.925   1.251  18.143  0.3122  0.1069 -0.2227
12234DPPC   C3B16019   6.676   1.172  18.555 -0.0039 -0.2910  0.3218
12234DPPC   C4B16020   6.486   1.265  18.969 -0.2358 -0.0738  0.1359
12235DPPC   NC316021   9.411   2.780  17.218  0.0104  0.4668 -0.0036
12235DPPC   PO416022   9.679   2.543  17.328  0.2331 -0.0048 -0.2996
12235DPPC   GL116023   9.585   2.275  17.629 -0.1925  0.0312 -0.2813
12235DPPC   GL216024   9.802   2.337  17.839 -0.1803  0.1321  0.0094
12235DPPC   C1A16025   9.274   2.296  17.855 -0.0637 -0.1417 -0.2182
12235DPPC   C2A16026   9.033   2.247  18.162  0.3158 -0.2127  0.1385
12235DPPC   C3A16027   8.876   2.252  18.622 -0.1124  0.1685 -0.2038
12235DPPC   C4A16028   8.665   2.232  19.046  0.1146 -0.2962  0.2300
12235DPPC   C1B16029   9.779   2.447  18.192 -0.0725 -0.2785 -0.3140
12235DPPC   C2B16030   9.440   2.366  18.389  0.1371  0.0774 -0.1149
12235DPPC   C3B16031   9.331   2.348  18.824 -0.1395  0.1515  0.0001
12235DPPC   C4B16032   9.141   2.332  19.298  0.1131 -0.0146  0.1932
12236DPPC   NC316033   6.558   0.861  16.420 -0.2156 -0.1624  0.0241
12236DPPC   PO416034   6.358   1.174  16.489  0.2665 -0.3349  0.0091
12236DPPC   GL116035   6.342   1.272  16.859  0.3360 -0.0646  0.0261
12236DPPC   GL216036   6.589   1.108  16.955  0.0650  0.2473 -0.3505
12236DPPC   C1A16037   6.058   1.491  17.001 -0.3865 -0.0915  0.0830
12236DPPC   C2A16038   5.827   1.657  17.286  0.2647 -0.2293 -0.1057
12236DPPC   C3A16039   5.499   1.863  17.454 -0.0731 -0.1799 -0.1857
12236DPPC   C4A16040   5.188   2.151  17.620 -0.0349 -0.0703 -0.0515
12236DPPC   C1B16041   6.673   1.219  17.323  0.2592  0.3402  0.0768
12236DPPC   C2B16042   6.526   1.176  17.720 -0.4357  0.2164  0.1669
12236DPPC   C3B16043   6.337   1.143  18.082  0.0301 -0.0618 -0.3209
12236DPPC   C4B16044   6.198   1.185  18.586  0.2505 -0.0076 -0.0172
12237DPPC   NC316045   8.176   5.957  16.759 -0.3542  0.2238  0.0574
12237DPPC   PO416046   7.984   6.313  16.753 -0.1508 -0.1967  0.1630
12237DPPC   GL116047   7.628   6.304  16.912  0.0392 -0.1375  0.0525
12237DPPC   GL216048   7.723   6.434  17.165 -0.0572 -0.4662  0.1933
12237DPPC   C1A16049   7.459   6.100  17.182 -0.0468  0.2264 -0.2832
12237DPPC   C2A16050   7.575   5.846  17.495  0.1004 -0.1936 -0.1217
12237DPPC   C3A16051   7.589   5.458  17.701 -0.1597 -0.1346  0.1005
12237DPPC   C4A16052   7.731   5.064  17.896 -0.1963 -0.2316  0.3116
12237DPPC   C1B16053   7.828   6.215  17.406 -0.3041 -0.0066  0.2874
12237DPPC   C2B16054   8.054   6.017  17.671  0.1770 -0.0521 -0.0021
12237DPPC   C3B16055   8.132   5.727  17.959  0.0648 -0.1881 -0.0485
12237DPPC   C4B16056   7.900   5.363  18.237  0.2999 -0.1450 -0.0015
12238DPPC   NC316057   5.749   3.431  16.153 -0.0614 -0.1693 -0.1303
12238DPPC   PO416058   6.054   3.414  16.419 -0.2232  0.1295 -0.0617
12238DPPC   GL116059   6.212   3.277  16.765  0.1929  0.1042  0.3612
12238DPPC   GL216060   6.174   3.589  16.884  0.2318  0.1084  0.0048
12238DPPC   C1A16061   6.127   3.033  17.020 -0.1475  0.0915  0.0749
12238DPPC   C2A16062   6.087   2.613  17.206 -0.1280  0.1605  0.1447
12238DPPC   C3A16063   5.693   2.438  17.447  0.1910  0.0704  0.0648
12238DPPC   C4A16064   5.276   2.732  17.598 -0.1006  0.0382  0.1105
12238DPPC   C1B16065   6.097   3.466  17.237  0.3940 -0.2746 -0.1038
12238DPPC   C2B16066   6.038   3.376  17.648 -0.1633 -0.1607 -0.2098
12238DPPC   C3B16067   5.805   3.347  18.091 -0.1777 -0.0282  0.0121
12238DPPC   C4B16068   5.664   3.367  18.590 -0.1602  0.0998  0.4418
12239DPPC   NC316069  20.777   0.562  18.860 -0.0570  0.2406 -0.0029
12239DPPC   PO416070  21.127   0.653  19.050  0.1028 -0.0233  0.1029
12239DPPC   GL116071  21.543   0.657  19.072 -0.2773 -0.1653 -0.1987
12239DPPC   GL216072  21.466   0.828  19.301 -0.3493 -0.2426 -0.3378
12239DPPC   C1A16073  21.689   0.370  19.205  0.4263 -0.1417 -0.0628
12239DPPC   C2A16074  22.032   0.235  19.429 -0.0528 -0.0252  0.0531
12239DPPC   C3A16075  22.397   0.213  19.744 -0.0248  0.1078 -0.2152
12239DPPC   C4A16076  22.677   0.285  20.115  0.3076  0.1676 -0.0413
12239DPPC   C1B16077  21.575   0.950  19.680 -0.0412  0.5107 -0.0490
12239DPPC   C2B16078  21.727   0.973  20.079 -0.0435  0.1131  0.1877
12239DPPC   C3B16079  22.068   0.997  20.394 -0.0176 -0.1436 -0.4384
12239DPPC   C4B16080  22.316   1.048  20.811 -0.0256  0.0568  0.1604
12240DPPC   NC316081   0.471   2.510  18.868  0.0308 -0.0225  0.0546
12240DPPC   PO416082   0.608   2.790  18.604  0.3548  0.1656  0.2527
12240DPPC   GL116083   1.044   2.916  18.426  0.1567  0.2740  0.0915
12240DPPC   GL216084   0.999   3.051  18.678  0.0582 -0.3315  0.2443
12240DPPC   C1A16085   1.351   2.714  18.573  0.3795  0.2376  0.1670
12240DPPC   C2A16086   1.487   2.552  18.946 -0.3202  0.0143 -0.1120
12240DPPC   C3A16087   1.826   2.546  19.291 -0.1035  0.1464  0.0634
12240DPPC   C4A16088   2.140   2.577  19.703 -0.1279 -0.0882 -0.1898
12240DPPC   C1B16089   1.179   2.913  18.964  0.0708 -0.1460  0.0695
12240DPPC   C2B16090   1.373   2.827  19.330  0.0305 -0.0802 -0.0595
12240DPPC   C3B16091   1.731   2.920  19.684  0.0040  0.0640  0.1163
12240DPPC   C4B16092   2.087   2.998  20.049  0.1339  0.2296 -0.1936
12241DPPC   NC316093   0.358   1.562  18.926 -0.2721  0.1121  0.1305
12241DPPC   PO416094   0.518   1.951  18.877  0.0285  0.2648 -0.0723
12241DPPC   GL116095   0.746   2.206  19.139  0.1102 -0.1095  0.2733
12241DPPC   GL216096   1.004   2.026  19.030  0.2270 -0.0346 -0.1976
12241DPPC   C1A16097   0.759   2.237  19.507 -0.1534 -0.0166  0.1374
12241DPPC   C2A16098   0.962   2.339  19.838 -0.2812 -0.0596 -0.0801
12241DPPC   C3A16099   1.236   2.403  20.207 -0.0072  0.1216  0.0913
12241DPPC   C4A16100   1.534   2.427  20.615 -0.1449  0.1303  0.2185
12241DPPC   C1B16101   1.070   1.902  19.369 -0.1412  0.1331 -0.0310
12241DPPC   C2B16102   1.379   1.929  19.698  0.2595 -0.3424 -0.1243
12241DPPC   C3B16103   1.606   2.030  20.088  0.1176 -0.3362  0.1216
12241DPPC   C4B16104   1.877   2.046  20.438  0.0869 -0.0431 -0.2044
12242DPPC   NC316105   7.374   3.874  16.406  0.0521  0.0661  0.2380
12242DPPC   PO416106   7.257   4.237  16.429  0.2253 -0.0103  0.2224
12242DPPC   GL116107   7.133   4.092  16.812  0.0629 -0.0555  0.0961
12242DPPC   GL216108   7.076   4.368  16.834 -0.0185 -0.0571 -0.3637
12242DPPC   C1A16109   6.967   3.995  17.129 -0.0416 -0.0521  0.0046
12242DPPC   C2A16110   6.862   3.905  17.566 -0.0507 -0.1526  0.0607
12242DPPC   C3A16111   6.583   3.918  17.954 -0.3062  0.1795  0.4523
12242DPPC   C4A16112   6.452   3.882  18.408 -0.1710 -0.0529  0.5693
12242DPPC   C1B16113   7.021   4.555  17.197 -0.0362  0.0384 -0.1886
12242DPPC   C2B16114   6.801   4.621  17.527 -0.2030  0.0769 -0.1355
12242DPPC   C3B16115   6.526   4.710  17.933  0.3872  0.0356  0.1124
12242DPPC   C4B16116   6.403   4.717  18.405  0.0896  0.1261 -0.0927
12243DPPC   NC316117   0.336   3.670  18.756 -0.0987  0.0286  0.1176
12243DPPC   PO416118   0.381   3.937  18.991  0.0257 -0.0976 -0.1737
12243DPPC   GL116119   0.716   4.139  19.227  0.2939 -0.0441 -0.1275
12243DPPC   GL216120   0.443   4.146  19.458  0.0151 -0.2410  0.1186
12243DPPC   C1A16121   0.975   4.097  19.475 -0.0378  0.1462 -0.2506
12243DPPC   C2A16122   1.259   4.127  19.829 -0.0446  0.0862 -0.0531
12243DPPC   C3A16123   1.579   4.162  20.206 -0.0478  0.1910 -0.1560
12243DPPC   C4A16124   1.933   4.223  20.538  0.2181  0.1231 -0.0681
12243DPPC   C1B16125   0.614   4.114  19.746  0.0840  0.1693 -0.2979
12243DPPC   C2B16126   0.837   4.088  20.106  0.1273 -0.1413 -0.2504
12243DPPC   C3B16127   1.150   4.085  20.528  0.0817  0.2797 -0.0465
12243DPPC   C4B16128   1.543   4.155  20.881 -0.0910  0.1354 -0.0715
12244DPPC   NC316129   4.110   2.500  15.623 -0.2533  0.1919  0.1372
12244DPPC   PO416130   4.334   2.661  15.884 -0.1055  0.0162  0.0250
12244DPPC   GL116131   4.057   2.525  16.104  0.2251  0.3498 -0.1026
12244DPPC   GL216132   4.069   2.219  16.115 -0.0458  0.0858 -0.1877
12244DPPC   C1A16133   4.028   2.606  16.447  0.2115  0.2763 -0.0187
12244DPPC   C2A16134   4.120   2.664  16.849  0.1817  0.0594 -0.3033
12244DPPC   C3A16135   4.453   2.746  17.273 -0.0813  0.1079 -0.1561
12244DPPC   C4A16136   4.801   2.732  17.640  0.3548 -0.1629  0.1507
12244DPPC   C1B16137   4.342   2.209  16.376 -0.1272  0.1047  0.2544
12244DPPC   C2B16138   4.535   2.386  16.682 -0.0732 -0.1176 -0.0814
12244DPPC   C3B16139   4.620   2.790  16.803  0.1540  0.1083  0.2537
12244DPPC   C4B16140   4.649   3.155  17.036 -0.0724  0.0500 -0.3656
12245DPPC   NC316141   9.712   2.106  17.148  0.0068 -0.0796 -0.3559
12245DPPC   PO416142   9.366   1.985  17.252 -0.1221 -0.1776  0.1552
12245DPPC   GL116143   9.330   1.898  17.610  0.1868  0.0157 -0.1055
12245DPPC   GL216144   9.500   1.776  17.766 -0.0284 -0.2399  0.0716
12245DPPC   C1A16145   9.029   1.725  17.857  0.1319  0.1132  0.0673
12245DPPC   C2A16146   8.832   1.717  18.246 -0.0141 -0.0809  0.4162
12245DPPC   C3A16147   8.550   1.721  18.636 -0.0530  0.0272 -0.1082
12245DPPC   C4A16148   8.319   1.816  19.075 -0.0793  0.0520 -0.1352
12245DPPC   C1B16149   9.347   1.852  18.121  0.2029  0.1034  0.1881
12245DPPC   C2B16150   9.250   1.878  18.553  0.0088  0.1383 -0.1266
12245DPPC   C3B16151   9.062   1.805  18.958  0.2369 -0.2711  0.0880
12245DPPC   C4B16152   8.829   1.811  19.365 -0.0078 -0.0449 -0.0028
12246DPPC   NC316153   5.823   4.115  15.925 -0.0176 -0.0429 -0.1436
12246DPPC   PO416154   5.543   3.839  16.015  0.1131 -0.0512  0.1174
12246DPPC   GL116155   5.633   3.791  16.411 -0.3858 -0.4201  0.0900
12246DPPC   GL216156   5.862   3.977  16.455  0.3418 -0.1409  0.0506
12246DPPC   C1A16157   5.680   3.604  16.758 -0.1199 -0.2257 -0.5639
12246DPPC   C2A16158   5.670   3.278  16.991 -0.3635 -0.0922 -0.3583
12246DPPC   C3A16159   5.794   3.045  17.395  0.1535 -0.1465 -0.0175
12246DPPC   C4A16160   5.723   2.868  17.832 -0.2413 -0.1922 -0.0821
12246DPPC   C1B16161   5.914   3.973  16.802 -0.2367 -0.3888  0.1038
12246DPPC   C2B16162   6.025   4.154  17.142 -0.0724 -0.1048  0.0443
12246DPPC   C3B16163   5.903   4.162  17.599 -0.1187 -0.0837  0.2023
12246DPPC   C4B16164   5.785   4.153  18.088  0.0332  0.1132 -0.1438
12247DPPC   NC316165   2.256   4.124  16.397  0.0740 -0.3171 -0.2077
12247DPPC   PO416166   2.165   4.284  16.803  0.0603  0.2606  0.1173
12247DPPC   GL116167   2.485   4.167  17.080  0.2743  0.4482  0.2124
12247DPPC   GL216168   2.377   4.342  17.258 -0.0742  0.0380 -0.0495
12247DPPC   C1A16169   2.778   4.142  17.296 -0.0236  0.2338 -0.0416
12247DPPC   C2A16170   3.055   4.176  17.571  0.0299  0.1983 -0.0559
12247DPPC   C3A16171   3.327   4.209  17.987  0.3449  0.2830 -0.2079
12247DPPC   C4A16172   3.675   4.215  18.341  0.0387 -0.1254 -0.1810
12247DPPC   C1B16173   2.594   4.569  17.459  0.3416 -0.0017 -0.1887
12247DPPC   C2B16174   2.816   4.569  17.799 -0.2539 -0.1855 -0.0300
12247DPPC   C3B16175   3.112   4.626  18.180 -0.3442 -0.2001 -0.0411
12247DPPC   C4B16176   3.404   4.643  18.501  0.3067  0.1102 -0.1353
12248DPPC   NC316177   1.691   0.885  16.614 -0.0129 -0.2755  0.0677
12248DPPC   PO416178   2.010   0.777  16.795 -0.0107 -0.0615 -0.1599
12248DPPC   GL116179   2.094   0.678  17.264 -0.1386  0.1302 -0.1505
12248DPPC   GL216180   2.246   0.966  17.217 -0.1582  0.0228 -0.0097
12248DPPC   C1A16181   2.247   0.601  17.597 -0.2132  0.1264 -0.2045
12248DPPC   C2A16182   2.438   0.555  18.005  0.0533 -0.1342  0.0368
12248DPPC   C3A16183   2.681   0.571  18.376 -0.2297 -0.1273  0.1793
12248DPPC   C4A16184   2.977   0.440  18.724 -0.3404  0.0726 -0.2675
12248DPPC   C1B16185   2.326   1.136  17.544  0.1802 -0.1699  0.2756
12248DPPC   C2B16186   2.533   1.059  17.869  0.1085  0.3222 -0.1644
12248DPPC   C3B16187   2.780   1.049  18.310 -0.2030 -0.2541  0.1769
12248DPPC   C4B16188   3.159   0.870  18.642 -0.0748 -0.0846 -0.3245
12249DPPC   NC316189   7.590   0.153  16.880  0.3447 -0.2110  0.2675
12249DPPC   PO416190   7.930   0.208  17.052 -0.1745 -0.2232 -0.1872
12249DPPC   GL116191   7.903   0.383  17.480 -0.0343  0.0350 -0.1753
12249DPPC   GL216192   8.265   0.381  17.437 -0.2561 -0.1400  0.1258
12249DPPC   C1A16193   7.733   0.639  17.634 -0.0675  0.1901  0.1046
12249DPPC   C2A16194   7.911   0.868  17.923  0.0079  0.1287  0.0630
12249DPPC   C3A16195   8.088   1.311  18.151  0.3167 -0.2499  0.3858
12249DPPC   C4A16196   8.311   1.765  18.233  0.1381  0.2088  0.1175
12249DPPC   C1B16197   8.394   0.675  17.675  0.0277 -0.0066  0.0052
12249DPPC   C2B16198   8.442   1.092  17.712  0.1045 -0.0820  0.0746
12249DPPC   C3B16199   8.440   1.545  17.768 -0.0045  0.3509  0.3241
12249DPPC   C4B16200   8.631   1.989  17.822 -0.1794 -0.2402  0.2512
12250DPPC   NC316201   1.443   4.333  17.300  0.2366  0.0633  0.0044
12250DPPC   PO416202   1.594   4.572  17.540 -0.0374  0.1244 -0.0252
12250DPPC   GL116203   1.798   4.533  17.843 -0.2707 -0.1388 -0.2262
12250DPPC   GL216204   1.966   4.802  17.834  0.0740  0.3155  0.5814
12250DPPC   C1A16205   1.955   4.454  18.168 -0.3970  0.1831 -0.3493
12250DPPC   C2A16206   2.156   4.368  18.524 -0.0230  0.1785 -0.0029
12250DPPC   C3A16207   2.429   4.411  18.912  0.2993  0.0537 -0.2605
12250DPPC   C4A16208   2.769   4.395  19.265  0.1666  0.4041  0.0918
12250DPPC   C1B16209   2.214   4.863  18.103  0.0481  0.0603 -0.2707
12250DPPC   C2B16210   2.312   4.832  18.506  0.2178 -0.2377 -0.0721
12250DPPC   C3B16211   2.652   4.845  18.880  0.0309  0.2391 -0.1283
12250DPPC   C4B16212   2.936   4.870  19.275  0.0686 -0.0846  0.2133
12251DPPC   NC316213   1.927   0.144  17.596 -0.1423 -0.0377  0.0233
12251DPPC   PO416214   1.683   0.444  17.564 -0.0092  0.2336 -0.0544
12251DPPC   GL116215   1.651   0.836  17.700 -0.0520  0.0604 -0.1052
12251DPPC   GL216216   1.926   0.917  17.598  0.4258  0.1247  0.0969
12251DPPC   C1A16217   1.654   0.691  18.034  0.1026  0.0898 -0.1202
12251DPPC   C2A16218   1.771   0.806  18.379  0.0382 -0.1985  0.1085
12251DPPC   C3A16219   1.965   0.814  18.815  0.0542 -0.0354 -0.1646
12251DPPC   C4A16220   2.292   0.865  19.217 -0.0528  0.2196  0.0939
12251DPPC   C1B16221   2.117   0.892  17.894 -0.0808 -0.2576  0.0636
12251DPPC   C2B16222   2.271   0.963  18.279 -0.4529 -0.1539 -0.1044
12251DPPC   C3B16223   2.519   1.028  18.712 -0.1147  0.2819 -0.1853
12251DPPC   C4B16224   2.858   0.988  19.078 -0.0689  0.1696  0.1325
12252DPPC   NC316225   4.921   4.304  15.813  0.2093 -0.1438 -0.1939
12252DPPC   PO416226   5.287   4.425  15.996  0.2483 -0.0111 -0.0676
12252DPPC   GL116227   5.374   4.350  16.393  0.2785 -0.3980  0.5175
12252DPPC   GL216228   5.125   4.527  16.473 -0.5711  0.2304  0.0587
12252DPPC   C1A16229   5.530   4.172  16.709 -0.0365 -0.1942 -0.0729
12252DPPC   C2A16230   5.556   4.052  17.111  0.0713 -0.2596  0.5171
12252DPPC   C3A16231   5.398   4.044  17.566 -0.2167 -0.0485 -0.0442
12252DPPC   C4A16232   4.961   3.981  17.825  0.0087 -0.0446  0.0275
12252DPPC   C1B16233   4.997   4.679  16.785 -0.2007  0.1321  0.2767
12252DPPC   C2B16234   4.749   4.969  16.822 -0.1758 -0.3786 -0.2128
12252DPPC   C3B16235   4.680   5.265  17.153  0.0611  0.2323 -0.3121
12252DPPC   C4B16236   4.964   5.325  17.563 -0.2208 -0.2025 -0.2261
12253DPPC   NC316237   6.411   5.542  16.037 -0.1229 -0.3083  0.0639
12253DPPC   PO416238   6.060   5.690  16.100  0.4107 -0.4616  0.0083
12253DPPC   GL116239   5.967   5.631  16.610 -0.1543 -0.0223 -0.0509
12253DPPC   GL216240   5.767   5.545  16.382 -0.1833 -0.1021  0.2725
12253DPPC   C1A16241   5.866   5.564  16.969 -0.0446  0.1724 -0.0668
12253DPPC   C2A16242   5.666   5.379  17.244 -0.4059  0.1383  0.0991
12253DPPC   C3A16243   5.471   5.377  17.597  0.1071  0.1227  0.2658
12253DPPC   C4A16244   5.250   5.357  18.078  0.0973 -0.0091  0.2936
12253DPPC   C1B16245   5.460   5.484  16.491 -0.0106  0.2253 -0.0043
12253DPPC   C2B16246   5.267   5.288  16.807  0.0286  0.2076  0.0536
12253DPPC   C3B16247   5.216   5.058  17.217 -0.1073  0.2525 -0.1259
12253DPPC   C4B16248   5.226   4.933  17.708  0.0741 -0.0241 -0.0368
12254DPPC   NC316249   1.218   3.137  17.700 -0.4930  0.1750 -0.1865
12254DPPC   PO416250   1.162   2.882  17.982 -0.0751  0.1037 -0.2482
12254DPPC   GL116251   1.541   2.692  18.151  0.1981 -0.1829  0.1660
12254DPPC   GL216252   1.459   2.511  18.017 -0.0030  0.2066 -0.1144
12254DPPC   C1A16253   1.759   2.581  18.434 -0.0441 -0.0751 -0.0567
12254DPPC   C2A16254   2.039   2.629  18.707  0.2511  0.0273 -0.2630
12254DPPC   C3A16255   2.405   2.587  19.086  0.1303 -0.0815 -0.2629
12254DPPC   C4A16256   2.661   2.644  19.534  0.0832  0.1855  0.0803
12254DPPC   C1B16257   1.771   2.316  18.124 -0.1601 -0.1077 -0.1993
12254DPPC   C2B16258   2.146   2.253  18.228  0.2289 -0.0421 -0.2060
12254DPPC   C3B16259   2.414   2.284  18.538  0.2159  0.1437  0.1119
12254DPPC   C4B16260   2.682   2.224  18.946  0.0900  0.4712  0.0134
12255DPPC   NC316261   8.447   3.606  16.937 -0.1373  0.1640 -0.0576
12255DPPC   PO416262   8.754   3.433  17.033  0.0391  0.0914  0.3343
12255DPPC   GL116263   8.951   3.590  17.384  0.0767 -0.0097 -0.1366
12255DPPC   GL216264   8.726   3.757  17.447  0.0469 -0.1513  0.0980
12255DPPC   C1A16265   9.030   3.432  17.709 -0.0932 -0.1349 -0.0270
12255DPPC   C2A16266   8.856   3.080  17.922 -0.0436 -0.0143  0.1030
12255DPPC   C3A16267   8.769   3.073  18.321 -0.1362  0.1311  0.0365
12255DPPC   C4A16268   8.600   3.060  18.827 -0.0409 -0.1248  0.1286
12255DPPC   C1B16269   8.489   4.052  17.424 -0.0442  0.1830 -0.0968
12255DPPC   C2B16270   8.238   4.362  17.484  0.1428  0.1973  0.2587
12255DPPC   C3B16271   8.320   4.819  17.515 -0.1337  0.1584  0.1267
12255DPPC   C4B16272   8.208   5.278  17.767  0.0332  0.2048 -0.2265
12256DPPC   NC316273   0.776   5.466  18.414 -0.2844 -0.1187 -0.1202
12256DPPC   PO416274   0.992   5.636  18.138  0.0933 -0.2251  0.0004
12256DPPC   GL116275   1.357   5.588  18.269 -0.2679 -0.0243 -0.1888
12256DPPC   GL216276   1.269   5.591  18.508 -0.0478 -0.5061  0.0542
12256DPPC   C1A16277   1.654   5.674  18.475 -0.3874  0.0150 -0.1516
12256DPPC   C2A16278   2.072   5.764  18.616 -0.0952 -0.1609  0.2927
12256DPPC   C3A16279   2.399   5.717  18.887  0.1211 -0.0556 -0.0108
12256DPPC   C4A16280   2.726   5.736  19.251  0.0641  0.0057  0.1157
12256DPPC   C1B16281   1.503   5.606  18.830  0.2074  0.1821  0.2649
12256DPPC   C2B16282   1.883   5.598  19.031  0.1627  0.3715  0.0660
12256DPPC   C3B16283   2.196   5.598  19.428  0.1744 -0.3668  0.0094
12256DPPC   C4B16284   2.538   5.672  19.802 -0.1088  0.2108 -0.0871
12257DPPC   NC316285   0.165   1.064  18.912 -0.2565 -0.1806  0.0545
12257DPPC   PO416286   0.594   1.121  18.908 -0.0459  0.0838 -0.0274
12257DPPC   GL116287   0.738   0.941  19.272 -0.0158  0.0796  0.2132
12257DPPC   GL216288   0.831   0.644  19.272  0.3527  0.2713  0.0412
12257DPPC   C1A16289   0.883   1.003  19.584 -0.1637 -0.3475 -0.1741
12257DPPC   C2A16290   1.097   1.030  19.931 -0.1893  0.0192 -0.2041
12257DPPC   C3A16291   1.438   1.109  20.304 -0.0483 -0.3264 -0.1281
12257DPPC   C4A16292   1.745   1.103  20.669  0.0534 -0.0453 -0.0224
12257DPPC   C1B16293   1.114   0.612  19.486 -0.2233  0.0433  0.0717
12257DPPC   C2B16294   1.415   0.649  19.773  0.1043  0.2016  0.1066
12257DPPC   C3B16295   1.742   0.690  19.999 -0.0785  0.2044  0.1964
12257DPPC   C4B16296   1.898   0.691  20.467 -0.2141 -0.0526 -0.0746
12258DPPC   NC316297   0.380   0.914  18.171 -0.0767  0.0420 -0.0183
12258DPPC   PO416298   0.734   0.943  18.346  0.1289 -0.2951 -0.0426
12258DPPC   GL116299   0.996   0.992  18.671 -0.3442  0.0795  0.0469
12258DPPC   GL216300   1.062   1.258  18.536  0.0391  0.0122 -0.1920
12258DPPC   C1A16301   1.120   1.072  19.049  0.3141  0.3168  0.0027
12258DPPC   C2A16302   1.317   1.065  19.395 -0.1507  0.0427 -0.0112
12258DPPC   C3A16303   1.670   1.111  19.735 -0.0266 -0.1538  0.0088
12258DPPC   C4A16304   1.968   1.143  20.144 -0.1234 -0.2414 -0.1234
12258DPPC   C1B16305   1.302   1.433  18.793  0.1656  0.1458 -0.2389
12258DPPC   C2B16306   1.336   1.542  19.147  0.0116 -0.0550 -0.2808
12258DPPC   C3B16307   1.629   1.555  19.504 -0.2924  0.1290  0.3807
12258DPPC   C4B16308   1.950   1.581  19.879 -0.1187 -0.1351 -0.1364
12259DPPA   PO416309   9.551   5.288  17.277 -0.1254  0.2189 -0.5049
12259DPPA   GL116310   9.501   5.316  17.675 -0.3783 -0.0968 -0.1568
12259DPPA   GL216311   9.184   5.231  17.676  0.3947 -0.0441 -0.0140
12259DPPA   C1A16312   9.554   5.371  18.030  0.0850 -0.0967 -0.2523
12259DPPA   C2A16313   9.556   5.354  18.459 -0.1609  0.0172  0.2351
12259DPPA   C3A16314   9.249   5.416  18.855 -0.0482  0.1067  0.1028
12259DPPA   C4A16315   8.991   5.431  19.244  0.2710 -0.2544 -0.1753
12259DPPA   C1B16316   9.171   5.249  18.071  0.3258 -0.2092 -0.2103
12259DPPA   C2B16317   8.931   5.316  18.364  0.1995  0.0047 -0.2694
12259DPPA   C3B16318   8.730   5.329  18.864 -0.1618 -0.0736  0.1949
12259DPPA   C4B16319   8.464   5.411  19.273 -0.0315  0.1588  0.4269
12260DPPA   PO416320   9.316   3.196  17.063 -0.2281  0.1464  0.3317
12260DPPA   GL116321   9.175   3.154  17.403  0.2471  0.0898  0.1404
12260DPPA   GL216322   8.835   3.138  17.386 -0.1432 -0.0539  0.4051
12260DPPA   C1A16323   9.237   2.922  17.740 -0.0266  0.2385 -0.0924
12260DPPA   C2A16324   9.225   2.780  18.076  0.1426 -0.1658 -0.1380
12260DPPA   C3A16325   9.091   2.719  18.573  0.2003  0.1611 -0.1676
12260DPPA   C4A16326   8.891   2.745  18.994  0.0092 -0.0862  0.0686
12260DPPA   C1B16327   8.640   2.859  17.536 -0.2168  0.0462 -0.1650
12260DPPA   C2B16328   8.585   2.568  17.806 -0.0354  0.0709  0.2547
12260DPPA   C3B16329   8.435   2.273  18.216  0.1556 -0.1436  0.2063
12260DPPA   C4B16330   8.296   2.239  18.676 -0.0172  0.1591 -0.0244
12261DPPA   PO416331   2.291   4.709  16.487  0.1739  0.0603 -0.0795
12261DPPA   GL116332   2.535   4.583  16.783  0.0056  0.0718  0.1942
12261DPPA   GL216333   2.355   4.700  17.000  0.1127  0.3110  0.1864
12261DPPA   C1A16334   2.780   4.470  17.015 -0.0659 -0.0603  0.0421
12261DPPA   C2A16335   3.065   4.562  17.265  0.0472 -0.0834 -0.0544
12261DPPA   C3A16336   3.355   4.618  17.661  0.2449 -0.1900  0.0834
12261DPPA   C4A16337   3.686   4.655  18.023  0.2580 -0.0357  0.0491
12261DPPA   C1B16338   2.681   4.910  17.116 -0.0644 -0.0009 -0.1195
12261DPPA   C2B16339   2.863   4.952  17.470  0.1479  0.0965 -0.1212
12261DPPA   C3B16340   3.061   5.033  17.888 -0.0867 -0.0751 -0.2464
12261DPPA   C4B16341   3.427   5.077  18.232  0.0808 -0.2432 -0.1508
12262DPPA   PO416342   0.627   5.447  18.870  0.0874  0.0627  0.0019
12262DPPA   GL116343   1.020   5.461  18.849 -0.2149 -0.3474 -0.3547
12262DPPA   GL216344   1.095   5.705  18.978  0.2247  0.0138  0.1292
12262DPPA   C1A16345   1.273   5.252  18.853 -0.0759 -0.0168  0.1174
12262DPPA   C2A16346   1.614   5.102  18.996  0.0658 -0.0956 -0.1004
12262DPPA   C3A16347   1.906   5.181  19.378 -0.2051  0.4534 -0.0819
12262DPPA   C4A16348   2.229   5.083  19.724  0.1590 -0.1603  0.1230
12262DPPA   C1B16349   1.338   5.563  19.239 -0.0651 -0.0696  0.0740
12262DPPA   C2B16350   1.624   5.581  19.522 -0.2066  0.0464 -0.1422
12262DPPA   C3B16351   1.999   5.495  19.868 -0.0521 -0.1134  0.0761
12262DPPA   C4B16352   2.283   5.577  20.220  0.0135 -0.0113 -0.0343
12263DPPA   PO416353   0.367   5.802  19.100 -0.1200 -0.0461 -0.3705
12263DPPA   GL116354   0.606   5.848  19.470  0.1045  0.1248 -0.1023
12263DPPA   GL216355   0.785   5.602  19.340  0.4273 -0.0945 -0.4734
12263DPPA   C1A16356   0.762   5.821  19.810 -0.2150 -0.0539  0.1220
12263DPPA   C2A16357   1.020   5.892  20.120 -0.0024 -0.3728  0.1520
12263DPPA   C3A16358   1.354   5.911  20.429 -0.0279 -0.1037 -0.0502
12263DPPA   C4A16359   1.695   5.918  20.838 -0.0778 -0.1524  0.1382
12263DPPA   C1B16360   1.047   5.530  19.556 -0.1754 -0.1284  0.0521
12263DPPA   C2B16361   1.286   5.468  19.867  0.0069 -0.3965  0.0687
12263DPPA   C3B16362   1.551   5.490  20.249  0.0097 -0.1886 -0.1026
12263DPPA   C4B16363   1.891   5.503  20.665  0.0046 -0.1793  0.0965
12264DPPA   PO416364   9.929   3.163  17.875 -0.2737  0.3483 -0.1169
12264DPPA   GL116365   9.859   3.468  18.161 -0.3230 -0.0663  0.2335
12264DPPA   GL216366  10.049   3.375  18.324  0.0221  0.0546 -0.1747
12264DPPA   C1A16367   9.562   3.591  18.311  0.5252  0.2056  0.0779
12264DPPA   C2A16368   9.417   3.626  18.719 -0.0019 -0.0744  0.0523
12264DPPA   C3A16369   9.186   3.611  19.161 -0.2210 -0.4772  0.3474
12264DPPA   C4A16370   8.988   3.650  19.584  0.1511 -0.0495 -0.1365
12264DPPA   C1B16371   9.806   3.329  18.599  0.1283 -0.2569  0.1610
12264DPPA   C2B16372   9.663   3.254  18.948  0.1223  0.1294  0.1683
12264DPPA   C3B16373   9.439   3.208  19.369 -0.2347 -0.2143 -0.0885
12264DPPA   C4B16374   9.200   3.215  19.811 -0.1421 -0.0442 -0.0667
12265DPPA   PO416375   0.038   3.474  19.273  0.1747  0.0714 -0.0576
12265DPPA   GL116376   0.221   3.294  19.550  0.0037  0.0704 -0.1853
12265DPPA   GL216377   0.300   3.070  19.480  0.0044  0.4031  0.1091
12265DPPA   C1A16378   0.362   3.280  19.885  0.4210  0.1764 -0.1925
12265DPPA   C2A16379   0.476   3.186  20.293  0.0030 -0.2258  0.1626
12265DPPA   C3A16380   0.798   3.157  20.637 -0.2247  0.2483  0.1018
12265DPPA   C4A16381   1.055   3.166  21.059  0.5119  0.0445  0.0109
12265DPPA   C1B16382   0.611   2.994  19.617  0.3024  0.2978 -0.0683
12265DPPA   C2B16383   0.852   3.159  19.934 -0.0693  0.0349  0.1131
12265DPPA   C3B16384   1.117   3.254  20.280 -0.1390 -0.1174 -0.1052
12265DPPA   C4B16385   1.440   3.265  20.644 -0.1283 -0.0489  0.2930
12266DPPA   PO416386   2.929   2.012  15.969 -0.0644 -0.0643  0.3390
12266DPPA   GL116387   3.179   1.988  16.333  0.1773  0.3192  0.0866
12266DPPA   GL216388   3.347   2.143  16.235  0.2324  0.0488 -0.0051
12266DPPA   C1A16389   3.444   1.832  16.570  0.2205  0.1819  0.2312
12266DPPA   C2A16390   3.754   1.736  16.790 -0.1111 -0.0193 -0.2379
12266DPPA   C3A16391   3.971   1.729  17.206  0.0321 -0.0310 -0.0841
12266DPPA   C4A16392   4.309   1.758  17.529 -0.2118  0.3760 -0.4978
12266DPPA   C1B16393   3.412   2.333  16.516 -0.2679 -0.0276 -0.1247
12266DPPA   C2B16394   3.578   2.501  16.814 -0.0595  0.1836 -0.0935
12266DPPA   C3B16395   3.799   2.596  17.263 -0.1225 -0.0273  0.3667
12266DPPA   C4B16396   4.120   2.612  17.691 -0.0143  0.1360  0.2240
12267DPPA   PO416397   6.416   1.606  16.158  0.2914 -0.0548  0.1538
12267DPPA   GL116398   6.342   1.667  16.593 -0.1060 -0.3726 -0.0879
12267DPPA   GL216399   6.606   1.540  16.627 -0.2659  0.1391 -0.2068
12267DPPA   C1A16400   6.099   1.896  16.796 -0.0946  0.0922 -0.2335
12267DPPA   C2A16401   5.762   2.072  16.942 -0.2637  0.0003 -0.3196
12267DPPA   C3A16402   5.354   2.276  17.092  0.2065 -0.0277 -0.1035
12267DPPA   C4A16403   4.916   2.282  17.120 -0.4212  0.0677 -0.0014
12267DPPA   C1B16404   6.514   1.585  17.004 -0.0621  0.3199 -0.0938
12267DPPA   C2B16405   6.354   1.551  17.402 -0.2112  0.0138 -0.2023
12267DPPA   C3B16406   6.154   1.594  17.765  0.1683 -0.0557 -0.0930
12267DPPA   C4B16407   5.986   1.508  18.222 -0.0696 -0.1763 -0.3284
12268DPPA   PO416408   1.006   3.985  17.942 -0.4086  0.0493  0.2012
12268DPPA   GL116409   1.154   3.982  18.330 -0.1499 -0.3307 -0.0230
12268DPPA   GL216410   1.366   4.186  18.324  0.0964 -0.0247  0.2739
12268DPPA   C1A16411   1.344   3.873  18.624  0.3207  0.0444  0.0705
12268DPPA   C2A16412   1.617   3.850  18.944 -0.3187 -0.0846 -0.1087
12268DPPA   C3A16413   1.848   3.881  19.341 -0.0583 -0.1706  0.1187
12268DPPA   C4A16414   2.214   3.969  19.666 -0.0042  0.1236  0.0679
12268DPPA   C1B16415   1.526   4.329  18.585 -0.1850  0.1358  0.0064
12268DPPA   C2B16416   1.816   4.357  18.919  0.0173 -0.1189  0.1200
12268DPPA   C3B16417   2.116   4.296  19.300  0.0010  0.0693 -0.1833
12268DPPA   C4B16418   2.467   4.438  19.717 -0.0264  0.0548 -0.0518
12269DPPA   PO416419   6.711   0.376  16.432 -0.1841 -0.1457  0.3403
12269DPPA   GL116420   6.566   0.443  16.851 -0.2984  0.5811 -0.0413
12269DPPA   GL216421   6.531   0.672  16.849 -0.0002 -0.0822 -0.0212
12269DPPA   C1A16422   6.569   0.320  17.145 -0.1855  0.2776 -0.2672
12269DPPA   C2A16423   6.572   0.334  17.605  0.1305 -0.0714 -0.0980
12269DPPA   C3A16424   6.413   0.305  18.034  0.1997  0.0426  0.1866
12269DPPA   C4A16425   6.128   0.685  18.248 -0.0809  0.1453 -0.0236
12269DPPA   C1B16426   6.200   0.797  16.916  0.0725 -0.3073 -0.1824
12269DPPA   C2B16427   5.871   1.042  17.067 -0.0627 -0.1241 -0.0848
12269DPPA   C3B16428   5.465   1.188  17.275  0.0940 -0.3920 -0.2207
12269DPPA   C4B16429   5.048   1.096  17.413  0.0079  0.1128  0.1055
12270DPPA   PO416430   1.990   5.632  16.894  0.3062  0.2144 -0.0348
12270DPPA   GL116431   2.373   5.559  17.021 -0.0840  0.2852  0.1414
12270DPPA   GL216432   2.320   5.299  17.154 -0.1949  0.3402 -0.5019
12270DPPA   C1A16433   2.596   5.786  17.205 -0.3057  0.1982  0.0752
12270DPPA   C2A16434   2.809   5.829  17.572  0.1886  0.1689  0.0417
12270DPPA   C3A16435   2.994   5.869  18.002 -0.2339  0.0599 -0.0603
12270DPPA   C4A16436   3.315   5.915  18.402 -0.1229  0.1211 -0.0202
12270DPPA   C1B16437   2.441   5.335  17.513  0.3542 -0.0280  0.3041
12270DPPA   C2B16438   2.658   5.356  17.848  0.3212  0.4907  0.0485
12270DPPA   C3B16439   2.854   5.384  18.269  0.0597  0.0578 -0.0009
12270DPPA   C4B16440   3.208   5.414  18.589 -0.1387 -0.0645  0.1070
12271DPPA   PO416441   1.424   5.857  17.925 -0.5618 -0.0953 -0.0554
12271DPPA   GL116442   1.728   6.123  18.128  0.0971  0.1594 -0.0240
12271DPPA   GL216443   1.714   6.343  17.919 -0.2731 -0.3794 -0.0839
12271DPPA   C1A16444   2.006   6.180  18.376  0.2233 -0.1346  0.3355
12271DPPA   C2A16445   2.350   6.157  18.592 -0.0072  0.0652  0.0666
12271DPPA   C3A16446   2.649   6.221  18.859  0.0592  0.2676  0.1487
12271DPPA   C4A16447   2.938   6.243  19.295  0.2277  0.3452 -0.0678
12271DPPA   C1B16448   2.047   6.483  18.073  0.1204 -0.0069 -0.2588
12271DPPA   C2B16449   2.405   6.618  18.249 -0.3915 -0.1155 -0.0186
12271DPPA   C3B16450   2.680   6.645  18.599  0.0971 -0.3922 -0.0035
12271DPPA   C4B16451   2.929   6.603  18.988 -0.1759 -0.0052  0.0602
12272DPPA   PO416452   7.667   5.433  16.888 -0.0569  0.0342 -0.1348
12272DPPA   GL116453   7.850   5.259  17.238  0.1495  0.1447  0.0077
12272DPPA   GL216454   7.792   4.996  17.182 -0.1035 -0.3297 -0.1289
12272DPPA   C1A16455   8.207   5.298  17.360 -0.0698  0.3079  0.5621
12272DPPA   C2A16456   8.306   5.648  17.482 -0.1123  0.0713  0.2313
12272DPPA   C3A16457   8.521   6.099  17.587  0.0100 -0.1109  0.0320
12272DPPA   C4A16458   8.424   6.605  17.560 -0.0824 -0.0482  0.0200
12272DPPA   C1B16459   7.497   4.987  17.448 -0.1303  0.1440 -0.0232
12272DPPA   C2B16460   7.254   4.863  17.744 -0.0782  0.2585  0.1375
12272DPPA   C3B16461   7.027   4.839  18.166  0.1039  0.1528 -0.0488
12272DPPA   C4B16462   6.896   4.804  18.626 -0.0168 -0.1813 -0.4620
12273DPPA   PO416463   4.539   1.714  15.621  0.0317 -0.0832 -0.1462
12273DPPA   GL116464   4.332   1.814  16.056  0.1399  0.1135 -0.0441
12273DPPA   GL216465   4.647   1.882  16.130 -0.2890 -0.3995 -0.1234
12273DPPA   C1A16466   4.272   1.631  16.368 -0.3471  0.1844 -0.0526
12273DPPA   C2A16467   4.266   1.834  16.707 -0.1690 -0.1613 -0.0452
12273DPPA   C3A16468   4.572   1.885  17.097 -0.0958  0.1485 -0.1802
12273DPPA   C4A16469   4.802   1.860  17.483 -0.0446 -0.1338 -0.2550
12273DPPA   C1B16470   4.782   1.990  16.462  0.1393  0.2255  0.2449
12273DPPA   C2B16471   4.996   2.322  16.610 -0.0555 -0.0151  0.1309
12273DPPA   C3B16472   5.092   2.784  16.649 -0.1720  0.0279 -0.5385
12273DPPA   C4B16473   5.211   3.317  16.759 -0.1227 -0.1763 -0.0623
12274DPPA   PO416474   1.377   2.972  17.260 -0.0007  0.0590 -0.1911
12274DPPA   GL116475   1.751   2.979  17.457 -0.1006 -0.0100  0.1181
12274DPPA   GL216476   1.603   2.896  17.723 -0.0474 -0.3104  0.2772
12274DPPA   C1A16477   2.052   3.107  17.634  0.3753  0.2840 -0.3679
12274DPPA   C2A16478   2.270   3.179  17.945 -0.1101 -0.3065  0.3830
12274DPPA   C3A16479   2.520   3.135  18.339 -0.1690 -0.0099  0.0903
12274DPPA   C4A16480   2.823   3.164  18.760  0.1764 -0.0998 -0.1759
12274DPPA   C1B16481   1.811   2.964  17.998 -0.2220  0.0389 -0.1607
12274DPPA   C2B16482   2.023   3.083  18.368 -0.2323  0.2598  0.3805
12274DPPA   C3B16483   2.304   3.218  18.781  0.0335 -0.0637 -0.4279
12274DPPA   C4B16484   2.579   3.132  19.220  0.2736 -0.0713  0.1824
12275DPPA   PO416485   1.086   0.332  17.855 -0.0664  0.0407 -0.1589
12275DPPA   GL116486   1.448   0.231  18.109 -0.0116 -0.3149  0.0430
12275DPPA   GL216487   1.624   0.166  17.964 -0.3848 -0.3440 -0.1953
12275DPPA   C1A16488   1.615   0.273  18.409  0.2022 -0.2377  0.1291
12275DPPA   C2A16489   1.785   0.319  18.805  0.1919 -0.1758 -0.0169
12275DPPA   C3A16490   2.078   0.347  19.230  0.1490 -0.1469 -0.2151
12275DPPA   C4A16491   2.283   0.356  19.658 -0.0997 -0.0916  0.3819
12275DPPA   C1B16492   1.977   0.329  18.091 -0.2128 -0.2061  0.2135
12275DPPA   C2B16493   2.159   0.528  18.453  0.1378 -0.1213 -0.0154
12275DPPA   C3B16494   2.408   0.554  18.848 -0.1762  0.1154  0.0906
12275DPPA   C4B16495   2.654   0.480  19.254 -0.0449 -0.3057 -0.3570
12276DPPA   PO416496   2.701   5.347  16.203 -0.0793  0.0246  0.0631
12276DPPA   GL116497   2.923   5.478  16.585  0.0270 -0.1808 -0.1424
12276DPPA   GL216498   2.813   5.373  16.799  0.4534 -0.3125  0.1744
12276DPPA   C1A16499   2.962   5.812  16.763 -0.1107 -0.1413 -0.0368
12276DPPA   C2A16500   2.961   6.046  17.103 -0.0668 -0.3204  0.0394
12276DPPA   C3A16501   3.222   6.030  17.523  0.3792  0.1895  0.1793
12276DPPA   C4A16502   3.551   6.038  17.887 -0.4761  0.0698  0.0254
12276DPPA   C1B16503   2.887   5.335  17.124 -0.1912  0.2528 -0.0103
12276DPPA   C2B16504   3.071   5.446  17.485 -0.0047  0.2882 -0.0133
12276DPPA   C3B16505   3.355   5.525  17.875 -0.1952 -0.1720  0.0697
12276DPPA   C4B16506   3.755   5.546  18.224 -0.2980 -0.1352 -0.0620
12277DPPA   PO416507   5.699   2.234  16.040  0.1324 -0.1574 -0.1778
12277DPPA   GL116508   5.670   2.163  16.453 -0.1991 -0.1527  0.3895
12277DPPA   GL216509   5.920   2.354  16.556 -0.0582  0.0417  0.1453
12277DPPA   C1A16510   5.371   2.074  16.674 -0.2981 -0.2135  0.0149
12277DPPA   C2A16511   5.106   1.844  16.756  0.0423  0.0324 -0.2750
12277DPPA   C3A16512   4.752   1.487  16.669  0.2709  0.5561 -0.3563
12277DPPA   C4A16513   4.348   1.186  16.517  0.2638  0.0377  0.2874
12277DPPA   C1B16514   5.773   2.505  16.892  0.2062  0.0284  0.0447
12277DPPA   C2B16515   5.449   2.767  16.996 -0.0311  0.0589 -0.3832
12277DPPA   C3B16516   5.008   2.809  17.171 -0.1702  0.2176 -0.2155
12277DPPA   C4B16517   4.911   3.167  17.539 -0.0087 -0.3582  0.0991
12278DPPA   PO416518   7.707   3.537  16.663  0.0131 -0.3505  0.1889
12278DPPA   GL116519   7.858   3.777  17.028 -0.1594 -0.0621  0.0479
12278DPPA   GL216520   7.590   3.716  17.089  0.2598  0.0121  0.0572
12278DPPA   C1A16521   8.142   3.841  17.239 -0.2904 -0.0429  0.0169
12278DPPA   C2A16522   8.162   3.682  17.584 -0.2164 -0.2023  0.0333
12278DPPA   C3A16523   8.156   3.475  18.088 -0.0300 -0.1427 -0.1442
12278DPPA   C4A16524   8.160   3.159  18.467  0.0962 -0.0908 -0.0906
12278DPPA   C1B16525   7.578   3.704  17.452  0.0521 -0.0130 -0.0389
12278DPPA   C2B16526   7.336   3.860  17.749 -0.1963 -0.1235 -0.0076
12278DPPA   C3B16527   7.055   3.916  18.186  0.2495  0.1146  0.0066
12278DPPA   C4B16528   6.887   3.913  18.628 -0.0455 -0.2133  0.2775
12279DPPA   PO416529  20.993   3.608  19.731 -0.1929  0.2054  0.1628
12279DPPA   GL116530  21.430   3.682  19.710 -0.3437  0.0869 -0.1969
12279DPPA   GL216531  21.529   3.743  19.433  0.2557 -0.2489 -0.2875
12279DPPA   C1A16532  21.660   3.685  19.998  0.1871  0.0105 -0.1069
12279DPPA   C2A16533  21.906   3.638  20.327 -0.0742  0.1248 -0.0935
12279DPPA   C3A16534  22.238   3.622  20.652 -0.1304  0.2994 -0.3371
12279DPPA   C4A16535  22.498   3.656  21.056  0.2560 -0.1725  0.1251
12279DPPA   C1B16536  21.882   3.743  19.546  0.0310 -0.1828  0.2877
12279DPPA   C2B16537  22.134   3.672  19.838 -0.0093  0.1967 -0.0165
12279DPPA   C3B16538  22.445   3.756  20.209 -0.0724 -0.0121 -0.3510
12279DPPA   C4B16539  22.773   3.698  20.610 -0.2745  0.2660  0.0588
12280DPPA   PO416540   0.241   2.240  19.199 -0.0861 -0.1772  0.0254
12280DPPA   GL116541   0.335   2.345  19.539  0.4029  0.0315 -0.3304
12280DPPA   GL216542   0.523   2.603  19.441 -0.2261  0.2613  0.1561
12280DPPA   C1A16543   0.473   2.296  19.923  0.0688 -0.0664 -0.1595
12280DPPA   C2A16544   0.729   2.278  20.264 -0.2565 -0.0639 -0.0708
12280DPPA   C3A16545   0.971   2.367  20.624 -0.1840 -0.0082 -0.2390
12280DPPA   C4A16546   1.301   2.197  20.987  0.0595 -0.1580 -0.2996
12280DPPA   C1B16547   0.881   2.696  19.500  0.3475 -0.0140  0.2506
12280DPPA   C2B16548   1.171   2.799  19.757  0.2517 -0.2879  0.1799
12280DPPA   C3B16549   1.450   2.905  20.136 -0.0611  0.0048 -0.2293
12280DPPA   C4B16550   1.781   2.901  20.537  0.1618 -0.4437  0.1801
12281DPPA   PO416551   1.557   3.847  17.231  0.0225 -0.0888 -0.3258
12281DPPA   GL116552   1.884   3.712  17.421  0.3240 -0.0435 -0.1538
12281DPPA   GL216553   2.074   3.797  17.216 -0.0839 -0.1425 -0.0683
12281DPPA   C1A16554   2.090   3.835  17.726  0.3869 -0.2268  0.1084
12281DPPA   C2A16555   2.285   3.971  18.073 -0.0205  0.0731 -0.0547
12281DPPA   C3A16556   2.519   4.025  18.466  0.1734  0.1625 -0.1562
12281DPPA   C4A16557   2.785   4.064  18.822  0.4230 -0.1962 -0.1267
12281DPPA   C1B16558   2.340   3.949  17.390 -0.3593  0.0566  0.0301
12281DPPA   C2B16559   2.589   4.003  17.714 -0.2898 -0.0330 -0.1543
12281DPPA   C3B16560   2.815   4.153  18.070 -0.0492  0.0358  0.2559
12281DPPA   C4B16561   3.130   4.120  18.457  0.4613  0.0797  0.3003
12282DPPA   PO416562   3.450   0.062  15.999  0.1620  0.1293  0.2837
12282DPPA   GL116563   3.237   0.033  16.355  0.0126 -0.0161 -0.2261
12282DPPA   GL216564   3.146  -0.305  16.332 -0.1590  0.1960  0.0538
12282DPPA   C1A16565   3.428  -0.009  16.658  0.1092 -0.1120  0.0334
12282DPPA   C2A16566   3.690  -0.125  16.977 -0.3296  0.2858  0.2275
12282DPPA   C3A16567   3.974  -0.129  17.373  0.0398 -0.0922  0.3042
12282DPPA   C4A16568   4.271  -0.017  17.736  0.1049  0.3105 -0.0551
12282DPPA   C1B16569   3.283  -0.444  16.686  0.2395 -0.0088  0.0885
12282DPPA   C2B16570   3.456  -0.523  17.090  0.1351  0.0600  0.2278
12282DPPA   C3B16571   3.793  -0.582  17.392 -0.2288 -0.0584 -0.2214
12282DPPA   C4B16572   4.101  -0.576  17.749  0.1654 -0.2061 -0.1025
12283DPPA   PO416573   6.845   1.706  20.504  0.4107 -0.0526  0.0107
12283DPPA   GL116574   7.049   1.463  20.279 -0.0103  0.0298  0.3376
12283DPPA   GL216575   7.178   1.724  20.161 -0.1314  0.1471 -0.2522
12283DPPA   C1A16576   7.329   1.330  20.123 -0.0113  0.1232  0.0871
12283DPPA   C2A16577   7.636   1.343  19.908  0.0106 -0.1695  0.0097
12283DPPA   C3A16578   7.929   1.362  19.581 -0.2556 -0.0346 -0.1110
12283DPPA   C4A16579   8.066   1.397  19.122 -0.0429  0.1179  0.3633
12283DPPA   C1B16580   7.389   1.763  19.840  0.0504  0.4246 -0.2874
12283DPPA   C2B16581   7.545   1.770  19.474 -0.3151  0.0210 -0.0885
12283DPPA   C3B16582   7.761   1.924  19.010 -0.0409  0.1507  0.0854
12283DPPA   C4B16583   7.992   1.784  18.627  0.0104  0.0568  0.3189
12284W        W16584   4.830   4.444  27.154 -0.0206 -0.0844 -0.3316
12285W        W16585   7.503   1.219  36.859  0.1167 -0.0560 -0.0886
12286W        W16586  11.972   0.083  32.581  0.4731 -0.0196 -0.3707
12287W        W16587   5.734   3.496  31.405  0.2227  0.2124 -0.0849
12288W        W16588  18.485   0.786   7.929  0.1250 -0.2328 -0.0718
12289W        W16589  17.447   1.775  16.867 -0.0020 -0.0562  0.1172
12290W        W16590  10.777   5.791   2.201  0.0912 -0.0326  0.2090
12291W        W16591   4.249   4.183  39.601  0.0989 -0.0436  0.2215
12292W        W16592  12.828   4.546  18.038 -0.1889  0.3626 -0.1977
12293W        W16593  11.475   5.125  44.557  0.1687  0.3592  0.0747
12294W        W16594  13.253   3.775  38.741  0.0585  0.0310 -0.1326
12295W        W16595   2.269   3.096   4.796 -0.0008 -0.1007  0.1518
12296W        W16596   5.642   1.092  14.294 -0.0216 -0.1742  0.0491
12297W        W16597   6.299   4.419  14.220 -0.1542  0.3179 -0.0801
12298W        W16598  10.865   0.734  15.161 -0.2351 -0.0525 -0.1472
12299W        W16599   5.663   2.298  40.991 -0.0018  0.0986 -0.1528
12300W        W16600  17.234   1.806  13.929 -0.1836 -0.0089  0.1149
12301W        W16601  19.310   5.368  20.405 -0.0354 -0.0985  0.0751
12302W        W16602   7.232   2.979  27.661 -0.0081  0.0968 -0.2783
12303W        W16603   6.747   5.862  41.810  0.0351 -0.1320 -0.3290
12304W        W16604   2.897   4.128   8.119  0.2777  0.1084  0.1103
12305W        W16605  15.386   0.846  44.891 -0.0485 -0.1041 -0.2660
12306W        W16606  20.060   3.464  30.732  0.0123 -0.3324 -0.0563
12307W        W16607  13.391   4.681  19.191  0.0467 -0.0513  0.1207
12308W        W16608  19.194   0.712  21.069  0.3318 -0.3215  0.1203
12309W        W16609   0.020   2.874  41.077 -0.1951  0.0353 -0.0928
12310W        W16610  16.221   5.379  20.576  0.0481 -0.1087 -0.1901
12311W        W16611  20.991   0.395  34.573 -0.2020  0.0527 -0.2136
12312W        W16612   5.022   1.859  43.295  0.2006  0.0233  0.0337
12313W        W16613  10.962   3.069  15.546 -0.1407 -0.0482 -0.2749
12314W        W16614  18.496   6.355   5.826  0.2474 -0.0352 -0.0595
12315W        W16615   3.917   3.980  40.917  0.0401  0.1590  0.0117
12316W        W16616   3.595   0.365  28.700 -0.0212 -0.0745 -0.0915
12317W        W16617   5.680   0.242  14.552 -0.0888 -0.0154 -0.1507
12318W        W16618   4.309   0.529   3.337 -0.3059 -0.0086  0.1202
12319W        W16619  15.400   1.055  32.801 -0.0028  0.0665 -0.3581
12320W        W16620   9.169   3.777  15.812 -0.2651  0.2035 -0.0586
12321W        W16621  14.970   4.535  15.276  0.0925  0.0995 -0.0241
12322W        W16622   7.180   5.256  30.787 -0.1080 -0.1198  0.1676
12323W        W16623   0.809   2.422   5.478 -0.0257  0.2458 -0.2994
12324W        W16624   0.820   5.417  28.309  0.2158  0.0835 -0.2599
12325W        W16625  11.746   1.736  29.784 -0.2374  0.0480  0.0001
12326W        W16626   8.668   6.408  12.328 -0.0505 -0.1892 -0.1445
12327W        W16627  19.473   3.417  19.038 -0.2248 -0.1045 -0.2445
12328W        W16628  16.402   1.471  13.941  0.1372 -0.2193  0.1653
12329W        W16629   3.583   0.306  37.826  0.1588 -0.1892  0.0345
12330W        W16630  18.834   0.251   6.260  0.0040  0.0452 -0.2230
12331W        W16631   4.177   5.420  28.202 -0.1375 -0.1064  0.1012
12332W        W16632   5.873   2.603  28.589 -0.0461  0.0147 -0.1389
12333W        W16633   2.867   5.002  26.189  0.0491  0.1417 -0.0331
12334W        W16634  14.499   2.621  35.463  0.1093 -0.1201 -0.0641
12335W        W16635   1.257   1.841   0.004 -0.0765 -0.0075  0.1838
12336W        W16636   4.169   5.276  44.472 -0.1108 -0.3930  0.1047
12337W        W16637  17.065   2.808  42.864 -0.0104  0.3226 -0.3196
12338W        W16638  15.002   1.593  15.269 -0.2150  0.0798 -0.3160
12339W        W16639   6.582   4.937  31.491  0.0783 -0.0299 -0.2667
12340W        W16640   4.605   3.554  11.097  0.0293 -0.3322  0.2738
12341W        W16641  19.052   1.178  39.397 -0.3354 -0.1142  0.0221
12342W        W16642   1.791   0.523  33.245 -0.1445 -0.1742 -0.1865
12343W        W16643  10.296   1.761   1.927  0.0553 -0.1955 -0.1662
12344W        W16644   0.406   5.674  34.366 -0.0414  0.0002  0.3013
12345W        W16645   9.585   5.929  13.071 -0.3005  0.2008  0.1403
12346W        W16646  20.217   6.039  10.021  0.0782  0.2155  0.5321
12347W        W16647  13.382   6.543  28.222 -0.0137 -0.3712 -0.0549
12348W        W16648   0.415   5.623   0.703 -0.1030  0.0743 -0.1197
12349W        W16649   1.474   0.550  31.590  0.1715  0.0302  0.4459
12350W        W16650   5.635   5.003  42.646  0.0303 -0.1304 -0.0502
12351W        W16651  11.783   2.359  16.344  0.2108  0.0350 -0.1037
12352W        W16652   3.915   1.969  14.199  0.4169  0.1669  0.0311
12353W        W16653  18.039   5.579  34.225 -0.0104 -0.2302 -0.0706
12354W        W16654  17.033   1.262  45.116  0.0479  0.0667  0.0233
12355W        W16655   8.597   5.686  35.231  0.3420 -0.4927 -0.0815
12356W        W16656   1.233   2.303  16.641 -0.3755 -0.3496  0.0787
12357W        W16657   2.739   2.399  10.331  0.0266  0.0070 -0.2847
12358W        W16658  16.898   5.187  21.291 -0.1127 -0.1681  0.1632
12359W        W16659  20.242   2.207   2.668 -0.1256  0.2192  0.0934
12360W        W16660   6.842   1.946  30.728  0.2901  0.0895  0.1571
12361W        W16661  12.082   0.819  13.917  0.2058 -0.3115 -0.2609
12362W        W16662   9.455   5.949  37.086  0.0956  0.0495 -0.1975
12363W        W16663   7.640   4.429  44.426  0.0657  0.0339  0.1694
12364W        W16664  10.438   5.607  43.684 -0.1955 -0.1082  0.2320
12365W        W16665  11.523   2.707  38.331 -0.0895  0.0278  0.2241
12366W        W16666  14.820   0.159  44.468  0.1938 -0.1302  0.0860
12367W        W16667   9.945   4.624  40.676  0.0345 -0.0561  0.0085
12368W        W16668  10.041   4.977  39.095  0.2994 -0.0477  0.0497
12369W        W16669  12.482   3.675  37.041  0.1219  0.0508  0.0546
12370W        W16670   8.802   5.184   9.867  0.0066 -0.0725  0.2231
12371W        W16671  17.118   1.125  12.670  0.1137 -0.0632 -0.0441
12372W        W16672   9.157   2.325  35.745 -0.0290 -0.2432 -0.1855
12373W        W16673   3.699   0.606  13.619  0.1589 -0.0975 -0.0169
12374W        W16674   4.302   6.401  33.397 -0.1585 -0.0297  0.2632
12375W        W16675   2.487   1.650  40.949 -0.1700 -0.1723 -0.2426
12376W        W16676  14.706   3.871  18.068 -0.0791  0.1804 -0.1749
12377W        W16677   0.395   4.808  17.128 -0.2653  0.0292 -0.1907
12378W        W16678  12.303   2.027  11.368  0.1590 -0.0311  0.0955
12379W        W16679  13.365   4.213  32.001 -0.2059  0.0262 -0.0936
12380W        W16680  17.966   0.227  20.238  0.0035 -0.2650 -0.1336
12381W        W16681   9.816   5.865   1.886  0.2105  0.2487  0.2315
12382W        W16682   5.662   2.935   5.067  0.0092 -0.0749  0.1972
12383W        W16683   0.714   1.471  10.083  0.2882 -0.5312 -0.0526
12384W        W16684  19.758   0.018  14.952  0.2292  0.0060  0.0784
12385W        W16685  11.150   3.318  35.857 -0.0595 -0.3962 -0.0619
12386W        W16686  19.133   0.838  19.855 -0.0730  0.0524  0.0028
12387W        W16687  13.798   6.345  12.236  0.0030 -0.2030  0.0574
12388W        W16688  20.526   1.404  31.261 -0.0278 -0.4513  0.0579
12389W        W16689   8.896   1.437  16.692  0.1580  0.0983 -0.1315
12390W        W16690   6.968   1.856  16.047 -0.0430  0.0357  0.1652
12391W        W16691   4.338   5.918  10.678  0.1933 -0.0056 -0.0830
12392W        W16692  15.147   2.283  11.176  0.0767  0.1609  0.0206
12393W        W16693  11.077   5.667  43.193 -0.0166  0.1369  0.0863
12394W        W16694  11.277   0.998   6.564 -0.3117  0.0820 -0.0030
12395W        W16695   9.297   3.306  43.192 -0.1521 -0.0508 -0.0340
12396W        W16696  18.726   0.650  12.469 -0.0623 -0.1360  0.2246
12397W        W16697  10.850   0.789   4.822  0.1978  0.2272  0.0757
12398W        W16698  14.157   0.066  35.683  0.0670  0.3340 -0.0666
12399W        W16699   5.978   0.042   8.414 -0.0908 -0.3712  0.0221
12400W        W16700  10.635   5.983  13.729  0.2060  0.0706  0.1329
12401W        W16701  18.731   6.194   3.550 -0.0111  0.0586  0.2993
12402W        W16702  19.335   5.133  43.089 -0.0535 -0.2307 -0.1592
12403W        W16703   3.374   1.284  24.425  0.0986 -0.1247 -0.0053
12404W        W16704  20.905   4.159  35.610  0.3575 -0.0606  0.0023
12405W        W16705   4.087   0.694   0.337  0.0157 -0.2211 -0.1098
12406W        W16706  20.967   2.926   2.568  0.0296  0.2888  0.0818
12407W        W16707  19.567   3.498  42.580  0.5026  0.0293  0.0236
12408W        W16708   5.663   5.564   8.539  0.1787  0.2177 -0.1533
12409W        W16709  15.718   2.076  17.429 -0.3534 -0.2512 -0.1253
12410W        W16710   5.585   1.360  24.587  0.1050  0.2748 -0.1096
12411W        W16711   3.789   0.283  36.479  0.0704  0.0763  0.1477
12412W        W16712  10.013   6.309  33.732  0.1922 -0.0222  0.1685
12413W        W16713  17.645   4.312  40.462 -0.2964  0.1865 -0.0060
12414W        W16714  17.041   0.132  21.217  0.0080  0.1434 -0.1411
12415W        W16715  20.706   1.056  14.997  0.0643 -0.0395 -0.2806
12416W        W16716  16.926   3.108   3.837  0.1451  0.1381 -0.0210
12417W        W16717  14.831   6.419  10.636  0.2607 -0.1744  0.0052
12418W        W16718  19.254   3.016  38.524 -0.2165  0.0287  0.0207
12419W        W16719  15.810   0.238  40.008  0.4360  0.1462 -0.0559
12420W        W16720   7.938   4.721  30.355  0.0039  0.2369 -0.1147
12421W        W16721  19.347   0.875   2.119 -0.5272 -0.3048 -0.1336
12422W        W16722   6.189   4.222  36.648 -0.0796 -0.0686 -0.1269
12423W        W16723   9.610   3.495  37.380  0.1049  0.3063  0.0740
12424W        W16724   7.135   0.985  14.905  0.1065 -0.3285  0.1993
12425W        W16725   0.687   5.951  40.268 -0.2059  0.0189 -0.1285
12426W        W16726  20.516   4.330  27.677 -0.1879  0.1251 -0.1039
12427W        W16727  10.703   4.610  10.710  0.0039  0.0268 -0.0960
12428W        W16728   6.033   5.768  25.774  0.4030  0.1615 -0.0757
12429W        W16729  17.753   4.157   0.684  0.0501 -0.1020 -0.2423
12430W        W16730   4.737   4.929   8.218 -0.0849 -0.0972 -0.0343
12431W        W16731   1.643   3.381   4.155  0.2244  0.2016  0.0909
12432W        W16732   3.973   3.438  31.243  0.0492 -0.0515 -0.2244
12433W        W16733   4.125   2.943  36.580  0.0656 -0.1360  0.0644
12434W        W16734  14.542   4.781  10.667  0.1355  0.4290 -0.1084
12435W        W16735   2.424   0.027   0.317 -0.3474  0.0006 -0.0770
12436W        W16736  14.748   2.008  40.104  0.2079  0.0734 -0.1805
12437W        W16737  11.280   3.281  44.368 -0.0745  0.2609 -0.0121
12438W        W16738  18.753   5.394  14.713 -0.0268  0.0201 -0.0553
12439W        W16739  15.254   4.079  15.955 -0.1231  0.6172  0.0256
12440W        W16740  20.965   2.216  15.769  0.1814 -0.2154 -0.2472
12441W        W16741   4.278   5.326  10.558 -0.0193  0.2426  0.0823
12442W        W16742   0.383   0.145  17.584 -0.0836  0.1093  0.4095
12443W        W16743  13.647   5.055  34.575 -0.1043 -0.0999  0.0813
12444W        W16744   9.730   3.044   0.801  0.0353 -0.2824  0.0537
12445W        W16745   7.045   3.769  40.729  0.1446 -0.2743  0.2200
12446W        W16746  10.107   5.726  10.434 -0.1931 -0.0890  0.0423
12447W        W16747   6.329   6.313  44.642 -0.0406  0.0186 -0.1109
12448W        W16748  10.703   5.080   9.170 -0.2583  0.1866  0.1325
12449W        W16749  11.005   2.807  35.570 -0.1290 -0.0995 -0.0106
12450W        W16750  10.860   0.477   0.800 -0.1014  0.1305  0.1857
12451W        W16751  15.914   0.084  40.494  0.0389  0.0213  0.1319
12452W        W16752   3.063   0.585   6.883 -0.1220  0.1183  0.0535
12453W        W16753   9.778   2.083  41.288 -0.0863 -0.1014  0.0334
12454W        W16754  15.993   2.414  24.433  0.2232  0.3259  0.2024
12455W        W16755  16.616   3.048   7.344  0.0275 -0.0429  0.1908
12456W        W16756  11.384   1.072   4.253  0.0225 -0.2910  0.1570
12457W        W16757   2.532   3.957  25.588  0.3682 -0.2924  0.0497
12458W        W16758   6.049   2.520  10.990  0.0474  0.1248 -0.1730
12459W        W16759   6.442   5.667   2.983 -0.0620  0.2280 -0.3297
12460W        W16760   3.041   2.499  29.550  0.1454  0.1312  0.0074
12461W        W16761  21.115   4.382   8.729  0.1161  0.3508  0.0938
12462W        W16762   6.873   1.628  11.989 -0.0206  0.1535  0.1831
12463W        W16763   9.139   4.406  17.016  0.3336  0.1718 -0.0999
12464W        W16764   0.635   6.387  29.541  0.0051 -0.2345 -0.0592
12465W        W16765   2.739   3.845  10.155 -0.3482  0.0790 -0.0073
12466W        W16766  14.168   1.911  34.698  0.0130 -0.0650  0.0270
12467W        W16767   3.332   6.183  25.734 -0.0150 -0.1893 -0.1435
12468W        W16768   0.578   5.812  41.451  0.0225 -0.2752 -0.2185
12469W        W16769   0.961   2.466  30.967  0.0162  0.0355  0.2097
12470W        W16770  11.845   1.376  33.579 -0.1846  0.1354  0.1413
12471W        W16771   7.822   4.876  37.245 -0.0999 -0.3991 -0.1373
12472W        W16772   7.031   3.654  40.167 -0.0097 -0.0228  0.0669
12473W        W16773   6.715   2.490  35.412 -0.0606  0.1299  0.1131
12474W        W16774   7.145   1.534   8.785 -0.2534 -0.2643  0.1132
12475W        W16775   1.587   0.542  34.422  0.2887  0.2392 -0.0264
12476W        W16776  14.543   4.320  10.508  0.3175  0.1929 -0.0254
12477W        W16777   3.614   4.430   2.485 -0.1448  0.0172  0.1449
12478W        W16778  17.253   2.482  42.583 -0.2579 -0.0911 -0.0400
12479W        W16779  14.078   5.179  15.306 -0.1105 -0.0848  0.2168
12480W        W16780  19.448   4.620  37.219 -0.0737  0.0695 -0.1381
12481W        W16781  13.600   0.117   2.228  0.0389  0.2553 -0.0068
12482W        W16782   0.596   3.176  40.386 -0.0532  0.1042  0.3377
12483W        W16783   0.520   3.218  11.492  0.2009  0.0831 -0.1083
12484W        W16784   8.782   0.258  28.416  0.0944 -0.1313  0.1507
12485W        W16785  18.791   6.519  32.351 -0.0352 -0.2403 -0.0830
12486W        W16786   5.420   4.115  21.772  0.1695  0.0337  0.2803
12487W        W16787   1.530   1.764  33.394  0.0244 -0.1600  0.2288
12488W        W16788  16.691   4.132  34.437  0.0993  0.2237  0.0390
12489W        W16789  15.845   5.883   5.315  0.2512 -0.0164  0.1745
12490W        W16790   3.805   6.595  41.070  0.0860  0.1343 -0.3719
12491W        W16791  20.388   5.551  44.572  0.1561  0.3444 -0.0628
12492W        W16792  11.803   4.956  16.502 -0.2247  0.0530 -0.2025
12493W        W16793   6.952   1.834   5.084  0.0911 -0.2568 -0.1670
12494W        W16794   8.398   5.957  27.954  0.0202 -0.1170  0.2292
12495W        W16795  11.085   2.341  17.087  0.1113  0.1760  0.0251
12496W        W16796   5.522   1.244  43.795 -0.1701 -0.1171  0.5270
12497W        W16797   6.921   2.619   6.321  0.0947  0.0275  0.0869
12498W        W16798   7.375   3.441   6.398  0.0662  0.0515 -0.0179
12499W        W16799   2.907   2.116   5.302 -0.1864  0.1242  0.0605
12500W        W16800   9.982   4.968  31.927  0.4037 -0.0250  0.1051
12501W        W16801   8.891   2.169  14.593  0.1129  0.1596  0.2050
12502W        W16802  11.423   0.477  17.384  0.1325  0.1176 -0.1193
12503W        W16803   6.968   1.549  25.104  0.0336 -0.0086  0.2745
12504W        W16804  15.632   1.197  23.029 -0.1513  0.1307  0.0479
12505W        W16805  11.686   6.327   6.597 -0.2725  0.3125 -0.3842
12506W        W16806   8.384   1.477  23.136  0.2612 -0.1024 -0.0669
12507W        W16807  11.114   0.846  15.648  0.1569  0.0085 -0.1211
12508W        W16808   9.010   6.190   2.901  0.1522 -0.0901  0.2151
12509W        W16809  13.194   5.592  27.940  0.0133  0.1026  0.0050
12510W        W16810   9.803   0.527  10.046 -0.3187  0.0539 -0.0631
12511W        W16811   5.808   6.046  35.406  0.2398  0.2209  0.2063
12512W        W16812   3.206   0.991  26.075  0.2176 -0.1061  0.0729
12513W        W16813   5.150   4.546  25.837 -0.0548 -0.0614 -0.1761
12514W        W16814   3.936   1.208   1.173  0.2368 -0.2492  0.2726
12515W        W16815   5.033   5.707  29.777 -0.1482  0.0288  0.1228
12516W        W16816  18.311   4.173  43.115  0.0487 -0.1519  0.2863
12517W        W16817   0.179   2.475  32.966 -0.1117  0.2464  0.0159
12518W        W16818   7.463   4.083  44.924 -0.1625 -0.2203 -0.1650
12519W        W16819  12.318   0.150   8.903 -0.0329 -0.0428  0.0243
12520W        W16820  12.000   2.910  14.809 -0.1148 -0.2991  0.2598
12521W        W16821   4.833   0.006  31.640  0.0363  0.3162  0.1773
12522W        W16822  12.050   1.381  18.869  0.2047  0.3509 -0.2037
12523W        W16823   5.030   3.594   4.430  0.2383 -0.0089 -0.2133
12524W        W16824  21.060   1.396  18.247 -0.1670 -0.0194  0.1341
12525W        W16825  17.992   1.156   8.197  0.0460 -0.0827 -0.0771
12526W        W16826   1.921   0.397  28.046 -0.1445  0.0702 -0.1138
12527W        W16827   2.534   5.428  35.413  0.1798  0.0066 -0.1307
12528W        W16828  11.428   2.534  13.989  0.0103 -0.0287 -0.0649
12529W        W16829   1.692   3.446   1.267  0.0230  0.2694 -0.0254
12530W        W16830   4.988   5.037   3.301  0.0968 -0.1182  0.0174
12531W        W16831  16.313   1.553  26.637 -0.0522 -0.0781 -0.0575
12532W        W16832   4.710   2.357  14.059  0.1021  0.3320 -0.0821
12533W        W16833   2.817   1.897  30.263 -0.1014  0.1585 -0.1121
12534W        W16834  15.568   6.427  38.372  0.1109  0.2113 -0.2983
12535W        W16835  18.498   1.753  15.907 -0.1558 -0.1980 -0.0870
12536W        W16836  16.285   4.940  20.336 -0.3082 -0.0131 -0.2675
12537W        W16837   2.267   0.156   7.944 -0.3108  0.0592  0.1407
12538W        W16838   8.540   0.181   9.440 -0.0894 -0.1795  0.1789
12539W        W16839  18.817   4.607  42.585 -0.0673  0.0182 -0.3505
12540W        W16840   8.922   1.284  24.300 -0.0523 -0.0425 -0.1204
12541W        W16841  16.062   4.826  30.444  0.1794  0.1496 -0.2412
12542W        W16842  10.629   2.847   1.050  0.3287 -0.3262 -0.0039
12543W        W16843   8.953   3.299  36.065 -0.1500  0.1699  0.1720
12544W        W16844  15.060   2.703   3.573 -0.2282 -0.0885  0.2066
12545W        W16845  10.211   6.340   8.422  0.0498 -0.0547 -0.2179
12546W        W16846  13.936   5.488  18.429  0.0190  0.0353  0.1326
12547W        W16847   4.663   1.600   7.502  0.2349  0.0132 -0.2368
12548W        W16848   9.514   1.893   7.593 -0.1063  0.2490 -0.0497
12549W        W16849  12.834   3.527   1.854  0.1296  0.0461 -0.3788
12550W        W16850   8.567   5.808  36.156 -0.0860 -0.1261  0.0239
12551W        W16851  15.365   2.104  19.685 -0.3668  0.1196  0.2236
12552W        W16852   5.491   1.048   2.179 -0.2580  0.0201  0.1880
12553W        W16853  15.476   0.343  39.538 -0.4326  0.0517  0.0056
12554W        W16854   4.425   3.273  14.823  0.1838 -0.1722  0.3152
12555W        W16855   1.956   1.078   1.484 -0.0469 -0.1104 -0.3589
12556W        W16856   3.223   3.939  27.740  0.3416 -0.0895 -0.0354
12557W        W16857   1.051   4.871   2.554  0.0280  0.1536 -0.2032
12558W        W16858   0.595   1.280  36.219  0.0547 -0.0771 -0.0740
12559W        W16859  13.332   0.809  42.055  0.1380  0.2573  0.3481
12560W        W16860  16.032   1.495  31.082  0.0778 -0.2284  0.1145
12561W        W16861   4.484   0.357   5.240 -0.3523 -0.1324 -0.2296
12562W        W16862   0.869   4.018   7.107  0.0434 -0.1790 -0.1380
12563W        W16863   3.695   0.807  31.447 -0.2578 -0.1155 -0.0499
12564W        W16864  12.236   5.395  39.914 -0.0209  0.0103 -0.0100
12565W        W16865  10.691   3.593  41.737  0.0474 -0.0396  0.1320
12566W        W16866   3.996   0.432  43.681  0.2088  0.1335 -0.2867
12567W        W16867  15.262   2.255  15.660  0.1361 -0.2407 -0.1477
12568W        W16868  17.146   1.745   9.701 -0.1310  0.0021 -0.1814
12569W        W16869  18.385   5.535  21.840  0.2632  0.0626  0.0124
12570W        W16870  18.625   2.713   0.571 -0.0872 -0.1932  0.1980
12571W        W16871   6.377   0.540  37.386  0.1667  0.2395 -0.2648
12572W        W16872   1.806   0.284  38.373 -0.2757 -0.0648  0.0782
12573W        W16873   8.282   0.830   4.781  0.0491  0.0565  0.2807
12574W        W16874  17.813   4.575  44.590 -0.2440  0.0683  0.1677
12575W        W16875   4.024   4.256  39.119  0.0499  0.1738  0.2426
12576W        W16876   3.818   2.148  25.443 -0.0310 -0.2099 -0.0323
12577W        W16877  12.378   3.993   8.812  0.0802 -0.2649  0.1019
12578W        W16878   7.125   1.110  31.772  0.0338 -0.3987  0.1128
12579W        W16879  20.426   6.024   8.838  0.1838  0.0625 -0.1412
12580W        W16880   9.487   3.918   2.677  0.2403  0.1002  0.1753
12581W        W16881  17.943   1.895   8.599  0.0167 -0.1194  0.0041
12582W        W16882  11.092   0.590   9.176  0.1036  0.2001 -0.2777
12583W        W16883  11.975   0.460  16.597  0.0542  0.1284 -0.1815
12584W        W16884   9.159   5.408   9.452  0.2989 -0.2194 -0.1267
12585W        W16885  18.043   0.793  19.337  0.3507  0.0022 -0.3961
12586W        W16886   3.445   6.025  33.620 -0.1707  0.0732 -0.0146
12587W        W16887  16.440   3.775   6.156 -0.0811  0.0880  0.0776
12588W        W16888   1.519   2.538  32.613  0.0270 -0.1884 -0.0186
12589W        W16889  13.140   1.244  39.781  0.2269  0.0278 -0.0764
12590W        W16890  16.910   2.614  41.648  0.0469  0.1127 -0.2638
12591W        W16891   1.129   2.670  12.610  0.2239 -0.0795 -0.0351
12592W        W16892   5.262   6.552   0.579  0.0012  0.1292 -0.5214
12593W        W16893  17.322   2.926  13.312 -0.0149 -0.3759 -0.1261
12594W        W16894   2.624   0.374  35.897 -0.0709 -0.1957 -0.3207
12595W        W16895  17.376   5.058  34.574 -0.2050  0.0045  0.2823
12596W        W16896   3.566   3.267  41.450  0.2550  0.0669  0.1231
12597W        W16897  20.112   0.457  13.858 -0.0799  0.1364  0.2492
12598W        W16898   5.213   4.066   1.207  0.1189 -0.1894  0.2180
12599W        W16899  11.712   5.496  11.684  0.0577 -0.2400  0.0497
12600W        W16900  11.107   0.179  17.650  0.1384 -0.0308 -0.2019
12601W        W16901   9.066   3.761  28.376 -0.2164 -0.1417  0.3290
12602W        W16902   9.251   0.892  11.672  0.1109 -0.1242 -0.3744
12603W        W16903  18.456   0.337  44.664  0.3102 -0.1208 -0.2400
12604W        W16904  11.540   0.886   7.397 -0.0704  0.0698 -0.0230
12605W        W16905  17.762   0.922  16.643 -0.1555  0.0491  0.2668
12606W        W16906  20.781   4.642  39.045 -0.2455 -0.2968  0.1796
12607W        W16907   5.802   5.778  22.988 -0.0082  0.0470 -0.1896
12608W        W16908  10.155   3.926  28.341 -0.3394 -0.1164  0.2166
12609W        W16909  12.722   1.407   2.896 -0.1848  0.1424 -0.3183
12610W        W16910   7.113   5.133  15.500 -0.0539  0.0050 -0.1800
12611W        W16911  17.401   3.753  39.414 -0.1619  0.0445  0.0735
12612W        W16912   4.725   1.982  28.646  0.1841 -0.2649  0.1012
12613W        W16913   7.949   5.611   0.182  0.2528  0.1671 -0.1025
12614W        W16914   6.778   5.240  29.487  0.0542  0.0428 -0.1152
12615W        W16915   6.290   2.310  13.616 -0.1047  0.2171 -0.0920
12616W        W16916  18.178   4.589  44.975 -0.1060 -0.2652 -0.1394
12617W        W16917  11.153   1.927  26.641  0.0182 -0.0874 -0.1780
12618W        W16918   6.124   5.455  38.365 -0.0208 -0.1184 -0.2953
12619W        W16919  18.127   2.105  11.208 -0.1150 -0.0367 -0.0891
12620W        W16920   6.474   5.083  28.739 -0.1283  0.1326  0.1828
12621W        W16921  20.271   4.403  33.813  0.2573  0.4165  0.1790
12622W        W16922   3.275   2.567  41.647 -0.1250  0.3858  0.0118
12623W        W16923   9.363   5.395   0.613 -0.0423 -0.0997 -0.1946
12624W        W16924  12.633   1.709   8.424 -0.0636  0.3202 -0.1812
12625W        W16925   7.986   5.000  30.796 -0.0523  0.0300 -0.3570
12626W        W16926  15.719   5.631   6.917 -0.1342 -0.0233  0.0561
12627W        W16927   8.008   4.656  25.448  0.1338  0.0067  0.0517
12628W        W16928   8.590   0.813   8.448 -0.1400  0.1395  0.3657
12629W        W16929   1.722   5.454   7.982 -0.0795  0.2213 -0.0160
12630W        W16930   7.461   2.947  39.558 -0.1275  0.0747  0.3271
12631W        W16931   2.420   0.378  34.766  0.1836 -0.1187 -0.2256
12632W        W16932   3.946   4.791  28.830 -0.0655  0.2497  0.0985
12633W        W16933  19.843   2.727  28.421 -0.1657 -0.0050  0.3343
12634W        W16934  13.048   2.862  36.776 -0.1525  0.2904 -0.2453
12635W        W16935   3.368   4.933   2.702 -0.0818  0.0963 -0.3065
12636W        W16936  20.006   4.912  18.886  0.2771  0.3124  0.0443
12637W        W16937  18.829   5.446  36.905  0.0312 -0.2842  0.2816
12638W        W16938   4.097   1.978  15.671 -0.2304 -0.1525  0.2934
12639W        W16939   9.718   4.488  16.924 -0.2665  0.1821  0.1936
12640W        W16940   7.435   4.536  22.274 -0.2258  0.0156  0.1126
12641W        W16941   4.755   4.453  36.620  0.2994  0.0219  0.0415
12642W        W16942  11.691   6.501  33.659  0.0340 -0.1617 -0.1124
12643W        W16943   4.710   3.285  14.362 -0.1586  0.0113 -0.1099
12644W        W16944  19.684   4.236  21.419 -0.3180  0.1258 -0.3174
12645W        W16945  10.698   6.005  41.133  0.3880 -0.2418 -0.2151
12646W        W16946  17.032   0.155   0.839 -0.2294  0.1622  0.1173
12647W        W16947   9.763   4.197  30.224 -0.0701 -0.3619  0.2170
12648W        W16948   2.889   1.620   7.945  0.0500  0.0564 -0.0424
12649W        W16949   3.465   2.624   5.807  0.0629 -0.2444  0.0268
12650W        W16950  18.656   4.289  43.465  0.0092 -0.1277  0.3314
12651W        W16951   3.592   5.915  39.784  0.0585 -0.1913  0.0129
12652W        W16952   3.059   4.571  16.104 -0.1150 -0.1522  0.2146
12653W        W16953  15.014   0.526  39.218  0.0236  0.4365 -0.0704
12654W        W16954   6.448   2.261  30.796  0.3277  0.5166  0.1297
12655W        W16955   1.010   5.501  13.043  0.2094  0.2958 -0.0521
12656W        W16956  20.659   3.864   7.302 -0.1513 -0.0907  0.2363
12657W        W16957  20.065   4.646   7.033  0.3170 -0.0371 -0.1855
12658W        W16958  19.606   2.544  33.587 -0.1029  0.1478  0.0142
12659W        W16959  14.564   0.876  43.918  0.3524  0.1028 -0.0057
12660W        W16960  18.355   6.215   2.982  0.2099  0.3587 -0.2234
12661W        W16961  20.814   3.519   1.612  0.1517  0.1104  0.1667
12662W        W16962   3.079   0.729  36.013  0.1636  0.1768  0.1352
12663W        W16963  10.894   1.506  34.009 -0.0742 -0.3342  0.0221
12664W        W16964  17.230   4.943  15.197 -0.1997 -0.0866 -0.2324
12665W        W16965  18.991   4.693  40.334 -0.1110 -0.0353 -0.0960
12666W        W16966   9.949   1.587  31.777 -0.1153  0.0862 -0.0019
12667W        W16967   5.508   1.763  20.615  0.1943  0.0616  0.1589
12668W        W16968  12.416   1.970  19.302 -0.2885  0.0959  0.0007
12669W        W16969   2.889   5.387  31.475 -0.1210 -0.1304  0.0210
12670W        W16970   7.631   4.972  40.237 -0.0147  0.0021 -0.2267
12671W        W16971  11.915   6.479  34.360 -0.1593  0.2962 -0.2895
12672W        W16972  16.554   0.033  21.795  0.1073 -0.5124  0.1477
12673W        W16973   2.833   1.413  44.155 -0.3201  0.1276 -0.1269
12674W        W16974  17.703   2.655  19.915  0.0248  0.0866  0.1282
12675W        W16975  20.091   6.393   4.029  0.1473 -0.1501  0.0153
12676W        W16976  12.745   0.993  31.990 -0.1497  0.2883 -0.1164
12677W        W16977   2.267   6.488   9.542 -0.4081  0.1321  0.1065
12678W        W16978   9.411   4.421  35.925  0.0050  0.0892  0.0295
12679W        W16979  20.553   4.249   6.946 -0.0144  0.2248  0.1927
12680W        W16980   5.247   2.039  30.462 -0.0750 -0.0136 -0.0079
12681W        W16981  16.038   1.473  38.619 -0.0990  0.1307 -0.3142
12682W        W16982   3.933   0.850  41.689 -0.0780  0.1582 -0.0556
12683W        W16983   0.280   4.436  28.156 -0.2139 -0.0506 -0.0886
12684W        W16984   3.469   4.413   8.689 -0.3412 -0.0159 -0.0662
12685W        W16985  15.238   1.727  34.167  0.2775  0.0698  0.4330
12686W        W16986  11.739   0.287  12.706  0.1619  0.2097 -0.3368
12687W        W16987   2.274   2.915  26.809 -0.1047  0.0659  0.2463
12688W        W16988  18.967   5.157  43.958  0.0273 -0.1158 -0.1356
12689W        W16989   6.355   1.242  22.976  0.0078  0.0454 -0.1524
12690W        W16990   4.923   4.457  14.779 -0.1691 -0.0332 -0.0079
12691W        W16991  13.970   1.886   4.684 -0.0784  0.2139  0.3117
12692W        W16992  17.935   6.105  18.414 -0.0655  0.1143  0.0991
12693W        W16993   8.248   5.520  26.530  0.1834  0.5498  0.1862
12694W        W16994  13.970   3.899   0.569 -0.0815  0.1610 -0.2548
12695W        W16995  17.963   0.674   8.009  0.0382 -0.0009  0.0436
12696W        W16996   3.756   4.942   0.188  0.2735 -0.0799  0.1469
12697W        W16997   3.314   1.154  29.775 -0.0733  0.2492  0.0488
12698W        W16998  17.637   1.485  14.948 -0.0447  0.0079  0.2546
12699W        W16999   7.587   3.900  14.464 -0.2573  0.0593 -0.0243
12700W        W17000  12.050   1.016  18.533 -0.1126 -0.0801 -0.2390
12701W        W17001  14.676   3.794   7.959  0.1269 -0.0856  0.0589
12702W        W17002  15.212   2.429  38.048  0.1037  0.0346  0.0479
12703W        W17003   6.278   5.331   7.828  0.2212  0.0781 -0.1718
12704W        W17004  19.536   5.378  41.320  0.0235  0.0824  0.1590
12705W        W17005   6.848   0.678  14.685  0.1479 -0.0112 -0.1284
12706W        W17006  12.806   0.195  44.698  0.1386  0.1424 -0.1592
12707W        W17007  18.662   6.363  41.886  0.1575  0.0204  0.1205
12708W        W17008   3.195   1.659  12.715  0.3696 -0.0409 -0.1027
12709W        W17009   7.256   0.189  25.681  0.0996  0.2452  0.0561
12710W        W17010  20.418   6.357   6.761  0.0479  0.0869  0.5014
12711W        W17011   0.793   3.033   3.619  0.1708  0.0501  0.1052
12712W        W17012  12.128   5.677  15.847 -0.1708 -0.0847 -0.1415
12713W        W17013  17.121   2.725  11.047 -0.2345  0.0106 -0.1633
12714W        W17014   2.682   1.191  42.695  0.0494  0.0906 -0.1639
12715W        W17015   6.459   1.231  10.560  0.0943 -0.1940 -0.0157
12716W        W17016  20.244   6.074  19.922 -0.0155 -0.0803 -0.0834
12717W        W17017   5.567   0.983  33.271  0.1725  0.2981  0.0142
12718W        W17018   7.358   5.369  40.354 -0.0875 -0.4112  0.1157
12719W        W17019   9.447   6.561  29.632 -0.0731  0.2288 -0.1041
12720W        W17020  17.992   3.885  33.337 -0.0128  0.0156 -0.0549
12721W        W17021  19.582   3.586  12.715 -0.0657  0.1182 -0.1074
12722W        W17022  15.779   0.689  10.473  0.2491  0.1192  0.0474
12723W        W17023   7.851   1.958  42.636  0.0444 -0.0294 -0.1295
12724W        W17024   1.986   0.792  14.961 -0.0660  0.1272 -0.2001
12725W        W17025  16.485   5.206   6.302  0.0659 -0.1844 -0.0494
12726W        W17026  20.149   3.939  37.008 -0.1673 -0.2055 -0.2056
12727W        W17027  11.849   5.023  33.312 -0.1559 -0.0761 -0.0017
12728W        W17028   1.721   3.864  14.366  0.2004 -0.0385  0.0437
12729W        W17029  11.026   3.653  11.217 -0.0857 -0.0354  0.0467
12730W        W17030   6.212   3.522  21.304  0.1164 -0.0717 -0.0577
12731W        W17031  10.367   0.766  35.547 -0.1512  0.3052 -0.0691
12732W        W17032  13.615   3.364  42.290 -0.0195  0.1085 -0.2197
12733W        W17033  12.515   6.541  19.889 -0.1121  0.1621  0.0530
12734W        W17034  14.131   3.086  38.658 -0.0446 -0.4026  0.1365
12735W        W17035   9.948   1.086   2.217  0.0036  0.1308  0.0154
12736W        W17036  15.335   5.994   6.024  0.0382 -0.3847  0.3262
12737W        W17037   9.137   2.066  10.389 -0.0270  0.2636 -0.0482
12738W        W17038  17.099   6.192  38.265 -0.0741  0.1470 -0.0658
12739W        W17039  18.425   4.557  44.131 -0.2776  0.1880  0.0081
12740W        W17040   6.710   2.866  21.198  0.2974 -0.0094  0.0378
12741W        W17041  20.535   1.121  32.273 -0.1189  0.0883 -0.0381
12742W        W17042   4.416   4.597  39.271  0.1746 -0.1111 -0.1655
12743W        W17043   4.264   5.841   1.314 -0.2453  0.1439 -0.1095
12744W        W17044   9.813   4.389  15.338 -0.0279 -0.1423  0.1207
12745W        W17045   1.897   3.537  34.727  0.0955 -0.1729 -0.0023
12746W        W17046   4.252   6.412  30.873 -0.1312  0.1311  0.0294
12747W        W17047  19.505   0.347  15.603  0.0646  0.4462 -0.1318
12748W        W17048   6.040   1.130   5.815 -0.0256 -0.0058  0.1076
12749W        W17049  15.104   6.240  15.797 -0.2327 -0.0573  0.1150
12750W        W17050   4.818   0.958  21.979 -0.0784 -0.1011  0.0008
12751W        W17051   2.516   1.135  35.539  0.1437  0.3601 -0.0300
12752W        W17052   6.318   4.938   6.527  0.2545  0.3966  0.1823
12753W        W17053   5.979   1.457  16.565  0.2294 -0.0956  0.0539
12754W        W17054   2.820   0.370  30.780 -0.0760  0.4359  0.1819
12755W        W17055   8.729   5.330   2.805 -0.1773  0.1567 -0.0299
12756W        W17056  14.614   6.135  28.764  0.0593  0.1518  0.1818
12757W        W17057   9.911   2.398  13.495  0.1225  0.0011 -0.1931
12758W        W17058  15.822   4.707   1.249 -0.0202 -0.0227  0.0176
12759W        W17059   6.661   3.962  36.664  0.0948  0.2196 -0.0851
12760W        W17060   8.693   3.376  29.004 -0.0750 -0.1389  0.0394
12761W        W17061  13.119   4.537  14.455 -0.1744  0.1119 -0.2534
12762W        W17062   6.068   4.690   4.161  0.1104 -0.2016  0.2401
12763W        W17063  15.086   2.886  31.436  0.0183 -0.0471  0.0193
12764W        W17064  18.640   1.008  20.174 -0.0043  0.0322  0.0073
12765W        W17065  18.838   2.276  31.949 -0.2633 -0.1506  0.2265
12766W        W17066   7.221   2.531  38.135 -0.2196  0.0135  0.1030
12767W        W17067   0.200   5.662  13.161 -0.0671  0.0404  0.1452
12768W        W17068  17.518   1.321   5.377 -0.0732 -0.0142  0.5248
12769W        W17069   1.356   0.337  42.956  0.1141  0.0283  0.0071
12770W        W17070  18.751   5.189   4.172  0.0779  0.0129  0.2764
12771W        W17071   0.793   1.362  10.685 -0.1907 -0.4836  0.0117
12772W        W17072   2.180   1.945   7.179 -0.0804 -0.0870 -0.0823
12773W        W17073  16.324   1.338  25.048 -0.0424  0.3012 -0.2562
12774W        W17074   6.627   5.318  39.319  0.4518  0.3783  0.0464
12775W        W17075   6.055   5.550  43.826  0.2183 -0.0505 -0.1096
12776W        W17076  10.571   3.290  16.745 -0.0474  0.1429 -0.1731
12777W        W17077   6.799   1.630  43.032  0.3647  0.2425 -0.0365
12778W        W17078   5.809   6.008   0.691  0.2026  0.0660 -0.0198
12779W        W17079  15.077   0.379   8.448 -0.0552 -0.0804  0.3385
12780W        W17080   9.347   3.187  35.135  0.2871 -0.0179 -0.0446
12781W        W17081  16.449   2.261  10.856 -0.1583 -0.0036 -0.0389
12782W        W17082  16.236   1.418   1.146  0.0417 -0.1252  0.2642
12783W        W17083   0.313   6.094  34.097  0.2680 -0.0826  0.0843
12784W        W17084   5.596   5.463   9.102 -0.1711 -0.1787  0.0614
12785W        W17085   3.370   5.624   6.001  0.0949 -0.0827 -0.0569
12786W        W17086   5.290   3.383  24.864 -0.0006 -0.0788 -0.1036
12787W        W17087  20.250   3.165  14.947 -0.0393 -0.1917 -0.1142
12788W        W17088   0.185   5.824   2.050  0.1969  0.3261 -0.0002
12789W        W17089  17.435   1.455  17.318  0.0172 -0.0154  0.0460
12790W        W17090   7.070   3.587  11.659 -0.3668 -0.0323  0.1307
12791W        W17091  21.031   3.435  30.308  0.2138 -0.0040 -0.4787
12792W        W17092  10.550   4.827  26.713 -0.1573  0.0291 -0.4261
12793W        W17093   8.406   2.336  35.227 -0.0521 -0.0201  0.0888
12794W        W17094  10.530   2.381  27.821 -0.2978 -0.0643 -0.0216
12795W        W17095  17.114   3.362   4.937  0.1763  0.2065  0.3448
12796W        W17096   5.907   4.202  43.968  0.1427  0.2345 -0.0669
12797W        W17097   7.813   1.331  16.088 -0.2506  0.0580 -0.0388
12798W        W17098  11.472   1.331  43.743 -0.0098  0.1957 -0.0126
12799W        W17099   0.789   5.686  25.894 -0.0864 -0.2327  0.0757
12800W        W17100   0.055   1.403  36.781  0.0007 -0.2499  0.0853
12801W        W17101   2.737   6.570   8.187 -0.0322 -0.0095 -0.2751
12802W        W17102  21.066   1.070  37.092  0.5866 -0.2514  0.1214
12803W        W17103   9.532   0.952   7.709 -0.2347  0.2284  0.1885
12804W        W17104   5.849   5.046  10.939  0.1607  0.1528  0.1141
12805W        W17105   5.195   3.869  34.543 -0.3434 -0.1240 -0.2812
12806W        W17106   3.913   3.811  44.617  0.0261  0.0949  0.1171
12807W        W17107  10.302   0.328   5.164  0.3500  0.0490 -0.1302
12808W        W17108   0.056   4.406  15.282 -0.0518 -0.0722  0.1590
12809W        W17109   0.813   5.658  26.925 -0.3687 -0.4191 -0.0301
12810W        W17110   9.770   4.533   5.717 -0.0839  0.0487  0.1516
12811W        W17111  15.081   4.468   6.322  0.3166 -0.1982 -0.0121
12812W        W17112   6.846   4.615  32.446  0.2516 -0.1442  0.2419
12813W        W17113  20.375   2.148  38.704 -0.0495 -0.4917 -0.3999
12814W        W17114   1.312   4.640  36.809  0.1793  0.4326 -0.0133
12815W        W17115  20.997   0.585   3.007 -0.1948 -0.0476  0.0292
12816W        W17116  19.501   6.030  43.909  0.2194 -0.3930  0.4274
12817W        W17117   3.776   2.084  35.704 -0.3257  0.3095 -0.0804
12818W        W17118  14.636   6.523   7.930 -0.1872  0.0988  0.0416
12819W        W17119   2.116   3.644  31.650  0.2487  0.2842 -0.1320
12820W        W17120  10.379   6.193  12.760 -0.1419 -0.1883 -0.1104
12821W        W17121  10.901   3.711  35.647  0.2985  0.3255  0.1977
12822W        W17122   4.243   1.278  11.093 -0.4850 -0.2051 -0.1492
12823W        W17123  17.211   1.778  40.632 -0.0220  0.4494 -0.1241
12824W        W17124  16.644   3.194  24.561 -0.0409  0.1279 -0.1048
12825W        W17125  19.461   5.076  35.403  0.3158 -0.1886  0.2221
12826W        W17126   3.667   2.004  10.677 -0.3313  0.2527  0.3369
12827W        W17127   1.417   3.482  12.949 -0.4970  0.0787  0.0504
12828W        W17128   8.986   0.260   1.711 -0.1615  0.2400  0.3416
12829W        W17129   5.242   0.340  38.214  0.1817 -0.0339  0.0234
12830W        W17130  14.883   4.184  22.239  0.1282  0.3424  0.2964
12831W        W17131  17.658   1.690  22.184  0.3299 -0.2532 -0.0646
12832W        W17132  15.401   1.102   1.972  0.0869 -0.0153  0.2456
12833W        W17133   0.567   5.921  37.179  0.2535  0.1154 -0.2656
12834W        W17134   1.262   5.280  14.428  0.0090  0.1878 -0.3162
12835W        W17135   9.433   0.336  13.538  0.0386 -0.0631  0.3007
12836W        W17136   3.497   0.332  14.166  0.3127 -0.2343 -0.2100
12837W        W17137   4.299   2.983  31.591  0.0744  0.5032  0.1585
12838W        W17138   6.556   2.278   5.673 -0.3087  0.1072  0.0317
12839W        W17139   0.209   0.827  34.285  0.0113 -0.0573  0.1362
12840W        W17140   7.301   0.673  34.547  0.1367  0.1383 -0.2250
12841W        W17141   9.479   4.529   6.439  0.1828 -0.1708 -0.3640
12842W        W17142   2.085   3.446  25.480  0.3939 -0.2866  0.0326
12843W        W17143  16.798   4.559  15.125  0.0147 -0.0180 -0.0375
12844W        W17144  11.567   1.107   4.693 -0.1778 -0.0449 -0.2517
12845W        W17145  17.991   3.586  22.503 -0.1048  0.0899 -0.0496
12846W        W17146  10.639   6.567  31.636  0.4059  0.1851  0.0264
12847W        W17147  16.675   1.136  17.138 -0.2246  0.1390  0.2003
12848W        W17148  10.629   5.395  39.654 -0.0926 -0.1016 -0.0247
12849W        W17149  18.172   3.784  34.081 -0.1510 -0.3417 -0.1584
12850W        W17150   8.403   3.258   4.988  0.1436  0.0057  0.1709
12851W        W17151  19.415   2.315  28.344 -0.0432 -0.0256 -0.1279
12852W        W17152  13.044   6.039  29.207  0.2708  0.1408  0.1334
12853W        W17153   4.912   1.260  23.481  0.4827 -0.1797 -0.0528
12854W        W17154  19.906   1.001  17.566 -0.1190  0.2366 -0.0191
12855W        W17155   4.948   1.029  31.981 -0.0503 -0.3647  0.1122
12856W        W17156   3.421   5.336  44.133 -0.4369 -0.0566 -0.1219
12857W        W17157  20.019   0.282  33.383  0.0680  0.3095  0.1071
12858W        W17158  18.637   0.818  10.616  0.3068  0.0340 -0.0561
12859W        W17159   0.055   2.025  36.116  0.0952  0.0157  0.1735
12860W        W17160   9.081   2.951  32.513  0.1068  0.3858  0.1574
12861W        W17161   3.569   4.515   2.983 -0.0761  0.2375  0.1044
12862W        W17162  14.675   6.134  19.074 -0.0856 -0.1401  0.2787
12863W        W17163  12.781   2.098  15.224  0.0840 -0.1658 -0.1026
12864W        W17164  10.945   5.314   3.787  0.1424  0.0003 -0.0713
12865W        W17165   9.731   0.750  12.405  0.1032 -0.2011  0.0078
12866W        W17166  12.824   4.700   8.754  0.1434  0.1614 -0.0069
12867W        W17167   5.340   6.564  42.541  0.1250 -0.0244  0.1179
12868W        W17168  16.119   6.140  30.414  0.1535  0.0932 -0.0217
12869W        W17169  11.976   4.302  39.684  0.0532  0.0739  0.0079
12870W        W17170  13.944   5.886  16.814  0.2104 -0.1567  0.1863
12871W        W17171  14.073   4.348  28.668  0.1538 -0.0288  0.2361
12872W        W17172   8.726   0.807   7.367  0.1756  0.2602 -0.1048
12873W        W17173   3.638   3.458  42.822  0.3957  0.3417  0.2718
12874W        W17174  17.956   5.750   3.605 -0.1588 -0.0595  0.1505
12875W        W17175  13.264   5.192  12.043  0.2237  0.2334  0.1016
12876W        W17176   9.456   6.517   3.659 -0.0417 -0.2360  0.0796
12877W        W17177   2.532   3.947  40.818  0.2165 -0.2242  0.2236
12878W        W17178  10.701   1.179  12.372 -0.1291 -0.1456  0.0077
12879W        W17179  14.221   3.635  29.116 -0.2175 -0.0949 -0.0812
12880W        W17180   1.310   4.357  17.895  0.2164 -0.0756 -0.0794
12881W        W17181   5.774   5.964  44.025 -0.0488  0.0152  0.0480
12882W        W17182  20.533   5.186  13.104  0.1000 -0.1948  0.1684
12883W        W17183  10.300   4.321  12.824 -0.1001  0.2359  0.3982
12884W        W17184  15.932   2.510  19.079  0.0612  0.1352  0.3369
12885W        W17185  19.770   4.959  12.722 -0.2096 -0.1787  0.1782
12886W        W17186  20.720   6.042   4.564 -0.0447  0.2830 -0.0795
12887W        W17187  13.228   3.229   1.687 -0.1580 -0.0774  0.0455
12888W        W17188  16.061   5.469   8.009  0.2241  0.0926  0.0394
12889W        W17189  10.720   6.567  27.173 -0.0831 -0.0557 -0.0347
12890W        W17190   1.804   2.658   8.810 -0.1174 -0.0979  0.3719
12891W        W17191   7.376   2.361   4.895 -0.0622 -0.2027 -0.1358
12892W        W17192   4.173   6.498  40.691  0.3848 -0.1932 -0.1837
12893W        W17193   9.003   2.031   8.438  0.1084  0.2630 -0.1077
12894W        W17194   2.926   3.521  35.391  0.2314 -0.0857  0.1321
12895W        W17195  12.219   5.343  33.129  0.0047  0.1082 -0.1079
12896W        W17196  11.269   5.821   1.400 -0.0165 -0.0749 -0.2164
12897W        W17197  13.639   1.409   5.536  0.0758 -0.1279  0.2384
12898W        W17198   3.163   6.274   9.157  0.2183  0.2425 -0.0018
12899W        W17199   1.676   5.357   8.998 -0.0815 -0.2873 -0.0041
12900W        W17200   4.777   4.527  38.601  0.0686 -0.0146  0.2021
12901W        W17201  12.838   2.444  43.111 -0.3502  0.0539  0.1045
12902W        W17202  12.253   0.387  34.368  0.3724  0.0517 -0.0527
12903W        W17203  18.406   6.072  21.190 -0.3339  0.1302  0.1205
12904W        W17204  20.391   6.348   0.219 -0.1062 -0.2364 -0.0911
12905W        W17205  12.649   1.993  43.054 -0.0158 -0.1297  0.2063
12906W        W17206  15.220   2.789   8.693  0.0227  0.2168  0.1033
12907W        W17207  13.050   4.783  34.164  0.0157  0.0846  0.0800
12908W        W17208   2.070   1.601  26.342 -0.0352 -0.0324  0.0800
12909W        W17209   6.633   2.915   9.397  0.5695  0.2104 -0.2585
12910W        W17210   5.778   5.319   8.051 -0.0287 -0.1027 -0.0801
12911W        W17211  12.427   0.640  11.959 -0.2529 -0.1360 -0.0795
12912W        W17212  21.132   0.603  12.113  0.0325  0.1470  0.0950
12913W        W17213   7.621   3.934  36.947  0.1801  0.0401  0.0511
12914W        W17214  20.250   5.393  36.693 -0.3976  0.0616  0.2313
12915W        W17215   1.279   2.340   1.279  0.0030  0.0439  0.2889
12916W        W17216  11.510   3.756   1.214 -0.1460  0.2275  0.3118
12917W        W17217  15.282   3.837   5.735 -0.2601  0.1304  0.1922
12918W        W17218   6.581   1.469  29.215 -0.1419 -0.0492  0.0701
12919W        W17219   8.594   1.569  42.781  0.0589  0.0055  0.0485
12920W        W17220   5.827   0.019  44.631 -0.3336  0.0109  0.0756
12921W        W17221   5.712   1.483  39.221  0.1922 -0.2647  0.0741
12922W        W17222   8.208   5.901  16.176 -0.2399  0.3099  0.1839
12923W        W17223   4.047   0.646  36.238  0.1627 -0.1976  0.1389
12924W        W17224   9.289   5.975  40.817  0.1569  0.0687  0.0191
12925W        W17225   0.542   4.327  28.836 -0.2307  0.0724  0.0513
12926W        W17226  11.821   6.296  29.843 -0.0616  0.0932  0.0796
12927W        W17227  11.760   6.105  17.114 -0.1752  0.2582 -0.0159
12928W        W17228  13.187   4.419  30.761 -0.0663  0.3166 -0.0043
12929W        W17229   6.742   4.575  42.487  0.2934 -0.1719 -0.3923
12930W        W17230  16.384   3.230  40.124  0.0735 -0.0164  0.2613
12931W        W17231  12.179   3.180  39.393 -0.1943 -0.0999 -0.1433
12932W        W17232   8.688   1.686  13.869 -0.2126  0.2813 -0.2342
12933W        W17233   5.647   1.668  42.043 -0.2105 -0.1003  0.2865
12934W        W17234  14.001   4.701  29.712 -0.1860  0.4839  0.0498
12935W        W17235   3.585   0.127  42.439 -0.2003  0.2129  0.1168
12936W        W17236  11.834   5.544  13.996 -0.1168 -0.2523 -0.1721
12937W        W17237   7.654   2.491  13.250 -0.0534  0.0263 -0.2282
12938W        W17238   6.097   1.354  28.209 -0.0365  0.2012 -0.2418
12939W        W17239   1.983   5.478   3.028 -0.1088 -0.3348  0.1061
12940W        W17240  18.384   3.103  41.313  0.0277  0.0427  0.2514
12941W        W17241  12.500   4.210  15.979 -0.1088 -0.0491  0.1123
12942W        W17242  14.386   4.845  35.730  0.0125 -0.0967  0.0662
12943W        W17243  13.720   4.393  18.976 -0.0031 -0.0943  0.3355
12944W        W17244  20.836   4.733   7.776 -0.0151 -0.1536 -0.2171
12945W        W17245  13.106   1.799  17.941  0.1625 -0.0211 -0.5645
12946W        W17246  17.042   3.848   0.799 -0.2240  0.2828  0.0185
12947W        W17247  17.198   1.585   6.137 -0.1989 -0.4176 -0.1364
12948W        W17248  16.627   5.998  10.735 -0.4776  0.1795  0.0350
12949W        W17249   9.415   2.720  29.168  0.2469  0.4731 -0.1868
12950W        W17250  11.756   1.958  18.080  0.0732 -0.0314 -0.4545
12951W        W17251  17.491   5.376   4.350 -0.0519 -0.0580 -0.0990
12952W        W17252  12.464   3.162  14.733  0.0187  0.0865  0.2336
12953W        W17253  19.690   4.078  40.093 -0.0413  0.0816  0.0799
12954W        W17254   8.828   6.472   5.897  0.0690 -0.0615 -0.1512
12955W        W17255   3.275   4.019  33.425  0.0900 -0.0633  0.1980
12956W        W17256   2.933   6.343  35.356  0.0443  0.1391 -0.1782
12957W        W17257   6.523   1.352  22.057 -0.1966 -0.1522  0.1648
12958W        W17258  17.734   5.731  16.152 -0.0370  0.0428 -0.1072
12959W        W17259  20.588   2.787  33.560  0.1019  0.1653 -0.2861
12960W        W17260   9.945   6.422   4.074  0.1921  0.1738 -0.1013
12961W        W17261   3.077   6.089  42.053  0.0561  0.0454  0.3354
12962W        W17262  19.619   6.122  10.992 -0.0533  0.2218 -0.1667
12963W        W17263  12.037   1.728   2.905 -0.0537  0.0925  0.0083
12964W        W17264  15.245   6.537  43.160 -0.1266 -0.0076 -0.0927
12965W        W17265  13.136   3.078  18.973 -0.0100 -0.0637 -0.0826
12966W        W17266  16.774   4.835   6.322  0.1335 -0.0123  0.0665
12967W        W17267   0.429   1.374  40.967 -0.0301 -0.1724 -0.1933
12968W        W17268  11.652   5.850  43.376  0.1137 -0.0134 -0.0345
12969W        W17269  14.890   3.628  21.500  0.1302 -0.0776  0.0744
12970W        W17270   4.203   6.201   1.714 -0.2535  0.2283 -0.0681
12971W        W17271  12.233   4.324  32.813 -0.1556 -0.0359  0.0966
12972W        W17272  19.098   6.019  19.154  0.0548  0.3296  0.2842
12973W        W17273   2.829   2.086   3.194  0.1146  0.0085 -0.0498
12974W        W17274  17.211   2.800  32.420 -0.2967 -0.0747 -0.3091
12975W        W17275  19.151   0.871   3.938 -0.0254  0.1330  0.0997
12976W        W17276   0.175   6.461  45.025 -0.0725 -0.0769 -0.3703
12977W        W17277   5.481   3.125  43.599 -0.0753 -0.2042  0.2019
12978W        W17278   1.951   1.357  35.550  0.0463  0.1318  0.0471
12979W        W17279  19.793   0.125   3.081 -0.1224  0.0428 -0.1270
12980W        W17280  20.744   0.385  15.126  0.2004 -0.2553  0.0764
12981W        W17281  10.515   3.302  36.429  0.0302 -0.1781  0.3615
12982W        W17282  10.766   6.196  27.615  0.0156 -0.0755 -0.1329
12983W        W17283  19.735   0.165  14.165 -0.0177 -0.2840  0.2499
12984W        W17284  17.143   0.700  14.925  0.0577 -0.3296 -0.1861
12985W        W17285  18.301   3.876  11.374 -0.1055  0.1955  0.1197
12986W        W17286  19.766   5.205  29.258  0.1163  0.1939  0.1983
12987W        W17287   5.818   1.359   6.149  0.1137 -0.1247  0.0852
12988W        W17288  15.726   0.490  28.476  0.1892 -0.2115  0.0405
12989W        W17289   4.545   4.232  23.138  0.0595 -0.1450 -0.0867
12990W        W17290   8.021   6.141  15.010  0.2285  0.2806  0.0616
12991W        W17291  17.649   0.201  44.554 -0.1070 -0.0282  0.0772
12992W        W17292   8.995   3.292   2.524  0.3429 -0.2831  0.1411
12993W        W17293  10.270   1.859  34.559  0.0499  0.1763  0.0173
12994W        W17294  19.718   0.102  38.029 -0.2277  0.0053  0.1425
12995W        W17295   2.744   1.949  28.994  0.1359  0.2524 -0.0805
12996W        W17296  13.878   0.614  42.551  0.0744  0.1794 -0.0444
12997W        W17297  14.757   3.195   4.938 -0.0278  0.2055  0.2415
12998W        W17298   7.675   5.820  32.047 -0.2173  0.0758  0.4135
12999W        W17299   0.031   3.184  39.466  0.0662 -0.1685  0.1947
13000W        W17300  13.032   5.615  12.076 -0.0939  0.0259  0.0511
13001W        W17301  17.259   0.019   8.411  0.1278 -0.1032 -0.1212
13002W        W17302  19.688   0.703   5.505 -0.1932 -0.1018  0.1206
13003W        W17303  10.555   1.495  33.609  0.1672 -0.1331  0.1056
13004W        W17304   7.303   0.717   0.728  0.1791 -0.2814  0.0833
13005W        W17305  13.650   4.151  34.576  0.0768  0.1260 -0.1012
13006W        W17306   7.768   1.715   0.784 -0.3720 -0.2394 -0.0108
13007W        W17307   7.395   5.163  41.170  0.0593 -0.2107  0.0962
13008W        W17308   8.090   3.825  37.238 -0.1599 -0.0536  0.0101
13009W        W17309   5.774   0.812  10.094 -0.3816 -0.1410  0.2315
13010W        W17310  19.893   2.540  37.103  0.3189 -0.2859  0.1574
13011W        W17311   1.325   5.587  31.839 -0.3099  0.0235 -0.2721
13012W        W17312  20.666   3.162  13.494  0.2100 -0.0069  0.4150
13013W        W17313  11.200   5.490   6.188 -0.4320 -0.2932 -0.0100
13014W        W17314   5.228   5.761  28.791 -0.1135 -0.1548  0.0845
13015W        W17315   6.459   3.519  12.487  0.1397 -0.3156  0.0857
13016W        W17316  15.820   4.649   5.880 -0.3822 -0.2818  0.0849
13017W        W17317   4.914   3.166  29.104 -0.0688 -0.0060 -0.1900
13018W        W17318  12.161   0.353  40.455 -0.0014 -0.0557  0.0882
13019W        W17319   5.808   5.597   4.687 -0.1449  0.1313 -0.2410
13020W        W17320  21.114   0.836  10.108  0.2193 -0.1580 -0.0280
13021W        W17321  17.925   2.239   2.839 -0.0109 -0.2727  0.2676
13022W        W17322  13.022   1.682  33.672  0.1338 -0.0252 -0.0476
13023W        W17323  14.826   0.391  21.062 -0.0833  0.0409  0.1851
13024W        W17324   8.241   3.928  26.554  0.1324 -0.2018 -0.1701
13025W        W17325  19.128   0.380  34.418  0.0477  0.1037  0.1143
13026W        W17326  10.873   3.976  39.411  0.0042  0.0407 -0.0285
13027W        W17327   0.861   5.110  35.426  0.1362  0.1470  0.0675
13028W        W17328  20.384   3.118  18.657 -0.0374 -0.3241 -0.2050
13029W        W17329   4.744   2.915  31.165 -0.1612 -0.2070 -0.2251
13030W        W17330   2.072   0.750  34.761 -0.1394  0.0721  0.2219
13031W        W17331  10.180   4.840  34.137  0.0580  0.0292 -0.0836
13032W        W17332   4.629   3.114  37.814  0.1180  0.2383  0.2190
13033W        W17333   3.607   0.378  43.386  0.0261  0.0455 -0.0908
13034W        W17334  15.081   0.227  35.688 -0.0662  0.0434  0.0673
13035W        W17335  13.004   1.810  40.525  0.2036 -0.2142  0.0406
13036W        W17336  14.216   5.062  17.229 -0.2117 -0.0529  0.1544
13037W        W17337  10.048   0.104  28.460  0.0472  0.1844 -0.0455
13038W        W17338  10.325   4.574  42.887  0.2434  0.0060  0.1596
13039W        W17339  13.764   6.126  15.672 -0.3070 -0.1112  0.0978
13040W        W17340   0.547   1.309  12.845  0.0128 -0.0191 -0.0900
13041W        W17341  17.551   4.943  12.178  0.0472  0.0709  0.3830
13042W        W17342   5.142   1.822  10.218 -0.0151 -0.0297 -0.1383
13043W        W17343   8.168   3.610  33.959 -0.0808  0.0752  0.0316
13044W        W17344   8.404   2.538  34.756 -0.0268 -0.2442  0.1640
13045W        W17345  20.489   6.306  34.318 -0.1393  0.0538  0.0924
13046W        W17346   5.831   4.364   9.609 -0.0071 -0.0885 -0.1261
13047W        W17347   3.717   2.154  41.812 -0.1423  0.0473 -0.1715
13048W        W17348  12.378   1.012   6.541  0.0482  0.2508 -0.0334
13049W        W17349  18.957   2.582  41.692 -0.0260  0.2691 -0.1744
13050W        W17350   7.437   4.269  28.189  0.3588 -0.1052 -0.0157
13051W        W17351  13.525   4.411  20.581  0.1591 -0.0244 -0.1019
13052W        W17352  16.214   3.930   0.182  0.2112 -0.2931 -0.1228
13053W        W17353  19.304   5.940  13.954  0.2096  0.1158  0.0560
13054W        W17354   4.726   2.261  36.519 -0.1643  0.0970 -0.1879
13055W        W17355  12.215   1.410  39.329 -0.2607  0.0334  0.1296
13056W        W17356  16.755   3.226   3.320 -0.3442  0.3745 -0.1127
13057W        W17357   8.808   2.119   7.446 -0.3287 -0.0776 -0.1715
13058W        W17358  14.501   0.842   6.421 -0.0501  0.0727 -0.1265
13059W        W17359  10.336   4.668  38.908  0.3228  0.1985 -0.0138
13060W        W17360   2.801   6.004  12.389 -0.2758  0.1936 -0.1623
13061W        W17361   5.789   0.899   1.733  0.1557 -0.2524  0.1366
13062W        W17362  15.964   4.034  38.888  0.2614  0.1352 -0.0181
13063W        W17363   1.880   1.454  34.811 -0.0778 -0.0495  0.0334
13064W        W17364   4.536   4.604   0.480  0.0871 -0.1405 -0.0704
13065W        W17365   3.459   4.251  15.473  0.0638 -0.0767 -0.1927
13066W        W17366  10.608   3.200  28.114  0.0045  0.1773  0.1973
13067W        W17367  18.073   3.914   5.266  0.0147 -0.2551  0.1678
13068W        W17368  15.082   5.718   2.377 -0.0515  0.0051  0.0004
13069W        W17369  18.855   0.207  40.184 -0.0853  0.1241  0.0194
13070W        W17370   2.416   5.952  42.381 -0.0581  0.0709  0.1882
13071W        W17371   5.995   0.919  43.412 -0.1546  0.0879  0.2554
13072W        W17372   2.347   6.189  29.926  0.2921  0.0189  0.1123
13073W        W17373   4.065   6.524  25.335  0.0581  0.2997 -0.1378
13074W        W17374  19.821   5.112  37.712 -0.0290 -0.1336  0.0073
13075W        W17375   7.151   6.050  34.367  0.0759 -0.1837  0.2049
13076W        W17376   4.412   5.089  34.189 -0.1662 -0.0879 -0.1685
13077W        W17377   3.995   2.749   7.275 -0.2727  0.1477  0.0404
13078W        W17378   3.605   1.235  31.817  0.3000  0.3053  0.1268
13079W        W17379  11.600   3.549   4.922 -0.0525 -0.1493 -0.0653
13080W        W17380   3.334   1.532  11.361 -0.0779  0.2649 -0.1859
13081W        W17381   6.431   2.347  44.084 -0.1904  0.2503 -0.1558
13082W        W17382  17.388   4.815   1.769 -0.0450  0.2989  0.1502
13083W        W17383   9.256   5.342  38.412  0.0665  0.4326 -0.0246
13084W        W17384   2.224   4.096  29.813  0.0938  0.2611 -0.0549
13085W        W17385   5.372   6.298  28.420  0.1366  0.2132 -0.2702
13086W        W17386  16.403   4.808   2.545  0.2400 -0.1160 -0.1787
13087W        W17387  14.627   5.503  37.047 -0.0689  0.0994 -0.1018
13088W        W17388  11.616   2.018  10.038  0.0036  0.2597 -0.2714
13089W        W17389   6.846   0.511  43.090 -0.0548  0.1014 -0.0630
13090W        W17390   1.780   5.082  28.266  0.0816 -0.1789 -0.3005
13091W        W17391  11.136   5.988  44.641 -0.3518  0.1533 -0.0168
13092W        W17392   9.617   1.653  45.007  0.1455  0.1171 -0.2158
13093W        W17393   6.731   2.636  28.884  0.0514  0.1996  0.0135
13094W        W17394   3.217   3.425   4.681  0.0918  0.1773 -0.1869
13095W        W17395  20.279   1.806   1.649  0.3447 -0.4559 -0.2058
13096W        W17396  12.642   3.782   4.521  0.1791  0.1039  0.2747
13097W        W17397   2.199   3.495  15.788 -0.2412 -0.1235 -0.0711
13098W        W17398   9.224   1.790  31.088 -0.0155  0.1350  0.2779
13099W        W17399   0.627   2.042  30.876 -0.0374  0.1950  0.0156
13100W        W17400   8.447   3.834  38.924  0.2356  0.0021  0.1812
13101W        W17401  12.030   1.200  38.894  0.1871 -0.0717 -0.0951
13102W        W17402   1.966   0.668   5.945  0.1171  0.0054  0.0451
13103W        W17403   6.268   2.686   1.153 -0.0960 -0.1476  0.0923
13104W        W17404   4.638   0.386  21.950  0.2636  0.0441 -0.2802
13105W        W17405  19.374   5.206  44.367  0.0863  0.0149  0.0214
13106W        W17406  16.552   3.698  23.295  0.2649  0.1188  0.0398
13107W        W17407  16.567   2.640  14.594 -0.1453 -0.0265 -0.1172
13108W        W17408   8.959   5.213  15.137 -0.1232 -0.1241  0.1792
13109W        W17409  11.850   1.148  30.174 -0.0902  0.1017 -0.0997
13110W        W17410   7.108   2.277  37.291  0.1992  0.0773  0.0385
13111W        W17411   9.499   4.832  13.189 -0.4019 -0.4128 -0.1315
13112W        W17412  13.494   5.826   5.453 -0.2398  0.0437 -0.3224
13113W        W17413  15.910   6.030  22.020 -0.0333  0.0002 -0.2075
13114W        W17414   7.320   2.536  21.899  0.1900 -0.1734 -0.1428
13115W        W17415  20.380   5.513   8.293 -0.2140  0.0200 -0.2940
13116W        W17416   2.477   5.459  32.825  0.1994 -0.5483 -0.3291
13117W        W17417  10.279   5.280   0.381  0.1920 -0.0623 -0.2224
13118W        W17418   5.187   3.673   8.586  0.5774  0.0636 -0.1030
13119W        W17419   5.287   2.393  39.544 -0.1152 -0.1023 -0.3783
13120W        W17420   4.480   2.035   4.838  0.1135  0.0613  0.0555
13121W        W17421   5.140   3.411  25.414 -0.2692  0.0825 -0.2049
13122W        W17422   4.355   0.657  38.431 -0.1877  0.0877 -0.1892
13123W        W17423  11.137   4.427  34.816 -0.0809  0.2402  0.0233
13124W        W17424   9.237   3.339   4.688  0.1738  0.0519 -0.4177
13125W        W17425   6.631   6.385  14.221  0.1455 -0.0866 -0.1235
13126W        W17426   9.544   0.339  35.947  0.1731 -0.0406  0.1008
13127W        W17427  17.578   5.388  40.341  0.1522  0.0080 -0.0848
13128W        W17428   7.949   4.083  39.678 -0.2132 -0.1481 -0.1900
13129W        W17429  11.674   3.009  37.933 -0.2523 -0.0768  0.0987
13130W        W17430  17.330   6.216  19.692 -0.1791 -0.3093  0.0759
13131W        W17431  20.392   3.705  38.253 -0.0023  0.0125  0.1150
13132W        W17432  16.209   3.524  24.866  0.1245 -0.2151  0.0225
13133W        W17433   8.162   3.665  34.452 -0.0373 -0.0601 -0.0964
13134W        W17434  19.697   1.955   4.749 -0.3344 -0.3539 -0.1415
13135W        W17435   3.084   6.576  29.323 -0.2023  0.0753  0.0542
13136W        W17436   9.543   4.976   3.084 -0.1061  0.0010 -0.0325
13137W        W17437  19.645   6.008  16.538  0.2085  0.1922  0.0089
13138W        W17438  19.973   2.906  12.281 -0.0647 -0.0258  0.0376
13139W        W17439   1.566   1.920   9.362 -0.0163 -0.1812  0.0216
13140W        W17440   9.164   2.129  43.711 -0.0374  0.2130 -0.0673
13141W        W17441  15.914   5.523   4.446  0.1879  0.0880 -0.0948
13142W        W17442   3.976   1.367  35.234  0.1792  0.2007 -0.1294
13143W        W17443   3.292   5.863  32.652 -0.3301  0.0823  0.0721
13144W        W17444   8.663   2.619  33.997  0.0660 -0.1425 -0.1700
13145W        W17445   6.248   3.057   9.695  0.1244 -0.1121  0.2353
13146W        W17446   7.103   2.190  15.712 -0.2172  0.2935 -0.4054
13147W        W17447  14.861   0.781   3.235 -0.2391  0.0287 -0.0313
13148W        W17448   6.498   4.833  10.569  0.1113 -0.1683  0.0956
13149W        W17449  10.672   2.819  34.293  0.0151  0.0337  0.1779
13150W        W17450  19.762   0.079  13.629  0.2967 -0.2305  0.0064
13151W        W17451  20.842   4.690  36.134  0.0849  0.3098  0.1756
13152W        W17452  15.737   2.544   2.978  0.0053  0.0472 -0.4069
13153W        W17453  17.175   4.303  13.521 -0.0907 -0.0593  0.2430
13154W        W17454  10.174   4.376   7.786 -0.3861 -0.2892  0.0960
13155W        W17455   8.061   5.908  31.181 -0.0488  0.2411 -0.0829
13156W        W17456   0.124   3.806  15.137 -0.1387  0.1013 -0.1751
13157W        W17457  17.677   3.469  10.882 -0.2914  0.0093  0.0640
13158W        W17458  11.333   2.216  13.581 -0.1236 -0.0153  0.0870
13159W        W17459  11.123   2.447  26.525 -0.0737 -0.0770  0.0081
13160W        W17460  12.536   2.645  14.815 -0.0174  0.0345 -0.1700
13161W        W17461  10.301   4.736  17.175 -0.1745 -0.2296 -0.1061
13162W        W17462   5.480   0.218   4.088  0.1392 -0.0858 -0.0224
13163W        W17463   3.583   1.480  41.021 -0.5021 -0.1507 -0.0041
13164W        W17464   2.198   4.281   5.589 -0.0165 -0.1232 -0.0579
13165W        W17465  14.099   0.172  13.582 -0.0417 -0.0920  0.1502
13166W        W17466  18.038   3.784  37.446 -0.0960 -0.3979 -0.2411
13167W        W17467  17.121   2.282  18.541  0.1406 -0.0873  0.0472
13168W        W17468  12.801   4.820   3.987  0.0484  0.0402 -0.3480
13169W        W17469   5.781   2.811  23.641  0.3259 -0.0510 -0.2493
13170W        W17470   4.872   3.133   4.230  0.3555 -0.2215  0.0490
13171W        W17471   6.151   4.871  28.397  0.1671 -0.1285  0.0797
13172W        W17472  20.616   6.295  11.766 -0.0313 -0.1392 -0.2875
13173W        W17473  18.409   3.458  41.754  0.2365 -0.1908  0.1143
13174W        W17474   6.313   1.294  13.279 -0.1507 -0.0306 -0.0559
13175W        W17475   3.686   4.711  33.194 -0.2172 -0.1475  0.3324
13176W        W17476   2.737   0.711  28.307  0.1152 -0.1532  0.2853
13177W        W17477   2.588   2.018  14.142  0.2437 -0.0686  0.0751
13178W        W17478  15.048   2.939  37.710  0.2268  0.1234 -0.1483
13179W        W17479  13.270   6.297  33.085 -0.0766  0.1136  0.0383
13180W        W17480   9.332   1.470  42.558 -0.0676  0.3025 -0.3062
13181W        W17481  17.135   0.182  14.503  0.1837 -0.2281  0.0465
13182W        W17482  21.113   2.839   0.658 -0.2542  0.0068 -0.1461
13183W        W17483  15.928   3.551  17.476  0.0710  0.0496 -0.2030
13184W        W17484  10.323   5.757   1.993  0.1161  0.0582  0.1650
13185W        W17485   2.803   4.685  38.310 -0.0728 -0.1223 -0.1021
13186W        W17486   8.407   0.777  24.262  0.2177  0.0729 -0.1182
13187W        W17487   2.860   2.945  37.562  0.0244  0.0504  0.0995
13188W        W17488   1.528   5.367   4.047 -0.2000 -0.1560 -0.1143
13189W        W17489   1.677   1.745  29.445  0.0077  0.0900 -0.2405
13190W        W17490   6.015   4.427  31.692  0.0724 -0.0230  0.2759
13191W        W17491  14.672   2.974  40.025 -0.0679 -0.0131 -0.0801
13192W        W17492  10.391   6.117  33.417 -0.0680 -0.1455 -0.2199
13193W        W17493   2.436   3.341  34.366  0.0892 -0.2199 -0.1012
13194W        W17494  12.397   2.877   8.711  0.2521  0.0697  0.2671
13195W        W17495   0.022   4.440   1.598  0.1378  0.0760 -0.0109
13196W        W17496   1.472   0.971   4.249  0.1222  0.0357 -0.0024
13197W        W17497  10.751   6.115  35.311  0.1546  0.1236 -0.0527
13198W        W17498  14.447   5.787  38.897  0.0920 -0.1034  0.5809
13199W        W17499   1.804   3.229  40.946  0.1041 -0.4037  0.0540
13200W        W17500   5.016   0.993   9.947  0.1275  0.4475 -0.3021
13201W        W17501  17.003   0.802  39.645  0.2904  0.0769 -0.0439
13202W        W17502   0.304   1.100  31.802  0.3682  0.0099 -0.3092
13203W        W17503   3.123   2.669  33.590  0.0301 -0.0781  0.2211
13204W        W17504  11.569   3.545   5.914 -0.0657 -0.0435 -0.0859
13205W        W17505  21.053   5.532  34.185  0.1435 -0.0608 -0.0682
13206W        W17506  16.595   1.854  21.207 -0.0586 -0.2960 -0.0639
13207W        W17507   1.367   4.234  44.376  0.2293  0.1943 -0.1154
13208W        W17508  14.684   5.507   5.013  0.2855  0.1922 -0.0562
13209W        W17509   5.663   2.470  10.038 -0.0653  0.0305 -0.1000
13210W        W17510   5.013   2.209  26.572  0.0774  0.1381 -0.2987
13211W        W17511   9.453   4.471  34.276 -0.0217  0.1455  0.2758
13212W        W17512   6.089   0.074  31.712 -0.3959  0.0415 -0.0289
13213W        W17513   6.931   1.628   7.356  0.0348 -0.1360 -0.0864
13214W        W17514   2.391   6.102  26.961 -0.0124 -0.0555  0.0216
13215W        W17515  14.026   1.086  42.601  0.1717  0.0842 -0.1554
13216W        W17516   0.154   1.093  38.221 -0.0734  0.0873  0.0650
13217W        W17517   8.883   0.412  16.676  0.1020 -0.0779  0.0102
13218W        W17518   0.794   3.770   8.162 -0.1856  0.1564 -0.2966
13219W        W17519  15.204   6.120   6.491 -0.0564  0.0281 -0.1304
13220W        W17520  19.167   4.890  17.429  0.1097 -0.0689 -0.0453
13221W        W17521  13.960   2.698  41.685 -0.1604  0.3721 -0.1268
13222W        W17522   6.910   4.815  24.093  0.1081 -0.3380  0.0585
13223W        W17523  12.387   5.925  41.319  0.2112 -0.3679 -0.0160
13224W        W17524  15.855   3.826  12.387  0.0711 -0.0656 -0.0102
13225W        W17525  14.353   0.636  28.801 -0.2050 -0.0938  0.0924
13226W        W17526  20.464   6.606  36.570 -0.0049 -0.0746 -0.1973
13227W        W17527  11.753   2.897   1.382 -0.2499  0.0137 -0.1339
13228W        W17528  10.379   2.392   6.874  0.1190  0.1381 -0.0269
13229W        W17529   7.871   0.099  38.573 -0.0268 -0.0141 -0.1353
13230W        W17530   4.212   6.217   3.739 -0.0274 -0.3114 -0.2730
13231W        W17531  17.073   0.221  18.172  0.1544 -0.1429 -0.0387
13232W        W17532  20.421   4.069  40.918 -0.2709 -0.0040  0.1058
13233W        W17533  12.807   0.422  10.925 -0.0339  0.0537 -0.2338
13234W        W17534  14.949   1.007  21.484  0.1651 -0.2088  0.2156
13235W        W17535   0.923   2.865  35.830 -0.1608  0.0486  0.2427
13236W        W17536  14.609   4.277  22.689  0.1082 -0.1279  0.0371
13237W        W17537  15.217   3.307  32.874 -0.0413  0.0039 -0.2285
13238W        W17538  17.244   6.166  34.606 -0.2190  0.1201 -0.1079
13239W        W17539   9.674   2.863  26.838  0.1074  0.3442 -0.4610
13240W        W17540   3.296   1.019   6.150 -0.2969  0.5285  0.0483
13241W        W17541  11.032   5.014  34.571 -0.2906  0.1837 -0.0628
13242W        W17542  20.472   0.965  31.511 -0.0667 -0.1223 -0.1276
13243W        W17543   6.757   3.419  32.549  0.1724  0.1823  0.0417
13244W        W17544   5.376   0.616   9.856  0.0377 -0.2691 -0.0246
13245W        W17545   4.774   2.136  30.585 -0.1740 -0.1582  0.0294
13246W        W17546  14.091   2.736  21.294  0.2142 -0.3136  0.1229
13247W        W17547   8.923   1.248  11.779 -0.0896  0.0157 -0.1477
13248W        W17548   4.411   1.177  13.612 -0.4988 -0.0550  0.2699
13249W        W17549   8.877   6.212   1.494  0.0974  0.1112  0.2592
13250W        W17550  14.302   0.972  16.563 -0.0922  0.0645  0.0066
13251W        W17551  19.663   0.111   1.165 -0.2152 -0.0694 -0.3865
13252W        W17552   4.298   1.622  34.979 -0.1112  0.2225  0.0482
13253W        W17553  12.515   0.310  39.872 -0.1988  0.3323  0.0539
13254W        W17554  15.073   2.471  18.147 -0.1269 -0.0315 -0.1170
13255W        W17555   7.797   1.420  28.207  0.0569  0.0985 -0.0341
13256W        W17556   1.500   4.278  40.599 -0.2900  0.1611 -0.1191
13257W        W17557  15.187   1.878  11.775  0.1568 -0.0669  0.0595
13258W        W17558   1.518   4.785   1.577 -0.2343  0.0238  0.0626
13259W        W17559   8.537   3.576   0.743  0.0951  0.3184  0.0794
13260W        W17560   5.833   5.957   3.757  0.0296  0.0844  0.0493
13261W        W17561   2.519   1.496   1.390  0.3632 -0.0631 -0.3094
13262W        W17562  19.592   4.727  35.785  0.2297 -0.1418 -0.1219
13263W        W17563  15.120   5.881  40.872  0.3099 -0.2059 -0.2883
13264W        W17564   3.101   6.364   8.544 -0.0571  0.0551  0.1206
13265W        W17565   8.584   3.067  27.755  0.2055  0.0977  0.0281
13266W        W17566  17.376   4.360   5.022 -0.0416  0.1682 -0.0222
13267W        W17567   9.203   1.079  39.370  0.3049  0.0002  0.2733
13268W        W17568  18.746   0.933  14.880 -0.0306 -0.0322 -0.3920
13269W        W17569  12.300   2.141  11.892 -0.1561  0.0809  0.2659
13270W        W17570  19.514   6.115   7.387  0.0492  0.2147  0.0626
13271W        W17571  19.323   0.404  13.891  0.2441  0.0763  0.1513
13272W        W17572   6.605   3.333  11.165 -0.0868  0.1686  0.0218
13273W        W17573  20.029   1.445  12.201  0.1134  0.0136  0.0601
13274W        W17574  15.715   0.023  21.183 -0.1107  0.2419 -0.0041
13275W        W17575   0.296   4.879  44.333 -0.0699  0.1556  0.1306
13276W        W17576  11.810   0.724  38.136  0.1939  0.0414 -0.0255
13277W        W17577   4.640   5.298  23.166 -0.0886  0.0844  0.2540
13278W        W17578  11.057   5.574  33.023  0.2305 -0.1936  0.1631
13279W        W17579   1.477   5.043  30.702 -0.1083 -0.1178 -0.0422
13280W        W17580   2.569   4.642  25.998 -0.1325 -0.0840 -0.1955
13281W        W17581  17.070   0.583  13.594 -0.0378 -0.0662  0.1534
13282W        W17582   2.282   4.694  34.887  0.3824 -0.1321  0.0109
13283W        W17583  20.319   5.721  17.097  0.1055 -0.3454 -0.0250
13284W        W17584   3.957   5.023  27.946  0.1382 -0.0020 -0.0235
13285W        W17585  14.320   2.916  42.934  0.1919 -0.0072  0.0855
13286W        W17586   6.268   0.136  43.961 -0.2346 -0.1319  0.0920
13287W        W17587   4.904   2.008  11.694 -0.0263  0.0087 -0.1245
13288W        W17588  19.124   3.888   4.797 -0.2251 -0.1984 -0.1833
13289W        W17589   2.095   4.968  13.964  0.1309 -0.0754  0.1920
13290W        W17590   6.939   1.147  29.407  0.1075  0.3005  0.2361
13291W        W17591   2.080   2.213  35.228  0.2118  0.1023 -0.3091
13292W        W17592   8.484   6.080   1.902  0.3597  0.1384 -0.2437
13293W        W17593   6.548   4.944  15.022  0.1355 -0.3967 -0.3075
13294W        W17594   6.927   2.815   9.953  0.2059 -0.0334 -0.0031
13295W        W17595   7.059   2.427  31.389  0.0375  0.1613 -0.1591
13296W        W17596   7.440   5.930  42.945  0.0460 -0.0108  0.2294
13297W        W17597   4.079   5.379  41.445 -0.1614 -0.0384 -0.0364
13298W        W17598   0.885   4.981  41.582  0.1505 -0.2490  0.1229
13299W        W17599   6.759   0.331   9.283 -0.2905  0.0658 -0.0578
13300W        W17600   4.326   6.329  11.015  0.1188  0.2288  0.3249
13301W        W17601  10.157   2.860   0.019 -0.2468  0.1292 -0.0708
13302W        W17602  11.274   4.406   3.020  0.0481 -0.4057 -0.0804
13303W        W17603  17.241   4.638   3.934 -0.1968  0.0137  0.0904
13304W        W17604  16.284   3.862  44.330  0.1324  0.2501  0.0095
13305W        W17605   5.225   2.793  43.878  0.1335  0.0081  0.0262
13306W        W17606   0.140   0.688  14.224  0.0943  0.2201  0.3619
13307W        W17607   4.922   0.458  13.006  0.0936  0.0208 -0.3945
13308W        W17608  16.744   3.727   9.831 -0.0125  0.1703  0.0266
13309W        W17609   2.697   3.424  24.610  0.1739  0.1377 -0.0986
13310W        W17610   4.600   1.677  38.496  0.0952  0.1416  0.1410
13311W        W17611  12.254   3.760   6.925  0.0756 -0.4476 -0.2181
13312W        W17612  10.300   5.470   8.567  0.1555  0.2585 -0.1602
13313W        W17613   7.564   2.556  37.435  0.0410  0.2484 -0.2309
13314W        W17614   9.017   0.947  25.803 -0.0830  0.3565  0.1621
13315W        W17615  19.342   1.141   7.969  0.1277  0.4054 -0.2490
13316W        W17616  12.739   5.472  28.152 -0.0813 -0.0162  0.0314
13317W        W17617  18.146   2.639   6.236 -0.2444  0.2461 -0.0870
13318W        W17618   5.659   6.587  34.107 -0.1664 -0.2720  0.1418
13319W        W17619   3.080   4.717   8.730  0.0252  0.0707 -0.1971
13320W        W17620   2.257   3.220  34.854  0.2776  0.2407  0.0748
13321W        W17621   4.664   5.016   1.366 -0.0564 -0.3759 -0.0489
13322W        W17622  11.376   3.569   5.455  0.0878 -0.1066  0.2381
13323W        W17623  15.689   6.159  35.719  0.0000 -0.0083  0.1987
13324W        W17624   3.065   5.612  36.124 -0.2421 -0.0406  0.1198
13325W        W17625  13.656   6.030  14.599 -0.2897 -0.2513 -0.0350
13326W        W17626   7.735   0.487  44.355 -0.3000 -0.1025  0.2304
13327W        W17627   9.615   1.646   4.996  0.0630  0.0042  0.1235
13328W        W17628   8.814   3.018   9.358  0.3347  0.1575  0.4509
13329W        W17629   7.449   4.609  34.913  0.2226  0.1664 -0.1377
13330W        W17630  10.068   2.535  30.177  0.1559 -0.0010  0.0759
13331W        W17631   0.508   4.834  12.743 -0.1990 -0.0195  0.0596
13332W        W17632  17.008   2.984  24.370 -0.0556  0.2048 -0.0133
13333W        W17633   9.937   1.222  37.655  0.0433 -0.2225  0.0693
13334W        W17634  10.480   3.887  27.389  0.1169 -0.3330 -0.0185
13335W        W17635  20.334   3.498  11.677 -0.1292 -0.2531 -0.1749
13336W        W17636  11.672   2.681  35.993  0.0569 -0.1233  0.2498
13337W        W17637   8.697   4.522   0.606 -0.2338  0.1054  0.0406
13338W        W17638   4.757   4.901   0.006 -0.0481 -0.1870  0.1708
13339W        W17639   5.691   1.572  11.085 -0.2106  0.0360 -0.1518
13340W        W17640   9.770   4.474  34.728  0.0888 -0.0258  0.1650
13341W        W17641  13.656   5.224  39.114 -0.1241 -0.0376  0.0770
13342W        W17642  17.679   1.490   8.501  0.1553  0.0261  0.2671
13343W        W17643  20.495   5.325   6.726  0.1746 -0.0867 -0.0214
13344W        W17644   3.840   0.567  30.653 -0.0552  0.1059  0.0300
13345W        W17645  10.836   1.558  28.190  0.2681  0.1727  0.2826
13346W        W17646  15.596   3.317  12.381  0.1257 -0.2187  0.2062
13347W        W17647  10.264   0.346  39.784 -0.2921  0.0684  0.0545
13348W        W17648  13.789   0.071  40.761 -0.4712 -0.1611  0.0148
13349W        W17649   1.812   6.255   7.483  0.0010 -0.0006 -0.2297
13350W        W17650   0.670   2.115  33.613 -0.0304  0.0821  0.3951
13351W        W17651  11.519   5.098  37.379  0.1002  0.0610 -0.0361
13352W        W17652   1.081   4.087  26.826  0.0654 -0.2599  0.1401
13353W        W17653   8.863   5.147  29.754 -0.3882  0.0946  0.2860
13354W        W17654  13.613   6.052   7.420 -0.2217 -0.3387  0.0238
13355W        W17655  19.156   1.138  33.716 -0.2206 -0.0581  0.0781
13356W        W17656  14.472   3.811  22.866  0.2042 -0.0519 -0.1942
13357W        W17657  20.551   5.129  38.093  0.1485  0.1884 -0.1600
13358W        W17658  19.211   5.032   6.115  0.1091 -0.1586  0.1824
13359W        W17659   1.135   1.117   9.238 -0.3268  0.3282  0.0286
13360W        W17660  14.413   2.149   2.762 -0.4924 -0.1882  0.1913
13361W        W17661  19.718   6.244  30.635 -0.1268  0.0888  0.2931
13362W        W17662  11.684   6.581  42.212 -0.1383  0.0497 -0.1234
13363W        W17663   9.358   3.851  38.364  0.0337 -0.3583 -0.1959
13364W        W17664   8.575   5.192  12.645  0.0474 -0.0793 -0.0411
13365W        W17665  17.690   0.329  22.477  0.1240 -0.0073  0.0666
13366W        W17666   1.323   0.926  11.782 -0.1359  0.1584 -0.0724
13367W        W17667  11.200   4.424  41.008 -0.1917  0.0938 -0.0334
13368W        W17668   4.152   1.946  26.805 -0.0602 -0.1321 -0.2558
13369W        W17669  18.931   1.080   4.296 -0.0756  0.2004  0.2279
13370W        W17670  13.031   3.605  39.145  0.0725  0.2005  0.0790
13371W        W17671  20.407   0.198  31.994  0.3795 -0.0806  0.3535
13372W        W17672   0.883   0.987  27.943  0.1324  0.2658 -0.0282
13373W        W17673   1.671   6.520  27.881  0.2336  0.1786 -0.4015
13374W        W17674  18.007   5.581   5.453 -0.2386 -0.0086  0.0398
13375W        W17675  16.256   3.655  40.388 -0.0743 -0.2588  0.3786
13376W        W17676   8.498   3.420   5.547  0.0964 -0.3358 -0.1209
13377W        W17677  17.946   3.434  22.993 -0.0793 -0.0753  0.2855
13378W        W17678   5.091   5.473  26.414  0.3917  0.0357 -0.1117
13379W        W17679  11.727   0.317  17.706 -0.1242 -0.0440  0.2547
13380W        W17680   9.594   1.439   2.316 -0.0680  0.0517  0.0611
13381W        W17681  11.217   1.364   9.397 -0.4662  0.1090  0.1431
13382W        W17682  15.695   6.448  40.841  0.2048  0.1459 -0.0996
13383W        W17683  11.716   5.886  14.462  0.2927  0.2331 -0.3995
13384W        W17684  20.227   1.877  18.925 -0.1501  0.0154 -0.0300
13385W        W17685  16.164   4.147  17.733 -0.1029 -0.0103  0.1359
13386W        W17686   7.442   0.027  34.065 -0.3472  0.1208 -0.0339
13387W        W17687   7.934   1.347   7.849  0.0917 -0.3310  0.1223
13388W        W17688  15.024   6.155   7.252  0.0909  0.2899 -0.2322
13389W        W17689  13.581   6.115  35.030 -0.1926  0.0677  0.1208
13390W        W17690  14.555   1.398  38.796  0.2533  0.0660  0.3404
13391W        W17691   0.699   1.700   3.764 -0.5379 -0.1267 -0.2031
13392W        W17692  10.292   2.450   4.076  0.1032 -0.0760  0.0898
13393W        W17693   9.951   0.093  35.211  0.2683  0.1674 -0.0888
13394W        W17694  18.649   4.431   2.694  0.2676 -0.0654  0.4601
13395W        W17695  10.336   6.286  14.072  0.1048  0.2060  0.1613
13396W        W17696  11.214   1.673   3.576 -0.0811 -0.1445  0.0810
13397W        W17697  14.266   5.819  19.136 -0.0067  0.2115  0.2911
13398W        W17698  14.622   2.379  18.948  0.0265 -0.0850 -0.1212
13399W        W17699   3.214   2.032  38.709  0.1194  0.1779  0.3176
13400W        W17700   5.617   2.354  25.873  0.0892  0.1550  0.1623
13401W        W17701   4.551   1.658  10.960  0.0235  0.1629 -0.3419
13402W        W17702  17.345   1.456   8.965  0.0836 -0.0674  0.1510
13403W        W17703   1.032   6.190   3.719 -0.0071 -0.2079  0.3222
13404W        W17704   6.220   0.722   0.878  0.1539  0.0019 -0.0295
13405W        W17705  10.327   3.807  31.475 -0.0151  0.1782  0.4473
13406W        W17706  21.027   6.306   9.910  0.2158  0.1259  0.4873
13407W        W17707   9.375   6.506  39.006  0.1318 -0.1000  0.0349
13408W        W17708  15.523   5.101  13.000  0.0103 -0.1272 -0.0975
13409W        W17709  20.636   2.074  13.959 -0.1041 -0.0577 -0.2265
13410W        W17710   2.565   5.305  11.102 -0.2221 -0.1552  0.1932
13411W        W17711  14.216   3.700  44.213 -0.1582 -0.1102 -0.4240
13412W        W17712   3.043   1.687   2.907  0.0081  0.2686 -0.1705
13413W        W17713   8.642   4.419  38.405 -0.1229 -0.0495 -0.1005
13414W        W17714   9.193   5.671  28.737 -0.0104 -0.0698  0.3442
13415W        W17715  20.629   1.740  14.452  0.2601  0.0552  0.1657
13416W        W17716  19.354   5.465  34.050  0.2129 -0.2652 -0.1495
13417W        W17717  16.858   0.254   9.806  0.0601  0.2240  0.0338
13418W        W17718   1.446   4.964  16.742 -0.1236  0.0215  0.0389
13419W        W17719  12.220   5.729  28.019 -0.0439 -0.0692 -0.2076
13420W        W17720   2.351   1.443   4.852 -0.0361  0.2130  0.1242
13421W        W17721   3.600   3.013  36.609  0.0022 -0.0811 -0.0592
13422W        W17722   9.330   1.280  34.902 -0.3134 -0.0182  0.1263
13423W        W17723  14.768   0.564  37.652 -0.3193 -0.1946 -0.1343
13424W        W17724   4.861   4.353  11.568  0.0926  0.0253  0.0049
13425W        W17725   2.957   0.309  43.529 -0.4055 -0.0860  0.2370
13426W        W17726  13.726   2.600  10.683 -0.0575  0.3093  0.2577
13427W        W17727  19.708   2.964   4.589 -0.4283 -0.1217 -0.0322
13428W        W17728   8.004   2.135  14.546 -0.1864  0.0784  0.0175
13429W        W17729   7.566   1.640   7.624 -0.0327  0.0231 -0.2286
13430W        W17730  15.832   3.971   2.360 -0.2617  0.1226  0.2506
13431W        W17731  15.908   4.030  43.498 -0.1030 -0.1725 -0.1476
13432W        W17732   0.850   5.579  42.498 -0.2247 -0.2471  0.0402
13433W        W17733   2.214   5.069  35.605 -0.4820  0.2483 -0.3290
13434W        W17734   7.732   2.542  41.401 -0.1288 -0.1916  0.2983
13435W        W17735  19.327   3.800  17.451  0.3275 -0.0052  0.1486
13436W        W17736  10.507   3.746  28.664 -0.1676 -0.0269 -0.0548
13437W        W17737   1.681   1.013  43.537 -0.0747 -0.0422  0.2812
13438W        W17738   6.440   3.289  27.108  0.2477 -0.0949  0.2276
13439W        W17739  11.576   5.076  15.394  0.0499 -0.0114  0.0415
13440W        W17740  14.312   4.028   7.625  0.1199 -0.0063  0.0486
13441W        W17741  18.518   4.312   9.988 -0.2087 -0.2970  0.1894
13442W        W17742   2.189   5.633   8.982 -0.1349 -0.0711 -0.1415
13443W        W17743  18.009   5.475  15.629 -0.0245 -0.0667 -0.2968
13444W        W17744   4.647   4.924  14.275  0.2249 -0.0314  0.0364
13445W        W17745   7.490   5.405  21.865  0.1042  0.3735  0.2527
13446W        W17746  11.037   4.243  28.294  0.2487 -0.0580 -0.4285
13447W        W17747  19.771   2.059  42.524 -0.0219  0.4119 -0.1797
13448W        W17748  13.028   1.469  44.222  0.1196 -0.1574 -0.1943
13449W        W17749   0.680   1.646  31.797  0.0684  0.3735  0.0836
13450W        W17750  13.066   5.424  15.564 -0.1678 -0.2399  0.3446
13451W        W17751  14.763   4.688  10.225 -0.3639  0.1420  0.3092
13452W        W17752  18.453   0.602  11.042  0.0053 -0.3218  0.0208
13453W        W17753  19.547   0.494  30.903  0.0452 -0.1048  0.1370
13454W        W17754   5.376   1.205  11.124 -0.0342 -0.0594  0.0099
13455W        W17755   9.013   4.854   8.955  0.0154  0.1943 -0.2905
13456W        W17756  13.235   0.296   1.578  0.1283  0.1756  0.2341
13457W        W17757  19.975   2.260  34.387  0.0359 -0.2079 -0.0993
13458W        W17758  13.392   1.158   0.372 -0.1416  0.1386  0.2469
13459W        W17759   6.384   0.022  39.746 -0.1627 -0.1339  0.0047
13460W        W17760   2.940   4.433  39.318 -0.4565  0.0043  0.0721
13461W        W17761  19.402   4.662  31.638 -0.2114  0.2059 -0.0670
13462W        W17762  11.314   1.754  13.778  0.1190  0.0851 -0.0256
13463W        W17763  13.419   4.881   9.246  0.0590  0.0177  0.1484
13464W        W17764   8.435   4.425  12.323 -0.1167 -0.2112  0.1504
13465W        W17765   5.300   6.334  34.307  0.1815 -0.0244 -0.0989
13466W        W17766   7.707   5.830  40.107 -0.1166  0.1934 -0.0884
13467W        W17767  20.483   1.714  33.164 -0.2714 -0.0796 -0.1133
13468W        W17768  18.777   3.743  39.297  0.1936  0.0937 -0.1697
13469W        W17769  11.447   0.939   6.024  0.1906  0.0539 -0.1164
13470W        W17770  10.195   2.482   8.625  0.1238 -0.2661 -0.1759
13471W        W17771   1.801   6.546   0.054  0.0113  0.2095 -0.2521
13472W        W17772   1.953   0.614  16.303  0.1902 -0.0072  0.0037
13473W        W17773  14.012   2.642  15.797  0.0153  0.0334  0.0713
13474W        W17774   6.702   2.955  25.774 -0.1722 -0.0714  0.1438
13475W        W17775  19.623   1.097  44.022 -0.1415  0.0608 -0.2204
13476W        W17776  14.442   1.107   4.536 -0.0656  0.3227  0.0977
13477W        W17777   0.290   2.187  10.585 -0.1332 -0.1548 -0.0359
13478W        W17778  10.361   5.021   0.907  0.1027  0.0752 -0.0408
13479W        W17779  14.342   0.711  42.773  0.0298 -0.1518  0.0197
13480W        W17780  19.892   4.193   0.046 -0.0818  0.0653 -0.0830
13481W        W17781   3.723   4.943  13.186 -0.2339  0.1851 -0.0463
13482W        W17782  10.257   0.193   3.053 -0.1266  0.0938  0.2257
13483W        W17783  14.861   6.092  38.444 -0.0449  0.0317  0.1030
13484W        W17784  10.445   1.200  42.214  0.0522 -0.0557 -0.1301
13485W        W17785   1.298   0.861  40.753  0.0478 -0.1908  0.0415
13486W        W17786  11.232   2.492  27.415  0.0718 -0.1823  0.0760
13487W        W17787   4.770   2.964  26.257  0.2756  0.0202  0.0074
13488W        W17788   6.206   1.830   0.115  0.1490  0.0373  0.0033
13489W        W17789  17.552   5.731  12.556 -0.1170  0.0976  0.0706
13490W        W17790  16.765   6.050   1.893 -0.0894  0.1331  0.1101
13491W        W17791   6.620   1.712  22.650 -0.0785 -0.0183  0.1373
13492W        W17792  16.073   0.822  42.348 -0.1970  0.2490 -0.0981
13493W        W17793  12.003   3.926  37.814  0.2788 -0.4467  0.1406
13494W        W17794  10.822   1.923   2.791  0.1273  0.0628  0.2661
13495W        W17795  20.884   2.601  16.117 -0.3884 -0.2196  0.1784
13496W        W17796  16.314   6.150  21.721 -0.2312  0.3110  0.1639
13497W        W17797  17.823   4.657   1.921  0.3759 -0.0341 -0.1669
13498W        W17798  15.709   3.260  20.886 -0.0328 -0.1863  0.2304
13499W        W17799   1.265   1.181  16.472 -0.0552 -0.0620 -0.1780
13500W        W17800   3.321   0.762  13.154  0.1593  0.0191  0.0147
13501W        W17801   1.393   2.698   9.714  0.1040  0.2290  0.0456
13502W        W17802   4.903   3.589  40.450 -0.0778  0.0135  0.2341
13503W        W17803  18.644   1.034  31.833  0.2511 -0.2866 -0.2995
13504W        W17804   1.555   1.720  31.883  0.1458  0.2351 -0.1524
13505W        W17805   0.975   4.982  25.677 -0.1042  0.1903  0.1235
13506W        W17806  11.188   2.501  33.804 -0.1883 -0.3893 -0.0748
13507W        W17807  20.918   1.922   5.117 -0.0168  0.3876  0.3579
13508W        W17808   6.796   0.861  23.296  0.0849  0.2123  0.4779
13509W        W17809   5.332   0.769  10.399 -0.1692 -0.0251  0.1620
13510W        W17810   3.170   5.966  26.610  0.3342 -0.0699 -0.1700
13511W        W17811   0.251   0.894  41.763 -0.2085 -0.2285 -0.0553
13512W        W17812  16.090   4.582  18.434 -0.0482  0.3635 -0.1518
13513W        W17813   1.621   6.523  42.273 -0.2562  0.1129  0.1370
13514W        W17814   1.097   5.293   4.233 -0.0620 -0.2812  0.1447
13515W        W17815  14.189   2.931  39.795  0.1061  0.2778  0.1851
13516W        W17816   5.466   1.718  10.644  0.2502  0.0087  0.2357
13517W        W17817   3.793   3.212   7.324  0.2681 -0.0005  0.1227
13518W        W17818  19.015   5.505  33.057 -0.2785  0.3922 -0.0454
13519W        W17819   0.654   1.892  27.568 -0.1159  0.0133  0.1753
13520W        W17820   0.876   1.320  34.925 -0.1342 -0.1140  0.1402
13521W        W17821  18.764   4.070   4.491 -0.1113 -0.2312  0.1233
13522W        W17822  19.711   4.075   1.992 -0.0504  0.0261 -0.1589
13523W        W17823  13.442   5.947  32.034 -0.1267  0.0797 -0.1948
13524W        W17824  16.034   5.319  30.800 -0.4128 -0.1926  0.2064
13525W        W17825  17.527   2.309  35.536 -0.0435  0.1969 -0.1768
13526W        W17826  10.051   3.349  12.016 -0.0063 -0.0662 -0.0380
13527W        W17827   0.186   5.287  17.145 -0.0476 -0.1578  0.0512
13528W        W17828  18.766   5.778  38.082 -0.2203 -0.3712 -0.1095
13529W        W17829  18.172   2.527  10.710 -0.3685  0.1754 -0.0874
13530W        W17830   0.177   5.329  14.470  0.1727  0.0502 -0.0339
13531W        W17831   2.769   2.773  15.593  0.0967 -0.0060 -0.0485
13532W        W17832   7.467   0.985  41.611 -0.0075  0.0365  0.0688
13533W        W17833   2.056   3.623   7.487  0.0457  0.1326 -0.0052
13534W        W17834  10.735   3.168  26.027  0.0635 -0.0128  0.0885
13535W        W17835   9.114   5.308   8.734  0.2690 -0.2667 -0.1761
13536W        W17836  13.679   1.078  43.024 -0.3000  0.1060  0.5723
13537W        W17837  18.629   5.181  31.287  0.2863  0.0658  0.1841
13538W        W17838   3.680   2.368   9.135  0.1741 -0.0422 -0.2088
13539W        W17839  18.367   1.133  10.934  0.1299  0.0192 -0.0991
13540W        W17840   6.307   6.268  39.029 -0.0686  0.1778  0.0444
13541W        W17841  19.610   4.712  16.576  0.0490  0.1694 -0.1647
13542W        W17842  16.129   3.323  32.650  0.1354  0.0522  0.0641
13543W        W17843   5.974   5.512   5.303  0.0397 -0.0998 -0.1058
13544W        W17844  15.716   4.100   3.157 -0.2530 -0.0423  0.2221
13545W        W17845   1.928   3.557  38.093 -0.4990  0.1862 -0.0352
13546W        W17846   9.952   4.929  44.544  0.0759  0.0432 -0.1431
13547W        W17847   9.723   2.873   1.855  0.0601 -0.1890 -0.1323
13548W        W17848   2.830   5.296  45.058  0.0205 -0.1042 -0.0702
13549W        W17849  19.701   5.205   8.867  0.0619 -0.0917 -0.0684
13550W        W17850  11.171   0.432  18.063 -0.1070  0.0685 -0.1499
13551W        W17851   6.498   0.494   4.129 -0.1759 -0.2014 -0.3267
13552W        W17852   7.073   1.814  40.249  0.0397 -0.0141  0.2580
13553W        W17853   9.128   4.599  40.298 -0.0599  0.0579  0.1511
13554W        W17854  19.706   0.482   0.089 -0.0425 -0.1734 -0.0575
13555W        W17855  20.383   0.051  40.748 -0.1127  0.0787 -0.0008
13556W        W17856   7.608   5.417  13.525  0.1342  0.2163 -0.5376
13557W        W17857   7.021   2.802  22.271 -0.1724 -0.0946 -0.1081
13558W        W17858   2.173   0.885   4.976  0.0978 -0.0499  0.2907
13559W        W17859  18.590   6.210  15.100 -0.1925  0.1447  0.0258
13560W        W17860   8.835   2.136  36.902  0.2950 -0.4233 -0.1733
13561W        W17861  11.983   2.909  33.156 -0.0715  0.2922 -0.3819
13562W        W17862   1.454   2.971  16.345 -0.1242  0.2234 -0.2144
13563W        W17863   2.358   3.960  15.902  0.1689  0.0022 -0.0639
13564W        W17864   1.569   2.156  32.103  0.0520 -0.2110 -0.2455
13565W        W17865  19.072   0.896  38.974 -0.0264  0.1150 -0.0773
13566W        W17866  17.753   5.457  14.414  0.1142  0.0299  0.2296
13567W        W17867   7.317   1.865  24.403 -0.0984  0.0932 -0.0779
13568W        W17868   4.563   4.566  34.126  0.0367 -0.0411 -0.2056
13569W        W17869  18.808   4.162  20.547 -0.1710  0.0925  0.3551
13570W        W17870  13.521   1.907   0.677  0.2360 -0.0218  0.0111
13571W        W17871  17.013   1.383  11.321  0.1197  0.0626  0.3772
13572W        W17872   5.247   2.438   6.556  0.1676 -0.2785  0.0640
13573W        W17873  12.118   0.065  33.954 -0.2040  0.1040  0.2262
13574W        W17874  12.809   0.594  15.345 -0.1050 -0.2154 -0.1631
13575W        W17875  18.995   0.373  30.168  0.0432  0.1630 -0.0024
13576W        W17876   2.202   3.071  14.907  0.0059 -0.0008  0.0362
13577W        W17877  15.245   1.510   6.701  0.0165  0.1617 -0.1141
13578W        W17878   6.771   0.144  40.218 -0.0438  0.4740 -0.1309
13579W        W17879   7.668   0.448   8.281  0.1382  0.0156 -0.1101
13580W        W17880   3.978   1.181  33.923 -0.0509  0.0721  0.1918
13581W        W17881  16.143   0.271  19.274 -0.2171  0.0038 -0.1989
13582W        W17882   3.977   3.147  22.198 -0.0945 -0.0544  0.1137
13583W        W17883  11.186   3.870  34.641 -0.2854  0.1518  0.3174
13584W        W17884   6.754   2.941  42.856  0.0273  0.0811  0.0998
13585W        W17885   8.667   1.641  23.961 -0.3365 -0.2084 -0.1221
13586W        W17886   1.215   6.087  39.316  0.0853  0.1619  0.0771
13587W        W17887  13.161   3.708  35.254 -0.0262 -0.0171 -0.2497
13588W        W17888  16.771   1.545  32.072  0.0222  0.1868  0.0136
13589W        W17889   0.759   3.347  39.525 -0.1701  0.0788 -0.0444
13590W        W17890  11.970   1.946   1.262 -0.1807 -0.1268 -0.3485
13591W        W17891  13.774   6.513  14.592  0.1621  0.0425  0.3555
13592W        W17892   4.572   5.231  26.161  0.1047 -0.4113 -0.1843
13593W        W17893  20.154   5.971   9.502 -0.3631 -0.0232  0.1001
13594W        W17894   3.959   0.487  27.672 -0.2482 -0.0661 -0.0036
13595W        W17895   0.509   3.402  27.783  0.0703 -0.1752  0.1972
13596W        W17896  18.649   2.015  19.826  0.0344  0.0107  0.0666
13597W        W17897   6.073   0.045   3.243  0.0580  0.1747 -0.0166
13598W        W17898  17.181   4.277  17.816 -0.0820 -0.0470  0.0470
13599W        W17899  16.117   4.639   4.945 -0.0779 -0.1465  0.1097
13600W        W17900  20.891   6.121  16.132 -0.0754 -0.0412 -0.1177
13601W        W17901   6.192   3.677   9.445 -0.1474 -0.2245 -0.3185
13602W        W17902   4.654   0.713  15.649  0.0183 -0.0098 -0.1036
13603W        W17903  15.635   5.210  23.066 -0.0064  0.0488  0.2958
13604W        W17904   7.903   5.604  16.478 -0.0926 -0.0255 -0.0554
13605W        W17905  10.380   2.813  26.128  0.0738  0.3294  0.0933
13606W        W17906  11.675   1.593  35.174 -0.2089 -0.0352  0.2042
13607W        W17907   4.873   4.899  15.707 -0.1833  0.0158 -0.0901
13608W        W17908   0.131   4.908  14.905  0.0424 -0.1444  0.4524
13609W        W17909  16.513   4.968   3.170  0.1766 -0.1918 -0.2222
13610W        W17910   3.552   2.962  27.682 -0.0027  0.0265  0.1711
13611W        W17911  15.410   5.861  13.385 -0.1763  0.0661 -0.0345
13612W        W17912  18.696   5.390  44.773  0.0176  0.1881 -0.0330
13613W        W17913  13.955   2.875   4.728  0.1050 -0.0593 -0.0967
13614W        W17914   4.792   1.506  27.284 -0.0740  0.0907 -0.1393
13615W        W17915   6.728   5.485  23.554  0.4237  0.4779 -0.0288
13616W        W17916   8.490   4.713  39.250  0.0932 -0.0339 -0.0825
13617W        W17917  14.237   4.017  11.334  0.0338  0.0559  0.1532
13618W        W17918   6.104   5.356  38.855  0.1488  0.0844 -0.0543
13619W        W17919   5.737   5.797  38.352  0.2426  0.0477 -0.0761
13620W        W17920  13.642   6.177  11.700  0.2742 -0.1574  0.1789
13621W        W17921   0.725   4.047   5.109 -0.2263 -0.1356  0.3774
13622W        W17922   5.361   1.230  26.123  0.2649 -0.1077  0.0190
13623W        W17923   3.737   0.015  32.061 -0.1524 -0.0200  0.0591
13624W        W17924  10.905   6.347  44.854  0.1020 -0.1994 -0.2215
13625W        W17925  10.304   4.507  12.283 -0.1487 -0.0465 -0.0443
13626W        W17926   7.917   3.239   3.244 -0.0228  0.1933 -0.0313
13627W        W17927  21.018   0.859  37.897  0.0452 -0.0254 -0.3010
13628W        W17928  18.741   6.044  30.896 -0.0167  0.0349 -0.0269
13629W        W17929   0.111   1.575  28.815  0.1296  0.0669  0.1250
13630W        W17930  10.422   5.188  31.481 -0.5876 -0.2042  0.1598
13631W        W17931  14.740   1.532  42.277 -0.2068  0.2264 -0.0627
13632W        W17932   1.142   5.061  34.465  0.0681 -0.1812  0.2686
13633W        W17933   5.566   0.525   2.215  0.1477 -0.2714  0.0957
13634W        W17934  13.081   2.336   7.070  0.1359  0.1968  0.0564
13635W        W17935   9.937   5.367  14.196  0.1576  0.1444 -0.0041
13636W        W17936  14.501   5.865  29.340  0.3567  0.0355  0.1570
13637W        W17937  15.002   0.627  17.581 -0.0149 -0.1268 -0.0894
13638W        W17938   3.250   6.080  36.853 -0.2394 -0.0923  0.0591
13639W        W17939  18.440   3.472   7.454  0.1275  0.1558  0.4243
13640W        W17940  16.904   5.466  29.756 -0.1969  0.0726 -0.0481
13641W        W17941  17.695   5.841  44.814  0.2939 -0.2210  0.1976
13642W        W17942  13.558   0.201  15.220 -0.2592  0.0593  0.2959
13643W        W17943   5.268   3.183  15.199 -0.1630 -0.1623 -0.0802
13644W        W17944  11.341   0.616   8.586  0.0467 -0.0948 -0.2856
13645W        W17945   5.348   4.795  36.540  0.2062  0.2167 -0.0885
13646W        W17946  10.476   5.232  28.249 -0.0640 -0.0297  0.1957
13647W        W17947   9.436   1.653  10.508  0.2260  0.0331 -0.2625
13648W        W17948   1.194   1.718  26.323  0.0191  0.0638  0.2266
13649W        W17949   8.780   4.940  30.221  0.0502  0.0134  0.0083
13650W        W17950  10.142   5.259  30.934  0.1387 -0.0294 -0.1505
13651W        W17951   9.658   5.058  32.320 -0.1152 -0.1028 -0.0403
13652W        W17952  16.724   1.226  41.479  0.2442 -0.0707  0.3419
13653W        W17953   1.991   1.603  13.053 -0.1543  0.1302 -0.0580
13654W        W17954  20.342   3.226  36.077  0.0859 -0.2241  0.1336
13655W        W17955  18.062   0.064  36.695  0.4962 -0.2353  0.3163
13656W        W17956  16.022   3.762   6.418  0.1611  0.1396  0.1545
13657W        W17957  21.038   2.865  36.341  0.0579  0.0431 -0.0885
13658W        W17958  15.962   3.012  17.046  0.1901 -0.2105  0.0174
13659W        W17959  11.016   6.342   1.377  0.0708  0.1538  0.1117
13660W        W17960  11.941   0.490  43.690 -0.0889  0.0679 -0.2828
13661W        W17961   5.252   5.016  42.943  0.1429  0.1290  0.1666
13662W        W17962   1.201   2.556  14.369 -0.3043  0.0264  0.4330
13663W        W17963  11.268   3.779  10.725  0.1692  0.0226  0.1422
13664W        W17964   8.257   1.338   2.101  0.0275  0.0497 -0.1988
13665W        W17965  14.934   2.791  11.113  0.0752 -0.1781 -0.1313
13666W        W17966   1.561   3.208  33.229  0.1251  0.0095 -0.0894
13667W        W17967   8.779   0.768  33.620  0.1512  0.3043  0.1602
13668W        W17968  16.728   1.773   6.150 -0.1434 -0.2882  0.1789
13669W        W17969  16.820   3.310   1.987 -0.0077  0.1529 -0.2452
13670W        W17970   0.169   5.152  35.781 -0.0046  0.3247 -0.0173
13671W        W17971   2.031   5.978   9.692 -0.1724 -0.1742  0.4409
13672W        W17972  19.793   1.110   6.729  0.0055  0.0179 -0.0051
13673W        W17973  14.874   5.034   7.036  0.0015  0.1579  0.3938
13674W        W17974   5.858   3.670   1.869  0.0178  0.0790 -0.1723
13675W        W17975   3.205   5.330   8.715  0.1355 -0.1461  0.1759
13676W        W17976  15.558   3.060  33.073 -0.2501 -0.0580 -0.0191
13677W        W17977   6.772   1.092  44.880 -0.1863  0.0631  0.0932
13678W        W17978  17.220   4.924   5.920  0.0919  0.2539  0.1891
13679W        W17979   1.426   0.350  26.749 -0.1878  0.2256  0.5646
13680W        W17980  21.147   5.916  31.030 -0.1751  0.3730  0.0705
13681W        W17981  13.470   3.210   8.045 -0.2603  0.0652  0.1447
13682W        W17982  18.915   4.997  45.004  0.1444  0.3329  0.0876
13683W        W17983   6.362   4.184  26.951 -0.2852 -0.0498  0.0420
13684W        W17984   4.131   4.342  28.548  0.0609  0.1835  0.1911
13685W        W17985  15.594   4.091   8.234 -0.2001 -0.0732 -0.1502
13686W        W17986   3.072   5.888  31.634  0.0164 -0.3352  0.0849
13687W        W17987   3.425   3.829  28.575 -0.0741  0.1262  0.1259
13688W        W17988   7.868   5.442  11.340 -0.2127  0.1292 -0.0765
13689W        W17989  12.394   3.581   5.054 -0.2544  0.0994 -0.1669
13690W        W17990   7.196   5.294  41.576  0.0997  0.0418  0.1021
13691W        W17991   6.758   3.891  41.570  0.0362 -0.0435 -0.1760
13692W        W17992  16.283   0.518  37.449  0.0153  0.2368  0.0723
13693W        W17993  12.258   4.761  28.012 -0.3237  0.2600 -0.2602
13694W        W17994  17.699   1.965  14.810 -0.0943 -0.2572 -0.1777
13695W        W17995   0.073   4.979  11.729 -0.1937  0.0238  0.3595
13696W        W17996   9.105   2.314  12.029 -0.0007  0.2616 -0.1275
13697W        W17997  14.119   3.885  32.138 -0.1590 -0.0488  0.2455
13698W        W17998   1.798   6.258  40.446  0.2133  0.1404  0.1783
13699W        W17999  19.626   6.241  37.909  0.1445 -0.1938  0.0647
13700W        W18000   6.453   4.297  32.533 -0.2368  0.1855 -0.1096
13701W        W18001  15.097   3.626  43.875  0.2277  0.0606  0.0771
13702W        W18002   3.535   5.204  40.071  0.1521  0.0233  0.1602
13703W        W18003   9.216   2.898  41.284 -0.0794  0.2387  0.1862
13704W        W18004  14.369   3.809   9.373  0.4106  0.2272 -0.0107
13705W        W18005  14.173   5.018  18.403  0.2711  0.1965  0.1656
13706W        W18006  11.354   3.257  40.396  0.2080 -0.1124  0.0275
13707W        W18007  17.244   3.008  38.165  0.2833 -0.1072 -0.1379
13708W        W18008  16.069   2.453  24.908  0.3317  0.1839 -0.1339
13709W        W18009   7.195   3.107  42.647  0.0920 -0.2339  0.1417
13710W        W18010   8.691   0.747  38.663 -0.0300  0.0688  0.0084
13711W        W18011   3.295   5.094  15.206 -0.1889  0.2063 -0.3338
13712W        W18012  16.922   0.880  16.034 -0.2588 -0.2427 -0.1472
13713W        W18013  12.869   0.805  43.705  0.0451 -0.0738  0.3086
13714W        W18014  21.017   5.282  43.850 -0.0114  0.1227  0.3309
13715W        W18015   4.891   3.504   6.540 -0.3940  0.0010  0.0590
13716W        W18016   5.358   2.435  42.374 -0.3130 -0.0353  0.3308
13717W        W18017  20.592   5.085  11.059 -0.0315  0.0081 -0.0004
13718W        W18018   3.832   4.044  28.899 -0.1734  0.0493  0.1726
13719W        W18019   8.304   3.865  30.213  0.0123  0.1511  0.3005
13720W        W18020  18.797   6.597  14.899  0.2407 -0.1786 -0.0330
13721W        W18021   6.363   1.026  20.782  0.1967 -0.2013  0.1750
13722W        W18022   1.214   1.843  25.362 -0.3324  0.1702 -0.1366
13723W        W18023   1.293   1.634  42.879  0.0774  0.0333 -0.0615
13724W        W18024   5.292   1.227  36.630 -0.2151  0.0036  0.4211
13725W        W18025  10.939   6.080  28.117  0.1465  0.2905  0.0524
13726W        W18026   4.400   0.704  22.304  0.4183 -0.1145 -0.0582
13727W        W18027  10.185   4.575  39.926 -0.0567  0.1446 -0.2456
13728W        W18028  14.429   5.591  32.565 -0.2541 -0.1109  0.1372
13729W        W18029  19.371   0.433  29.128  0.0409 -0.0448  0.1878
13730W        W18030   8.836   4.775   4.638 -0.1752  0.0325  0.0159
13731W        W18031  13.989   0.348   0.316  0.1556  0.2581 -0.0378
13732W        W18032  15.278   5.792  15.166  0.1977  0.2916  0.4058
13733W        W18033  14.302   0.630   9.496 -0.0882  0.1401 -0.0699
13734W        W18034  18.512   5.546  15.625  0.0343 -0.0334  0.0181
13735W        W18035  18.354   5.001  21.653  0.0764  0.0316 -0.0667
13736W        W18036   8.498   5.009  31.444  0.3797  0.1221 -0.0579
13737W        W18037   9.913   2.846  25.879 -0.1714 -0.2197 -0.0737
13738W        W18038  20.623   3.146  17.249  0.0889  0.0302 -0.1344
13739W        W18039  15.607   0.637  34.480  0.1167 -0.0683 -0.0111
13740W        W18040   8.332   6.134  35.118  0.3060  0.0285  0.1209
13741W        W18041  15.576   6.040  36.635  0.0523  0.3158  0.1737
13742W        W18042   2.244   5.843  33.059 -0.0068  0.0336  0.0897
13743W        W18043  20.165   2.996  41.787 -0.1280 -0.0736 -0.1453
13744W        W18044  18.043   1.426  34.421  0.3636 -0.0449 -0.0956
13745W        W18045   5.632   4.272   3.248  0.2556 -0.0742 -0.0400
13746W        W18046  16.629   1.382  33.160 -0.1597 -0.1695  0.2063
13747W        W18047  11.568   4.874  44.142 -0.1742 -0.1665 -0.3654
13748W        W18048  16.748   5.284  23.828 -0.1160  0.4442 -0.0117
13749W        W18049  11.295   6.575  28.702 -0.1758  0.1604  0.2595
13750W        W18050   9.620   5.177  39.316 -0.0640 -0.0782 -0.0697
13751W        W18051   6.579   4.612  21.752  0.0664  0.1327 -0.1429
13752W        W18052   2.289   1.101  15.531 -0.2264 -0.0047 -0.1027
13753W        W18053  20.533   6.016  16.518 -0.1070  0.1762  0.1322
13754W        W18054   7.531   2.286   2.438 -0.2383  0.0221  0.1008
13755W        W18055  12.797   1.403   7.584  0.2219  0.1271  0.0050
13756W        W18056  14.322   0.693  34.314 -0.2071 -0.0839  0.0622
13757W        W18057  10.809   5.354  15.674  0.2050  0.0573 -0.1177
13758W        W18058  18.326   4.877  19.421 -0.1776  0.2934 -0.0818
13759W        W18059  10.112   3.368  40.995 -0.0797  0.0635  0.1010
13760W        W18060  21.076   5.527  30.710  0.2190 -0.1292  0.3758
13761W        W18061  15.690   1.626  42.309 -0.1584 -0.1084  0.0634
13762W        W18062  19.273   0.593  41.528 -0.2720  0.0174  0.1194
13763W        W18063  11.753   4.622  42.323  0.1282  0.2678  0.0941
13764W        W18064  19.774   1.616  34.366 -0.2623 -0.1137 -0.0492
13765W        W18065  11.137   6.021  28.680 -0.0722 -0.1613 -0.0115
13766W        W18066  17.929   3.190  15.073  0.1103 -0.0019 -0.0753
13767W        W18067   4.766   0.543  23.124  0.2466  0.2624  0.1491
13768W        W18068   2.152   6.003  13.437  0.0240 -0.1365 -0.0358
13769W        W18069  20.709   3.019  30.862 -0.0889  0.1645 -0.1753
13770W        W18070   8.354   3.525   6.362 -0.2639 -0.0449 -0.3074
13771W        W18071   2.793   2.660  29.044 -0.0451  0.2139 -0.1047
13772W        W18072  18.739   3.145  44.924 -0.1293  0.1150 -0.1302
13773W        W18073  18.213   5.769  22.223  0.0698 -0.3601  0.1376
13774W        W18074  19.892   1.801  33.823 -0.0371 -0.3257 -0.0245
13775W        W18075   9.390   0.229   4.681  0.0311 -0.1956 -0.0099
13776W        W18076  19.371   1.799  11.501 -0.0600  0.1468  0.0393
13777W        W18077  19.695   1.945  39.123  0.1994  0.0709 -0.1824
13778W        W18078   1.123   2.170  11.099 -0.2229  0.1265  0.2214
13779W        W18079   2.943   0.102  36.173 -0.3934  0.3197 -0.2570
13780W        W18080   8.501   0.599  33.147 -0.0146  0.0941  0.1520
13781W        W18081   6.501   6.367  27.582  0.0049 -0.2665  0.1212
13782W        W18082  14.130   5.949  32.787 -0.1712 -0.0358 -0.1429
13783W        W18083  13.781   5.506  43.561  0.0112  0.1772  0.0798
13784W        W18084   7.866   6.004  42.669 -0.1328  0.4615  0.0998
13785W        W18085  11.597   2.433  17.008  0.0130  0.2017  0.0511
13786W        W18086   1.824   0.380   0.508  0.4339 -0.0012  0.0855
13787W        W18087  12.862   0.027   9.289  0.0991  0.0947  0.0283
13788W        W18088  10.389   0.753  14.264 -0.2341 -0.1316  0.1063
13789W        W18089   6.727   6.489   9.033 -0.1653 -0.2348 -0.0209
13790W        W18090  20.323   5.218  34.765 -0.0205 -0.3177  0.0016
13791W        W18091  17.337   2.608  40.017  0.1149 -0.0863  0.0580
13792W        W18092   8.371   2.130  30.367  0.3424 -0.3134  0.1219
13793W        W18093   6.022   4.662  18.783 -0.0883  0.2902 -0.2737
13794W        W18094  10.805   2.615  40.756 -0.0326 -0.3841  0.1927
13795W        W18095  13.283   4.220  38.442 -0.0248 -0.1805  0.1237
13796W        W18096  11.468   4.114   3.821 -0.1622  0.1709 -0.2478
13797W        W18097  18.785   0.950  30.137  0.1889 -0.3887  0.0698
13798W        W18098   9.574   4.102   5.126 -0.0834 -0.3417 -0.1322
13799W        W18099  18.275   1.376  18.258 -0.0143  0.1320  0.0522
13800W        W18100   6.263   1.492   9.555 -0.2185  0.2519  0.0573
13801W        W18101  17.873   5.759   0.613 -0.0284 -0.0203  0.1772
13802W        W18102   4.408   4.254  40.067  0.0083  0.1511  0.2114
13803W        W18103  15.285   2.255  32.518  0.1185  0.0509  0.3526
13804W        W18104  19.077   0.703  31.892 -0.0554  0.0441 -0.1241
13805W        W18105  16.958   5.205  32.826  0.1526  0.1600  0.0270
13806W        W18106  12.975   3.927  19.590  0.2118  0.2100 -0.3006
13807W        W18107   5.625   0.562  27.400  0.0157 -0.0178  0.1741
13808W        W18108   7.225   4.840  44.384  0.2501  0.1957  0.1009
13809W        W18109   9.585   3.183   9.334  0.0387 -0.3157  0.2679
13810W        W18110  20.224   3.215   3.791  0.1307  0.0887 -0.0661
13811W        W18111  10.041   1.813   4.565  0.0195 -0.2234  0.0803
13812W        W18112  19.508   0.189  17.040 -0.1367  0.1562 -0.0290
13813W        W18113  16.348   3.219  40.800 -0.3729  0.2851 -0.0526
13814W        W18114   9.822   4.651   4.647 -0.0964  0.2799 -0.3302
13815W        W18115  10.767   6.166  42.109 -0.1276  0.1822  0.3534
13816W        W18116  13.306   3.265  43.055 -0.2198 -0.2386 -0.1431
13817W        W18117  11.610   3.583  38.028  0.1126  0.0736  0.0171
13818W        W18118   6.465   0.190  23.311  0.3163  0.2694 -0.0503
13819W        W18119  15.081   4.728  38.140  0.1550 -0.2781 -0.0014
13820W        W18120  10.177   4.943   4.884  0.3014 -0.0852 -0.0371
13821W        W18121   6.322   5.000  23.469 -0.0077 -0.0882 -0.0626
13822W        W18122  14.704   3.415  22.595 -0.2875  0.1255 -0.0275
13823W        W18123   3.758   5.778  10.583 -0.2411  0.0246  0.2301
13824W        W18124  18.050   5.349  30.611  0.2897  0.0233  0.2776
13825W        W18125  16.983   1.994   6.608  0.1679  0.0013  0.1053
13826W        W18126  16.536   2.987  36.254 -0.1934 -0.0049 -0.1430
13827W        W18127   8.925   4.727  33.101  0.2499  0.0911 -0.1512
13828W        W18128  11.421   1.807  41.483 -0.0019  0.2042  0.0920
13829W        W18129   5.710   4.502   8.658  0.0167  0.2770 -0.1479
13830W        W18130   5.600   3.253   2.175  0.0553 -0.0707  0.1326
13831W        W18131  16.114   4.856  32.437 -0.3337  0.0077 -0.4076
13832W        W18132   3.424   2.895   1.814 -0.0151  0.0040 -0.5093
13833W        W18133  18.522   1.250   8.913 -0.1616  0.2908 -0.0780
13834W        W18134  14.264   0.855   5.730  0.0214  0.0651  0.0336
13835W        W18135   8.443   5.971  34.656  0.2246 -0.0124 -0.1198
13836W        W18136  13.887   1.465  16.284  0.3988  0.0055 -0.0366
13837W        W18137   3.117   2.344  39.221 -0.0739 -0.2883  0.4612
13838W        W18138  13.043   6.401  12.425  0.0474  0.1101 -0.0136
13839W        W18139   5.656   6.512  41.342  0.0358  0.0104  0.1098
13840W        W18140  11.174   5.565  42.570 -0.0388 -0.1063 -0.1088
13841W        W18141  10.259   3.583  43.422  0.2533 -0.0946  0.3058
13842W        W18142   4.153   2.559  41.696  0.1398 -0.1589 -0.1999
13843W        W18143   2.532   5.422  28.090  0.2076 -0.1519 -0.0265
13844W        W18144   4.143   1.553  40.248 -0.0916  0.0169 -0.0297
13845W        W18145  19.434   4.441  15.504  0.1528 -0.4958  0.0282
13846W        W18146  14.611   5.186  30.988  0.0198  0.1559 -0.2293
13847W        W18147  10.389   6.260  42.411 -0.2257  0.0963 -0.2808
13848W        W18148   7.780   0.772  14.143  0.0112  0.1293 -0.3740
13849W        W18149  17.667   2.667  42.908 -0.0204  0.0479  0.0936
13850W        W18150   6.987   5.935  26.788 -0.2370  0.0372 -0.3922
13851W        W18151  15.904   4.855   1.990  0.3711  0.1936  0.1857
13852W        W18152   8.457   6.081   6.804 -0.2988 -0.0396  0.2923
13853W        W18153  12.010   6.424   4.412 -0.2874 -0.0695  0.0278
13854W        W18154   9.155   1.894  40.043 -0.1242 -0.0964 -0.2527
13855W        W18155  11.050   2.153  38.141  0.1262 -0.0014  0.0446
13856W        W18156  13.805   6.347   4.013  0.2911  0.1072 -0.0360
13857W        W18157  20.902   6.563   4.649 -0.0045 -0.0469 -0.0827
13858W        W18158   3.137   4.701  33.923 -0.0116 -0.0663  0.1529
13859W        W18159  19.029   6.431  44.240 -0.2163 -0.1078  0.0678
13860W        W18160  19.636   5.419  14.615  0.1919  0.0608 -0.1802
13861W        W18161  18.770   5.617  38.836 -0.1924 -0.1070 -0.2687
13862W        W18162  15.554   2.233  22.575 -0.6402 -0.0310 -0.0539
13863W        W18163  19.912   6.163  35.969 -0.0840  0.2481  0.1148
13864W        W18164  17.705   3.672  35.380  0.0738  0.0058  0.4940
13865W        W18165  18.688   6.500   6.725  0.0990  0.1265 -0.0874
13866W        W18166  11.559   5.234  38.254 -0.1439 -0.0017 -0.2449
13867W        W18167   7.441   0.522  13.909 -0.3202 -0.0385  0.2149
13868W        W18168   5.322   3.320   6.404  0.2988  0.2080  0.0669
13869W        W18169  19.456   4.871  41.389 -0.0021  0.2171  0.1917
13870W        W18170   9.015   3.967  39.817 -0.5034 -0.1204  0.0602
13871W        W18171  16.973   4.573   4.436 -0.2421 -0.0147  0.1579
13872W        W18172  19.490   6.392  33.111  0.0642 -0.0606  0.6341
13873W        W18173  13.812   0.853   8.458  0.2006  0.2297 -0.1217
13874W        W18174  10.508   2.619  41.723  0.0827 -0.1547  0.0970
13875W        W18175   6.557   5.236  24.057  0.3860 -0.1220 -0.2874
13876W        W18176  10.365   3.324  34.875 -0.1291 -0.2142 -0.0904
13877W        W18177   5.089   3.407  43.291  0.0630  0.1539 -0.0417
13878W        W18178  17.024   4.624  32.172 -0.2725 -0.1090 -0.0855
13879W        W18179   2.583   2.148   3.650  0.0242  0.0338  0.2051
13880W        W18180  18.326   2.615  45.025  0.0043  0.4306  0.2784
13881W        W18181  17.570   5.414   7.842  0.0631 -0.1065 -0.0033
13882W        W18182   9.745   3.299   4.569 -0.0989  0.0976 -0.0997
13883W        W18183  21.111   1.390  27.893  0.0304 -0.0374 -0.0712
13884W        W18184   7.214   3.115  26.690 -0.0451 -0.2343 -0.1675
13885W        W18185   3.621   0.283   1.296 -0.1590 -0.0020  0.0275
13886W        W18186   7.593   1.714  13.564 -0.1373  0.2457 -0.0402
13887W        W18187  18.432   3.182   8.010 -0.3096  0.1391 -0.0901
13888W        W18188  12.557   1.425  13.376  0.1816  0.0433 -0.3445
13889W        W18189  14.236   1.342   0.473  0.1324 -0.2435  0.2781
13890W        W18190  11.053   4.206  40.181 -0.1557  0.1240  0.0136
13891W        W18191   9.888   4.450  41.722 -0.2389  0.2080  0.2153
13892W        W18192   0.395   5.520   6.455  0.1009 -0.1870 -0.0417
13893W        W18193   6.211   5.677  22.235 -0.0812 -0.1009 -0.2011
13894W        W18194   8.919   1.707  25.847 -0.2914  0.0042  0.0558
13895W        W18195  15.774   3.463  42.681  0.0352  0.0987  0.3790
13896W        W18196  15.267   0.536   7.975  0.1819  0.1464  0.0340
13897W        W18197   0.219   2.998  27.250 -0.2316 -0.0066  0.1816
13898W        W18198  12.905   5.555   1.175  0.1034  0.1018 -0.0501
13899W        W18199  20.566   6.216  33.589 -0.2907 -0.0446 -0.0500
13900W        W18200   1.720   3.844  29.753 -0.0557  0.1300 -0.0162
13901W        W18201  14.110   6.531  28.906 -0.0086 -0.1526 -0.2862
13902W        W18202   0.114   1.890   7.186  0.3238 -0.1937 -0.0704
13903W        W18203   3.982   4.137   4.868  0.0399  0.2523  0.1345
13904W        W18204   7.849   5.454  32.866  0.0275  0.4257  0.4011
13905W        W18205   1.411   4.662  12.962 -0.0320 -0.0797 -0.0158
13906W        W18206   9.106   5.308   1.210 -0.2697  0.2589  0.1650
13907W        W18207   4.382   1.625  37.225  0.3933 -0.1969 -0.2107
13908W        W18208  18.393   6.579   3.298 -0.1619  0.1785  0.0049
13909W        W18209  17.086   1.512  37.644  0.2808 -0.0447 -0.1163
13910W        W18210   6.966   4.532   0.139  0.1666 -0.1228  0.0530
13911W        W18211  15.971   6.506  21.952  0.0863 -0.2376 -0.1966
13912W        W18212  20.435   3.072  42.898  0.0685  0.2112  0.0690
13913W        W18213   6.508   3.071  22.271 -0.1969  0.1116 -0.0703
13914W        W18214   5.708   5.145  31.816 -0.0351  0.2268 -0.0891
13915W        W18215  17.806   5.049   1.580  0.4996  0.2550  0.0545
13916W        W18216   4.638   6.360   6.319 -0.1345 -0.0122 -0.1208
13917W        W18217   8.621   1.008  31.305  0.2253 -0.0352  0.0415
13918W        W18218  12.074   0.244   4.684 -0.1167  0.3564 -0.1792
13919W        W18219   7.277   3.927  41.694  0.0892 -0.0138  0.0840
13920W        W18220   4.445   5.639  15.380 -0.1238  0.0872  0.3238
13921W        W18221  13.644   0.911   7.499 -0.1056 -0.1660  0.3117
13922W        W18222   4.658   4.929  38.989  0.1585  0.0172 -0.0583
13923W        W18223   8.822   1.595  26.509  0.1379  0.0044 -0.0524
13924W        W18224  16.288   5.913   3.537  0.1385  0.0091  0.2735
13925W        W18225   0.915   5.835   3.397  0.4134  0.0998 -0.1714
13926W        W18226  20.128   4.635  14.892 -0.1025  0.0649  0.1224
13927W        W18227  17.133   6.300  30.161  0.1667 -0.1608 -0.1059
13928W        W18228  17.029   6.116  35.876  0.0191 -0.0299 -0.1385
13929W        W18229   7.878   5.744   5.703  0.0676  0.1852  0.0038
13930W        W18230   4.944   4.508  23.039 -0.1796 -0.0529  0.1494
13931W        W18231   1.027   3.215   9.005 -0.1051  0.3512 -0.0224
13932W        W18232  20.924   4.974  42.420 -0.0403  0.1244  0.2043
13933W        W18233  19.581   4.155  43.047 -0.0865 -0.0286  0.0607
13934W        W18234  12.411   3.258  39.851  0.0094 -0.3353  0.0718
13935W        W18235  20.804   0.940  19.851  0.1146  0.0529  0.2942
13936W        W18236  17.352   4.442  44.678 -0.0460  0.0843  0.2673
13937W        W18237   3.153   2.192  26.295  0.0632 -0.0763  0.1085
13938W        W18238  11.369   2.222  16.114 -0.0216  0.2491  0.2066
13939W        W18239   0.530   1.026  17.698  0.0387  0.0123  0.1601
13940W        W18240  11.567   0.308  16.794  0.1898 -0.0238  0.2423
13941W        W18241  16.905   1.408  21.742  0.0046 -0.0088 -0.0157
13942W        W18242   5.332   4.244   6.523 -0.0198  0.0671  0.0308
13943W        W18243   2.386   6.550   6.160 -0.0975 -0.0302 -0.1596
13944W        W18244   3.630   4.382   5.230 -0.1400  0.0492  0.3508
13945W        W18245  19.731   6.170  19.019 -0.0416  0.2305  0.0179
13946W        W18246  16.506   3.324  12.915  0.3408  0.1902 -0.1494
13947W        W18247   1.504   6.558   8.366 -0.3085 -0.0478  0.1249
13948W        W18248  12.925   2.783  30.254 -0.0115 -0.1234 -0.0965
13949W        W18249   3.200   1.003  28.973 -0.0877  0.1396  0.1372
13950W        W18250  20.243   4.510  43.428  0.1116 -0.1183  0.0690
13951W        W18251  15.398   4.913  43.356 -0.1026  0.1866 -0.1031
13952W        W18252  14.522   1.995  14.540  0.0627  0.0087  0.2256
13953W        W18253  15.414   2.554   6.449  0.1924 -0.1117  0.0592
13954W        W18254  13.189   0.324  34.269  0.0820 -0.0760  0.0885
13955W        W18255   2.514   3.748   2.482 -0.0839  0.0450  0.2614
13956W        W18256  20.668   6.430  17.519  0.2981 -0.1759  0.0055
13957W        W18257  10.480   4.634   2.550 -0.0667 -0.0917 -0.1271
13958W        W18258  17.598   1.194  21.998  0.4201 -0.2846  0.3334
13959W        W18259   5.835   2.650  12.261 -0.2248 -0.1922  0.0109
13960W        W18260   4.800   2.791  29.849 -0.0818 -0.2473  0.1477
13961W        W18261  20.367   5.909  35.864  0.1326  0.0447  0.0015
13962W        W18262   1.570   0.941   2.483  0.2208 -0.3380  0.2687
13963W        W18263   5.416   1.625  36.337  0.2118  0.0247  0.2784
13964W        W18264  17.654   5.515  20.722  0.1828 -0.0403 -0.2570
13965W        W18265   9.706   0.274   9.150 -0.0551 -0.1825  0.0350
13966W        W18266  10.484   5.680  40.168  0.2210 -0.1809 -0.1315
13967W        W18267  11.198   3.126   7.204  0.0574  0.0589  0.1535
13968W        W18268   0.651   3.569  26.251 -0.1509  0.2084 -0.3416
13969W        W18269  11.319   1.337  42.384 -0.1959  0.1963  0.2507
13970W        W18270  20.472   4.710  15.289  0.0915 -0.0542  0.1450
13971W        W18271   3.461   4.098  11.157  0.0848  0.3162 -0.2120
13972W        W18272   6.695   1.953  29.412 -0.0151  0.0238  0.2446
13973W        W18273   4.307   2.384  33.611  0.0774  0.2824 -0.1958
13974W        W18274   3.436   5.395  12.879  0.2766 -0.1464 -0.3240
13975W        W18275  17.449   1.685  23.469 -0.1436 -0.0427  0.1341
13976W        W18276   7.297   0.218   8.605 -0.0794 -0.1130  0.0242
13977W        W18277   7.441   2.532  33.295  0.2005  0.0901  0.0958
13978W        W18278  19.417   1.700  33.987  0.1284 -0.0364 -0.0694
13979W        W18279  20.786   2.100  17.930 -0.0894 -0.1428  0.0633
13980W        W18280  18.703   2.573  11.267 -0.0107 -0.0595 -0.0444
13981W        W18281   2.756   3.669  39.004  0.1598  0.0293 -0.0102
13982W        W18282  19.950   6.185   4.967 -0.0262 -0.3887 -0.0701
13983W        W18283  18.887   4.838  33.842 -0.0232 -0.2592 -0.1183
13984W        W18284   7.593   0.120   3.157  0.3141  0.2496 -0.2809
13985W        W18285  18.784   3.857  14.276 -0.0642  0.3167  0.1269
13986W        W18286  19.493   0.394  19.387 -0.1345 -0.0155 -0.0900
13987W        W18287  19.108   1.201  31.887  0.2538 -0.0260  0.1067
13988W        W18288  16.120   6.413  25.899  0.1614 -0.0087 -0.0039
13989W        W18289   9.000   4.456  40.855 -0.1878 -0.0042  0.0762
13990W        W18290   6.068   2.159  28.733  0.2512 -0.1459  0.0266
13991W        W18291   6.795   5.297   6.381  0.2336 -0.0384  0.3626
13992W        W18292   7.898   4.323   7.748  0.2111  0.1771  0.2290
13993W        W18293  15.206   2.523  14.081 -0.2891 -0.2564 -0.0796
13994W        W18294  19.243   5.494  33.550  0.0509  0.2096 -0.2214
13995W        W18295   8.834   1.681  38.497  0.1096 -0.1574 -0.1134
13996W        W18296  18.126   4.296  38.122  0.0234  0.1131 -0.1041
13997W        W18297  10.540   1.237  27.931 -0.2373 -0.0005 -0.1791
13998W        W18298  20.659   5.518  36.098 -0.1755 -0.0562 -0.1823
13999W        W18299  11.015   2.077   5.675 -0.3016 -0.1506 -0.1203
14000W        W18300   1.160   0.974  32.286 -0.2102  0.0159  0.0952
14001W        W18301   4.816   2.023  32.994 -0.1258 -0.1010  0.2741
14002W        W18302  20.020   2.487  41.726 -0.1754  0.0945 -0.0820
14003W        W18303  18.724   0.620  29.748  0.2638 -0.0700 -0.0147
14004W        W18304  10.662   5.886  16.003  0.3363 -0.3754  0.0561
14005W        W18305   0.699   4.987   1.270  0.0650  0.4379 -0.3435
14006W        W18306   4.722   1.102  14.827  0.0785  0.3381 -0.2353
14007W        W18307  15.731   6.324  45.003  0.1812 -0.1158  0.0411
14008W        W18308   8.996   3.460  33.455  0.1227 -0.0725 -0.1094
14009W        W18309  10.330   4.930  16.416 -0.1029  0.2760  0.0686
14010W        W18310  13.215   5.906   8.811  0.2479  0.3155  0.0245
14011W        W18311  13.939   0.371  16.226  0.0337  0.0305 -0.1446
14012W        W18312  17.845   4.960   3.684 -0.1952  0.2044  0.0593
14013W        W18313  16.188   4.675   8.113 -0.1474  0.3079  0.3302
14014W        W18314  13.299   1.901   3.459  0.2879 -0.2847 -0.1004
14015W        W18315   8.698   3.505  28.009 -0.1107  0.2460 -0.2778
14016W        W18316   6.402   0.245   1.557  0.0055  0.2737  0.1033
14017W        W18317  17.058   5.238  43.790 -0.2314 -0.1285  0.3241
14018W        W18318   3.481   3.809   3.729  0.0273 -0.1189 -0.2171
14019W        W18319   0.294   2.414  36.291  0.0610  0.0628  0.0602
14020W        W18320  15.136   5.214  29.690  0.1854  0.1362  0.1775
14021W        W18321  10.772   2.037  40.029 -0.2223  0.0571 -0.1159
14022W        W18322  16.747   3.201  38.187  0.0140 -0.1254 -0.1231
14023W        W18323   9.745   3.691  32.836  0.2402 -0.3268  0.1223
14024W        W18324  15.642   2.803   9.971 -0.3189 -0.0228 -0.0949
14025W        W18325   7.463   3.304   3.491  0.0576 -0.0756 -0.0052
14026W        W18326  11.988   6.422  18.552  0.2023  0.0498  0.0089
14027W        W18327  13.237   1.905  31.058 -0.0356 -0.1606 -0.2085
14028W        W18328  10.202   5.300  37.997 -0.1079 -0.1351  0.0877
14029W        W18329   9.010   4.740  34.198  0.1014  0.1982 -0.1965
14030W        W18330  11.292   5.306  15.826 -0.3563 -0.1745  0.3865
14031W        W18331  18.925   2.988   6.840 -0.0178  0.0780  0.0173
14032W        W18332   5.187   0.130   9.934 -0.1690  0.0001 -0.1747
14033W        W18333  15.895   2.119   2.691 -0.2693  0.1070  0.0451
14034W        W18334  12.347   4.923   2.343  0.1901 -0.1142  0.0285
14035W        W18335  16.821   4.490  30.085 -0.2801 -0.1312  0.2149
14036W        W18336  12.580   0.957  12.475 -0.1541 -0.2347  0.1457
14037W        W18337  15.391   1.670  23.435  0.3177  0.2074  0.0614
14038W        W18338  14.903   0.466  36.178 -0.0411  0.0073 -0.0982
14039W        W18339   1.236   3.374  44.601  0.0807  0.1402 -0.1507
14040W        W18340  12.297   5.207  12.340  0.1889  0.1442 -0.0586
14041W        W18341  20.350   2.668  35.052  0.2977  0.1675  0.1196
14042W        W18342  18.907   4.520  31.424 -0.0641  0.4774 -0.1104
14043W        W18343   0.041   3.166   6.878 -0.2099  0.1588  0.1091
14044W        W18344   8.001   2.207   0.818  0.3125 -0.2281 -0.0279
14045W        W18345  10.283   4.122  10.913 -0.0195  0.0680 -0.0074
14046W        W18346   4.267   1.400   7.670 -0.0051  0.0117  0.0770
14047W        W18347  12.354   0.130  44.913  0.0230  0.0697  0.2315
14048W        W18348   3.788   1.080  10.354  0.0044  0.0359 -0.3598
14049W        W18349  20.602   1.158  18.497 -0.1426 -0.1787 -0.1363
14050W        W18350  12.588   5.437  37.014 -0.1897  0.0092 -0.0405
14051W        W18351  11.053   1.708  17.686 -0.1220 -0.0739  0.1906
14052W        W18352  12.522   3.575  30.203  0.1033  0.2666  0.0725
14053W        W18353   5.056   1.783  40.611 -0.2269 -0.0343  0.1077
14054W        W18354  16.100   0.623  44.306 -0.0402  0.2363  0.0434
14055W        W18355   7.271   4.060  10.704 -0.0044  0.0529 -0.0643
14056W        W18356  15.768   1.364   1.805 -0.0905  0.0745 -0.0704
14057W        W18357  18.630   6.466  11.814 -0.0277  0.1926 -0.4648
14058W        W18358  11.226   5.128  31.059  0.0639  0.0433  0.1191
14059W        W18359  14.675   3.885   2.553  0.1426 -0.0726  0.0507
14060W        W18360  14.242   5.891  22.365  0.1680 -0.0562 -0.0518
14061W        W18361   5.709   6.593  30.068 -0.2096  0.0509  0.1352
14062W        W18362   3.864   6.209  13.052  0.0416  0.1141 -0.1988
14063W        W18363  19.097   1.778  41.443  0.3342 -0.1795  0.0603
14064W        W18364   1.033   3.448  11.999 -0.0243 -0.5801 -0.0510
14065W        W18365   6.054   0.527  43.733 -0.3457 -0.0660  0.0535
14066W        W18366  18.636   5.910  40.868 -0.3120  0.0903 -0.0943
14067W        W18367  12.609   5.380  40.557 -0.0786 -0.2648 -0.3277
14068W        W18368  11.194   4.210  31.883  0.0609 -0.2449  0.1754
14069W        W18369  10.752   5.745  14.176 -0.1491  0.1067 -0.2004
14070W        W18370  20.688   2.522  12.483 -0.1778  0.0386  0.2882
14071W        W18371   6.951   4.704  12.094 -0.1189  0.0989 -0.3706
14072W        W18372   7.830   6.292  30.919 -0.2404  0.1973 -0.3154
14073W        W18373  20.031   0.666   3.110 -0.0447  0.2159  0.1436
14074W        W18374  10.116   6.309  41.603 -0.1005 -0.0946  0.2654
14075W        W18375   0.035   1.103  17.874  0.2294 -0.2311  0.3689
14076W        W18376  16.477   3.544  10.392 -0.3724 -0.0352 -0.0098
14077W        W18377  20.927   5.387  34.651 -0.0357 -0.0219 -0.2621
14078W        W18378  10.679   6.511  13.464 -0.1517  0.0016 -0.0097
14079W        W18379   1.333   0.700  16.280  0.3000  0.3923 -0.0759
14080W        W18380  20.527   4.398  18.462  0.0939 -0.0859  0.1488
14081W        W18381   5.006   1.620  11.279 -0.3114 -0.0060 -0.3409
14082W        W18382   7.960   3.267  31.718 -0.0056 -0.1074  0.2369
14083W        W18383   7.015   3.076   5.614 -0.3251 -0.3379  0.2251
14084W        W18384   1.835   1.043   4.618 -0.0264 -0.1193  0.1131
14085W        W18385   0.537   5.086   5.415 -0.1650  0.1468  0.0018
14086W        W18386  10.539   3.375   4.959  0.0104  0.0966  0.2854
14087W        W18387  15.774   2.691  41.469 -0.0408  0.2229 -0.0338
14088W        W18388   1.521   6.044  38.877  0.1389  0.1946  0.1573
14089W        W18389  14.889   5.772   5.849  0.1006 -0.0285 -0.2758
14090W        W18390  13.936   4.203  30.286  0.0686  0.0632 -0.0174
14091W        W18391   7.922   0.974  42.475 -0.1477  0.0771 -0.0553
14092W        W18392  14.010   5.131  42.681 -0.0483 -0.1158  0.1105
14093W        W18393  20.628   1.640  30.802  0.0882 -0.0674 -0.3915
14094W        W18394   0.621   1.637  17.142 -0.1434  0.5255 -0.1150
14095W        W18395  12.656   4.720  21.017  0.2310  0.2666 -0.1466
14096W        W18396   8.860   0.529  15.477  0.2436 -0.0911  0.0884
14097W        W18397  20.328   3.853  30.918 -0.2719  0.0091 -0.3615
14098W        W18398   2.392   2.700  42.657  0.2908  0.1625 -0.0698
14099W        W18399  13.959   3.159   9.262  0.1691  0.1936 -0.1436
14100W        W18400  14.023   3.907  22.003  0.2329  0.2940  0.1155
14101W        W18401  12.978   4.010   4.718  0.0878  0.0938  0.2473
14102W        W18402   5.066   2.754  12.045  0.1520  0.1776 -0.0701
14103W        W18403  13.832   1.442  32.008 -0.0674  0.1057 -0.0658
14104W        W18404  14.483   2.411  42.987  0.0610  0.2468  0.0106
14105W        W18405   8.753   2.346  40.522 -0.0312  0.0832  0.2798
14106W        W18406  18.523   6.384  31.182 -0.0584 -0.0404  0.0565
14107W        W18407   4.138   2.244   2.580  0.2577 -0.0238  0.1521
14108W        W18408  15.608   3.725  15.668  0.0751  0.0877  0.0604
14109W        W18409   6.177   3.047   2.504 -0.1129  0.1116  0.0967
14110W        W18410   8.812   1.783  40.968 -0.0320 -0.0331  0.2526
14111W        W18411   9.267   1.595  15.891 -0.0019 -0.0394  0.1556
14112W        W18412   6.326   1.726  20.483 -0.0276 -0.2115  0.2354
14113W        W18413   7.185   2.491  26.825 -0.2016 -0.3638 -0.2470
14114W        W18414   7.611   4.198  14.937  0.0868 -0.0272  0.0296
14115W        W18415  15.883   4.578  17.657  0.0456  0.0132 -0.1427
14116W        W18416   6.796   0.913  22.207  0.1342 -0.0849 -0.1171
14117W        W18417  17.759   3.508  43.005 -0.3500 -0.0655 -0.1135
14118W        W18418   6.581   2.933  37.716  0.1503  0.1822  0.0241
14119W        W18419   7.581   2.770  32.407  0.1395 -0.0667 -0.0134
14120W        W18420  15.855   3.678  36.035 -0.0742  0.2337 -0.1365
14121W        W18421   1.593   3.543   3.613  0.2060  0.0272 -0.0762
14122W        W18422  17.193   0.185  20.618  0.0802  0.0386 -0.2993
14123W        W18423   2.525   5.456  42.525 -0.1702  0.1199 -0.1142
14124W        W18424  15.928   1.151  12.432 -0.0507 -0.0768  0.1488
14125W        W18425   1.038   4.172  33.820 -0.0590  0.1432  0.3931
14126W        W18426  12.482   5.110  12.942  0.0323 -0.0809 -0.1826
14127W        W18427   4.523   2.356  41.429  0.0839 -0.0041  0.0939
14128W        W18428   6.539   5.790  25.355 -0.0350 -0.1991 -0.1623
14129W        W18429   8.901   4.635   9.816  0.0781  0.0353 -0.3012
14130W        W18430  20.654   5.303  37.088  0.0118 -0.0412  0.1311
14131W        W18431  15.890   0.816  31.624 -0.0387 -0.1884 -0.0684
14132W        W18432   4.679   6.323  32.067  0.0671 -0.3306  0.1876
14133W        W18433   4.591   2.992  24.059  0.1370  0.0029  0.4003
14134W        W18434  18.068   2.547  14.226 -0.0025  0.1711  0.4112
14135W        W18435   6.280   4.943  40.051  0.2635  0.1145  0.2213
14136W        W18436   2.864   5.537   8.336 -0.0240  0.1946  0.1071
14137W        W18437  11.285   4.201   9.431  0.0713 -0.2440 -0.3003
14138W        W18438   6.934   1.239   7.896 -0.3036 -0.2348 -0.3830
14139W        W18439   3.498   3.050  28.196  0.1867  0.1726  0.2177
14140W        W18440   9.565   5.190  42.110 -0.1558  0.1432 -0.0170
14141W        W18441  18.499   0.605  44.021  0.0319 -0.0499  0.0349
14142W        W18442  12.544   3.321  35.361 -0.1140  0.2370 -0.1985
14143W        W18443  11.986   2.942  30.391 -0.1647 -0.1072 -0.1840
14144W        W18444  16.236   3.120  10.401  0.1541  0.0111 -0.1831
14145W        W18445   8.815   2.974  24.610 -0.0515 -0.0436  0.0527
14146W        W18446   1.701   1.476  30.212  0.0963 -0.2736 -0.1394
14147W        W18447  18.290   5.569  14.303 -0.0419 -0.1412  0.1088
14148W        W18448  15.945   4.435   5.449  0.2639 -0.0673 -0.1831
14149W        W18449   6.152   1.312  20.115 -0.0808  0.2023 -0.0359
14150W        W18450   4.647   6.215  29.490  0.1923  0.0437 -0.0542
14151W        W18451   3.486   1.911  14.456 -0.0238 -0.0101 -0.0305
14152W        W18452   2.703   4.662  44.360  0.3417  0.1650 -0.3278
14153W        W18453   3.458   3.307  29.601  0.1001  0.0466  0.0645
14154W        W18454   1.782   1.008  26.296 -0.2626  0.2451 -0.0391
14155W        W18455   9.969   6.513  37.908 -0.0448 -0.2276 -0.1721
14156W        W18456   8.308   2.831  15.004  0.0530  0.0834  0.2263
14157W        W18457   9.430   0.200   9.573 -0.1902 -0.3976  0.2375
14158W        W18458  14.295   2.864   9.960  0.0127 -0.0012  0.1416
14159W        W18459  11.747   3.866  27.694  0.1867  0.0105 -0.1642
14160W        W18460  18.221   4.044  16.976  0.0995  0.1955 -0.0639
14161W        W18461  20.496   6.122  41.833 -0.1691 -0.1012 -0.0774
14162W        W18462  12.508   2.565  34.380 -0.1021  0.0568 -0.2152
14163W        W18463  19.814   5.793  13.910 -0.0736 -0.0450 -0.1158
14164W        W18464   0.401   6.229  31.246  0.3550  0.4155 -0.1633
14165W        W18465   5.008   3.076  28.526 -0.1657 -0.1738 -0.0101
14166W        W18466  10.330   2.466  40.734  0.0158 -0.1355 -0.0493
14167W        W18467   0.708   0.680   5.229  0.0933  0.1954 -0.1556
14168W        W18468  15.799   0.294  16.769 -0.0440  0.3134  0.2016
14169W        W18469   4.079   3.400  11.038  0.0442  0.0077 -0.0607
14170W        W18470  17.951   4.744  41.049 -0.2379 -0.1235  0.1848
14171W        W18471  13.318   2.329  15.174 -0.2188 -0.2372 -0.0418
14172W        W18472   4.918   0.986  33.869  0.0324  0.0496  0.3142
14173W        W18473  19.520   5.584  43.396 -0.2001 -0.1837  0.2665
14174W        W18474  12.349   1.852   9.065  0.0017 -0.0810  0.1508
14175W        W18475   4.471   6.283  30.357 -0.0307 -0.0167 -0.3911
14176W        W18476  20.570   4.708  17.047 -0.0903 -0.0488 -0.2132
14177W        W18477   5.501   5.630  34.569 -0.0767  0.4310  0.0449
14178W        W18478  17.309   6.170  12.728 -0.1019 -0.1450  0.0701
14179W        W18479   3.201   1.770  27.716 -0.1409 -0.2577 -0.2336
14180W        W18480  18.940   0.840   8.766 -0.3959  0.0641 -0.0981
14181W        W18481  17.314   3.064  23.578  0.2610  0.3296  0.2910
14182W        W18482  13.821   1.913  43.298  0.1503 -0.0299  0.2184
14183W        W18483   8.561   3.492  12.452  0.0785  0.0734  0.2524
14184W        W18484  14.886   5.552  15.950 -0.0367 -0.0800  0.1707
14185W        W18485   9.051   3.688   2.838 -0.1809 -0.0628 -0.0098
14186W        W18486  15.781   2.734  11.448 -0.0606 -0.4288 -0.1816
14187W        W18487  13.322   5.501   9.710  0.2656 -0.0458 -0.0645
14188W        W18488   7.436   2.538  39.985 -0.1263  0.2920  0.0410
14189W        W18489   7.729   3.792  12.846  0.1243  0.3949 -0.2741
14190W        W18490   3.439   4.004  38.505 -0.1116  0.1286 -0.2511
14191W        W18491   3.033   5.118  29.645 -0.1412  0.0581 -0.1245
14192W        W18492  15.630   4.325   0.796 -0.0551  0.0085 -0.0722
14193W        W18493   2.221   0.970  33.689 -0.1654 -0.0856  0.2302
14194W        W18494   0.812   5.075  15.267  0.0102  0.0116 -0.3599
14195W        W18495   8.006   3.241   5.391  0.1012 -0.0380 -0.0410
14196W        W18496   7.518   0.685   7.233  0.0077  0.0482 -0.1486
14197W        W18497   5.983   1.677  30.762  0.1850  0.1850 -0.0319
14198W        W18498   1.886   2.604  25.690 -0.0753  0.1164  0.1841
14199W        W18499  16.649   2.309  21.683 -0.1648  0.0564 -0.1027
14200W        W18500   9.661   5.292   1.045 -0.2489 -0.1164 -0.1335
14201W        W18501   9.386   2.539  36.280  0.1559 -0.0830  0.0373
14202W        W18502  18.378   3.661   5.616  0.3310  0.1057 -0.0526
14203W        W18503  13.259   5.852  37.345  0.0753 -0.2195  0.2690
14204W        W18504   6.276   1.286  12.725  0.0633 -0.2946  0.2181
14205W        W18505   3.869   0.090   6.998 -0.1013  0.1713  0.2576
14206W        W18506   4.224   5.011  30.497 -0.2814  0.2504  0.2385
14207W        W18507  14.865   2.120  14.192 -0.2578  0.2257 -0.0829
14208W        W18508  17.360   1.900  16.390  0.1328 -0.2930  0.3589
14209W        W18509   5.968   2.494   5.918 -0.0939 -0.0778  0.2094
14210W        W18510   8.011   1.870  14.021  0.2828  0.0852 -0.3719
14211W        W18511   6.203   1.595  23.231  0.0384  0.1554  0.0272
14212W        W18512   9.325   0.368   0.981  0.1703 -0.4187 -0.3301
14213W        W18513  13.280   0.643   5.210  0.1866 -0.0448  0.2553
14214W        W18514  11.808   6.331  31.635 -0.1194 -0.0220 -0.0195
14215W        W18515   8.905   2.498  12.418  0.2605  0.1105  0.0945
14216W        W18516  18.998   6.439  30.509 -0.1795 -0.2725  0.1571
14217W        W18517  18.962   2.626  16.358  0.2539  0.3577 -0.3470
14218W        W18518  20.411   2.833  28.396  0.0999  0.0159 -0.2490
14219W        W18519   3.228   1.614  32.536 -0.2525  0.0361  0.0390
14220W        W18520  12.913   0.497  17.216  0.2740  0.0927 -0.0240
14221W        W18521  11.368   5.945  36.584 -0.0460 -0.0880 -0.1192
14222W        W18522   3.463   2.300  29.703 -0.3341 -0.0614  0.2973
14223W        W18523  10.738   5.487  17.563  0.0485  0.0512  0.4409
14224W        W18524   8.515   3.232   0.346 -0.0682 -0.0654  0.0468
14225W        W18525   8.214   1.215  24.803  0.0459 -0.1585  0.1184
14226W        W18526  19.041   2.642  13.230 -0.2311 -0.0725  0.1405
14227W        W18527   4.308   2.995   4.232 -0.1615 -0.1977  0.2079
14228W        W18528  13.278   0.813  31.714  0.0009 -0.2731  0.2018
14229W        W18529   5.905   2.847   7.847  0.1115 -0.1532 -0.1949
14230W        W18530   8.069   4.036  14.666 -0.0503 -0.0047  0.0667
14231W        W18531   2.061   5.401  11.807 -0.0237 -0.0001 -0.0847
14232W        W18532  12.900   2.841  18.214  0.0097  0.1603  0.0506
14233W        W18533   5.886   2.997  11.230 -0.0993 -0.0602 -0.0225
14234W        W18534  16.370   2.751  12.180  0.0651  0.1817  0.0217
14235W        W18535   5.414   4.187  41.632  0.1495  0.1815 -0.2521
14236W        W18536  15.192   0.613   1.142 -0.0716  0.1498  0.0866
14237W        W18537  19.908   1.056  28.795 -0.0485 -0.1992  0.3546
14238W        W18538   6.696   5.602  39.730  0.1436 -0.0821  0.0935
14239W        W18539   2.813   5.934  27.279  0.1763  0.0370  0.0337
14240W        W18540   8.788   0.657  16.232  0.3156 -0.0879  0.1592
14241W        W18541  11.321   6.127  13.051 -0.1922 -0.0001  0.0712
14242W        W18542   7.437   3.422  14.589 -0.2003 -0.0787  0.1866
14243W        W18543  16.572   4.919   4.507 -0.1724  0.1137 -0.1366
14244W        W18544  19.568   3.869  14.224 -0.0389 -0.0667 -0.2302
14245W        W18545   8.870   2.397  41.035 -0.1236 -0.1979 -0.0536
14246W        W18546  10.482   3.117  17.667  0.0923 -0.0270 -0.1690
14247W        W18547  16.745   6.474   8.227 -0.0520 -0.0931 -0.0162
14248W        W18548   6.817   3.925  34.470 -0.1035 -0.1302 -0.2187
14249W        W18549   0.270   6.009  10.443 -0.1189 -0.4880  0.0692
14250W        W18550  20.811   3.689  43.696  0.0867  0.1557  0.2173
14251W        W18551   7.540   3.414  42.454  0.3364 -0.0961  0.1442
14252W        W18552  16.786   5.195   7.270 -0.0697  0.2008 -0.2338
14253W        W18553  18.293   2.001  38.553  0.2475 -0.0496 -0.1202
14254W        W18554   2.802   6.313   9.672  0.0878 -0.3190 -0.0494
14255W        W18555  14.021   4.621  33.791  0.0432  0.0668  0.0706
14256W        W18556  17.791   1.122  12.872  0.1115 -0.2979 -0.0540
14257W        W18557  12.819   2.591  12.400 -0.1064  0.1739  0.4556
14258W        W18558   5.510   3.909  42.088 -0.1159 -0.3186  0.2212
14259W        W18559  16.203   0.816  20.309  0.0758 -0.2512  0.2927
14260W        W18560  20.150   0.158  11.111  0.0175  0.0257  0.2114
14261W        W18561  15.301   5.638  14.651 -0.1997 -0.0031 -0.3856
14262W        W18562  10.924   5.517  43.642 -0.0996 -0.2419  0.0934
14263W        W18563  15.138   5.877  43.806  0.1746  0.0004 -0.4013
14264W        W18564   8.541   4.752   6.951  0.1731  0.2483  0.3639
14265W        W18565   0.837   0.898   3.355 -0.1498  0.0714 -0.0438
14266W        W18566   6.940   3.872  33.245 -0.0612 -0.1179 -0.0180
14267W        W18567   6.550   6.402  43.668  0.3328  0.3143 -0.0430
14268W        W18568  17.358   1.107   7.231  0.3713 -0.3979 -0.1185
14269W        W18569  19.336   2.882  13.834 -0.0006 -0.1130 -0.0008
14270W        W18570   8.908   2.185  43.258 -0.0424  0.0113  0.0519
14271W        W18571   1.447   4.577  27.263 -0.0716 -0.0384  0.0174
14272W        W18572  15.534   3.694  43.624  0.2462  0.3300 -0.0175
14273W        W18573  11.814   1.328  40.138  0.1204  0.2052  0.1867
14274W        W18574  11.570   1.716   2.355 -0.3792 -0.2180 -0.0339
14275W        W18575  12.748   2.225  36.034  0.2212  0.1507 -0.0256
14276W        W18576  14.386   1.649  15.954 -0.1056 -0.1976 -0.0032
14277W        W18577   5.662   3.074  13.373  0.1469  0.0787  0.0373
14278W        W18578   7.961   4.477   8.599  0.0064  0.0663 -0.0748
14279W        W18579  13.081   3.493  14.619  0.1658  0.0053 -0.0138
14280W        W18580   3.761   2.999   9.817  0.1739  0.2098  0.0141
14281W        W18581   3.626   5.322  32.131 -0.0654  0.1019 -0.2332
14282W        W18582  16.084   0.771  12.128  0.3116  0.0292  0.2191
14283W        W18583  15.322   5.210   6.656 -0.0895 -0.0381  0.2895
14284W        W18584   0.139   5.425  16.676  0.1516  0.0618  0.1644
14285W        W18585  11.799   0.264  18.701 -0.1221 -0.1511 -0.0638
14286W        W18586  14.654   2.372  23.527 -0.1324 -0.0146 -0.0924
14287W        W18587  14.906   5.471  12.225  0.0445  0.0525  0.0658
14288W        W18588   9.408   4.248  41.770  0.1226  0.0370  0.0909
14289W        W18589   7.971   1.524  27.726 -0.1339  0.0641  0.0931
14290W        W18590  12.323   5.742   7.781  0.0544 -0.1525  0.1458
14291W        W18591  14.607   2.862  38.832  0.0458  0.0553 -0.0193
14292W        W18592   6.537   4.167  33.001 -0.1664  0.1769 -0.0075
14293W        W18593   1.938   3.278  29.035 -0.2633 -0.2406  0.1708
14294W        W18594   5.769   0.027  26.122 -0.2026 -0.0032  0.2913
14295W        W18595  10.952   5.168   8.050 -0.0500 -0.0996 -0.1699
14296W        W18596   7.394   5.666   8.771  0.1075 -0.1154 -0.0117
14297W        W18597   6.075   4.516  12.867 -0.0846  0.1235  0.0353
14298W        W18598   8.248   0.316  23.509  0.0885  0.0630 -0.2422
14299W        W18599  12.592   0.639  38.148 -0.1749 -0.0573 -0.0123
14300W        W18600   3.416   0.922   5.632  0.2335  0.0659 -0.1822
14301W        W18601   2.676   2.830  27.732  0.4941  0.0756  0.2268
14302W        W18602  15.596   0.111  19.458  0.3192 -0.5937  0.0863
14303W        W18603  10.840   4.559  36.148  0.1967 -0.3018  0.0008
14304W        W18604   8.849   4.313   8.811  0.0332  0.0823 -0.1259
14305W        W18605   4.079   4.661  31.729 -0.1646  0.2861 -0.3387
14306W        W18606  20.001   5.090   6.802  0.1104  0.1266 -0.1437
14307W        W18607  17.277   2.609   3.119 -0.0401 -0.3513  0.0271
14308W        W18608   5.522   0.972  39.979  0.0878 -0.2449 -0.0559
14309W        W18609  20.381   2.848   9.547 -0.2112 -0.1816 -0.1233
14310W        W18610  13.108   1.968  20.457 -0.0346  0.3322  0.1887
14311W        W18611   1.647   1.028  37.589  0.0983  0.2186 -0.0265
14312W        W18612   2.473   5.229   0.501  0.0886  0.1798 -0.1073
14313W        W18613   9.305   2.383  44.715 -0.0714  0.0293  0.2365
14314W        W18614  13.857   4.963  13.035  0.0872  0.2575  0.0789
14315W        W18615   3.510   3.917  24.610  0.0606 -0.2903 -0.0593
14316W        W18616   4.882   5.260  37.115  0.5453 -0.1072 -0.1772
14317W        W18617  16.575   5.246  10.656 -0.1408  0.3887 -0.0168
14318W        W18618  10.910   0.778  38.331  0.1244 -0.2561 -0.2090
14319W        W18619   1.150   3.489  28.195  0.3445  0.0908  0.0656
14320W        W18620  17.442   0.491   4.434  0.1373 -0.0468 -0.1750
14321W        W18621   7.065   1.047  37.189  0.1413 -0.1652  0.1455
14322W        W18622  11.735   3.732  39.054 -0.0398 -0.0121  0.1110
14323W        W18623   4.929   2.950   9.765 -0.1256 -0.2839  0.0639
14324W        W18624  17.078   0.259  10.650  0.0215 -0.0749  0.1290
14325W        W18625   9.802   5.272  34.002  0.0072  0.2422 -0.1717
14326W        W18626   3.925   1.160   0.353  0.3026  0.1035 -0.0307
14327W        W18627  20.557   3.597  40.571  0.0088  0.1579  0.0174
14328W        W18628   4.079   3.248  27.084 -0.2347  0.2764 -0.0736
14329W        W18629  16.536   4.010  33.232  0.1310  0.1057 -0.0477
14330W        W18630   8.788   3.877  27.547  0.0456 -0.0720 -0.2150
14331W        W18631  14.264   3.820  10.407  0.0802  0.2668 -0.1193
14332W        W18632   4.132   5.914  13.420  0.0166 -0.2034  0.1052
14333W        W18633  13.883   3.570  13.461 -0.0008 -0.0095  0.3052
14334W        W18634  17.382   4.061  43.985  0.0064 -0.1781  0.0856
14335W        W18635  18.721   0.322  20.894  0.1221  0.1431  0.0461
14336W        W18636  16.297   2.705  39.918  0.0298  0.0411  0.2299
14337W        W18637   8.488   2.349   0.587  0.0112  0.1960 -0.0723
14338W        W18638   5.532   3.752  40.958 -0.0427  0.3307  0.0995
14339W        W18639   9.731   2.040  12.008  0.2563 -0.0523  0.2741
14340W        W18640   1.556   0.136  30.695 -0.0445  0.1664  0.1378
14341W        W18641   0.691   0.537  13.167  0.1594 -0.2904 -0.1559
14342W        W18642   5.912   3.072   7.432  0.0372  0.0594  0.1567
14343W        W18643   7.271   1.258  43.016 -0.0178 -0.0499 -0.1723
14344W        W18644   4.181   2.572  23.324  0.1624 -0.0330 -0.1941
14345W        W18645  11.619   0.793  32.405 -0.3411 -0.0493  0.1707
14346W        W18646  20.070   5.177  32.389 -0.0759  0.1141  0.2092
14347W        W18647   5.758   6.362   4.046  0.1809  0.0610 -0.3263
14348W        W18648   8.503   0.290   7.258 -0.0264  0.3127  0.0840
14349W        W18649  18.165   2.577   0.357  0.2445 -0.1171 -0.0787
14350W        W18650  13.229   5.096  41.856 -0.1289 -0.2332 -0.0993
14351W        W18651  13.423   2.136   6.720 -0.0131 -0.1997  0.0360
14352W        W18652  13.181   4.341  36.025 -0.2287 -0.0933 -0.1681
14353W        W18653  13.459   2.580  32.833  0.0205  0.0448 -0.1339
14354W        W18654  20.477   6.383   2.047 -0.4218 -0.1095  0.0759
14355W        W18655  11.735   4.388  28.231  0.0958  0.0239 -0.0568
14356W        W18656   7.111   6.233  23.848  0.1418  0.1630  0.2911
14357W        W18657   8.578   5.261  28.727  0.1148  0.1780  0.2136
14358W        W18658  19.052   5.682  32.126  0.0316 -0.0329  0.0256
14359W        W18659   6.758   4.693   8.865 -0.3434  0.0551 -0.2262
14360W        W18660   4.385   1.339   7.155 -0.0049 -0.0532  0.0490
14361W        W18661  10.178   3.112   1.204 -0.0652 -0.2239 -0.0558
14362W        W18662  13.021   1.351   9.348 -0.1480  0.1038 -0.1578
14363W        W18663  13.249   0.347  41.330  0.2414 -0.0842 -0.0164
14364W        W18664  12.891   2.294   9.215 -0.0029  0.0396  0.0221
14365W        W18665  17.492   3.642   0.336  0.1396 -0.1108 -0.1200
14366W        W18666  20.189   2.777  19.002 -0.2817 -0.2381 -0.0831
14367W        W18667   0.877   0.373  17.334  0.1077 -0.1081  0.2637
14368W        W18668   7.455   4.212   2.672 -0.0697  0.0707  0.2645
14369W        W18669   9.355   2.913   1.178  0.2403 -0.0894 -0.3154
14370W        W18670  18.088   0.175   8.649  0.1683 -0.1372 -0.0494
14371W        W18671   2.328   5.366  16.544  0.2235  0.1721  0.1116
14372W        W18672  12.504   1.518  14.540 -0.0233  0.5341 -0.0082
14373W        W18673   2.093   0.380  25.720  0.0283 -0.2580  0.1027
14374W        W18674   3.031   3.321  15.560  0.0527 -0.0965  0.1374
14375W        W18675   0.087   2.188   1.176  0.2447 -0.0535  0.0986
14376W        W18676  19.385   0.960  17.773  0.1298 -0.4117 -0.1932
14377W        W18677  15.766   6.075  17.278  0.0480 -0.0482 -0.2498
14378W        W18678   5.007   2.932  43.445 -0.1314  0.0170 -0.1538
14379W        W18679  12.003   4.706   3.748  0.0597 -0.0977 -0.1329
14380W        W18680   4.457   3.037  30.234 -0.0922 -0.2494  0.0381
14381W        W18681  17.860   0.980   1.109 -0.1308  0.2278 -0.1023
14382W        W18682  19.763   4.318  11.233 -0.1536  0.2962  0.0491
14383W        W18683  18.647   1.233  16.655 -0.0525  0.2840 -0.0655
14384W        W18684  10.539   2.450  14.948 -0.2892  0.0175  0.0101
14385W        W18685  12.857   2.588  39.401 -0.4209 -0.0007  0.2270
14386W        W18686  10.445   0.099  40.653  0.2182  0.2656 -0.0531
14387W        W18687   5.265   0.607  41.782 -0.2100 -0.0314 -0.0018
14388W        W18688  11.646   5.773  39.350 -0.1817  0.2322 -0.1107
14389W        W18689  19.379   2.909  12.875 -0.2968  0.2037  0.1103
14390W        W18690  11.487   3.836  13.676 -0.3803  0.0040  0.1816
14391W        W18691  18.079   6.569  10.416 -0.0619  0.0501 -0.1816
14392W        W18692  19.353   0.337  13.318  0.1593 -0.1932 -0.0845
14393W        W18693   7.923   1.644  44.963 -0.0034  0.0053 -0.3118
14394W        W18694   0.154   1.792  32.486  0.0580 -0.2572  0.1231
14395W        W18695   9.044   4.875  39.861  0.3161 -0.0391 -0.0478
14396W        W18696   1.291   6.036   7.427  0.1690 -0.2669 -0.0555
14397W        W18697  18.927   1.421  32.325 -0.1981  0.0485  0.3429
14398W        W18698   7.123   4.342  15.210  0.0116  0.1348  0.1333
14399W        W18699   2.604   4.128   7.149  0.0744  0.2419  0.2219
14400W        W18700  16.013   3.669  44.892  0.2299  0.4059 -0.3042
14401W        W18701  12.836   4.933  32.212 -0.1627 -0.1542 -0.1150
14402W        W18702  18.373   1.322  15.269  0.0164 -0.0545  0.0640
14403W        W18703   4.306   4.733  40.324  0.1121 -0.1248  0.0624
14404W        W18704   6.183   4.379  12.275  0.1345 -0.1443  0.2570
14405W        W18705  12.605   1.647  44.844  0.1920  0.0496 -0.0370
14406W        W18706   7.045   5.590  23.078 -0.0305  0.2433 -0.0484
14407W        W18707  16.464   4.527  12.476 -0.3863  0.1333 -0.0176
14408W        W18708  19.567   4.348   5.021  0.0744  0.0164 -0.1939
14409W        W18709   8.078   5.187  31.655 -0.1081 -0.1558  0.0462
14410W        W18710   7.629   0.204  35.854  0.2736  0.1277 -0.3609
14411W        W18711  15.516   2.107  38.304 -0.2114 -0.0175 -0.0838
14412W        W18712  10.189   0.143   1.890  0.1975  0.0662 -0.6208
14413W        W18713   1.738   3.893  31.874 -0.1160  0.1172 -0.0890
14414W        W18714  11.950   4.307  27.819 -0.0274  0.1131 -0.1640
14415W        W18715   9.257   6.353  35.017  0.0184 -0.0676  0.0367
14416W        W18716  17.246   3.116  29.161 -0.3619 -0.1248 -0.3720
14417W        W18717  17.955   3.285  13.048 -0.3083  0.6033 -0.0766
14418W        W18718  15.836   5.655   2.799 -0.1679 -0.2083  0.0824
14419W        W18719  11.077   1.119  14.488 -0.0421 -0.1909  0.1957
14420W        W18720   6.158   6.421  25.931 -0.0092 -0.1108  0.2162
14421W        W18721   1.256   3.239   0.399 -0.0690  0.1175  0.2356
14422W        W18722  15.231   5.517  18.338  0.0809  0.0578  0.0422
14423W        W18723  16.948   1.990   1.646  0.1918 -0.2333 -0.2227
14424W        W18724   8.394   2.272  41.147 -0.2484 -0.2374  0.0122
14425W        W18725  18.473   2.542  13.468 -0.3764  0.3130 -0.4520
14426W        W18726  10.544   1.320   7.174  0.0065  0.2913  0.2384
14427W        W18727  20.617   1.204  30.627  0.1007  0.0486 -0.0306
14428W        W18728   0.885   0.277   7.810  0.1585 -0.2357 -0.0508
14429W        W18729   4.318   1.515  14.013  0.0127 -0.2107  0.1362
14430W        W18730   3.459   1.583  27.261 -0.2665  0.2697  0.0669
14431W        W18731   6.216   2.205  42.199  0.1389  0.0311  0.2121
14432W        W18732   3.439   4.017  42.172 -0.1229  0.0736  0.0348
14433W        W18733   0.379   5.354  17.630  0.1341  0.0494  0.0877
14434W        W18734  18.262   1.566  23.550 -0.0121  0.1093  0.1720
14435W        W18735   3.283   4.130  23.637  0.0926  0.0995 -0.1767
14436W        W18736   8.087   6.537  16.284  0.1038  0.2827 -0.0285
14437W        W18737   3.874   2.112  33.623  0.0506  0.0016  0.2533
14438W        W18738  13.299   3.687  32.011  0.0079 -0.1463 -0.0076
14439W        W18739   8.399   0.491  27.470  0.1436  0.0016  0.1973
14440W        W18740  12.157   2.187  17.870 -0.0125 -0.1725  0.3109
14441W        W18741   0.407   1.404  18.053  0.1430  0.3422  0.1360
14442W        W18742  10.264   0.820   7.036  0.1893  0.3823 -0.0374
14443W        W18743   2.624   1.564   3.084 -0.2945 -0.0164  0.1214
14444W        W18744   2.006   5.021  39.998 -0.3026 -0.1017 -0.3102
14445W        W18745   3.012   6.032  13.387  0.0806 -0.0770 -0.2080
14446W        W18746  17.425   0.451  18.996 -0.0698 -0.0794 -0.2674
14447W        W18747  17.296   0.493  15.941 -0.0986  0.1371  0.1891
14448W        W18748  18.796   1.594  31.651 -0.0358 -0.1370 -0.2270
14449W        W18749  10.107   5.778  40.547  0.6086  0.3116 -0.1414
14450W        W18750  19.547   1.763  42.214  0.1179 -0.2806 -0.1234
14451W        W18751  17.579   4.428  39.853 -0.0926 -0.1902 -0.0103
14452W        W18752   0.687   2.603  15.911 -0.0048 -0.0754  0.0733
14453W        W18753   9.872   4.617  38.778 -0.1293  0.2386 -0.0129
14454W        W18754   0.014   0.945   2.016  0.2171  0.2549 -0.3809
14455W        W18755   4.737   5.169  30.581  0.1056  0.2958  0.1691
14456W        W18756  18.556   3.962   7.279 -0.0482 -0.1851 -0.1532
14457W        W18757   6.782   2.578  16.390 -0.0150 -0.1478  0.2674
14458W        W18758   1.861   4.558  40.946  0.5337 -0.0329 -0.1571
14459W        W18759   3.771   6.076  25.412 -0.1353  0.0403  0.0065
14460W        W18760   8.068   3.810   0.785  0.2370  0.1839  0.0254
14461W        W18761   8.315   1.910  17.390  0.1009  0.2461  0.1256
14462W        W18762   6.931   6.065  38.581 -0.2238  0.0723 -0.2556
14463W        W18763  10.212   4.777  33.430 -0.0478 -0.0996 -0.0761
14464W        W18764  17.410   6.341   8.852 -0.2111  0.1553 -0.0560
14465W        W18765   6.365   3.857  12.981 -0.1563  0.2385 -0.2258
14466W        W18766  11.747   6.601   3.132 -0.1140  0.0899 -0.0998
14467W        W18767  14.647   3.533   6.374  0.1016 -0.0881 -0.2695
14468W        W18768   3.663   6.512   9.510  0.1233 -0.0622  0.5373
14469W        W18769   0.546   1.627  35.337 -0.1819 -0.2660  0.1262
14470W        W18770   1.816   4.072  28.002 -0.1988  0.0323  0.0443
14471W        W18771  13.254   2.644  34.376 -0.0724  0.1490  0.0633
14472W        W18772  12.692   3.602  20.263 -0.2247 -0.0433  0.1402
14473W        W18773  17.183   0.641   5.846  0.0359 -0.2160 -0.0881
14474W        W18774   1.610   4.754  10.558 -0.1052  0.0100 -0.0636
14475W        W18775  12.392   4.034  43.373 -0.1320  0.3047 -0.2095
14476W        W18776  17.391   3.336  34.641 -0.1304  0.1192 -0.2073
14477W        W18777  14.071   5.373  36.984  0.1428  0.1689  0.1079
14478W        W18778  12.596   5.669  14.679  0.1770 -0.2342 -0.0367
14479W        W18779  14.725   3.453   8.817  0.0094 -0.1810  0.2474
14480W        W18780  17.832   4.159  35.642 -0.0669  0.0407 -0.1906
14481W        W18781  11.971   1.337  29.512 -0.1292  0.1266 -0.1050
14482W        W18782  19.634   5.754  34.387 -0.0672 -0.0836 -0.1199
14483W        W18783  18.670   2.779  30.822  0.1231 -0.0078 -0.1330
14484W        W18784   4.659   3.263  13.708 -0.4334  0.1381  0.1399
14485W        W18785  11.469   6.588   5.674 -0.2501 -0.0866 -0.3256
14486W        W18786   0.179   6.571   7.396  0.1976 -0.0761 -0.0852
14487W        W18787   1.453   3.539   9.113 -0.1764  0.0888 -0.4083
14488W        W18788  15.885   2.236  11.339  0.1634 -0.3368 -0.2561
14489W        W18789  12.636   3.808  35.459  0.0177 -0.0266  0.1587
14490W        W18790  15.149   4.833  20.558  0.2220  0.3865  0.2833
14491W        W18791  19.974   2.751  11.723 -0.0252 -0.0888 -0.0187
14492W        W18792  14.648   2.807  40.474 -0.0251  0.0952 -0.1764
14493W        W18793   9.844   1.495   6.014 -0.0794  0.2529  0.0353
14494W        W18794   4.338   6.282  41.175 -0.0444  0.0273  0.1988
14495W        W18795  19.383   6.129   4.744 -0.0947  0.0268 -0.0153
14496W        W18796   5.733   0.057   2.194  0.2929 -0.0357  0.3693
14497W        W18797  11.548   0.415  29.366 -0.0264 -0.3909  0.2759
14498W        W18798  15.766   5.481  14.843 -0.0210 -0.1806  0.4413
14499W        W18799  18.747   5.376  11.544 -0.0179 -0.0672  0.0905
14500W        W18800   2.156   1.699  35.193 -0.0642  0.2390 -0.2144
14501W        W18801   1.799   3.809  33.882  0.1109 -0.2382 -0.0607
14502W        W18802   4.767   3.608  25.074 -0.0020 -0.0331 -0.0804
14503W        W18803  17.408   2.146   7.392 -0.0614 -0.0074 -0.2421
14504W        W18804  13.419   5.657  16.304  0.2535  0.0121  0.1274
14505W        W18805   7.901   1.267  34.540 -0.2864 -0.0723  0.0666
14506W        W18806  20.285   2.002   9.281 -0.1051 -0.1849 -0.3455
14507W        W18807  15.072   0.850   0.540  0.0368  0.0742 -0.1807
14508W        W18808   5.548   6.292  30.450  0.1776  0.0361  0.0193
14509W        W18809  15.352   3.704  19.909 -0.1660 -0.2044  0.0661
14510W        W18810   0.417   2.276   2.895  0.0130  0.0174  0.1630
14511W        W18811  13.661   4.423  20.028 -0.3430 -0.2843  0.0085
14512W        W18812  19.089   3.549  40.638 -0.1245  0.1953 -0.1390
14513W        W18813  10.292   3.067   7.524 -0.1210 -0.0568  0.0054
14514W        W18814  13.181   3.566   5.471 -0.0014 -0.2913  0.5606
14515W        W18815  13.355   6.227   1.277 -0.1644 -0.0312 -0.0889
14516W        W18816  13.508   5.892  36.946 -0.1784  0.0951  0.0975
14517W        W18817  10.082   3.152   9.161  0.0671  0.1882  0.0735
14518W        W18818  15.231   3.717  18.909 -0.1131 -0.1412 -0.0148
14519W        W18819  12.030   6.471  12.463 -0.5452 -0.2156 -0.0840
14520W        W18820   0.667   6.086   2.973  0.1075 -0.2740  0.0745
14521W        W18821  11.616   2.021  14.120  0.0226  0.0266 -0.1145
14522W        W18822  10.416   2.815  43.756  0.1582  0.0252  0.1164
14523W        W18823  14.411   0.787   1.796  0.4485 -0.0830  0.0779
14524W        W18824   8.604   2.274   5.311 -0.2163  0.0826 -0.3487
14525W        W18825   4.689   4.546  26.675 -0.3539  0.1008  0.2181
14526W        W18826   8.315   0.248  42.479  0.1150  0.1251 -0.0257
14527W        W18827   1.075   3.052   9.825  0.0673  0.1460  0.1212
14528W        W18828   9.717   4.117  35.161  0.1883  0.0318  0.0945
14529W        W18829   5.549   2.632  16.396  0.0284  0.0012 -0.0116
14530W        W18830  12.501   5.097  44.045  0.1753  0.2610  0.2013
14531W        W18831  14.705   0.226  22.173  0.0006  0.0530  0.0247
14532W        W18832   7.812   5.661   9.426 -0.1114 -0.0252  0.0509
14533W        W18833  12.095   1.361  31.289 -0.1271 -0.3801 -0.0683
14534W        W18834  13.197   1.637  11.215  0.2866 -0.3669  0.1607
14535W        W18835   7.288   2.482  35.303  0.3122 -0.1413  0.0582
14536W        W18836   0.629   3.467  37.617 -0.3510  0.0687 -0.1623
14537W        W18837  11.676   2.429   4.628 -0.0423  0.0117  0.3371
14538W        W18838  11.774   3.960  44.260  0.1654 -0.2149  0.2483
14539W        W18839  13.522   4.740  12.107  0.3142  0.3109  0.1436
14540W        W18840  16.832   1.630  39.709 -0.0924 -0.2701  0.3594
14541W        W18841  16.080   6.093  40.872  0.0418 -0.1698 -0.1046
14542W        W18842  13.525   5.798   1.877  0.3042  0.1446 -0.1048
14543W        W18843  12.667   0.869  28.166 -0.3935 -0.0343 -0.0453
14544W        W18844   6.139   1.600  21.211  0.1746  0.0172 -0.0550
14545W        W18845  17.329   4.420  33.038 -0.0762  0.0103 -0.2783
14546W        W18846   1.611   2.963  34.124 -0.0822 -0.0000  0.0795
14547W        W18847  12.464   3.892  34.477  0.2565  0.0847 -0.0101
14548W        W18848   3.462   4.948   8.461  0.0775  0.1193  0.0243
14549W        W18849   0.557   4.890  38.599  0.0518  0.1628 -0.0248
14550W        W18850   5.734   0.503   0.951  0.0104  0.2548  0.0645
14551W        W18851  18.457   4.108   1.307  0.0748 -0.1110 -0.1601
14552W        W18852  14.965   3.473  42.752  0.0392  0.0833 -0.1984
14553W        W18853  20.430   1.706  35.014  0.0061  0.0249 -0.1153
14554W        W18854   6.829   5.457  13.838  0.0864 -0.1344  0.2299
14555W        W18855  20.096   1.253  42.633  0.1012  0.2170  0.0298
14556W        W18856  15.588   1.059  37.271 -0.0665 -0.2152 -0.2299
14557W        W18857   2.662   3.626   8.278 -0.1389  0.3043  0.1956
14558W        W18858   2.365   1.719  39.267 -0.0106  0.4508 -0.4010
14559W        W18859  11.786   2.377   3.938  0.1071 -0.0736 -0.1157
14560W        W18860  20.146   3.609  35.316 -0.0212 -0.0732  0.0856
14561W        W18861  12.892   2.291  34.390 -0.1711  0.3617 -0.1386
14562W        W18862   1.049   3.125   1.366  0.2013 -0.2809  0.1622
14563W        W18863   3.426   0.931   7.486 -0.0310  0.1726 -0.0183
14564W        W18864   8.217   6.460  42.895 -0.3291  0.0420  0.1571
14565W        W18865   5.490   3.550  37.195 -0.0822 -0.0418 -0.0652
14566W        W18866  16.326   5.003  12.630  0.0560  0.2533  0.0371
14567W        W18867   1.122   5.509  33.744 -0.0039 -0.0346 -0.0983
14568W        W18868  10.402   2.566  11.552  0.1272 -0.0678  0.1845
14569W        W18869  13.421   1.648  32.211  0.2224 -0.2024  0.1221
14570W        W18870   9.698   4.516   8.437  0.1502 -0.0847 -0.1253
14571W        W18871   8.136   6.481   3.011 -0.1356 -0.1352 -0.0542
14572W        W18872   1.158   3.378  28.918  0.0965 -0.0453 -0.0906
14573W        W18873  10.777   0.378  31.090  0.2099 -0.0117  0.0294
14574W        W18874  11.074   6.277  41.138 -0.3390 -0.0877 -0.0664
14575W        W18875  18.565   5.836  44.588  0.0008 -0.1184  0.4060
14576W        W18876   3.768   5.764  42.457 -0.1622 -0.1679  0.1334
14577W        W18877   5.109   5.044  30.921  0.0914  0.0772 -0.1023
14578W        W18878  18.931   5.172  12.941 -0.2153  0.0150 -0.0860
14579W        W18879  20.151   1.777  19.427 -0.1464  0.0043 -0.0218
14580W        W18880  10.957   2.433  35.096  0.2053  0.1613 -0.0098
14581W        W18881   3.816   2.755  12.252 -0.0601  0.0273  0.4135
14582W        W18882  16.649   0.989   2.381  0.2898  0.0504  0.0021
14583W        W18883  14.067   4.544   6.799  0.1561 -0.0553  0.0772
14584W        W18884   0.738   1.058  31.979  0.0533 -0.1233  0.0899
14585W        W18885   0.399   4.808  35.383 -0.1170 -0.1237  0.2138
14586W        W18886  13.166   2.789  43.168  0.1105 -0.3183  0.0037
14587W        W18887  12.663   3.828  40.460  0.1333  0.1109  0.2895
14588W        W18888  18.408   2.192  15.734  0.0859 -0.3977 -0.2139
14589W        W18889  18.597   4.556  36.886 -0.0708 -0.1449 -0.3534
14590W        W18890   5.379   5.225  23.259  0.0689  0.1205  0.0398
14591W        W18891   0.273   0.180  44.267  0.1113 -0.1785  0.0302
14592W        W18892  20.179   1.713  44.782  0.1116  0.0102  0.1224
14593W        W18893   3.881   0.498  28.152 -0.1184  0.1545 -0.1914
14594W        W18894   6.000   1.323  10.251  0.2155 -0.2325 -0.1633
14595W        W18895  10.107   4.340  26.653 -0.2432 -0.1466  0.0128
14596W        W18896   9.097   6.359  10.948 -0.4001  0.2851  0.0093
14597W        W18897  11.655   4.517  29.243  0.1354 -0.0862  0.0283
14598W        W18898   6.015   3.863  19.926 -0.3290 -0.1600 -0.1317
14599W        W18899   8.832   1.649   0.350 -0.1005 -0.0819 -0.0069
14600W        W18900   9.813   4.183   1.184  0.0853 -0.1940 -0.1434
14601W        W18901  14.216   2.145  40.176 -0.0372 -0.3046  0.1873
14602W        W18902   6.362   4.121  34.458 -0.0681  0.1037 -0.1665
14603W        W18903   4.224   1.381   9.594  0.3611  0.2602 -0.0168
14604W        W18904   4.329   0.173  22.277 -0.2411  0.1254 -0.3128
14605W        W18905  13.230   2.937   1.085 -0.1874 -0.1280  0.0477
14606W        W18906  14.900   4.403  29.936 -0.2531  0.2514  0.0524
14607W        W18907  13.930   5.184  20.719 -0.1078 -0.0238 -0.2464
14608W        W18908  19.294   2.519  31.657  0.2137  0.0633 -0.0078
14609W        W18909   3.949   4.649  44.924 -0.0581 -0.0612  0.2743
14610W        W18910   9.315   5.878  10.074  0.1561 -0.0850  0.1011
14611W        W18911  11.743   4.385   0.489  0.0431 -0.2275 -0.0702
14612W        W18912  19.272   2.448  39.990  0.1998  0.0160 -0.0742
14613W        W18913  12.715   6.572  11.066 -0.3485  0.2064 -0.2622
14614W        W18914   8.845   4.158  30.154  0.1354 -0.3591  0.0128
14615W        W18915  16.408   2.720  37.582 -0.1111  0.1544  0.0118
14616W        W18916   8.139   4.230  38.260 -0.0459 -0.2248 -0.1406
14617W        W18917  10.730   4.114   3.295 -0.1369 -0.1623  0.2054
14618W        W18918   2.538   3.690  29.182 -0.1353 -0.0555  0.1024
14619W        W18919  16.793   2.089  40.657  0.2593 -0.2793  0.0566
14620W        W18920  15.742   1.932   1.858 -0.0731  0.2653 -0.0659
14621W        W18921   6.032   2.392  12.650 -0.0127  0.0446 -0.0196
14622W        W18922  11.703   1.681  42.251  0.0208 -0.0520 -0.0561
14623W        W18923  12.546   4.460   6.298 -0.0286 -0.2650  0.0105
14624W        W18924  21.143   0.460   3.548 -0.2190 -0.1833  0.2023
14625W        W18925  13.012   6.006  35.781  0.0858  0.0256  0.2891
14626W        W18926   1.579   3.910   1.539  0.2575 -0.3738  0.0621
14627W        W18927  10.341   5.934  14.506  0.0014  0.2490  0.1113
14628W        W18928   3.875   3.490  26.265  0.0538  0.3345  0.0136
14629W        W18929  20.917   1.737  43.309 -0.2577  0.1145 -0.0708
14630W        W18930  14.667   1.068  42.581  0.1528  0.0139 -0.3840
14631W        W18931  17.699   0.325  13.639 -0.2232 -0.0087  0.0317
14632W        W18932  10.809   1.282  43.108 -0.0561  0.3850 -0.1485
14633W        W18933  10.969   1.596  33.353  0.0172  0.0560  0.1594
14634W        W18934   8.473   2.605  30.634 -0.2416  0.0898  0.3587
14635W        W18935   7.647   1.772  30.135  0.1814 -0.3083 -0.1244
14636W        W18936  13.258   1.459  13.927  0.4259 -0.0581  0.2072
14637W        W18937   2.319   2.421  26.660 -0.1133 -0.1955 -0.1709
14638W        W18938  10.868   2.602  26.125  0.1259  0.2586 -0.1768
14639W        W18939  16.776   0.260   7.199  0.1656 -0.0793 -0.0996
14640W        W18940  19.760   6.547  35.322  0.0638 -0.1626 -0.0518
14641W        W18941   5.401   2.002  15.657  0.0265 -0.1619 -0.2022
14642W        W18942  12.988   3.229  32.186 -0.0390 -0.0759 -0.1488
14643W        W18943   8.034   4.454  16.063 -0.0808  0.3189 -0.0683
14644W        W18944   9.647   6.443  31.197  0.0450 -0.2762  0.1885
14645W        W18945   6.672   5.224  41.051 -0.0586 -0.2337 -0.1717
14646W        W18946  18.269   0.097  43.223  0.1473 -0.2244 -0.1125
14647W        W18947  13.814   5.535   4.956  0.0483 -0.1547 -0.2883
14648W        W18948  19.985   1.456   1.046 -0.0272 -0.1423  0.0623
14649W        W18949   2.267   2.041   1.268 -0.2338  0.1217 -0.2273
14650W        W18950  16.220   1.168  35.768 -0.1167 -0.2800  0.2075
14651W        W18951   2.413   4.869   4.754 -0.0913 -0.3323 -0.1763
14652W        W18952  15.904   1.561  34.321  0.2430 -0.2187  0.4841
14653W        W18953   6.913   1.409  26.168  0.0282 -0.2446 -0.0880
14654W        W18954  19.761   3.141   3.566 -0.0757 -0.1841 -0.0710
14655W        W18955  16.718   1.813  25.840 -0.1406 -0.2338  0.1977
14656W        W18956   0.238   4.694  33.962 -0.1854  0.0992 -0.3067
14657W        W18957   7.868   0.000   3.551  0.3905  0.2543 -0.0812
14658W        W18958   3.660   0.703  15.943 -0.0994 -0.1341  0.2726
14659W        W18959  17.693   3.726  20.301 -0.3538  0.2233  0.2827
14660W        W18960  12.649   6.015  19.856 -0.1528  0.2855  0.1267
14661W        W18961   6.413   0.746  10.997  0.2831  0.1917  0.0201
14662W        W18962   4.380   6.389  38.888 -0.1833  0.1833  0.1878
14663W        W18963  13.135   4.817  43.301  0.1942 -0.0597 -0.1421
14664W        W18964  19.297   4.641   9.352 -0.0280 -0.0776  0.0774
14665W        W18965   0.221   4.982  36.670 -0.3082  0.0790 -0.3436
14666W        W18966  10.010   1.593  29.138  0.0795  0.1924  0.0751
14667W        W18967  14.990   5.094  15.673 -0.0842  0.1288  0.3824
14668W        W18968   5.301   4.748  32.700  0.2808 -0.1388  0.0069
14669W        W18969   2.736   0.323   4.330 -0.1193 -0.1602  0.1966
14670W        W18970  12.253   5.876  44.653 -0.1332  0.1629  0.0596
14671W        W18971   7.252   6.306   6.080  0.1677 -0.0768 -0.1441
14672W        W18972  16.608   3.126  32.958 -0.1123 -0.3728 -0.1206
14673W        W18973  11.530   3.387  28.027 -0.1897  0.0529 -0.0519
14674W        W18974  17.246   5.702  19.025  0.1954 -0.2032  0.0607
14675W        W18975   9.202   4.677  12.190 -0.0853  0.1052  0.0448
14676W        W18976  11.956   5.939  44.167 -0.3602 -0.1769  0.3121
14677W        W18977   9.317   5.432  41.162  0.1185 -0.5077  0.0825
14678W        W18978   5.991   1.814  28.116 -0.0407  0.1359  0.0165
14679W        W18979   5.310   2.246   5.363  0.3919 -0.0777  0.1965
14680W        W18980  14.428   6.356  29.203 -0.0256  0.0357 -0.3717
14681W        W18981   3.318   5.123  34.467 -0.0814  0.0785 -0.0461
14682W        W18982  10.097   1.424   0.019 -0.0664  0.0589  0.0894
14683W        W18983   6.451   1.616   3.954  0.1730  0.1053 -0.1427
14684W        W18984  20.808   3.219  18.995  0.1288  0.0715  0.1949
14685W        W18985   6.195   1.407  34.078  0.0847  0.1362 -0.4752
14686W        W18986   2.538   1.581  33.969  0.1285  0.3208  0.0130
14687W        W18987  11.394   5.100   2.070  0.1927 -0.1173  0.2089
14688W        W18988  17.702   4.540   9.710 -0.1274 -0.0346  0.1606
14689W        W18989   2.709   4.129  31.731  0.0817 -0.4001  0.1384
14690W        W18990  13.246   6.429  13.236 -0.3129  0.0734  0.1545
14691W        W18991   2.286   2.353  37.500 -0.1953  0.0706  0.1641
14692W        W18992   2.678   5.534  15.377 -0.0918  0.3098  0.0863
14693W        W18993  12.451   2.909  19.611  0.0473  0.4324 -0.1558
14694W        W18994   4.408   0.421  35.117  0.1594  0.2876  0.1268
14695W        W18995  19.411   2.649  17.638  0.1980  0.0287 -0.2625
14696W        W18996  17.796   2.877  10.003  0.2066  0.4671  0.0231
14697W        W18997  17.337   2.124   2.972  0.6198 -0.0746 -0.0444
14698W        W18998  18.638   4.120   8.187 -0.0877  0.1834  0.0352
14699W        W18999   6.093   2.607   7.416 -0.1199  0.0865  0.0381
14700W        W19000   5.699   4.259  12.558  0.0872 -0.0200  0.2071
14701W        W19001  13.205   6.176  36.708 -0.2196  0.4393 -0.0249
14702W        W19002  17.541   2.220   5.546 -0.1194 -0.0626 -0.0417
14703W        W19003  14.587   2.781  41.020 -0.1160 -0.0796  0.1367
14704W        W19004  18.178   1.901  12.447  0.0156 -0.1771  0.4380
14705W        W19005  20.091   4.321  37.776 -0.2418  0.1002 -0.0640
14706W        W19006   5.244   3.100  44.283 -0.0906  0.1834  0.0912
14707W        W19007  11.777   1.201  13.034  0.1233 -0.2528 -0.2646
14708W        W19008   8.558   1.417  27.365  0.1231  0.1081 -0.0912
14709W        W19009   4.703   2.510  11.827 -0.0703  0.1861 -0.0959
14710W        W19010   8.747   6.355  42.149  0.0304 -0.1093 -0.0455
14711W        W19011  11.620   5.901  17.560  0.1391  0.2087  0.1080
14712W        W19012   5.710   1.802  34.643  0.1007 -0.1871 -0.0583
14713W        W19013   8.024   5.222  38.118  0.0603 -0.2360  0.0687
14714W        W19014   7.205   1.854  28.716  0.4095 -0.1195  0.3487
14715W        W19015  12.600   5.230   5.583  0.1545  0.0954 -0.0841
14716W        W19016   9.450   5.863   3.079  0.1397 -0.0239  0.1918
14717W        W19017   7.138   3.721   4.837  0.2133 -0.1989  0.1819
14718W        W19018  12.614   5.818   9.594  0.0818  0.2301 -0.1943
14719W        W19019  12.002   0.980  39.790  0.1422 -0.0336 -0.0102
14720W        W19020   0.989   4.006   2.213  0.1605  0.0880  0.1366
14721W        W19021   9.251   5.162   7.089 -0.0038 -0.0308  0.1047
14722W        W19022   3.264   0.037   6.011  0.3890  0.1121  0.0416
14723W        W19023   1.605   2.136  35.568  0.3831  0.0464  0.0483
14724W        W19024   5.538   5.506  36.135  0.5375  0.2784 -0.0807
14725W        W19025  16.823   1.032   4.970  0.1087 -0.0287 -0.2011
14726W        W19026  12.619   6.216  31.115  0.0320  0.0079 -0.1513
14727W        W19027  17.078   4.506   6.658 -0.1126 -0.2396 -0.0935
14728W        W19028   0.457   1.836   8.415 -0.1276  0.1765 -0.3417
14729W        W19029   4.959   4.452  15.331  0.2256  0.3920  0.0230
14730W        W19030   6.124   4.165   2.241 -0.0794 -0.0248 -0.1886
14731W        W19031   9.101   0.798   7.853  0.4248  0.1137 -0.0016
14732W        W19032   8.942   2.281  36.301  0.0213  0.1019 -0.1171
14733W        W19033  17.060   0.029  35.901 -0.0717 -0.0724  0.2047
14734W        W19034  13.560   5.404  20.511  0.1672 -0.0962  0.0027
14735W        W19035  11.149   2.306   5.218 -0.2620  0.0925  0.3855
14736W        W19036  20.013   0.140   8.971  0.1948 -0.1164  0.1278
14737W        W19037  14.198   3.815  18.029 -0.1689 -0.2332 -0.3106
14738W        W19038   9.214   4.119   3.962 -0.1020 -0.1062 -0.1192
14739W        W19039  20.213   1.729  14.974  0.1801 -0.1012 -0.0895
14740W        W19040  18.818   3.483  38.061 -0.0861  0.1200 -0.2187
14741W        W19041  18.370   5.005  13.758 -0.0412 -0.1083  0.2205
14742W        W19042  15.764   5.147  40.763  0.1145 -0.1444 -0.1578
14743W        W19043   7.858   2.092  26.160  0.2637 -0.2984  0.1928
14744W        W19044  13.290   6.140  41.197  0.0339 -0.1207 -0.0824
14745W        W19045   1.224   3.773  40.879 -0.0758 -0.0935  0.2446
14746W        W19046   8.303   1.617   4.344 -0.0950  0.2131 -0.1668
14747W        W19047   1.064   1.286  38.863 -0.0341  0.0607  0.0305
14748W        W19048  16.315   1.881  18.202 -0.1411 -0.0466  0.3069
14749W        W19049  15.538   2.306  30.375 -0.0294  0.0079  0.2232
14750W        W19050  18.685   1.916  42.264  0.2790  0.0067 -0.1237
14751W        W19051  14.356   6.248  19.415 -0.1500  0.0100  0.0451
14752W        W19052  16.646   4.472  12.030  0.0563  0.3966 -0.1674
14753W        W19053   1.153   3.940  43.516 -0.0195 -0.0825 -0.1896
14754W        W19054   6.597   4.012  32.149 -0.0466 -0.1055 -0.0688
14755W        W19055  19.475   5.935  41.000  0.0025  0.2560  0.1730
14756W        W19056  12.940   2.360  37.405  0.2349  0.0969 -0.0288
14757W        W19057  11.824   6.001  34.094  0.0912  0.2808  0.0561
14758W        W19058   4.247   2.137  25.751 -0.0547 -0.1121 -0.0695
14759W        W19059  12.705   0.014  14.186  0.2120  0.0916  0.1991
14760W        W19060   8.201   0.329  44.751 -0.2291  0.2600 -0.3787
14761W        W19061   0.729   0.109  10.975  0.1626  0.0222  0.0571
14762W        W19062  10.960   4.985  13.915  0.3011  0.1789  0.1304
14763W        W19063  19.128   6.180   2.161 -0.1159  0.1835  0.0703
14764W        W19064  11.911   4.647  18.189  0.0103 -0.0884 -0.0654
14765W        W19065  18.569   5.169  14.328  0.0853  0.0232  0.2754
14766W        W19066  14.611   6.386   6.399  0.2121  0.0289 -0.0535
14767W        W19067  13.523   0.775  36.571 -0.1090 -0.0512  0.1094
14768W        W19068  17.596   1.725  37.284 -0.0255  0.3324 -0.0615
14769W        W19069  10.669   0.080   8.335 -0.3134 -0.0946  0.0634
14770W        W19070  10.360   0.535  17.177 -0.0761 -0.0784  0.3630
14771W        W19071  10.742   0.400  41.079  0.1257  0.2638 -0.0320
14772W        W19072   9.902   5.323   2.219 -0.5788  0.2163  0.1245
14773W        W19073  20.732   6.190  30.905  0.1615 -0.1742  0.0276
14774W        W19074   1.774   0.727  27.420  0.0311 -0.2566 -0.1672
14775W        W19075  12.008   0.676  42.001 -0.1268 -0.1740 -0.0715
14776W        W19076  10.610   5.828  43.209  0.0918  0.1941  0.0015
14777W        W19077  11.071   3.959  34.069 -0.1769  0.0727  0.0919
14778W        W19078  19.965   5.051  12.262 -0.0268  0.0854 -0.1533
14779W        W19079   4.322   4.169   3.480  0.2821 -0.2334 -0.2179
14780W        W19080  10.098   1.417  43.582 -0.0111  0.1675  0.1265
14781W        W19081  19.294   5.093  37.048  0.0883  0.1696  0.0556
14782W        W19082   5.389   4.162  10.498 -0.1489  0.4477  0.0745
14783W        W19083  14.122   0.299   2.065 -0.1008 -0.1818 -0.0446
14784W        W19084  11.668   5.279  28.672  0.2083 -0.1281 -0.0239
14785W        W19085  17.568   5.982   3.343 -0.0418 -0.0157 -0.1929
14786W        W19086   0.721   1.195   8.906 -0.2596  0.0088 -0.0044
14787W        W19087   1.963   4.541  39.207  0.0448 -0.0301 -0.1565
14788W        W19088  14.416   5.960  16.620  0.0091 -0.2533 -0.2129
14789W        W19089  16.034   5.790  40.297  0.1172 -0.2730 -0.0175
14790W        W19090  11.366   2.724   3.899  0.3345 -0.1901 -0.2206
14791W        W19091  12.195   6.518  33.482 -0.3028  0.1077 -0.1152
14792W        W19092  16.611   3.741  37.348  0.0308  0.1311  0.1627
14793W        W19093   2.530   0.229   9.218  0.2801 -0.0803 -0.1892
14794W        W19094   5.903   5.659  11.665  0.1624  0.1846 -0.0640
14795W        W19095  14.168   5.592   2.379 -0.3325 -0.1081  0.0919
14796W        W19096  20.505   1.039   1.508 -0.0687  0.2002  0.1202
14797W        W19097   1.183   5.668  43.444  0.0427 -0.1417 -0.2675
14798W        W19098   7.857   1.493  24.310 -0.1526  0.1677  0.1249
14799W        W19099  19.850   1.300  10.197  0.1155  0.0175  0.1811
14800W        W19100   5.276   2.054  22.268  0.1067 -0.1350 -0.1955
14801W        W19101   9.254   1.859  11.853 -0.1431 -0.1431 -0.3802
14802W        W19102   9.878   4.539  27.756 -0.0966 -0.3370  0.1569
14803W        W19103  19.002   1.890  40.969 -0.0816 -0.0997 -0.0223
14804W        W19104  15.517   1.663  19.586  0.1616  0.0771 -0.0949
14805W        W19105   5.597   2.716  20.466  0.0795 -0.2997 -0.0327
14806W        W19106   3.629   1.487  40.113 -0.3507 -0.1834 -0.0107
14807W        W19107   0.163   0.554  43.880  0.1572 -0.2724 -0.1928
14808W        W19108  10.766   6.274  30.713  0.0325  0.0649  0.3056
14809W        W19109  13.050   0.666   8.571  0.1981 -0.1511  0.0946
14810W        W19110   4.940   2.906  39.626  0.0426 -0.0490  0.3367
14811W        W19111  19.804   4.298  34.733 -0.0614 -0.0622 -0.0034
14812W        W19112   9.871   2.482  11.320 -0.0979  0.0015 -0.2399
14813W        W19113  14.974   5.562  21.506 -0.1607 -0.1832  0.4184
14814W        W19114   0.449   0.376  38.832 -0.1096 -0.0084  0.0939
14815W        W19115  13.880   5.559   6.017 -0.1638  0.0259 -0.4508
14816W        W19116   4.862   1.166  37.993  0.2074 -0.1180  0.0174
14817W        W19117  12.179   4.186  17.005 -0.1991  0.0760  0.1844
14818W        W19118   8.269   6.553  33.572 -0.1281  0.1670  0.0180
14819W        W19119  12.615   5.184  11.281 -0.0448  0.3814  0.1027
14820W        W19120   8.113   5.230  10.989 -0.0329  0.0579  0.0922
14821W        W19121   7.346   1.676  38.762  0.1175 -0.3291 -0.0634
14822W        W19122  13.935   3.150  31.691 -0.3380  0.0137 -0.1568
14823W        W19123   6.056   3.952  27.755  0.3013 -0.2567  0.2699
14824W        W19124  19.192   1.416  13.202 -0.0612 -0.0629 -0.0619
14825W        W19125  19.973   6.152  41.929 -0.3198 -0.1035  0.1088
14826W        W19126   4.546   3.530   0.928 -0.3497 -0.3711  0.2326
14827W        W19127  13.523   3.241  21.694  0.0430  0.0295  0.0808
14828W        W19128   3.808   5.296   1.293  0.1576 -0.0754  0.0256
14829W        W19129  19.233   0.712  36.937 -0.0353 -0.1199  0.0822
14830W        W19130  20.436   0.046  16.959  0.0446  0.0038 -0.4017
14831W        W19131  16.429   4.138  42.322  0.0866 -0.0213  0.0774
14832W        W19132  11.375   3.502  40.910  0.0452  0.1896 -0.2941
14833W        W19133  17.279   3.318  29.720 -0.0933  0.0411 -0.4560
14834W        W19134   4.394   5.723   8.099  0.0065  0.0766  0.0409
14835W        W19135   8.472   5.078   4.522  0.2384 -0.0712 -0.0547
14836W        W19136  12.981   2.104  28.522 -0.0922 -0.3336  0.1727
14837W        W19137  16.882   2.592   1.000  0.0521 -0.0707 -0.1281
14838W        W19138  16.556   1.399  20.174  0.2228 -0.1814 -0.1784
14839W        W19139  13.548   5.524  18.068  0.2156 -0.3670 -0.3825
14840W        W19140  14.670   5.237  31.807 -0.0125  0.0684 -0.0508
14841W        W19141  19.859   2.619  19.976 -0.0633 -0.0374  0.1558
14842W        W19142  12.930   6.306  43.434 -0.1431 -0.0848  0.1819
14843W        W19143  16.957   6.544  34.513 -0.1104 -0.2148 -0.1666
14844W        W19144  14.948   0.735  18.646 -0.1251 -0.1509 -0.1286
14845W        W19145  11.614   4.804  18.889 -0.1446  0.0984 -0.1741
14846W        W19146   6.781   0.750  34.400  0.2521 -0.2071  0.0001
14847W        W19147   8.050   1.237  40.599  0.3895  0.1453 -0.0557
14848W        W19148   6.368   4.284  20.681 -0.1553 -0.0283  0.2208
14849W        W19149  10.767   1.023  42.558 -0.0422 -0.0993 -0.2063
14850W        W19150  10.816   6.104   3.451 -0.2141  0.2880 -0.2302
14851W        W19151  13.344   0.643  33.582  0.0871  0.1832 -0.1805
14852W        W19152   0.762   6.287  18.658  0.2179  0.2387  0.1064
14853W        W19153  15.353   5.973  33.516 -0.2040  0.1183  0.0608
14854W        W19154  11.063   2.265  37.645 -0.2148 -0.0520  0.0765
14855W        W19155  15.934   6.057  35.235 -0.0040 -0.1945  0.2071
14856W        W19156  13.931   5.619  28.812  0.0246  0.0005  0.0793
14857W        W19157  12.985   5.202  44.162  0.1293 -0.0697 -0.0022
14858W        W19158  11.933   1.505  43.724  0.1021 -0.0330  0.1418
14859W        W19159  18.102   2.086   4.024 -0.0755 -0.2638  0.2076
14860W        W19160  20.222   6.569   0.837 -0.0695  0.1042 -0.3510
14861W        W19161  11.897   5.101  12.636 -0.0832 -0.1337  0.0983
14862W        W19162   1.649   5.403  14.094  0.0592 -0.1204 -0.1029
14863W        W19163   1.878   2.725  12.491  0.1525 -0.2936  0.2412
14864W        W19164   6.316   2.782  12.819 -0.0209  0.0591  0.0188
14865W        W19165   2.940   0.984  38.765  0.3048 -0.0227 -0.1937
14866W        W19166   1.391   4.707  27.914 -0.1461 -0.1482  0.1890
14867W        W19167   1.532   3.613  16.797  0.3001  0.0240  0.3846
14868W        W19168  20.393   4.267   2.986  0.3352 -0.0764 -0.0186
14869W        W19169   0.556   2.771  34.510 -0.1477 -0.0544 -0.2496
14870W        W19170   8.060   5.236  25.550 -0.1786 -0.2276  0.0000
14871W        W19171  19.199   0.781   0.672  0.1018 -0.0683  0.0265
14872W        W19172  20.938   4.253   7.926  0.2427 -0.2065  0.4402
14873W        W19173  16.987   3.095   2.882  0.0735 -0.0417 -0.1453
14874W        W19174  19.047   0.760  38.047  0.1079 -0.2370  0.0722
14875W        W19175   9.141   4.637  37.014  0.1955  0.1923 -0.3874
14876W        W19176  19.121   2.628  10.558  0.1418 -0.0877  0.1980
14877W        W19177  20.979   5.589  16.258  0.2970  0.2462 -0.1118
14878W        W19178   3.375   2.727  44.279  0.1446  0.1047 -0.0496
14879W        W19179  10.015   1.550  26.316 -0.5185  0.0021  0.1439
14880W        W19180   4.748   2.413  37.022 -0.3034  0.1572 -0.0942
14881W        W19181   7.865   1.395   0.297 -0.0284  0.2498 -0.3164
14882W        W19182   3.257   1.828   7.643  0.0786 -0.1572 -0.1241
14883W        W19183  15.726   6.114  31.903 -0.0820 -0.2048 -0.0612
14884W        W19184   8.459   4.387   6.051 -0.1377  0.1144 -0.0044
14885W        W19185  15.459   3.280  15.797 -0.0650 -0.1149  0.1676
14886W        W19186  13.799   1.565   1.529  0.2527 -0.2607 -0.1736
14887W        W19187  12.205   3.061   1.520  0.0397 -0.1329 -0.1613
14888W        W19188   8.803   1.817  34.540 -0.1925  0.1651 -0.0335
14889W        W19189  18.481   5.801   1.705  0.2858 -0.3652 -0.2075
14890W        W19190   4.809   0.842  24.547  0.1662  0.1683 -0.0020
14891W        W19191   1.672   5.521  25.638 -0.2056 -0.3406  0.2809
14892W        W19192   9.132   2.336  35.226 -0.0961  0.1727  0.2018
14893W        W19193  11.129   2.644  30.658 -0.0934 -0.0759 -0.1936
14894W        W19194   9.739   1.847   1.340  0.1734  0.1720  0.0999
14895W        W19195  13.658   4.381  28.305 -0.0091  0.3504  0.0487
14896W        W19196  19.931   3.583  20.013  0.0821 -0.2183  0.1147
14897W        W19197  10.555   5.128  34.586 -0.0987 -0.1672  0.2077
14898W        W19198   4.646   2.428  26.269  0.1954  0.0901  0.1503
14899W        W19199  14.062   4.462   4.790 -0.1504  0.0865 -0.2275
14900W        W19200  19.309   0.808  42.048  0.0087  0.1968 -0.0850
14901W        W19201  13.755   2.415   6.393 -0.0475  0.0966 -0.1647
14902W        W19202   0.608   4.703  27.453 -0.1053 -0.1105 -0.2167
14903W        W19203  17.240   0.403   9.513  0.1114 -0.1617 -0.1954
14904W        W19204  15.699   0.807  23.465  0.0690  0.0264 -0.2402
14905W        W19205  12.842   3.945  41.831 -0.1128  0.2241  0.1023
14906W        W19206   7.120   6.516  42.818 -0.1486  0.0589  0.0943
14907W        W19207   0.689   2.456  30.569  0.3506 -0.0081  0.2022
14908W        W19208  13.120   4.863   6.950 -0.2993 -0.0702 -0.3200
14909W        W19209  11.109   0.059   3.742 -0.0496 -0.2116 -0.0913
14910W        W19210  19.223   1.225  32.674  0.2209 -0.1395  0.1298
14911W        W19211   4.479   3.405  38.212  0.0095  0.0877 -0.2106
14912W        W19212   9.914   4.666  39.451 -0.0593  0.0176 -0.1327
14913W        W19213   3.584   3.229  10.899  0.2887 -0.2422  0.0244
14914W        W19214  11.087   3.423   4.025  0.1060 -0.1073  0.1615
14915W        W19215   5.940   2.324  39.797 -0.0159  0.1688 -0.0208
14916W        W19216   5.303   0.200   4.752 -0.1382 -0.0848  0.2389
14917W        W19217  11.531   0.655  31.422  0.0201 -0.0229 -0.3110
14918W        W19218   0.338   5.002   5.961 -0.0286 -0.0402  0.0965
14919W        W19219   4.305   3.417  29.305 -0.1141 -0.3735  0.0422
14920W        W19220  14.582   5.872   7.375  0.1580 -0.0852 -0.0265
14921W        W19221  20.438   5.873   1.764  0.0574  0.0406 -0.3140
14922W        W19222   8.880   1.880  40.482  0.0022  0.2515  0.0137
14923W        W19223  12.902   4.120  43.344 -0.0440  0.0235  0.1117
14924W        W19224   3.604   0.152  10.020  0.1306  0.1494  0.3587
14925W        W19225   4.837   4.933  33.911 -0.0319  0.1151 -0.2476
14926W        W19226   5.699   3.334  24.410 -0.2441 -0.1698  0.0043
14927W        W19227   4.786   3.077   1.028  0.1192  0.0463  0.1393
14928W        W19228  18.972   1.873  20.349  0.0265  0.1162 -0.0289
14929W        W19229   6.941   2.033  24.694  0.2862  0.1863  0.2548
14930W        W19230  18.081   2.033  15.425 -0.0955 -0.2594  0.0584
14931W        W19231   8.015   2.071  30.020  0.2347  0.4196 -0.0510
14932W        W19232   8.501   5.133  24.734 -0.0972 -0.3301  0.0148
14933W        W19233   0.808   5.331  41.184  0.0563  0.1602  0.0814
14934W        W19234   4.379   3.743  35.956  0.1711 -0.1492  0.1684
14935W        W19235  15.070   4.819  18.329 -0.2407 -0.2561  0.2111
14936W        W19236   0.309   4.540   1.190  0.3651 -0.0461  0.0101
14937W        W19237  15.399   4.318  37.321 -0.0585 -0.0357  0.0870
14938W        W19238  12.121   1.476  32.063  0.0964  0.0550  0.0890
14939W        W19239  16.779   5.376  35.627 -0.0262 -0.1568  0.0892
14940W        W19240   8.417   1.852   0.606  0.1986 -0.1240 -0.2690
14941W        W19241  17.631   5.240  17.461  0.0652  0.2291  0.2617
14942W        W19242  16.164   2.344  14.704  0.2242 -0.0699  0.2545
14943W        W19243  13.649   4.974  29.175  0.0590  0.3854 -0.0332
14944W        W19244   0.543   0.478  43.550  0.0038  0.1817 -0.0162
14945W        W19245  15.732   0.396  15.285  0.2074  0.2409 -0.0134
14946W        W19246   3.256   1.723  38.272 -0.2953  0.0866  0.3088
14947W        W19247   5.234   0.171   2.374 -0.0065  0.2170  0.2171
14948W        W19248  15.397   3.221  19.347 -0.1512 -0.1911 -0.3987
14949W        W19249  19.324   3.794  29.982  0.0284 -0.2643 -0.1765
14950W        W19250   0.174   4.921   3.598 -0.1802  0.0938  0.1757
14951W        W19251  15.466   0.746  14.959 -0.0301 -0.0559  0.1303
14952W        W19252  14.275   0.397   3.875 -0.1241  0.1410  0.0208
14953W        W19253   0.331   1.505  38.523 -0.0376 -0.1997 -0.0569
14954W        W19254   7.467   2.714  22.401  0.1126  0.0606 -0.2074
14955W        W19255   4.896   6.110   8.306  0.1214  0.0177 -0.3813
14956W        W19256   0.178   1.733  30.426  0.1648  0.2481  0.0327
14957W        W19257  16.286   3.940  23.946  0.0613 -0.1885 -0.1014
14958W        W19258  16.143   3.884  22.998 -0.1201  0.0160  0.0550
14959W        W19259   6.649   0.087  28.772  0.0729  0.0843  0.2316
14960W        W19260  14.951   5.024  32.716 -0.0037 -0.1635  0.1103
14961W        W19261   2.562   2.971   5.431 -0.3502 -0.2137  0.1280
14962W        W19262  11.780   3.881   3.494 -0.0823 -0.3743 -0.1434
14963W        W19263  12.400   0.015   2.548  0.0926  0.0287  0.0668
14964W        W19264   0.962   3.459  29.481 -0.1192 -0.0926 -0.3099
14965W        W19265  19.664   2.086   6.947 -0.0137 -0.2902 -0.2168
14966W        W19266  15.498   4.154  12.048  0.0104  0.0392 -0.0731
14967W        W19267   0.758   0.535  45.052  0.0856  0.2504  0.3914
14968W        W19268  14.544   4.025   3.984  0.0050 -0.0935 -0.0956
14969W        W19269   0.854   3.151  29.906  0.3444  0.2077 -0.2188
14970W        W19270  19.062   2.645  35.144  0.0918 -0.0614 -0.0430
14971W        W19271   5.230   4.619  31.210 -0.1304  0.1000 -0.0720
14972W        W19272  18.722   3.288  39.969 -0.1721 -0.0368  0.0472
14973W        W19273  20.639   6.546  39.162  0.1290 -0.2616  0.2436
14974W        W19274   1.546   0.548   3.606 -0.1144 -0.2587 -0.2909
14975W        W19275   8.966   0.637  26.950 -0.0516 -0.2935  0.1981
14976W        W19276  14.548   3.968  10.940 -0.1699  0.2248  0.0835
14977W        W19277   4.783   0.068  10.353  0.3168 -0.1096  0.0848
14978W        W19278  17.036   6.232  18.880 -0.1646 -0.2869 -0.0977
14979W        W19279   7.744   3.718  34.770  0.0703  0.1581  0.4429
14980W        W19280  11.480   0.850  40.729 -0.0153 -0.0392 -0.1513
14981W        W19281  11.536   0.815  12.817 -0.0371 -0.1422 -0.1423
14982W        W19282  12.726   4.271  34.321  0.1281  0.0017  0.1381
14983W        W19283   7.776   3.807   3.426 -0.0432 -0.1177  0.0738
14984W        W19284  20.476   0.032  33.229 -0.0352 -0.3080 -0.0541
14985W        W19285  13.169   3.855  33.268  0.1558 -0.3541 -0.0841
14986W        W19286  11.191   2.787   3.090  0.2464 -0.0946  0.0399
14987W        W19287  13.208   0.149  44.463 -0.1965  0.0882  0.4670
14988W        W19288  16.691   2.884  32.437  0.1129  0.0134 -0.1274
14989W        W19289  13.576   3.337   7.572 -0.3402 -0.0059  0.1235
14990W        W19290   5.073   5.296  41.491  0.0765  0.0872  0.2016
14991W        W19291   5.036   2.747  21.570  0.1711 -0.4734 -0.0724
14992W        W19292  14.481   5.804  35.622 -0.2659  0.0530 -0.2312
14993W        W19293   2.636   3.100  38.041  0.1146  0.0734  0.2460
14994W        W19294   0.314   0.286  14.972  0.0549  0.0530  0.0866
14995W        W19295   6.573   3.198  42.362  0.0533 -0.1001  0.1619
14996W        W19296  16.421   0.581  21.836  0.0305  0.1045  0.0621
14997W        W19297   3.981   3.621  13.029  0.2743  0.1128 -0.0705
14998W        W19298   6.475   6.261  12.529  0.1843  0.2055  0.2508
14999W        W19299  14.705   5.582  28.329 -0.0544  0.0417  0.0296
15000W        W19300  13.348   3.601  29.737 -0.0901 -0.0268 -0.0181
15001W        W19301   5.999   1.676  35.127 -0.0953  0.1178  0.1992
15002W        W19302  19.802   5.430  42.943  0.2499  0.0610 -0.1360
15003W        W19303   9.213   3.807  41.505 -0.1958 -0.2279  0.1663
15004W        W19304   9.776   6.023  37.863 -0.2411  0.1814 -0.0491
15005W        W19305  12.881   2.033   6.209 -0.1062 -0.1894 -0.0253
15006W        W19306  13.888   6.504   6.393 -0.0637 -0.0244 -0.1112
15007W        W19307  10.958   0.058  16.088 -0.0392  0.3261  0.0285
15008W        W19308   9.776   5.044  30.148  0.1625  0.0518  0.2600
15009W        W19309  19.560   6.037  13.066  0.0590 -0.0530  0.0150
15010W        W19310  13.032   1.867  42.104  0.2163  0.1613 -0.2273
15011W        W19311  12.878   5.873  31.508 -0.0107  0.1342 -0.1671
15012W        W19312  13.248   1.441   2.327  0.0880  0.1674  0.2205
15013W        W19313   9.326   6.351  39.556  0.3151 -0.2159  0.2189
15014W        W19314   4.972   1.948  43.859 -0.0535  0.1563  0.0943
15015W        W19315   0.817   2.621  34.953  0.2734 -0.3100  0.2914
15016W        W19316   6.273   5.937  26.204  0.2273 -0.0621 -0.0310
15017W        W19317  16.413   1.954   5.766  0.1007 -0.1288  0.1668
15018W        W19318   5.054   3.849  12.878  0.2111  0.0017  0.0155
15019W        W19319   6.557   2.387  27.353 -0.1315 -0.1979  0.0207
15020W        W19320  18.844   5.400  41.803  0.1042 -0.0617 -0.1814
15021W        W19321  16.757   5.389  18.576  0.0915  0.0987 -0.0956
15022W        W19322   0.580   4.810  35.845  0.2071 -0.3068  0.2476
15023W        W19323  17.327   2.795  43.613 -0.1392 -0.2902  0.1604
15024W        W19324   9.757   4.152  26.129 -0.2121 -0.0659 -0.0387
15025W        W19325  18.753   0.610  31.001 -0.2232  0.0137 -0.1396
15026W        W19326  18.683   0.996   1.570 -0.2172  0.0945 -0.1452
15027W        W19327  17.211   1.686   3.723  0.0233  0.0148  0.0486
15028W        W19328   1.022   1.484  11.340 -0.1541 -0.1376  0.4348
15029W        W19329  11.674   4.906  31.030 -0.1602  0.1364  0.1627
15030W        W19330  12.301   1.354  16.977 -0.3890  0.0780 -0.0056
15031W        W19331   2.678   5.925  28.255  0.1253 -0.0459 -0.3243
15032W        W19332  19.375   1.004  11.056  0.0485 -0.2502  0.0830
15033W        W19333  18.027   1.548  12.724  0.2530 -0.0087  0.1289
15034W        W19334  12.869   0.289  44.064  0.1121  0.2720 -0.2057
15035W        W19335  14.983   1.260   9.817 -0.3428  0.3037 -0.2107
15036W        W19336   0.470   1.657  33.879  0.1975  0.0753  0.1830
15037W        W19337  11.509   1.226  34.765  0.1667  0.0989 -0.1333
15038W        W19338   4.038   3.020  15.700  0.0481  0.0036 -0.0849
15039W        W19339   3.434   1.763  24.207  0.3144 -0.0684 -0.0107
15040W        W19340   9.039   4.169   0.413 -0.0126  0.0018 -0.2389
15041W        W19341  16.573   1.290  10.532 -0.1052  0.1993 -0.3368
15042W        W19342   1.763   1.909   0.997  0.2763  0.1798 -0.2138
15043W        W19343  16.085   4.244   4.542 -0.1130 -0.0919 -0.1010
15044W        W19344   2.304   3.588  38.816  0.0731  0.1080 -0.1449
15045W        W19345   8.113   3.842  23.596 -0.0713  0.2853  0.1155
15046W        W19346  15.407   1.229  13.770  0.2376  0.0454 -0.0418
15047W        W19347   5.547   2.220   3.307  0.0883  0.0926  0.0125
15048W        W19348  11.315   1.855   7.029  0.1391 -0.0194  0.2070
15049W        W19349  18.457   0.638   1.292  0.0936 -0.0004 -0.0950
15050W        W19350   6.802   5.207  36.393 -0.0049  0.1967  0.0140
15051W        W19351   8.060   2.846  42.104  0.1698  0.2297  0.2055
15052W        W19352   4.939   5.507  27.518 -0.0288  0.2648  0.0023
15053W        W19353  17.999   4.221   8.679 -0.2653 -0.2259  0.1830
15054W        W19354   7.766   4.498  39.357 -0.3676 -0.2299 -0.1646
15055W        W19355   0.958   3.063  34.608 -0.1832  0.4184  0.1087
15056W        W19356   2.175   0.869  10.789 -0.1022 -0.0746 -0.0399
15057W        W19357   4.525   2.679   9.307  0.0014  0.2631  0.0482
15058W        W19358   3.474   0.217  35.963  0.3035 -0.1017  0.0780
15059W        W19359  18.825   1.498   4.060  0.0389  0.0475 -0.1447
15060W        W19360   8.524   4.905  43.668  0.0510 -0.2041  0.1856
15061W        W19361  14.078   4.690   5.902 -0.2948  0.1989 -0.2549
15062W        W19362   6.992   2.641  15.737 -0.1125 -0.1506  0.0978
15063W        W19363  19.450   2.405  16.850  0.2289  0.1810 -0.0399
15064W        W19364  19.026   5.513  10.519 -0.0152 -0.1518  0.2463
15065W        W19365  14.176   1.795  21.146 -0.0803  0.4327  0.0346
15066W        W19366   9.899   0.504   8.370 -0.0527  0.0384  0.1543
15067W        W19367  16.338   4.360  21.231 -0.2628 -0.0779  0.0201
15068W        W19368   7.277   0.768  29.757 -0.3077 -0.2777 -0.0634
15069W        W19369   5.871   3.760  39.286 -0.0679 -0.1381 -0.0782
15070W        W19370  16.920   0.735  31.517  0.1361 -0.0350 -0.0497
15071W        W19371  16.133   3.848   3.011  0.2707 -0.4037 -0.0901
15072W        W19372  14.083   2.073   2.367 -0.2669  0.2606 -0.1320
15073W        W19373  18.617   5.304  37.821 -0.0754  0.2549  0.2831
15074W        W19374   1.585   4.804  37.267 -0.0696 -0.2524  0.2769
15075W        W19375   4.712   4.943  22.258 -0.1700 -0.2199  0.1584
15076W        W19376  19.775   4.174  28.265 -0.1156  0.0637  0.0633
15077W        W19377   0.964   2.096  17.680 -0.5842  0.1175  0.0121
15078W        W19378   1.738   4.671   9.526 -0.1465  0.2491 -0.1125
15079W        W19379  17.383   2.941  17.820 -0.0898  0.1408  0.0709
15080W        W19380  10.075   2.065  34.137  0.0997 -0.0369  0.1945
15081W        W19381   5.668   1.388   6.644 -0.1410 -0.1454  0.0079
15082W        W19382   9.286   3.878  35.967 -0.2598  0.1452  0.2551
15083W        W19383  12.183   1.797  44.659 -0.1664 -0.1194 -0.1362
15084W        W19384  17.903   5.883  20.110 -0.2323 -0.0474 -0.0467
15085W        W19385  16.915   5.583   2.800  0.0729  0.3857  0.2085
15086W        W19386   2.941   4.586  31.904  0.1805  0.0693 -0.0374
15087W        W19387  14.965   1.276  16.333 -0.0404  0.1279  0.0580
15088W        W19388  15.246   0.119   9.398 -0.0995  0.0574 -0.2137
15089W        W19389   8.412   6.038   4.500 -0.2502 -0.2728  0.0336
15090W        W19390  18.626   2.637  14.088  0.4838  0.1255 -0.1536
15091W        W19391  14.550   1.384  45.123 -0.2191 -0.0809 -0.2617
15092W        W19392   8.618   2.210  37.343 -0.1053  0.0231  0.1082
15093W        W19393  17.370   4.627  16.202  0.1931  0.2031 -0.0255
15094W        W19394  18.249   1.846  22.504 -0.0641 -0.2608  0.0072
15095W        W19395  16.816   2.068  24.500  0.1187  0.3200  0.0134
15096W        W19396  12.534   1.464  27.566 -0.0322 -0.4150 -0.0793
15097W        W19397  11.168   1.773  14.246 -0.2349  0.0513  0.0239
15098W        W19398  13.994   4.237  35.032 -0.0236  0.0223  0.0311
15099W        W19399  16.416   3.412  45.072  0.1081 -0.0447  0.3388
15100W        W19400   8.651   4.929  13.197  0.0919  0.0476  0.0208
15101W        W19401  11.650   6.110  42.105  0.0581  0.1209 -0.0863
15102W        W19402  20.965   2.395   5.191  0.1676 -0.0853 -0.2475
15103W        W19403  10.378   1.274  36.822  0.1615 -0.3528 -0.2904
15104W        W19404  15.523   5.739  21.782 -0.1629 -0.2878  0.4590
15105W        W19405  12.649   4.955   9.639  0.0858  0.2544  0.2865
15106W        W19406   7.438   0.204  30.341  0.0240 -0.1447 -0.2441
15107W        W19407   8.458   6.264  29.584 -0.0230 -0.1814  0.1508
15108W        W19408   0.317   4.298  33.225 -0.1489  0.1044  0.2796
15109W        W19409  11.442   1.423   7.321 -0.0415  0.1323  0.0528
15110W        W19410   5.794   3.474  43.718  0.2162 -0.2877 -0.3588
15111W        W19411   9.843   4.235  29.675 -0.0164 -0.0469  0.3151
15112W        W19412  13.491   5.606  12.274  0.3870 -0.2107  0.2065
15113W        W19413   5.244   3.522  29.316  0.1978 -0.0272  0.3311
15114W        W19414  15.031   1.049   9.181 -0.1084  0.4393  0.0721
15115W        W19415   4.307   0.202  42.341 -0.0918 -0.0085 -0.0427
15116W        W19416  12.993   0.004  15.971  0.0217  0.3331 -0.0908
15117W        W19417   7.112   6.288   2.175  0.0673 -0.2271  0.3567
15118W        W19418   5.612   2.244  43.291  0.1197  0.0396  0.0206
15119W        W19419   4.145   5.002   3.560 -0.1176  0.1074  0.0502
15120W        W19420   9.239   0.411  40.707 -0.1934  0.0291 -0.0795
15121W        W19421  17.063   0.241  39.451  0.0968 -0.1332  0.0982
15122W        W19422  11.524   0.239  35.581  0.1738  0.2026  0.3289
15123W        W19423  19.523   0.451  34.075 -0.0398  0.1105 -0.2044
15124W        W19424   3.019   5.388  33.063  0.0763  0.1938  0.2413
15125W        W19425  17.067   1.136   5.858 -0.1144 -0.2933  0.0190
15126W        W19426   6.026   4.283   4.540  0.3113 -0.1922  0.2449
15127W        W19427  20.124   3.714  20.771 -0.1733  0.3492  0.1895
15128W        W19428   9.294   5.921  44.888  0.2855  0.1142 -0.2097
15129W        W19429   2.634   4.312  10.215  0.1242 -0.0611  0.1784
15130W        W19430  12.406   3.385  41.155  0.1046 -0.0526  0.1761
15131W        W19431  18.258   1.711  11.721 -0.0192 -0.2870 -0.3166
15132W        W19432   5.712   6.347  12.379 -0.3963  0.2421  0.0776
15133W        W19433  17.811   6.013  19.625  0.2813  0.0043  0.2729
15134W        W19434   0.162   5.905  40.415  0.0744  0.0389  0.3827
15135W        W19435  17.604   1.897  29.586 -0.1484 -0.2056  0.0971
15136W        W19436   8.395   1.776  14.646  0.1058 -0.0151 -0.2730
15137W        W19437   5.639   0.301  11.061 -0.1471 -0.0319 -0.3008
15138W        W19438   4.964   4.141  23.394  0.2339 -0.0883  0.0351
15139W        W19439  12.588   2.586  40.141 -0.1784  0.2153 -0.0155
15140W        W19440   8.579   3.777   2.533 -0.0447  0.0016 -0.0637
15141W        W19441   3.053   6.537  11.686 -0.2548 -0.0766 -0.1891
15142W        W19442   9.443   4.927   5.053 -0.0236  0.1455  0.0144
15143W        W19443  13.192   5.104  35.493  0.0533  0.0468 -0.0686
15144W        W19444  19.977   5.175   1.963  0.0944  0.1229  0.1051
15145W        W19445   0.792   2.560  26.418 -0.1230  0.2144  0.0409
15146W        W19446   1.811   0.287   3.215 -0.4840  0.0217 -0.1700
15147W        W19447  16.779   2.289  12.952 -0.1541  0.3451  0.0475
15148W        W19448  19.520   4.726  42.303  0.0086  0.1140 -0.0340
15149W        W19449   6.361   5.279  26.109 -0.2527 -0.0492 -0.1429
15150W        W19450   1.552   0.759   6.273  0.3147  0.0366 -0.1047
15151W        W19451  12.565   5.013  16.987  0.0717 -0.0505 -0.1730
15152W        W19452   7.784   1.003  17.345  0.0330  0.2700 -0.0526
15153W        W19453  11.295   2.095  39.278 -0.3114 -0.1246  0.1259
15154W        W19454   0.574   1.750  14.352  0.0395 -0.2251  0.1383
15155W        W19455   8.686   6.140  27.534  0.1838  0.0977 -0.1417
15156W        W19456  17.561   5.838  35.678 -0.0432 -0.2975  0.2183
15157W        W19457   0.144   4.429  18.856  0.2003  0.1296  0.0056
15158W        W19458  19.280   0.247  11.251 -0.0927  0.1956 -0.0011
15159W        W19459  12.603   3.823  37.990  0.0107 -0.0332 -0.0759
15160W        W19460  12.504   2.231  41.196 -0.1821  0.0312  0.0489
15161W        W19461  15.682   6.475  13.967 -0.0620 -0.0993 -0.0583
15162W        W19462   2.748   3.522  41.026 -0.2231  0.0908 -0.4413
15163W        W19463  10.534   5.660   3.810 -0.3689  0.1778  0.1183
15164W        W19464   0.305   1.441  43.885 -0.1418 -0.2636  0.0288
15165W        W19465  15.042   5.053  17.592 -0.1167  0.0570  0.0423
15166W        W19466   0.844   3.063  44.636 -0.0432 -0.1784  0.1012
15167W        W19467  19.833   4.722  30.390  0.0963 -0.0514  0.2153
15168W        W19468   7.063   5.256  38.996  0.1273  0.1857 -0.1297
15169W        W19469  18.753   1.487  14.265  0.1454 -0.3439 -0.3192
15170W        W19470   0.929   1.408  41.472  0.4098  0.3387  0.0241
15171W        W19471  18.989   5.482  41.008  0.1029  0.1149  0.2762
15172W        W19472  13.457   2.723   0.604  0.1629 -0.3058 -0.1276
15173W        W19473  17.119   5.313  20.670  0.0103  0.1784  0.3663
15174W        W19474   2.672   4.969  16.578 -0.1859 -0.0790  0.0314
15175W        W19475   4.089   2.032  29.315  0.3253  0.1920 -0.5024
15176W        W19476   8.165   0.430   3.752  0.1103 -0.4055  0.0857
15177W        W19477  19.948   4.533  32.392  0.0539 -0.0269 -0.1062
15178W        W19478  14.917   6.509  14.569  0.2135  0.1829 -0.1506
15179W        W19479  20.694   2.991   3.652  0.0304 -0.0378 -0.0958
15180W        W19480  19.377   0.347  11.734 -0.3143 -0.0427  0.0388
15181W        W19481   4.306   1.294  35.648 -0.0930  0.2023  0.2005
15182W        W19482   7.059   2.881  36.284  0.1054  0.0880  0.1637
15183W        W19483  19.348   2.165   5.178 -0.0262 -0.2036  0.0521
15184W        W19484  15.207   1.396  22.569  0.0308  0.1506  0.1482
15185W        W19485   7.552   6.221  28.124 -0.4135 -0.2092  0.3714
15186W        W19486  12.663   4.082  18.102 -0.2045  0.1438 -0.0951
15187W        W19487  14.953   5.188  44.986  0.1281  0.1987 -0.1756
15188W        W19488   1.499   0.456   1.161 -0.0727 -0.2271  0.0304
15189W        W19489  17.258   1.423  39.163 -0.4026  0.2782 -0.3693
15190W        W19490   9.536   3.238  16.117 -0.0995  0.1301  0.0949
15191W        W19491  15.453   6.398  29.012 -0.0271  0.1514 -0.0127
15192W        W19492  12.330   3.797  31.030  0.2514  0.5396 -0.1699
15193W        W19493  21.087   5.089  41.282 -0.2380  0.1298  0.1496
15194W        W19494  14.895   0.140  42.765  0.0405 -0.0929  0.0972
15195W        W19495  20.241   2.258  30.073 -0.0678 -0.1796 -0.1498
15196W        W19496  11.734   4.521  45.090 -0.0804 -0.0874  0.0081
15197W        W19497   7.539   1.233   4.078 -0.2292 -0.1017  0.1965
15198W        W19498  10.670   5.060   5.711 -0.0741  0.0375 -0.1182
15199W        W19499   1.268   2.112   4.667 -0.2550 -0.1261  0.0922
15200W        W19500   1.546   2.230  15.797  0.2255  0.1134 -0.0595
15201W        W19501   6.167   3.071   6.020 -0.2770  0.1878 -0.2390
15202W        W19502   4.280   4.054  32.812  0.4138  0.2186 -0.0043
15203W        W19503  10.761   5.862   2.964  0.0347 -0.0643  0.1913
15204W        W19504  15.411   2.187   2.819 -0.2369 -0.1518  0.0543
15205W        W19505  20.013   0.948  17.042  0.1925 -0.2050 -0.0991
15206W        W19506  14.855   4.438  34.480 -0.1804  0.3338  0.0027
15207W        W19507  18.211   1.136  32.617  0.0072 -0.1261  0.0154
15208W        W19508   7.441   1.419   2.278  0.0335 -0.3701  0.3172
15209W        W19509  16.715   3.544   5.666 -0.2361 -0.1315 -0.0604
15210W        W19510  18.115   4.772  20.761  0.1530  0.0089 -0.0870
15211W        W19511  19.021   5.789   2.611 -0.0103  0.1507  0.0081
15212W        W19512  10.703   1.742   6.091  0.1031  0.1641 -0.1167
15213W        W19513  20.913   0.117   6.657 -0.0080  0.0869  0.0561
15214W        W19514  11.356   4.323  37.635  0.2042 -0.1308 -0.3783
15215W        W19515  12.596   1.268  31.244  0.2835  0.0300 -0.3388
15216W        W19516  18.149   3.611  12.247 -0.3055  0.1228  0.3212
15217W        W19517   4.045   5.316   2.610 -0.0684 -0.0611 -0.0261
15218W        W19518   4.775   1.740  31.465  0.2305 -0.0775 -0.2568
15219W        W19519  20.472   0.919  28.507 -0.4744  0.1744  0.3163
15220W        W19520  14.293   2.504   3.093 -0.2191  0.1391 -0.0995
15221W        W19521   1.924   4.934  11.875 -0.1294 -0.1508 -0.3072
15222W        W19522   5.382   2.205  13.267  0.2273 -0.0019 -0.0504
15223W        W19523  14.951   0.402  11.847 -0.0383  0.1893 -0.0084
15224W        W19524  10.597   4.161  17.734 -0.4426  0.0231 -0.0093
15225W        W19525   2.689   3.257  11.547  0.1807  0.1993 -0.1418
15226W        W19526   8.481   3.917  40.197 -0.1754 -0.0022  0.1263
15227W        W19527  12.085   2.504  41.367 -0.0272  0.1286 -0.2453
15228W        W19528  10.592   4.519   9.045  0.0239 -0.0416 -0.1508
15229W        W19529  19.918   2.940  42.808 -0.5530  0.1850  0.0712
15230W        W19530   7.309   5.786  35.232  0.1892  0.0406  0.0228
15231W        W19531  18.939   0.398  39.745 -0.4832 -0.2074  0.1462
15232W        W19532  18.743   4.958  19.128 -0.3236 -0.2247  0.2829
15233W        W19533   6.214   0.741  30.935  0.0070 -0.1025 -0.1001
15234W        W19534  14.205   0.288  11.627  0.0523 -0.1910  0.0042
15235W        W19535  16.600   1.743  15.858 -0.0175 -0.1344  0.2235
15236W        W19536  10.323   1.205   6.666 -0.2695 -0.1553  0.1742
15237W        W19537   8.313   1.552  13.586  0.0156 -0.1538  0.1192
15238W        W19538  19.847   3.114  30.376  0.1026 -0.1590  0.4179
15239W        W19539   5.110   0.796   5.890 -0.2245  0.3164 -0.1184
15240W        W19540   5.961   1.310  16.116 -0.3217 -0.2262  0.1590
15241W        W19541  15.594   6.194  10.840  0.2087 -0.0731  0.1524
15242W        W19542  13.045   4.024  16.413  0.0353 -0.1892  0.0948
15243W        W19543   9.998   3.006  10.344 -0.2003  0.1614  0.0787
15244W        W19544   3.374   2.225  40.813  0.2006  0.0631  0.2312
15245W        W19545   6.264   0.414  10.323 -0.2133 -0.0567  0.0879
15246W        W19546  20.209   2.273  17.691 -0.1554 -0.0976  0.1757
15247W        W19547   7.504   2.650  36.092  0.0404  0.1453  0.0260
15248W        W19548   0.235   0.280  14.474 -0.1707 -0.0076 -0.2375
15249W        W19549  20.827   1.427   7.985 -0.0343  0.1696  0.0969
15250W        W19550  19.276   1.832   6.639  0.1158  0.2474  0.3386
15251W        W19551   0.711   0.076   8.641 -0.0787 -0.2398  0.0622
15252W        W19552   9.879   5.753  37.280 -0.0325  0.0059  0.0174
15253W        W19553  14.258   5.261  11.758 -0.1960 -0.0902 -0.0571
15254W        W19554   6.377   4.799  23.961  0.3164  0.0536 -0.2120
15255W        W19555   9.402   1.098  16.581 -0.1074 -0.1475 -0.0906
15256W        W19556  16.992   3.819  22.356 -0.0020  0.1494 -0.0234
15257W        W19557  16.773   2.156  43.369 -0.1825  0.2209  0.3662
15258W        W19558  15.378   2.861  44.302 -0.1149 -0.2330 -0.3389
15259W        W19559   1.591   2.607  26.865 -0.2807 -0.3431  0.0164
15260W        W19560  16.936   2.292  14.460  0.1436 -0.0850  0.1430
15261W        W19561  14.802   5.893  30.477  0.1603 -0.1643 -0.2659
15262W        W19562   9.595   4.142  44.716  0.0110  0.0371 -0.2200
15263W        W19563   7.683   3.499  33.179 -0.0003 -0.1251  0.1934
15264W        W19564  10.318   2.878  28.461 -0.0808 -0.0808  0.1198
15265W        W19565   6.598   4.992  35.962 -0.1758 -0.0531  0.0007
15266W        W19566  11.196   4.874   0.373 -0.2723 -0.1652  0.1216
15267W        W19567  17.463   3.116  33.552 -0.2017 -0.1700 -0.5488
15268W        W19568   7.668   0.645   3.004  0.0327  0.0412 -0.0946
15269W        W19569  11.503   1.784   8.694 -0.0977 -0.3473  0.2171
15270W        W19570  19.114   1.958  39.956 -0.0465 -0.0657 -0.1636
15271W        W19571  19.166   0.932  30.986 -0.0673  0.1305 -0.1166
15272W        W19572  11.948   2.474  30.084  0.1290  0.1439  0.0133
15273W        W19573  19.082   2.743  29.034 -0.0373 -0.0211  0.0680
15274W        W19574  16.658   0.591   2.635  0.0615  0.1451 -0.2398
15275W        W19575   1.559   0.747  32.573  0.1041  0.0118 -0.1711
15276W        W19576  18.509   4.727  16.630  0.0631  0.0187 -0.1867
15277W        W19577  12.612   1.497  35.576  0.1591 -0.1104  0.0505
15278W        W19578  11.944   6.010  36.355 -0.1718 -0.2476  0.1452
15279W        W19579  19.925   1.675  39.495  0.1089 -0.0644 -0.0069
15280W        W19580  21.020   1.648  11.415 -0.3415 -0.0473  0.1002
15281W        W19581  18.482   3.408  35.557  0.0593  0.0866 -0.1684
15282W        W19582   6.927   5.399  38.093  0.3433 -0.2315 -0.0673
15283W        W19583   4.290   0.051  37.368  0.0244  0.2551 -0.2941
15284W        W19584  17.511   1.551  19.505  0.0614  0.0653  0.0864
15285W        W19585  18.287   5.235  16.496 -0.3388 -0.1300 -0.1876
15286W        W19586   5.953   5.404   5.908  0.1195  0.0104 -0.0419
15287W        W19587   0.894   5.482  37.348 -0.1741  0.3803 -0.0920
15288W        W19588   2.715   2.375  43.876 -0.0577  0.1876 -0.0283
15289W        W19589   4.128   1.739   6.930  0.1599 -0.2988 -0.0399
15290W        W19590  10.471   3.968   5.388  0.2200 -0.0968 -0.2505
15291W        W19591  16.302   1.423   5.734  0.5449 -0.2916 -0.0453
15292W        W19592   9.483   6.442  31.665 -0.0733 -0.2048 -0.0654
15293W        W19593   7.230   0.041  26.124  0.0278 -0.0353 -0.0496
15294W        W19594   6.277   6.412   5.458 -0.2603  0.1217  0.0766
15295W        W19595   0.311   5.386  29.714  0.1264  0.1372 -0.1301
15296W        W19596   0.452   3.929  37.473 -0.1940  0.0956  0.1409
15297W        W19597  19.787   2.863  41.427  0.2452  0.0406  0.1541
15298W        W19598  13.232   4.586  19.741 -0.0692 -0.1577 -0.1670
15299W        W19599   4.883   4.407  29.191  0.1129 -0.0187 -0.1662
15300W        W19600   8.695   0.359  36.386  0.2223  0.0769 -0.0110
15301W        W19601  17.394   3.062   2.482 -0.1029  0.0176 -0.1602
15302W        W19602   5.516   0.625  23.247  0.2409  0.0688 -0.0447
15303W        W19603  13.361   2.690  44.423 -0.1853  0.1773 -0.0882
15304W        W19604   4.136   4.052  41.939  0.1872  0.0911 -0.5789
15305W        W19605   9.925   3.707  29.631  0.2456  0.2993 -0.2138
15306W        W19606   8.518   2.296  32.834  0.3591 -0.1118  0.1535
15307W        W19607  14.255   2.720  17.994  0.0820 -0.0966  0.1635
15308W        W19608   1.315   6.093   8.443 -0.0993  0.0516  0.0525
15309W        W19609  17.134   1.309  22.156 -0.0377  0.2978  0.1275
15310W        W19610  18.053   5.797  32.832 -0.4107 -0.3675  0.0592
15311W        W19611  14.006   2.992  16.239  0.2020 -0.1038  0.0445
15312W        W19612   6.430   4.999  37.280  0.1996  0.0688  0.0756
15313W        W19613  10.239   1.869  29.719 -0.3230  0.1870 -0.0708
15314W        W19614   4.994   2.645  38.507  0.0615 -0.0863 -0.1069
15315W        W19615  17.837   0.978  34.399 -0.2855  0.0189 -0.3354
15316W        W19616   7.469   5.505  38.951  0.0113 -0.1292 -0.1521
15317W        W19617   8.158   3.493  25.166  0.0538 -0.2571 -0.0324
15318W        W19618  14.484   6.315  31.265  0.2398 -0.1665 -0.0410
15319W        W19619   3.104   6.495  32.245 -0.1074 -0.0257 -0.1542
15320W        W19620  19.019   2.403  34.679 -0.3680  0.2325  0.1644
15321W        W19621  13.937   3.715  13.995  0.2300 -0.3047 -0.2024
15322W        W19622   9.704   1.446  25.921 -0.0574  0.0238 -0.0484
15323W        W19623   6.943   2.829  25.298  0.0603  0.5355 -0.0857
15324W        W19624   7.784   6.354  12.824  0.1025 -0.0362 -0.1744
15325W        W19625   3.838   5.765  21.660  0.1607 -0.1787 -0.2285
15326W        W19626  10.937   3.130   0.715  0.1639 -0.0792  0.0799
15327W        W19627  13.508   4.965  34.095  0.0818  0.0328 -0.0733
15328W        W19628   8.832   2.440  11.175  0.0878 -0.2717 -0.1838
15329W        W19629  14.383   5.782  15.170 -0.1220  0.1391 -0.0072
15330W        W19630  19.919   4.200   6.934 -0.1213 -0.0491  0.0716
15331W        W19631   4.885   0.530  28.492  0.0512  0.0749  0.1171
15332W        W19632  13.191   5.282  10.132 -0.0530 -0.0007 -0.2114
15333W        W19633  20.752   4.942  34.928 -0.2393 -0.3721  0.2030
15334W        W19634  17.442   3.617   2.643  0.0852  0.0181  0.0507
15335W        W19635  15.352   3.691  12.179  0.0263 -0.0881  0.0630
15336W        W19636   1.306   1.962  25.883  0.0520  0.3310 -0.3039
15337W        W19637  14.593   0.121  30.999  0.1882  0.2025  0.0904
15338W        W19638  13.704   0.820  44.323  0.2936  0.1863  0.1157
15339W        W19639  14.742   3.852  20.544  0.2253 -0.2201 -0.0353
15340W        W19640   7.400   4.666  37.639  0.0146 -0.1308 -0.2674
15341W        W19641   3.711   6.182   2.895 -0.2251 -0.2052 -0.4510
15342W        W19642  10.684   2.460  14.476  0.0482  0.0591  0.0816
15343W        W19643  14.215   0.103  40.529 -0.1464  0.3009 -0.1704
15344W        W19644   6.322   0.401  26.889  0.1011  0.1677  0.0407
15345W        W19645   4.374   1.422  29.824  0.2555  0.1221 -0.0035
15346W        W19646   2.431   6.192  34.331  0.1608  0.0136 -0.0629
15347W        W19647  20.105   6.078  13.616  0.0264 -0.0943  0.0226
15348W        W19648  21.141   3.072  15.556 -0.3609  0.0291 -0.2249
15349W        W19649  19.021   3.734  32.040  0.4349 -0.0021  0.0353
15350W        W19650  12.969   1.653  14.597 -0.1286 -0.2074  0.1710
15351W        W19651   1.224   5.083  37.067  0.2537  0.0157  0.0824
15352W        W19652  18.906   0.534  42.896 -0.2292 -0.1263 -0.0257
15353W        W19653   1.025   2.438  32.820  0.0633 -0.2205  0.0785
15354W        W19654   3.499   1.606   1.114  0.0184  0.0609 -0.3204
15355W        W19655   5.614   3.053   1.602  0.1492  0.0223 -0.0691
15356W        W19656  11.794   2.101  37.894 -0.1945 -0.0934 -0.1993
15357W        W19657   8.528   6.236  15.364  0.1011  0.0095  0.0508
15358W        W19658   9.943   0.158  14.764  0.2599 -0.1147  0.1583
15359W        W19659   2.736   4.618   3.508  0.0342  0.1069 -0.0522
15360W        W19660   4.403   3.522  13.256 -0.0778 -0.1204 -0.1581
15361W        W19661   3.631   3.661  41.866 -0.3320  0.1727 -0.1407
15362W        W19662   6.176   1.222  32.602  0.3694  0.2935 -0.4407
15363W        W19663  15.068   3.274   8.476  0.1616  0.0631  0.1521
15364W        W19664   3.053   5.083  12.943 -0.0551 -0.2438 -0.3180
15365W        W19665   0.131   6.541  30.758 -0.1802  0.0963  0.0769
15366W        W19666  17.986   3.680   8.227 -0.1395 -0.3953  0.1732
15367W        W19667  12.488   2.074  29.078 -0.2202  0.0944  0.1809
15368W        W19668   5.593   2.168   5.795  0.0192  0.0869  0.0784
15369W        W19669  12.006   0.539  31.452  0.0145 -0.1249 -0.0052
15370W        W19670  14.769   4.391  18.359  0.2469  0.0085  0.1308
15371W        W19671  14.594   0.777  22.833  0.2568 -0.1259 -0.3218
15372W        W19672  12.735   5.641  34.071 -0.0384  0.1423  0.2392
15373W        W19673   0.872   4.268   0.216 -0.3194  0.0404  0.1774
15374W        W19674  19.751   2.177  31.777  0.1515 -0.1117 -0.1258
15375W        W19675   5.928   3.248  43.310 -0.1228  0.1432  0.0459
15376W        W19676  12.316   2.683  42.403 -0.1154 -0.0442  0.0708
15377W        W19677  12.887   3.963  17.357  0.1943 -0.0158 -0.1623
15378W        W19678   7.916   3.523  43.731 -0.1784  0.1745  0.0122
15379W        W19679   3.351   4.645  27.189  0.3949  0.0903  0.1378
15380W        W19680  13.286   4.737  44.545 -0.1462  0.3526  0.1640
15381W        W19681   5.284   0.145   7.516  0.0931  0.1219  0.1004
15382W        W19682  18.056   3.900  30.563 -0.0047 -0.0109 -0.0477
15383W        W19683  20.340   2.322  44.574 -0.0242 -0.2665  0.1794
15384W        W19684  10.422   5.188   7.834  0.2262 -0.0220  0.2420
15385W        W19685   9.550   2.413  15.488  0.0895 -0.0736 -0.0781
15386W        W19686  12.980   0.387   0.818 -0.0488  0.0864  0.0210
15387W        W19687   4.495   5.880  29.834 -0.2289  0.1042  0.1698
15388W        W19688  17.036   1.135  13.582 -0.1370  0.5503 -0.0014
15389W        W19689  11.930   2.155  17.410  0.1404 -0.2896  0.0027
15390W        W19690  18.042   0.204  33.642  0.0580 -0.2956  0.0600
15391W        W19691  14.906   5.492  32.709  0.2693 -0.0525  0.2396
15392W        W19692  12.769   3.301   5.330  0.0825  0.0360  0.0219
15393W        W19693   6.608   1.882  27.434 -0.0924 -0.1959 -0.1544
15394W        W19694   2.962   0.828   8.180 -0.1628  0.2156  0.2269
15395W        W19695   3.820   2.245  11.993  0.1745 -0.0323 -0.3097
15396W        W19696   9.296   3.005  36.226 -0.4719 -0.3927 -0.0667
15397W        W19697   1.832   2.051  43.970 -0.0627 -0.0819  0.4199
15398W        W19698   1.065   4.658  28.231  0.0939 -0.2707 -0.0894
15399W        W19699  15.270   6.320  44.123 -0.1690  0.1520  0.0194
15400W        W19700   1.184   5.756  12.117  0.2278 -0.1956 -0.0297
15401W        W19701   5.207   2.590  13.954 -0.1433  0.1363 -0.1802
15402W        W19702  16.715   3.268  17.679 -0.0049  0.0463  0.1092
15403W        W19703   3.549   5.596   0.826  0.0899  0.1085 -0.0151
15404W        W19704   9.240   1.155  30.434  0.1228 -0.1297 -0.0838
15405W        W19705   3.541   3.651   7.174 -0.0151  0.1364  0.3125
15406W        W19706   0.676   2.621  44.369  0.3437  0.2384 -0.0021
15407W        W19707  15.353   5.812  43.361  0.3001 -0.0606  0.2675
15408W        W19708  15.557   3.912  14.428  0.0080  0.0371  0.3113
15409W        W19709   1.062   2.749  26.001  0.0151  0.0394  0.0292
15410W        W19710   8.016   0.872  44.095  0.2631 -0.2714  0.0297
15411W        W19711   7.417   5.105   9.974  0.0347  0.0914 -0.0029
15412W        W19712   5.747   3.374  12.964 -0.0807  0.1657  0.0655
15413W        W19713  14.743   0.516  44.172 -0.0935 -0.0070  0.1790
15414W        W19714   1.083   5.121  36.078  0.1607 -0.2269 -0.0037
15415W        W19715   9.386   0.359  38.275 -0.0419  0.3449  0.1587
15416W        W19716   9.774   0.722  12.866 -0.0316  0.2284 -0.1248
15417W        W19717  14.107   4.288  10.228 -0.1902 -0.0331  0.0575
15418W        W19718  10.188   1.855  44.419  0.1431 -0.0819  0.1102
15419W        W19719  13.282   4.075   8.569 -0.0932 -0.2566  0.1360
15420W        W19720   1.545   4.534  33.294  0.1667  0.0117  0.1677
15421W        W19721  11.753   4.367   3.382 -0.2048  0.0950 -0.2480
15422W        W19722   9.974   3.282   1.659 -0.0554 -0.4911  0.1360
15423W        W19723  17.562   1.577  35.594  0.0338  0.2115  0.0413
15424W        W19724   7.475   2.724  23.687 -0.1180 -0.0637 -0.0994
15425W        W19725  19.344   2.147  44.663 -0.0141  0.0395 -0.0171
15426W        W19726  19.876   5.561   9.462  0.2535  0.3259  0.1688
15427W        W19727   1.206   5.892  16.100 -0.0103  0.1150  0.0826
15428W        W19728  13.608   2.012  30.674 -0.3886 -0.0326  0.1056
15429W        W19729  19.412   6.326  14.305 -0.1364 -0.1301 -0.0134
15430W        W19730   3.665   6.090  41.856 -0.3663  0.1992 -0.1558
15431W        W19731  10.644   3.108   8.007 -0.0517  0.0707  0.0405
15432W        W19732  14.812   0.354  32.378 -0.1313 -0.1377 -0.2113
15433W        W19733  17.577   0.103  24.405  0.2326  0.0624 -0.1369
15434W        W19734  14.364   4.561  40.535  0.2702 -0.0993  0.0379
15435W        W19735  17.273   6.413  40.545  0.2603 -0.0297 -0.3864
15436W        W19736  20.188   2.454   7.924  0.2081  0.3770 -0.0996
15437W        W19737   1.882   4.180   4.622  0.2109 -0.2544  0.0093
15438W        W19738   9.798   5.357   0.376  0.1558  0.2791  0.0174
15439W        W19739  14.742   2.593   7.300  0.1059  0.3491 -0.3170
15440W        W19740   7.430   5.438   5.699  0.1901  0.1643  0.1200
15441W        W19741   9.903   6.216  35.359  0.2249 -0.2047 -0.1599
15442W        W19742  10.672   5.763  39.294 -0.0531  0.3017 -0.0046
15443W        W19743   4.887   3.944   4.117 -0.0952 -0.0101 -0.1749
15444W        W19744   1.194   2.112  12.768 -0.0666 -0.0760 -0.0241
15445W        W19745  13.350   3.461  15.045 -0.1125  0.2944 -0.0141
15446W        W19746   9.636   2.218  34.036 -0.0309 -0.0740  0.0709
15447W        W19747   5.230   6.573  11.699  0.2120  0.0312 -0.0483
15448W        W19748  15.658   4.014  30.320 -0.0184 -0.3367  0.1264
15449W        W19749  20.856   0.775  41.041 -0.0998 -0.0367 -0.2130
15450W        W19750   4.873   3.427  40.965 -0.0677 -0.1737  0.1213
15451W        W19751  11.813   5.607  37.346  0.0653  0.1867  0.1755
15452W        W19752  11.968   3.925  11.431 -0.0885 -0.1203  0.1112
15453W        W19753  15.220   0.493  16.948 -0.0201 -0.2300 -0.0169
15454W        W19754  17.975   0.274  41.748  0.1741  0.4138  0.0019
15455W        W19755  15.504   4.088  16.453  0.0592 -0.0463 -0.1614
15456W        W19756   4.068   5.036  36.287  0.0365 -0.1042  0.1439
15457W        W19757  13.029   2.556   5.064  0.0766 -0.0887 -0.1444
15458W        W19758  11.844   3.349  13.763 -0.0297 -0.0747  0.0205
15459W        W19759   1.764   2.290  27.660 -0.1216 -0.0760 -0.0824
15460W        W19760   9.935   2.622  28.337 -0.4130  0.1822 -0.1943
15461W        W19761   3.874   4.479  22.813 -0.2652  0.2116  0.2752
15462W        W19762   7.265   2.511   6.774 -0.0615 -0.0266 -0.2525
15463W        W19763   1.963   2.685  42.985 -0.3535  0.0304  0.1209
15464W        W19764   5.185   1.842  12.007 -0.1419  0.0585  0.1315
15465W        W19765   5.765   2.508  14.803 -0.0085 -0.1665 -0.2118
15466W        W19766   7.707   3.841   6.641 -0.1426  0.3195  0.0862
15467W        W19767  10.846   1.343  44.782 -0.0675  0.1193 -0.0458
15468W        W19768  20.357   1.896  16.107 -0.2359 -0.0338  0.1032
15469W        W19769   3.338   1.084  33.908 -0.1844  0.2938 -0.0158
15470W        W19770   4.769   4.690  35.626 -0.2589 -0.2695  0.0216
15471W        W19771  18.053   1.568   3.601 -0.0121 -0.0286  0.1443
15472W        W19772  20.322   3.306   6.669  0.2227  0.2007  0.0559
15473W        W19773  12.546   3.255  32.997 -0.0526  0.1081  0.3460
15474W        W19774  18.694   2.602  44.700  0.1536  0.1220  0.0769
15475W        W19775  20.943   0.483  30.305  0.1973  0.0752 -0.0893
15476W        W19776   6.124   0.212  41.509 -0.1218  0.0840  0.0454
15477W        W19777   7.086   3.793   0.078  0.0144  0.3859 -0.0420
15478W        W19778   0.192   4.854  40.544 -0.3817  0.0967 -0.0866
15479W        W19779   3.599   1.113  13.527 -0.0411  0.0396  0.0205
15480W        W19780   3.634   0.635  42.631  0.0173 -0.0189 -0.1068
15481W        W19781   1.622   1.754  16.005  0.1689  0.0712  0.4811
15482W        W19782   7.855   3.298   0.201 -0.1606 -0.1485 -0.0359
15483W        W19783   4.066   2.943  27.651  0.0327 -0.1964  0.0810
15484W        W19784  14.357   4.028  38.866 -0.1346 -0.1671  0.1524
15485W        W19785  12.198   5.559  12.010 -0.1710  0.0661 -0.3495
15486W        W19786   5.492   4.770  12.652  0.1406 -0.0069  0.0574
15487W        W19787   8.805   6.455   6.921 -0.0923 -0.0259  0.0687
15488W        W19788   4.392   5.051  32.519  0.0193 -0.1428 -0.1259
15489W        W19789   4.585   3.653   6.966 -0.2132  0.1449 -0.1868
15490W        W19790  10.565   1.658  18.438  0.0600 -0.0124  0.4291
15491W        W19791  14.329   5.509  29.736  0.2608 -0.1623 -0.1910
15492W        W19792   9.935   2.183   2.382 -0.3023 -0.0924  0.1232
15493W        W19793   1.746   2.875  41.846  0.1022  0.1295  0.3228
15494W        W19794  10.476   6.236   8.055  0.1687  0.2664 -0.1589
15495W        W19795   9.025   0.383  11.628  0.1690 -0.0610 -0.0629
15496W        W19796  14.553   5.218   3.177 -0.2399 -0.2212  0.2735
15497W        W19797   6.790   6.010  33.150 -0.4312  0.1694  0.3118
15498W        W19798   4.353   0.331  29.104 -0.3256 -0.0271  0.1397
15499W        W19799   9.835   2.973  31.893  0.1062  0.2306 -0.0664
15500W        W19800   7.882   6.529   9.832  0.4059 -0.1397  0.0476
15501W        W19801  18.406   5.290   2.402  0.3532 -0.0558  0.0002
15502W        W19802   3.047   4.288  38.537 -0.0256  0.0917 -0.1565
15503W        W19803   4.713   3.606  10.561  0.2118 -0.2491 -0.0364
15504W        W19804  15.082   0.020   2.021 -0.1256  0.0255  0.1996
15505W        W19805  11.345   3.868  44.058  0.1984 -0.0373 -0.1618
15506W        W19806  19.733   1.780   8.075 -0.2094 -0.0347  0.4661
15507W        W19807   7.661   0.939  37.257 -0.3027 -0.0747  0.2704
15508W        W19808  20.869   1.994  41.922  0.0855 -0.3556  0.1653
15509W        W19809   6.100   2.858  30.460 -0.2218  0.0595  0.0158
15510W        W19810  10.331   1.838   9.487 -0.0505 -0.1189  0.0038
15511W        W19811  18.860   3.255  43.126 -0.1869  0.1963 -0.1125
15512W        W19812  12.117   0.410   6.894  0.0886 -0.0816  0.0702
15513W        W19813   6.601   3.829  35.430  0.1258 -0.2962  0.2147
15514W        W19814   5.409   0.283   0.247  0.0085  0.1452  0.1361
15515W        W19815  17.716   3.556  45.036 -0.2674  0.4152  0.2527
15516W        W19816  16.495   4.002  17.397 -0.1848  0.2025 -0.0971
15517W        W19817  14.496   0.439  43.731 -0.3202  0.0716  0.4494
15518W        W19818   6.681   1.473  14.518  0.1338  0.2650 -0.1008
15519W        W19819  20.667   1.487  37.507 -0.2407 -0.0442  0.0397
15520W        W19820   7.841   5.459   6.169 -0.1276 -0.3295  0.0611
15521W        W19821  14.599   3.713  37.969  0.0634  0.1766 -0.2079
15522W        W19822  14.660   4.116  34.762  0.3349 -0.0080 -0.1184
15523W        W19823   0.549   3.384  19.228 -0.0570  0.2301  0.3576
15524W        W19824  10.807   0.461   7.967  0.1951 -0.0009 -0.4520
15525W        W19825  16.196   6.426  17.358  0.1647 -0.0693  0.2039
15526W        W19826  17.486   1.612   7.579  0.1693 -0.0592  0.0840
15527W        W19827   9.788   2.446   8.175 -0.1501  0.0653 -0.0447
15528W        W19828   6.776   5.615  16.873 -0.0202 -0.1911 -0.0516
15529W        W19829   6.835   6.498  12.278 -0.2269 -0.2225  0.1014
15530W        W19830  11.578   3.787  10.359 -0.1308 -0.1333  0.0711
15531W        W19831   4.814   2.867  44.180 -0.0087  0.2060  0.1323
15532W        W19832   8.764   0.899  32.653  0.0392  0.0838  0.2962
15533W        W19833  17.589   4.972   8.090 -0.1169 -0.0186  0.0879
15534W        W19834   5.824   4.302  39.397 -0.1430  0.0096 -0.1104
15535W        W19835   9.144   3.752  38.914 -0.0626 -0.2906 -0.1629
15536W        W19836  13.849   1.238  39.306  0.2102 -0.0504  0.2667
15537W        W19837   6.689   4.590  15.351  0.0374  0.0526 -0.1707
15538W        W19838  18.128   3.230  18.455  0.0497  0.0629  0.1860
15539W        W19839   7.349   6.140   6.543  0.0853 -0.2513 -0.2997
15540W        W19840  17.671   3.763  12.205  0.3303  0.0630 -0.1843
15541W        W19841   1.699   6.252  16.256  0.0557 -0.3167  0.0360
15542W        W19842  17.162   4.918  17.067 -0.1065 -0.1689 -0.0698
15543W        W19843  19.218   2.230  14.582  0.0387  0.2487  0.0921
15544W        W19844   5.104   2.372  37.339 -0.0889  0.1423 -0.1039
15545W        W19845   6.376   3.764  44.331  0.1857  0.1446 -0.0454
15546W        W19846  20.540   6.260  29.553 -0.2586 -0.1840 -0.1187
15547W        W19847   6.960   6.496   0.313  0.2234 -0.2657  0.1827
15548W        W19848  19.124   5.169  35.813 -0.0194  0.0820 -0.2618
15549W        W19849   4.389   1.259   4.091 -0.1660 -0.0977  0.3531
15550W        W19850  16.320   0.390  37.913 -0.0883  0.0228  0.1446
15551W        W19851   4.817   0.545  39.320  0.0952 -0.2163 -0.0841
15552W        W19852   8.735   3.440  36.673  0.0041 -0.1755  0.1556
15553W        W19853  10.973   4.677  16.638 -0.0260 -0.0153  0.0441
15554W        W19854   9.777   1.563  16.228 -0.1448  0.4728 -0.4656
15555W        W19855  19.715   5.801   6.707  0.2082  0.0704 -0.1212
15556W        W19856   4.458   0.830  29.119 -0.0869  0.1952 -0.0368
15557W        W19857   3.889   4.907   5.126 -0.0437  0.3393  0.0943
15558W        W19858   4.162   4.051  27.677  0.2706 -0.0136  0.1466
15559W        W19859  17.515   5.294  18.923 -0.0197 -0.0644 -0.5742
15560W        W19860  18.438   5.081  43.367  0.0024  0.2825  0.2050
15561W        W19861   9.175   2.439  38.240 -0.1212  0.0037 -0.0139
15562W        W19862  18.952   6.158   1.672 -0.1435 -0.0893  0.0560
15563W        W19863   0.290   0.615  15.598  0.0792  0.1344  0.1729
15564W        W19864  14.791   0.846  18.133  0.2359 -0.0120 -0.3025
15565W        W19865  17.796   1.990  43.791  0.1511 -0.0191  0.0683
15566W        W19866  12.606   6.555   7.845  0.0556  0.0226 -0.3863
15567W        W19867  19.316   3.268  43.322 -0.0069  0.1639  0.0290
15568W        W19868   3.797   5.515  36.242 -0.0791 -0.1045  0.1283
15569W        W19869   9.930   4.093   4.755 -0.5542  0.1212 -0.1075
15570W        W19870  14.091   2.457   8.409  0.0513  0.0554 -0.1797
15571W        W19871  18.023   0.794  17.675 -0.2851  0.1752 -0.1644
15572W        W19872  15.051   4.219   2.694  0.1559  0.0402  0.3742
15573W        W19873  10.782   5.682   6.386 -0.0432  0.1305 -0.1646
15574W        W19874   4.884   3.102  24.931 -0.0307  0.2265 -0.0261
15575W        W19875   8.994   5.654   1.530 -0.1359 -0.3451  0.0220
15576W        W19876   1.088   5.313   8.513  0.0816 -0.3313 -0.0473
15577W        W19877  17.484   3.112  31.946 -0.1925 -0.1702 -0.0334
15578W        W19878   0.753   6.074  45.080 -0.2057 -0.2603 -0.0389
15579W        W19879   0.354   0.524   7.167 -0.0726  0.0884 -0.2455
15580W        W19880  10.666   0.572  44.720 -0.1225 -0.0036 -0.2889
15581W        W19881   3.923   3.335   4.421 -0.1837 -0.0381 -0.1332
15582W        W19882  16.001   0.841  38.071  0.0322 -0.0357  0.1235
15583W        W19883  16.099   4.752  16.021 -0.2544 -0.1385 -0.0869
15584W        W19884  18.098   4.872  30.379  0.0688 -0.0728  0.1242
15585W        W19885   7.316   4.957  36.400  0.0104 -0.2014 -0.4109
15586W        W19886  10.808   6.481  35.591 -0.2362 -0.2512 -0.4281
15587W        W19887  16.920   1.146  37.390  0.2512  0.0520  0.1407
15588W        W19888   4.838   2.818   8.743  0.1191 -0.2433  0.1387
15589W        W19889   9.035   6.440  40.489 -0.2188 -0.0920 -0.1614
15590W        W19890  13.079   3.030   6.460  0.0181  0.0379 -0.0149
15591W        W19891   4.509   1.771  36.406 -0.0250 -0.0695 -0.3195
15592W        W19892  19.232   3.685   6.594  0.1233 -0.0711  0.1764
15593W        W19893  12.507   4.506  10.674  0.0867 -0.3202  0.2126
15594W        W19894   7.785   5.333   3.576 -0.1339  0.1666 -0.3862
15595W        W19895   2.163   2.311   3.043 -0.0351  0.0912  0.0040
15596W        W19896  18.646   1.559  10.100 -0.1446  0.0813  0.1292
15597W        W19897  17.655   3.836  33.883  0.2518  0.0780 -0.1015
15598W        W19898  12.812   3.218  40.228 -0.1290  0.1797  0.1261
15599W        W19899   7.014   5.899  41.424  0.1940 -0.4194 -0.1781
15600W        W19900   4.133   3.484  36.506 -0.2247  0.0519  0.1197
15601W        W19901   7.444   6.114  37.381 -0.3886 -0.0485 -0.0563
15602W        W19902   9.942   4.757   6.624 -0.4672  0.0097 -0.2045
15603W        W19903   2.228   5.771  12.066  0.0695 -0.1286 -0.2422
15604W        W19904  17.912   4.628  14.539  0.1195 -0.2099  0.0323
15605W        W19905   8.880   5.977   0.087  0.1149 -0.2835 -0.1907
15606W        W19906   0.862   1.229  31.532  0.1193  0.1234  0.3205
15607W        W19907   1.519   5.749  38.420 -0.1450  0.0363  0.2941
15608W        W19908  15.573   6.008  40.611 -0.0815  0.0841  0.1908
15609W        W19909   4.857   5.329   9.944  0.1770 -0.0697 -0.0802
15610W        W19910   9.535   5.602   6.847  0.1035  0.0793  0.2556
15611W        W19911   9.016   0.813  42.472  0.0933  0.0995 -0.0380
15612W        W19912  17.411   6.024  20.181  0.0117 -0.3075  0.1833
15613W        W19913  11.662   4.468   7.211 -0.2454 -0.0581  0.1869
15614W        W19914   2.672   1.010  43.342 -0.0289 -0.3084 -0.0390
15615W        W19915  16.225   2.014  25.796  0.3197  0.0335  0.0151
15616W        W19916  17.082   5.343  16.339 -0.4384  0.0159  0.2616
15617W        W19917   9.330   2.123  44.206 -0.0118 -0.0452 -0.0246
15618W        W19918   8.131   2.820  42.865  0.3902  0.1248  0.1695
15619W        W19919   8.770   4.538   8.335 -0.0819  0.0516 -0.3169
15620W        W19920  19.536   1.120   6.235 -0.0602  0.0885  0.2366
15621W        W19921   2.871   3.234   6.577  0.2644  0.1932  0.1090
15622W        W19922  15.245   2.976  21.546  0.1129  0.0854  0.0363
15623W        W19923  15.417   0.925  21.606  0.2728  0.0660  0.3928
15624W        W19924   4.292   3.796  10.768 -0.0690  0.0676 -0.1773
15625W        W19925   6.412   2.450  34.963 -0.1673 -0.0719  0.2003
15626W        W19926  15.464   4.212   1.348  0.0423 -0.0345 -0.1565
15627W        W19927   0.758   6.119  15.275 -0.0685 -0.1017  0.2587
15628W        W19928  16.678   5.509  41.125 -0.0018 -0.1667  0.1769
15629W        W19929   6.177   6.472  25.113  0.1020  0.0510  0.0417
15630W        W19930   5.723   5.109  30.992 -0.1442 -0.2240  0.1349
15631W        W19931  14.128   4.924   4.620 -0.2720 -0.3624 -0.0212
15632W        W19932  19.990   1.012  20.267  0.0380 -0.1971  0.2824
15633W        W19933   4.792   5.426  35.137  0.0974 -0.1906 -0.0798
15634W        W19934  11.927   2.465  44.608 -0.0136 -0.3330 -0.0940
15635W        W19935  15.402   3.890  32.902  0.0837 -0.1926 -0.0553
15636W        W19936  13.007   2.041  10.166  0.0583  0.3511 -0.0327
15637W        W19937  17.541   0.699  17.584 -0.1425  0.0395 -0.0826
15638W        W19938  19.431   5.490   2.598  0.1608  0.0214 -0.0819
15639W        W19939  11.945   4.812  36.662 -0.1297 -0.2792  0.0588
15640W        W19940   7.808   4.360  13.681 -0.0575  0.1401  0.2971
15641W        W19941   2.787   6.285   5.718 -0.0192 -0.0699 -0.1326
15642W        W19942   4.840   0.828   8.688  0.1072  0.2162 -0.2849
15643W        W19943   0.606   1.863   5.262 -0.1102  0.1100  0.0015
15644W        W19944  13.697   5.586  29.745  0.1183 -0.0747  0.0771
15645W        W19945   0.349   0.917   4.897  0.3309 -0.3949 -0.0629
15646W        W19946   6.422   4.572  24.452 -0.0741  0.0211  0.5094
15647W        W19947  12.247   4.832  32.889  0.1462  0.1236  0.0094
15648W        W19948   8.164   1.746  24.707  0.2393 -0.0986 -0.1080
15649W        W19949  12.245   0.322  37.476  0.1172 -0.0259 -0.0962
15650W        W19950  10.924   2.801  42.483  0.3109  0.2731 -0.1585
15651W        W19951   1.097   0.018  29.918 -0.0813  0.1315 -0.4484
15652W        W19952  13.441   4.574   1.575 -0.1479  0.0848 -0.3595
15653W        W19953  12.135   2.916  16.509  0.0699  0.3512  0.4266
15654W        W19954   5.755   1.843  37.668  0.0278  0.1820 -0.1438
15655W        W19955  11.248   0.767  35.083 -0.1758  0.2308  0.0242
15656W        W19956   0.558   5.517  39.359 -0.0143 -0.2096 -0.2138
15657W        W19957  10.676   5.768  32.074 -0.2545 -0.0067 -0.0510
15658W        W19958   6.875   4.692  27.844  0.0884 -0.0399 -0.0166
15659W        W19959  18.824   4.903  30.838 -0.0126  0.2500  0.0744
15660W        W19960  16.589   5.267   1.085  0.0286 -0.2335  0.0812
15661W        W19961  16.680   4.160  23.739 -0.0494 -0.2066 -0.1447
15662W        W19962  14.239   2.218  35.821  0.1762  0.3485 -0.1210
15663W        W19963  10.692   4.742   6.644  0.1034 -0.2541 -0.3207
15664W        W19964   6.270   4.809  42.773 -0.0008  0.2058  0.0215
15665W        W19965  13.797   6.237  29.243 -0.0694  0.1106 -0.0825
15666W        W19966  15.357   1.330  23.870 -0.0958  0.1717  0.0054
15667W        W19967   7.475   2.775  34.884  0.3452  0.1049  0.0597
15668W        W19968  20.718   2.179  44.179 -0.0988 -0.1015  0.1282
15669W        W19969  18.752   4.009  19.609 -0.0086 -0.1209  0.2099
15670W        W19970   4.507   0.711  25.631  0.1621 -0.0450  0.0789
15671W        W19971   1.552   3.940  39.711  0.0900 -0.0027 -0.0841
15672W        W19972  13.147   1.222  32.193  0.0552 -0.1908 -0.3264
15673W        W19973   9.481   3.605  14.950  0.0357  0.0020 -0.1834
15674W        W19974   3.376   5.464  38.183  0.1061 -0.0766 -0.0371
15675W        W19975  13.286   5.641  18.847 -0.0973  0.0451 -0.1080
15676W        W19976  18.872   4.440  44.431  0.1536  0.2397  0.0186
15677W        W19977   8.900   4.676  16.277 -0.2317  0.1763 -0.3892
15678W        W19978  12.015   4.435  44.227  0.1316 -0.1086  0.1995
15679W        W19979   0.305   1.099  10.445 -0.2335  0.1488  0.1079
15680W        W19980  14.062   4.994  41.473 -0.0406 -0.1292 -0.0448
15681W        W19981   8.153   0.788  40.790  0.3246 -0.0780 -0.2109
15682W        W19982   8.668   2.214  39.363  0.1528 -0.0098  0.0742
15683W        W19983   1.889   0.655   4.361 -0.0138 -0.2415 -0.1503
15684W        W19984  15.499   3.309   5.858  0.0909 -0.3588  0.0007
15685W        W19985   2.453   2.746  40.541 -0.0730 -0.1109  0.0303
15686W        W19986   2.527   3.089  23.845 -0.0936 -0.0649 -0.1408
15687W        W19987  19.062   3.130  37.545  0.0139  0.1554 -0.0442
15688W        W19988  13.027   4.187   9.522 -0.1755 -0.1018  0.1275
15689W        W19989  13.654   6.226  43.092 -0.1145  0.1301  0.3148
15690W        W19990   6.427   1.289  38.827  0.1277 -0.1834  0.1748
15691W        W19991  15.675   4.071  13.227 -0.0437 -0.0119 -0.0858
15692W        W19992  17.934   5.117  10.983 -0.3558 -0.1607 -0.1155
15693W        W19993   3.530   5.525  33.657  0.1232  0.0412 -0.2343
15694W        W19994  17.130   0.616   4.974  0.2541  0.1165 -0.0309
15695W        W19995   1.881   4.952   5.292  0.0297 -0.1393 -0.0502
15696W        W19996  15.257   6.113  37.545 -0.1066  0.1057 -0.0291
15697W        W19997   0.393   1.663  44.315 -0.2393  0.1619  0.1296
15698W        W19998  10.953   3.970   0.382 -0.0227  0.0677 -0.1464
15699W        W19999  12.607   5.846  11.852  0.1353  0.0824 -0.2300
15700W        W20000  12.710   1.684   4.676  0.0067 -0.1492  0.1640
15701W        W20001  13.874   2.843   2.063 -0.2543  0.0872  0.1544
15702W        W20002   3.708   6.426   1.605 -0.0909 -0.1392  0.3212
15703W        W20003  16.592   5.933  42.984 -0.0295 -0.0006  0.3829
15704W        W20004   4.799   0.733  37.604 -0.1399 -0.0415  0.2045
15705W        W20005  20.694   1.875  43.718  0.0892  0.1469 -0.1038
15706W        W20006  19.531   2.441  13.081  0.0608  0.0297  0.0146
15707W        W20007   8.850   2.188  32.442 -0.1564 -0.1848 -0.0598
15708W        W20008   5.148   5.184  42.492 -0.1388  0.0800  0.1781
15709W        W20009  12.319   2.670   3.040  0.1331  0.0006 -0.0748
15710W        W20010   5.167   5.991  15.888  0.1888 -0.1902  0.0254
15711W        W20011  12.270   1.583  29.246 -0.2489  0.0779 -0.3238
15712W        W20012   6.910   1.160  36.728 -0.0918  0.0120  0.3343
15713W        W20013  16.236   2.435   6.542  0.1252  0.4411 -0.4093
15714W        W20014  17.063   4.004  43.076 -0.2495  0.0784 -0.0094
15715W        W20015  12.133   0.364   4.219  0.0431 -0.2642  0.1190
15716W        W20016  15.464   2.825  30.208  0.0727  0.1625  0.1540
15717W        W20017   9.785   4.313  17.813  0.2256  0.1061  0.0460
15718W        W20018   8.344   5.861   8.854  0.1128 -0.0881  0.2541
15719W        W20019  10.218   4.763  27.127 -0.1380 -0.1808  0.1141
15720W        W20020  18.077   5.810   2.728 -0.1006 -0.1313 -0.1162
15721W        W20021   5.195   3.509  16.282  0.0232 -0.0299  0.0397
15722W        W20022  11.393   6.195  10.945 -0.2975 -0.0033 -0.1505
15723W        W20023   4.978   0.315  15.383  0.1345 -0.0665 -0.2145
15724W        W20024  11.447   3.668  35.507 -0.1176 -0.0550 -0.0200
15725W        W20025   7.533   6.187  43.742 -0.1802  0.1857 -0.2017
15726W        W20026  20.178   0.269  39.114  0.0677  0.0912 -0.0393
15727W        W20027   3.975   0.428  44.463 -0.3651 -0.2415 -0.1980
15728W        W20028   7.230   2.501  16.612 -0.1757 -0.1354 -0.0680
15729W        W20029  14.547   0.616  10.844  0.1767 -0.1810 -0.1563
15730W        W20030  11.450   3.482  30.705  0.0049 -0.0123  0.1695
15731W        W20031   0.729   4.290  18.236 -0.1622  0.2162 -0.3655
15732W        W20032  20.802   3.012  12.735 -0.1528  0.5420  0.1886
15733W        W20033  19.418   6.380   7.850 -0.0899  0.1398 -0.0589
15734W        W20034   4.765   5.935   6.106  0.1135 -0.0626  0.1349
15735W        W20035  12.234   3.601  43.545  0.0497 -0.2186 -0.1515
15736W        W20036   6.794   1.060  40.250 -0.0193  0.3703 -0.0727
15737W        W20037   5.615   2.961   9.800  0.2489 -0.1155  0.0982
15738W        W20038  16.945   4.680  18.002  0.2720 -0.2293 -0.2008
15739W        W20039   3.584   2.951  26.917  0.1128  0.2304  0.5250
15740W        W20040  15.281   6.346  17.532 -0.4040 -0.0823  0.0141
15741W        W20041   6.656   5.193  20.797 -0.0275  0.1427 -0.1941
15742W        W20042   4.789   6.293  15.987  0.2160  0.1861 -0.0678
15743W        W20043  16.161   1.322  20.417 -0.0416 -0.0558 -0.0357
15744W        W20044  15.720   6.043   7.190 -0.2615 -0.0864 -0.0700
15745W        W20045   3.111   5.081  32.083 -0.2755 -0.3561  0.1333
15746W        W20046  14.064   2.705  11.110 -0.0956 -0.1797 -0.0852
15747W        W20047  10.617   5.024  33.706 -0.0422 -0.2736  0.0367
15748W        W20048  16.915   3.798  41.971  0.2043  0.2400 -0.1201
15749W        W20049  17.570   2.325  38.180 -0.0777 -0.0675  0.1265
15750W        W20050   2.970   2.768  35.001 -0.2963  0.0707  0.2155
15751W        W20051  16.410   3.060  25.381 -0.1313 -0.1219 -0.0005
15752W        W20052  15.266   6.561  33.441  0.0985  0.1093 -0.0301
15753W        W20053  18.838   6.108  41.383 -0.0749  0.0673 -0.0136
15754W        W20054  17.402   6.590  32.147 -0.1043 -0.2090 -0.0217
15755W        W20055   3.783   4.760  30.580  0.0333  0.0669  0.3607
15756W        W20056  16.720   4.810   7.563  0.1490 -0.0124  0.3757
15757W        W20057  20.057   0.934   8.417  0.0055 -0.0171 -0.1364
15758W        W20058   3.478   2.613  39.408 -0.1556 -0.1373 -0.0921
15759W        W20059  14.304   3.838  30.107 -0.1288 -0.1777 -0.0619
15760W        W20060  16.169   2.888  43.848 -0.1057  0.1828 -0.0288
15761W        W20061  15.061   0.907  44.149 -0.1212  0.0837 -0.0748
15762W        W20062  11.784   3.101   9.462 -0.0998  0.2192 -0.0067
15763W        W20063  16.279   2.999  24.878 -0.0162 -0.0199  0.2111
15764W        W20064  13.932   4.786   3.123  0.0759 -0.0162  0.0407
15765W        W20065  15.629   5.597  35.296 -0.1200 -0.0869 -0.0693
15766W        W20066   2.790   4.323   1.872 -0.0612  0.1987  0.1076
15767W        W20067  15.806   0.001  20.125 -0.0315  0.0751  0.2731
15768W        W20068  13.278   2.342  42.318 -0.0357  0.4305  0.0155
15769W        W20069  15.721   5.870  36.178  0.1532 -0.0555 -0.0680
15770W        W20070  20.994   3.201   1.073  0.1507 -0.1345 -0.2985
15771W        W20071   8.355   4.047  27.776  0.1889  0.1055 -0.1335
15772W        W20072  14.259   4.401  12.469 -0.2493 -0.2040 -0.0789
15773W        W20073  20.211   3.279  41.367  0.0698 -0.1777  0.1742
15774W        W20074   0.833   0.823  35.456 -0.2139  0.2048 -0.2656
15775W        W20075   6.794   6.525  22.401 -0.3132 -0.1898  0.0220
15776W        W20076  15.424   1.098  16.202 -0.3027 -0.2624  0.2342
15777W        W20077   3.550   4.758  12.683  0.0160  0.1847 -0.0201
15778W        W20078   7.529   5.656  12.518  0.2058 -0.0901 -0.0269
15779W        W20079   8.938   3.744  29.830 -0.0877  0.2515  0.0793
15780W        W20080  16.769   6.426   1.496 -0.2393 -0.1426 -0.2078
15781W        W20081  14.998   5.645  33.419  0.1836  0.3472  0.1980
15782W        W20082   5.753   2.752  29.745  0.0512 -0.0933  0.1358
15783W        W20083  11.417   0.811  30.822 -0.0018  0.1998  0.0718
15784W        W20084   8.702   3.579  16.518  0.0530  0.0940 -0.0393
15785W        W20085   2.132   2.385   9.143 -0.0476  0.0840 -0.0808
15786W        W20086  10.887   1.870  31.413  0.3059 -0.2050 -0.1876
15787W        W20087  20.443   4.414   7.947  0.0727  0.1114  0.0890
15788W        W20088   7.519   4.598   3.858  0.0180  0.2160 -0.0754
15789W        W20089  15.919   2.469  37.484 -0.0967 -0.1593  0.0204
15790W        W20090   1.684   3.414  32.072  0.0333 -0.4838 -0.2998
15791W        W20091   6.183   3.539   7.332 -0.1008  0.0453 -0.1278
15792W        W20092   6.668   3.259  24.924 -0.0121  0.2920 -0.0223
15793W        W20093   1.498   3.008   5.303  0.1778  0.1702  0.1128
15794W        W20094  18.200   5.726  16.074 -0.1354 -0.0009 -0.1602
15795W        W20095  16.326   2.709  30.264  0.0632  0.0541 -0.0264
15796W        W20096   2.722   0.679  11.605  0.3319 -0.3253  0.1352
15797W        W20097  13.638   0.518  39.574  0.0514  0.0346  0.2414
15798W        W20098  18.888   4.415   7.200  0.1396 -0.0350 -0.0433
15799W        W20099   8.453   4.002  13.077  0.1123  0.1391  0.4578
15800W        W20100   5.953   3.123   6.902 -0.1830  0.1270 -0.0175
15801W        W20101  13.422   1.476  40.848 -0.0102 -0.2045  0.2567
15802W        W20102  18.918   3.925  11.078  0.0022  0.2413 -0.2476
15803W        W20103  10.200   0.773  13.246  0.0812 -0.1053  0.0131
15804W        W20104   5.686   0.425  41.536  0.1948 -0.0455  0.1633
15805W        W20105  14.666   4.659   6.605  0.2097 -0.0213 -0.0648
15806W        W20106   5.251   1.009  42.978  0.1075  0.0088  0.2406
15807W        W20107   8.602   0.212  32.216 -0.0963  0.2182  0.0228
15808W        W20108   6.728   6.452  37.726  0.0152 -0.0568  0.0093
15809W        W20109  14.779   0.937  19.681 -0.1507  0.2383  0.6301
15810W        W20110   7.290   0.842   7.950 -0.1658  0.0854 -0.1297
15811W        W20111   3.979   6.547   8.616  0.1483 -0.0364  0.0742
15812W        W20112  16.562   5.698  28.810 -0.0215  0.0077 -0.0864
15813W        W20113   2.073   0.843   9.769 -0.0805 -0.1758 -0.1929
15814W        W20114  11.131   6.504   0.699 -0.2498 -0.1494  0.1546
15815W        W20115  12.037   2.671  17.960  0.0369  0.2601  0.2967
15816W        W20116  19.269   0.723  40.194  0.0506  0.1700 -0.1764
15817W        W20117   9.100   1.982  30.038 -0.1008 -0.2285 -0.0542
15818W        W20118  13.034   4.080  17.798 -0.2314  0.2528  0.1093
15819W        W20119  15.896   3.432   0.203  0.3005  0.1608  0.1308
15820W        W20120   7.441   5.891   6.982  0.2117 -0.0070  0.1610
15821W        W20121   5.270   2.017  25.052 -0.1860  0.1368 -0.1327
15822W        W20122  16.499   4.650   0.377 -0.1835  0.0580 -0.1000
15823W        W20123  19.624   6.077  35.445 -0.0789 -0.2117  0.1253
15824W        W20124  13.914   1.018  38.082  0.0116 -0.0105  0.1088
15825W        W20125   0.593   6.291  40.818 -0.2536 -0.0609 -0.2864
15826W        W20126  14.106   1.408   1.921 -0.0382  0.1053 -0.3181
15827W        W20127  17.546   4.448  13.216  0.2550  0.2416  0.0366
15828W        W20128   0.692   5.560   5.402  0.0479  0.3764 -0.0305
15829W        W20129   8.069   4.315  37.728 -0.2284 -0.0526 -0.0474
15830W        W20130   6.591   2.811  24.231  0.0142  0.3695 -0.0473
15831W        W20131  18.631   5.129   7.779  0.0181  0.1231 -0.0477
15832W        W20132   3.718   3.833  15.332 -0.1403 -0.2467 -0.1302
15833W        W20133   3.607   3.603  30.942 -0.1639 -0.0182  0.1372
15834W        W20134   4.041   4.106  32.254  0.1511 -0.1648 -0.0242
15835W        W20135  10.714   1.377  31.464  0.0527  0.1951 -0.0578
15836W        W20136   2.866   3.081  33.623 -0.0849  0.0921 -0.0074
15837W        W20137  12.168   1.171  33.875 -0.3416 -0.0460 -0.0006
15838W        W20138  13.645   6.597  30.304  0.1938  0.0812  0.2384
15839W        W20139  16.588   0.935  25.014  0.0647 -0.0166 -0.0375
15840W        W20140  13.812   0.623   5.636 -0.1716  0.1414 -0.3084
15841W        W20141  18.919   2.669   6.011 -0.1539 -0.0237  0.1259
15842W        W20142  14.781   4.968  11.027  0.0831  0.1231 -0.0217
15843W        W20143  11.054   3.930  41.754  0.0996 -0.2228 -0.0162
15844W        W20144   9.220   2.336   5.494 -0.1125 -0.2261  0.2791
15845W        W20145  14.583   0.265  31.858 -0.1593  0.1561  0.3242
15846W        W20146  16.196   0.355  15.541  0.2415 -0.0638  0.1557
15847W        W20147   6.371   2.032  39.640 -0.1689 -0.0241  0.2712
15848W        W20148  11.226   0.749  26.987 -0.0203 -0.0384 -0.1752
15849W        W20149  20.251   4.891  13.487  0.1942  0.0445 -0.4551
15850W        W20150  16.626   2.039  17.037 -0.0582 -0.1192  0.0975
15851W        W20151  19.055   5.760   4.710 -0.0504 -0.1800  0.2280
15852W        W20152  13.395   4.798  15.760 -0.5100  0.1179 -0.5046
15853W        W20153  13.470   3.887  15.752  0.2057 -0.2216  0.0068
15854W        W20154  16.081   6.532  15.989 -0.1625  0.2410 -0.0884
15855W        W20155   5.833   5.909  33.251  0.0354  0.3790 -0.1245
15856W        W20156   8.735   3.672   5.199 -0.5479  0.1657  0.0508
15857W        W20157   7.885   4.744   2.035  0.2359 -0.0126 -0.1268
15858W        W20158  13.584   4.952   1.119 -0.4880  0.2897  0.1104
15859W        W20159  21.126   3.371  44.086  0.2766 -0.0779  0.0119
15860W        W20160  17.336   6.426   3.589 -0.1284  0.0747 -0.0058
15861W        W20161  12.303   6.213  10.566  0.0861  0.0277 -0.0574
15862W        W20162  14.767   4.626   1.146 -0.0986  0.4194  0.0211
15863W        W20163  19.193   5.722  20.768 -0.0674  0.0446 -0.1248
15864W        W20164  10.185   4.798  34.642  0.2337  0.0633  0.1112
15865W        W20165  20.487   1.111   0.245 -0.1032  0.2503  0.3619
15866W        W20166  19.923   3.298  39.658 -0.1578  0.0594  0.0736
15867W        W20167   0.908   3.488   1.899 -0.4492 -0.2782 -0.1536
15868W        W20168   7.832   4.968  25.031  0.1509 -0.2554 -0.0366
15869W        W20169  14.626   4.448  12.950 -0.2648 -0.2410 -0.2540
15870W        W20170  19.078   5.618  17.915 -0.0676  0.1674  0.0882
15871W        W20171   8.095   5.664  31.754 -0.3679 -0.1873  0.0058
15872W        W20172   9.092   3.238  14.734 -0.2930 -0.0399 -0.1196
15873W        W20173   6.480   6.252  38.576  0.0899 -0.0544  0.1456
15874W        W20174  16.850   0.173  12.441  0.3036 -0.0883 -0.0898
15875W        W20175  20.934   2.489   1.610 -0.0106 -0.0708  0.0580
15876W        W20176   2.692   4.183  26.533 -0.2278  0.4507  0.0606
15877W        W20177  20.166   0.361   9.845  0.1104 -0.2303  0.1519
15878W        W20178  14.969   1.145  24.159 -0.0049  0.2269 -0.1627
15879W        W20179   9.879   1.825  30.391  0.0677 -0.0491  0.2645
15880W        W20180  15.635   6.387   3.820 -0.0074 -0.1359  0.1137
15881W        W20181   7.117   3.706  37.435 -0.1994 -0.2030 -0.0721
15882W        W20182  19.029   0.614   2.977 -0.3735 -0.2163  0.0206
15883W        W20183   0.147   3.349  31.839 -0.2372  0.1401  0.0085
15884W        W20184  19.508   0.062  37.609 -0.1066  0.3804  0.1643
15885W        W20185   5.031   3.709  23.104  0.3057 -0.1220  0.1951
15886W        W20186   7.947   3.191  33.545 -0.1165  0.3957  0.1595
15887W        W20187   1.213   5.016  37.601  0.0167 -0.2960  0.1921
15888W        W20188   2.162   0.697  13.827  0.0953  0.1549 -0.0065
15889W        W20189  14.537   4.239   9.511 -0.1038 -0.5266  0.3816
15890W        W20190   7.708   4.172  44.009  0.0240  0.2520  0.0303
15891W        W20191   5.954   2.445   4.206  0.2916 -0.0210  0.0924
15892W        W20192  15.902   5.089   4.221  0.1579 -0.0889  0.1715
15893W        W20193   8.306   1.747   4.875 -0.1428 -0.0526 -0.1442
15894W        W20194  14.731   5.931  19.625 -0.0594  0.1048 -0.0657
15895W        W20195  15.114   4.230  42.643  0.0794 -0.1716 -0.2559
15896W        W20196   6.936   5.811  24.138 -0.1401  0.0131 -0.1685
15897W        W20197   5.865   0.818   4.913 -0.3083  0.0473 -0.0758
15898W        W20198   9.432   4.584   5.378  0.3197  0.4566  0.0133
15899W        W20199   4.716   5.436  42.389  0.1438  0.1730 -0.0324
15900W        W20200   7.170   2.252  22.503  0.0492  0.0881  0.0584
15901W        W20201   0.437   2.621  27.489 -0.3125  0.4037  0.2915
15902W        W20202  13.390   2.909   6.004  0.0321  0.2201  0.1152
15903W        W20203  12.025   2.393  27.943 -0.2548 -0.1044 -0.1426
15904W        W20204  11.533   3.529  37.198  0.1910 -0.1625 -0.1275
15905W        W20205  17.182   1.398  30.799  0.3112 -0.3771 -0.1200
15906W        W20206  15.385   6.362  17.980  0.4782 -0.0247 -0.1199
15907W        W20207  20.066   3.831  39.734  0.0582  0.0163 -0.0059
15908W        W20208  18.145   2.158  42.263  0.1828 -0.1433 -0.1773
15909W        W20209   5.327   5.461   5.872 -0.0262  0.3607  0.0741
15910W        W20210  16.727   0.381  38.339 -0.1500 -0.0738 -0.1536
15911W        W20211  18.872   1.268   8.041  0.2064  0.0961  0.3528
15912W        W20212   2.069   1.129  31.627 -0.0935  0.1804  0.0348
15913W        W20213  20.107   0.492  12.384  0.0004  0.2271  0.0598
15914W        W20214   4.846   2.298  39.389  0.2135 -0.1602  0.2324
15915W        W20215   0.140   3.122  14.142  0.0395  0.1528  0.1256
15916W        W20216   4.744   2.246   0.659 -0.4228 -0.2467 -0.0526
15917W        W20217   2.144   5.883  44.916  0.0036 -0.1343 -0.1538
15918W        W20218  20.713   2.643  43.743  0.2733 -0.2120 -0.1641
15919W        W20219   9.693   4.080  32.542 -0.3129  0.3046  0.1378
15920W        W20220  11.624   4.081   4.890  0.3070 -0.1539 -0.0519
15921W        W20221  15.001   0.770   6.321  0.0813 -0.1141 -0.0239
15922W        W20222   6.998   4.205  30.442 -0.1224 -0.2332  0.1807
15923W        W20223   3.602   1.392  32.275 -0.0830 -0.0002 -0.1548
15924W        W20224   4.286   5.978  38.549  0.0009 -0.1065 -0.1041
15925W        W20225  10.475   3.256  13.253  0.2707  0.0164 -0.4336
15926W        W20226  10.866   0.033  41.370 -0.2501 -0.0657 -0.1501
15927W        W20227   5.059   1.579  33.404  0.0656  0.1858  0.1312
15928W        W20228  16.385   4.819  43.027 -0.2529  0.0042  0.0977
15929W        W20229  12.658   6.338   9.801  0.6455 -0.1422  0.2107
15930W        W20230   9.557   6.234  41.259 -0.0985  0.3540 -0.2042
15931W        W20231   7.056   4.239   9.209 -0.2255  0.0498  0.2239
15932W        W20232  18.383   6.181  42.657 -0.2410 -0.0821 -0.0431
15933W        W20233  17.440   6.133  23.024  0.0845  0.2122  0.0436
15934W        W20234   0.103   6.323  13.266  0.0586  0.0517  0.1585
15935W        W20235   1.764   1.502   4.012  0.1503 -0.0558  0.3570
15936W        W20236  12.550   2.304   9.801  0.2561  0.0463 -0.2982
15937W        W20237   0.594   4.176  27.599 -0.0335  0.2430 -0.3330
15938W        W20238   5.494   2.470   4.837  0.0131 -0.0191 -0.2347
15939W        W20239  19.466   1.412  41.528 -0.0814 -0.0028 -0.0542
15940W        W20240   9.101   5.188  42.696  0.0375 -0.1282 -0.0149
15941W        W20241   2.646   4.111   6.462 -0.0994 -0.0559 -0.3351
15942W        W20242   6.809   0.691   8.424 -0.1158 -0.3413  0.1197
15943W        W20243   5.049   2.981  42.954  0.0220 -0.1507 -0.0646
15944W        W20244   0.573   6.263  30.790 -0.0676  0.0019 -0.1103
15945W        W20245  18.035   6.504  42.864 -0.0257 -0.0715  0.1094
15946W        W20246  17.537   3.402  41.709 -0.1253  0.1333 -0.1080
15947W        W20247   4.391   6.340  23.695  0.0828  0.1605 -0.0529
15948W        W20248   0.554   6.407   7.063  0.0312  0.0533  0.0937
15949W        W20249  18.309   0.597  20.243 -0.2069  0.1885 -0.2481
15950W        W20250   6.458   2.570  40.948  0.0096 -0.0377  0.1075
15951W        W20251   3.572   5.824   0.372  0.2914 -0.0410 -0.2986
15952W        W20252   8.897   1.169  41.843  0.2294  0.2235 -0.0440
15953W        W20253   8.594   4.214  33.007  0.1541  0.0661  0.0649
15954W        W20254   0.255   0.121   6.796 -0.3397  0.2104  0.1835
15955W        W20255  18.895   3.214  41.945 -0.1905  0.2007 -0.2368
15956W        W20256   9.118   3.146  10.637  0.0876 -0.4938  0.0358
15957W        W20257  17.150   1.303  33.177  0.3651 -0.1269  0.0102
15958W        W20258  19.177   4.582  13.837  0.0933 -0.0608 -0.0588
15959W        W20259   9.431   5.619   9.083  0.0996 -0.1691  0.3786
15960W        W20260  15.475   4.176  42.319  0.1313 -0.1194  0.0187
15961W        W20261  12.699   5.885   8.739 -0.5549  0.0489  0.1800
15962W        W20262  15.940   2.400  17.748 -0.1325  0.0305 -0.1302
15963W        W20263  19.665   4.981  42.769 -0.1230 -0.0957 -0.1619
15964W        W20264   0.320   1.322   4.169  0.1787  0.0909 -0.1808
15965W        W20265   9.759   2.712  42.301 -0.0972 -0.0649 -0.0922
15966W        W20266  19.605   1.552  19.458 -0.2735  0.1858  0.3773
15967W        W20267  20.985   6.130  34.170 -0.2145 -0.1942 -0.2120
15968W        W20268   2.595   3.394  14.691  0.0988 -0.1432  0.1209
15969W        W20269   9.840   3.285  24.602 -0.0458 -0.0434 -0.0041
15970W        W20270  16.930   0.731   7.327 -0.0451 -0.0651 -0.0181
15971W        W20271  15.814   2.421  32.509  0.1795  0.1692 -0.3231
15972W        W20272   6.352   5.703   4.005 -0.1406  0.0193  0.0719
15973W        W20273  17.678   1.327  36.005 -0.2096 -0.0172 -0.0122
15974W        W20274   0.619   0.269  15.845 -0.0609  0.0432 -0.1303
15975W        W20275  14.802   3.036  32.057  0.0613 -0.1749 -0.2951
15976W        W20276  15.055   4.518   2.122  0.2518  0.2725  0.0358
15977W        W20277   2.344   2.206  44.397  0.3794 -0.1540  0.0366
15978W        W20278  14.424   2.791   7.711 -0.2977 -0.1893 -0.1936
15979W        W20279   2.277   1.085   9.224  0.2201  0.2435  0.5056
15980W        W20280   1.282   6.311  16.497 -0.0017 -0.1484  0.3052
15981W        W20281   9.874   3.911   9.097  0.2731 -0.2340 -0.1955
15982W        W20282   4.900   3.028   7.782 -0.1710  0.0995 -0.0202
15983W        W20283   7.302   5.213  12.129 -0.0717 -0.0653 -0.2363
15984W        W20284  13.777   6.402   4.636  0.0902  0.2798 -0.1182
15985W        W20285  16.291   0.650   5.696 -0.1831  0.0718  0.1474
15986W        W20286   0.756   0.684   0.638  0.2720 -0.1526 -0.3720
15987W        W20287  17.037   4.429   2.640  0.1933  0.2400 -0.1837
15988W        W20288   7.125   4.432  16.041  0.2913  0.0159 -0.2386
15989W        W20289   4.760   1.482  44.082  0.1923  0.1976  0.1233
15990W        W20290  11.964   4.459   1.795 -0.0386  0.1029  0.0570
15991W        W20291   2.447   0.991   6.141 -0.0648  0.2223 -0.1013
15992W        W20292   0.523   5.347  43.377  0.0250  0.0546  0.1089
15993W        W20293  11.848   3.951   8.011  0.1287  0.0212 -0.0423
15994W        W20294   1.289   2.051   7.655 -0.0201 -0.0886  0.1885
15995W        W20295  14.647   6.296  11.660 -0.2698  0.5040  0.0339
15996W        W20296  18.124   5.947  34.652 -0.0931  0.1729 -0.3355
15997W        W20297   6.213   1.592  39.771 -0.1674 -0.2087  0.1706
15998W        W20298  15.090   2.346  30.216 -0.0049  0.5495 -0.1125
15999W        W20299  17.862   3.951  15.819  0.2850 -0.1671 -0.2694
16000W        W20300   1.534   4.100   7.916 -0.1038 -0.4241 -0.0776
16001W        W20301  18.215   5.665  12.554 -0.1067  0.0206 -0.1693
16002W        W20302  10.781   4.472  12.634 -0.3204 -0.0286  0.1250
16003W        W20303   0.050   3.783  13.105  0.0241 -0.2062  0.1243
16004W        W20304   2.893   4.107  11.175  0.0234  0.0325  0.2326
16005W        W20305   8.261   5.616  35.819  0.0523 -0.0962 -0.0248
16006W        W20306  19.080   0.326  37.691 -0.1250 -0.0422 -0.1403
16007W        W20307  12.054   0.753  16.054  0.3693 -0.4538 -0.0445
16008W        W20308   0.789   5.851   9.008 -0.0726  0.1224 -0.2427
16009W        W20309  15.708   5.403  43.372 -0.0563  0.2031  0.1195
16010W        W20310  15.871   2.486   4.836 -0.1505 -0.0268  0.1361
16011W        W20311   3.971   2.151   4.855  0.0473 -0.1111 -0.2192
16012W        W20312  16.197   4.567  39.096 -0.0361 -0.0964 -0.0678
16013W        W20313   7.501   1.707   4.245  0.0706 -0.2855  0.1163
16014W        W20314   5.080   3.606  30.631 -0.0355 -0.0439 -0.3023
16015W        W20315   9.338   2.040  25.328  0.1134 -0.0353  0.1157
16016W        W20316  14.170   0.274  37.070  0.0555  0.0901  0.0520
16017W        W20317   7.046   1.477  35.050  0.1713  0.1390  0.2377
16018W        W20318   1.367   2.586  36.318 -0.0828 -0.2681  0.0036
16019W        W20319   4.314   0.973  42.027 -0.0914  0.1157  0.1047
16020W        W20320  11.232   3.263   8.250 -0.1412  0.1028  0.3347
16021W        W20321  17.410   4.547   9.297  0.2174  0.0507 -0.2219
16022W        W20322  10.243   3.456   0.220  0.3366  0.0050  0.0332
16023W        W20323  19.497   1.638   0.954  0.1792 -0.0860 -0.1748
16024W        W20324   0.484   3.141  39.154 -0.0929  0.2914  0.1756
16025W        W20325  10.479   3.960  44.568  0.0863 -0.0661  0.0499
16026W        W20326  10.373   2.266  26.247 -0.1216 -0.0500 -0.0014
16027W        W20327  10.076   3.155  26.280  0.2931 -0.1321  0.0566
16028W        W20328  11.315   0.118   6.399 -0.0959 -0.1861 -0.0619
16029W        W20329  10.702   5.468  11.279  0.1432  0.1101 -0.1934
16030W        W20330  10.208   4.853  41.820  0.1104 -0.0406 -0.0333
16031W        W20331   2.839   3.652  27.768 -0.0093  0.2862  0.2566
16032W        W20332  16.595   5.169  20.813 -0.1642  0.1550  0.4068
16033W        W20333  14.376   0.201  16.894  0.0091 -0.0691 -0.4369
16034W        W20334  20.158   0.721   0.199 -0.0398  0.1502  0.1334
16035W        W20335   7.901   2.759  23.171 -0.0177 -0.1675 -0.3456
16036W        W20336  16.534   1.409  22.934 -0.0481 -0.1685  0.2139
16037W        W20337   6.127   5.789  40.373  0.1563  0.1224  0.0177
16038W        W20338  19.767   0.993  37.550  0.2341  0.1573 -0.0046
16039W        W20339  20.905   2.166   4.345  0.1910 -0.1863 -0.2083
16040W        W20340   8.761   4.796  35.178  0.0617 -0.3292  0.3438
16041W        W20341  15.338   1.793   1.099  0.2707  0.0086 -0.0300
16042W        W20342  16.588   4.269   4.299 -0.0014  0.0002  0.2122
16043W        W20343  20.779   2.641  29.709  0.2095 -0.1036  0.0315
16044W        W20344  13.831   1.707  21.993  0.1617  0.1533  0.0131
16045W        W20345  17.640   3.680  42.523 -0.0109 -0.4052 -0.0970
16046W        W20346  12.337   1.390  40.858 -0.1577  0.1808  0.1668
16047W        W20347   8.684   0.286   9.939  0.0571  0.1569  0.0480
16048W        W20348   7.255   6.515  37.631 -0.2344 -0.1737 -0.0991
16049W        W20349   9.801   2.370   3.834  0.0595  0.0043  0.0509
16050W        W20350  18.001   5.549  17.366 -0.2577  0.0619 -0.0483
16051W        W20351   7.567   6.092   8.626  0.1176  0.2218  0.0137
16052W        W20352  12.298   0.805   4.384  0.2490  0.0190  0.1160
16053W        W20353   2.874   6.314  14.623  0.2684  0.1638 -0.2526
16054W        W20354  17.301   3.122   7.748  0.2445 -0.0330 -0.0046
16055W        W20355  18.099   3.806   9.461  0.0666 -0.0830 -0.0265
16056W        W20356   0.003   2.573  15.468  0.0267 -0.0793 -0.1094
16057W        W20357  10.793   1.687   0.596  0.0998 -0.1088 -0.2674
16058W        W20358   2.988   6.207   2.325  0.0561 -0.2681 -0.2789
16059W        W20359  16.454   4.735  30.706 -0.0242  0.1387  0.1629
16060W        W20360   8.759   3.866  41.233  0.2851  0.2001 -0.1066
16061W        W20361   1.783   5.993   8.249  0.1531 -0.0585 -0.1411
16062W        W20362  18.843   1.977   6.827  0.0398  0.1348 -0.0735
16063W        W20363   9.343   1.941   9.234 -0.0660  0.0409  0.1725
16064W        W20364   8.025   1.214  23.864  0.1400  0.0757  0.1123
16065W        W20365  12.428   3.294   4.672  0.2163 -0.1894  0.1459
16066W        W20366   5.586   4.074  33.094 -0.0810 -0.1043  0.0039
16067W        W20367  11.089   0.423  11.856 -0.0379  0.0311  0.0348
16068W        W20368  13.526   1.954  21.634  0.0589  0.1073  0.1409
16069W        W20369   2.803   6.416   4.199  0.1998  0.0131 -0.1056
16070W        W20370  14.769   3.819   5.699 -0.1531 -0.4115 -0.2284
16071W        W20371   7.113   5.111  27.570 -0.0449 -0.1056 -0.0139
16072W        W20372   2.795   1.634  36.502  0.4100  0.0043  0.3292
16073W        W20373   7.120   1.172  32.711 -0.2560  0.1800  0.0447
16074W        W20374  13.566   2.786  20.058  0.0452 -0.2108 -0.3221
16075W        W20375  18.600   0.399   6.668  0.2055  0.0189  0.1718
16076W        W20376   6.814   1.000  14.018  0.0954  0.0943 -0.0007
16077W        W20377   2.500   2.771  10.612  0.0083  0.0419 -0.1266
16078W        W20378  18.490   0.666  11.754 -0.1019  0.2254  0.0479
16079W        W20379  13.903   5.359   4.307  0.0257 -0.1025 -0.3396
16080W        W20380  10.181   0.642  31.580 -0.0298  0.0719  0.1958
16081W        W20381   4.049   5.679   3.503 -0.0327  0.0440 -0.1611
16082W        W20382   2.491   1.230  36.441  0.0481  0.1858  0.1220
16083W        W20383   0.084   5.241   5.622  0.1160 -0.0278  0.2236
16084W        W20384  10.574   2.854  35.054  0.0759 -0.3324 -0.0596
16085W        W20385   2.933   0.502  39.204  0.2429  0.1179 -0.1361
16086W        W20386  19.620   1.918  37.722  0.0876 -0.0219 -0.3282
16087W        W20387  10.666   0.717  37.900  0.1896  0.0294 -0.0160
16088W        W20388   1.549   5.909  39.724 -0.1813 -0.1450  0.0560
16089W        W20389   2.841   3.360  39.499  0.0936 -0.1181 -0.2748
16090W        W20390  19.020   1.258  16.360  0.0074 -0.0910 -0.2221
16091W        W20391   1.454   1.957  14.981  0.1655 -0.2733  0.0422
16092W        W20392   8.376   1.553  43.724  0.2117  0.1458 -0.0172
16093W        W20393  14.915   3.534  19.577 -0.2494 -0.1468 -0.1770
16094W        W20394   0.212   1.305  12.340  0.1175  0.0782 -0.0784
16095W        W20395   5.307   3.368  25.940  0.0935 -0.3107 -0.2873
16096W        W20396  18.722   6.211   2.517  0.1724  0.2161 -0.2584
16097W        W20397  13.709   1.957  12.974  0.0253 -0.1009  0.2702
16098W        W20398   3.715   2.366  10.264  0.0756  0.0744 -0.0602
16099W        W20399   9.357   3.728  37.795  0.0098 -0.0461  0.3627
16100W        W20400   8.611   5.107  10.773 -0.0284 -0.1672  0.1020
16101W        W20401   7.409   4.969  24.189 -0.0836 -0.4510 -0.0423
16102W        W20402  19.137   2.856   8.621 -0.0946  0.0276  0.2014
16103W        W20403  12.664   4.085  36.824 -0.0445  0.2093  0.0170
16104W        W20404   7.053   3.343  39.626 -0.0835  0.0657 -0.1899
16105W        W20405   9.762   0.748  43.862 -0.1663 -0.1881  0.0384
16106W        W20406   9.163   2.793   2.291  0.1270  0.2497 -0.2212
16107W        W20407   5.909   3.776  23.444  0.0790  0.1323 -0.0074
16108W        W20408  12.136   2.259   9.283 -0.5740 -0.0869  0.1553
16109W        W20409   9.100   2.460  17.397 -0.1993 -0.0195 -0.0605
16110W        W20410  18.915   1.913  17.494  0.1476 -0.1209 -0.2830
16111W        W20411   3.847   4.585   8.434  0.2121  0.0073 -0.0335
16112W        W20412  10.706   4.988  14.611 -0.1586 -0.0114 -0.2634
16113W        W20413  14.516   5.326   2.695  0.1235  0.0615  0.0603
16114W        W20414  13.540   2.106  10.043 -0.0312  0.0648  0.0700
16115W        W20415  15.627   1.210   4.149 -0.0882 -0.0789 -0.0589
16116W        W20416   4.236   4.918  41.338 -0.0495 -0.0370 -0.1724
16117W        W20417  19.416   0.624  42.975 -0.1428 -0.3451  0.0849
16118W        W20418  13.752   2.334  38.021 -0.0110 -0.0765 -0.0775
16119W        W20419  15.957   6.562  33.159 -0.1752 -0.1821 -0.0284
16120W        W20420  11.464   2.156   3.641 -0.1721  0.0203  0.0882
16121W        W20421  12.573   3.731   2.303  0.1051  0.0233 -0.3871
16122W        W20422  19.156   0.792  30.438 -0.0867 -0.0860 -0.0966
16123W        W20423   7.677   2.332  13.798 -0.0324  0.0231 -0.1490
16124W        W20424  17.138   4.398  18.347  0.0511 -0.1791  0.2165
16125W        W20425   5.157   4.167  39.490  0.0738 -0.2134  0.2478
16126W        W20426  13.791   0.581   5.106 -0.0960  0.0567  0.1261
16127W        W20427   4.298   5.993  32.038 -0.1373  0.0893  0.0504
16128W        W20428  13.596   1.930   2.638  0.0823  0.2184  0.1340
16129W        W20429  10.301   0.234  31.849  0.1989  0.1578 -0.2011
16130W        W20430  15.102   4.170  12.990 -0.0444 -0.0873  0.0953
16131W        W20431   7.175   4.151   3.672  0.0048 -0.1086  0.0841
16132W        W20432  10.962   3.811  10.275 -0.2703 -0.0313  0.3989
16133W        W20433  14.336   0.141  38.821 -0.0434  0.2207  0.1256
16134W        W20434  10.077   5.575  11.637 -0.0835 -0.1591  0.0443
16135W        W20435   5.883   4.433   7.753 -0.2816 -0.1794  0.2394
16136W        W20436   9.213   4.575  31.693 -0.0849  0.1903  0.1772
16137W        W20437  16.133   4.884  24.373 -0.0353 -0.2835 -0.0236
16138W        W20438   2.481   4.789  30.805 -0.0382 -0.0116  0.0345
16139W        W20439  19.656   0.507  15.134  0.0983 -0.1615 -0.1285
16140W        W20440   2.084   1.943   3.953  0.3272 -0.0423  0.0525
16141W        W20441  19.298   1.022  41.253  0.0720 -0.0830 -0.3493
16142W        W20442   0.572   5.012   6.801  0.1269 -0.0817  0.4139
16143W        W20443  18.568   2.141  11.368 -0.0620 -0.0893 -0.2893
16144W        W20444   0.345   1.913  42.609  0.0125 -0.0935 -0.1287
16145W        W20445   0.541   3.047   5.005  0.0344 -0.1511 -0.1212
16146W        W20446   0.091   2.158  38.166  0.2239  0.1887  0.0906
16147W        W20447   6.558   6.086  26.656 -0.1870  0.0696  0.2138
16148W        W20448   0.547   2.905  16.314 -0.0134 -0.1916  0.0347
16149W        W20449   3.472   1.468   5.770 -0.1056 -0.1646 -0.1492
16150W        W20450   6.825   3.340  24.319  0.1558  0.2735 -0.0153
16151W        W20451  14.399   5.390  29.179 -0.0206 -0.0619 -0.0109
16152W        W20452  15.958   1.490  18.063 -0.1116  0.0327 -0.3418
16153W        W20453  14.187   5.081  31.643 -0.0334  0.2904 -0.1199
16154W        W20454  17.905   2.432  32.482 -0.0527 -0.0219  0.5341
16155W        W20455   9.410   6.330   6.424 -0.0825  0.1965 -0.1477
16156W        W20456  15.493   2.298  41.675 -0.1048  0.0400  0.0935
16157W        W20457  13.952   2.560  14.131  0.0211  0.2026  0.0023
16158W        W20458   4.124   5.992  22.002 -0.0456 -0.2072 -0.0842
16159W        W20459   2.764   1.572   5.131  0.0329  0.0925  0.2447
16160W        W20460  18.411   5.442  31.628 -0.1215 -0.1076  0.1050
16161W        W20461  12.499   3.404  18.155  0.0287  0.3291  0.3578
16162W        W20462   7.849   4.313  36.692 -0.3151 -0.0116 -0.1532
16163W        W20463   2.354   1.606  34.612  0.1228 -0.0390 -0.0410
16164W        W20464   7.288   0.932  44.920 -0.4134 -0.0269  0.3039
16165W        W20465   0.239   5.376   3.933 -0.0843 -0.0023 -0.0443
16166W        W20466  10.733   1.930   1.101  0.0476 -0.0694  0.2084
16167W        W20467   6.930   5.455  16.226  0.2136  0.0325  0.1158
16168W        W20468  20.243   6.234  30.708 -0.0164  0.0692 -0.1118
16169W        W20469  15.059   0.258   0.562  0.0127 -0.1497 -0.1806
16170W        W20470   7.549   5.351  24.785  0.1624  0.1270 -0.1823
16171W        W20471  19.439   2.461   8.700 -0.1036 -0.0865  0.1734
16172W        W20472  16.217   1.609  29.847 -0.0189 -0.0714  0.0570
16173W        W20473  12.916   1.064  35.049  0.0451  0.0570 -0.0516
16174W        W20474  20.897   3.757  28.930  0.0187  0.0435  0.1471
16175W        W20475   5.219   1.710   5.236 -0.1426  0.0202  0.3306
16176W        W20476   2.591   6.022  30.806  0.1417 -0.0791  0.1178
16177W        W20477   3.172   4.483  15.068 -0.2580  0.0795  0.0336
16178W        W20478   2.372   6.280  30.435  0.0898  0.0688  0.1930
16179W        W20479   2.530   6.385  11.676  0.0473 -0.0976  0.2348
16180W        W20480   5.948   5.338  26.419  0.0865  0.1379 -0.0470
16181W        W20481  11.258   3.879   8.853 -0.0359 -0.1744 -0.1968
16182W        W20482  20.368   4.143   3.918  0.0581 -0.0168 -0.0035
16183W        W20483   1.176   1.092  41.968  0.1772  0.1205 -0.0501
16184W        W20484  18.078   6.346  38.226 -0.1620 -0.1438 -0.1305
16185W        W20485  15.053   0.295  19.573 -0.1344  0.0332 -0.1069
16186W        W20486  19.614   2.012   8.534  0.2039 -0.1516 -0.0147
16187W        W20487  15.047   0.540   4.136  0.2512  0.2728 -0.1883
16188W        W20488  19.776   1.213   2.185 -0.1195 -0.2781  0.0100
16189W        W20489  19.098   2.353  18.323  0.0385  0.2900 -0.0769
16190W        W20490  20.357   5.925  44.976 -0.1311 -0.2927  0.1134
16191W        W20491  19.598   0.100   6.509  0.1031 -0.1916  0.2083
16192W        W20492  14.012   0.046  15.011  0.1623  0.1971  0.0957
16193W        W20493  12.059   3.672  44.893 -0.1592 -0.0142  0.2242
16194W        W20494  11.280   0.169   1.255  0.1681 -0.0527  0.3355
16195W        W20495  18.929   5.537   7.725 -0.1708 -0.3534  0.0737
16196W        W20496  14.857   4.469  15.934  0.1344  0.2824  0.1435
16197W        W20497  13.380   0.081  39.328 -0.3570  0.1004 -0.0729
16198W        W20498  10.140   5.434  42.793  0.1680 -0.3016  0.0807
16199W        W20499   4.145   2.558  34.076 -0.0998 -0.2099 -0.0024
16200W        W20500   9.324   3.300   5.587 -0.1650 -0.2365 -0.1237
16201W        W20501   8.048   6.265  28.265  0.1161 -0.0661  0.0853
16202W        W20502  16.230   2.483  26.025 -0.3914  0.0793 -0.0517
16203W        W20503  20.450   1.732  40.133 -0.1522 -0.0943 -0.0637
16204W        W20504   4.224   3.387   8.653 -0.1357  0.0546 -0.0607
16205W        W20505   7.716   3.821  30.225 -0.0369 -0.0603  0.1387
16206W        W20506  13.920   4.611   2.306  0.0838 -0.0563 -0.0202
16207W        W20507   7.805   0.196   6.526  0.0150  0.1324  0.0121
16208W        W20508   6.816   2.481  33.824  0.0474 -0.4244 -0.1811
16209W        W20509  10.688   6.419  10.183  0.2764 -0.2000 -0.1453
16210W        W20510  15.793   0.530  20.275 -0.1709  0.2037  0.0675
16211W        W20511  15.461   4.537  30.810 -0.0592  0.2398 -0.3886
16212W        W20512  12.442   1.382  10.144  0.0900  0.2681  0.1948
16213W        W20513   5.726   0.276  29.514 -0.0646  0.1253  0.0453
16214W        W20514  17.983   1.139   5.497 -0.1022 -0.1397  0.1027
16215W        W20515  15.027   5.397  39.264 -0.0030 -0.1654  0.0480
16216W        W20516  18.073   0.015  36.165 -0.3153 -0.2316  0.0743
16217W        W20517   4.216   1.353  10.555 -0.0014 -0.2301 -0.0334
16218W        W20518  11.341   2.990  33.680  0.1934  0.1515 -0.0007
16219W        W20519   7.946   2.370  28.059 -0.1790 -0.1347 -0.0808
16220W        W20520   6.141   6.545  20.269 -0.0781  0.0604 -0.0225
16221W        W20521   4.646   4.069   9.991  0.0104  0.0324 -0.0943
16222W        W20522  12.085   1.139  12.576 -0.0855  0.0300 -0.0641
16223W        W20523  18.309   4.045   4.869  0.1185 -0.0632 -0.0825
16224W        W20524  19.045   3.478  16.769  0.3557 -0.1712  0.1256
16225W        W20525   9.698   1.844  38.051  0.0440  0.2825 -0.3288
16226W        W20526   1.362   0.519   3.145 -0.1229  0.3795  0.0640
16227W        W20527   2.869   2.818  42.898  0.0205 -0.2293  0.0247
16228W        W20528   4.466   5.418  36.812  0.1915 -0.0240  0.0058
16229W        W20529   3.317   6.109  33.087 -0.0100 -0.1969  0.0956
16230W        W20530  14.365   1.174  36.413 -0.0831  0.1889  0.4504
16231W        W20531   1.317   3.905  39.261 -0.2320  0.1308 -0.1138
16232W        W20532  16.617   5.243  36.239 -0.2955  0.1408 -0.2189
16233W        W20533  15.842   0.337   5.064  0.1090  0.3550  0.2908
16234W        W20534  20.786   1.608  13.264 -0.0819 -0.0086 -0.0578
16235W        W20535  18.606   0.288  34.571 -0.1621  0.2125 -0.1921
16236W        W20536   9.639   4.091  37.965  0.0048 -0.1474  0.1802
16237W        W20537  13.413   4.712  38.415 -0.2721 -0.1152  0.4263
16238W        W20538   3.214   1.331  13.775  0.1003  0.0856 -0.2601
16239W        W20539  10.007   0.306   3.933  0.2856  0.0393 -0.0988
16240W        W20540  17.404   3.162   1.225 -0.0261 -0.0627 -0.1858
16241W        W20541   7.740   2.955  12.869  0.0179 -0.0788  0.0376
16242W        W20542  17.917   4.515  31.727 -0.6467 -0.1005 -0.0775
16243W        W20543   8.425   2.572  44.470 -0.2278  0.1617  0.2398
16244W        W20544  10.233   0.761  43.324 -0.1009  0.1416 -0.0521
16245W        W20545   1.239   1.901   7.170  0.1094  0.1417 -0.0267
16246W        W20546   6.301   1.746  22.251 -0.2534  0.1707 -0.1777
16247W        W20547  10.559   5.401  45.058  0.1696 -0.0718 -0.1074
16248W        W20548  14.129   0.658   6.876 -0.3646  0.1113 -0.2493
16249W        W20549  12.677   4.088  18.645  0.0560  0.1703  0.2994
16250W        W20550  13.059   4.129  40.538  0.0757  0.0082  0.3166
16251W        W20551  13.072   3.337  42.164  0.2974  0.0797  0.0551
16252W        W20552  20.919   3.912  14.066  0.0384  0.1100  0.1396
16253W        W20553   5.781   0.239  20.420  0.1563 -0.0550 -0.3942
16254W        W20554  18.633   1.987   3.933  0.0419 -0.2195 -0.1144
16255W        W20555   3.693   5.589  10.105  0.0709 -0.1362 -0.1247
16256W        W20556   0.232   6.543  29.230 -0.0495  0.1878  0.0690
16257W        W20557  11.417   4.354  44.222  0.3465 -0.0317 -0.1575
16258W        W20558   9.094   3.978  24.346 -0.1115  0.0289  0.2643
16259W        W20559  16.865   5.450  39.313 -0.0907  0.0266  0.1934
16260W        W20560  17.430   4.893  13.446 -0.0148  0.0690 -0.0499
16261W        W20561   6.304   2.957  39.140  0.4623  0.0297 -0.0990
16262W        W20562   4.533   1.008   1.735  0.0772  0.0619 -0.1168
16263W        W20563  18.514   3.219  20.321 -0.2069 -0.5583  0.2432
16264W        W20564   3.033   3.840  12.123  0.1455  0.0019  0.0040
16265W        W20565  12.336   4.189  20.781  0.4361 -0.1328 -0.1075
16266W        W20566   3.360   3.061   8.838  0.1600  0.1566 -0.1769
16267W        W20567   0.574   1.048   4.520 -0.1004  0.0683  0.1100
16268W        W20568   9.494   1.008   2.513 -0.0365  0.0791  0.2777
16269W        W20569  20.125   1.287  11.515 -0.0391  0.0842  0.0251
16270W        W20570  11.659   2.020  37.435  0.1676  0.1392 -0.1632
16271W        W20571  13.750   2.101  41.428  0.1717  0.1164  0.2962
16272W        W20572   4.423   4.126  30.951  0.3121 -0.1291 -0.1496
16273W        W20573   4.587   1.626   4.367 -0.0350 -0.0952  0.1417
16274W        W20574   3.679   0.779  29.594  0.0910 -0.2643 -0.0988
16275W        W20575  14.640   2.386  41.315 -0.0551  0.2396  0.3712
16276W        W20576  11.871   2.295  13.678 -0.0135  0.1011  0.1685
16277W        W20577  19.606   5.493  39.083 -0.0009 -0.0029  0.1622
16278W        W20578   3.764   6.293  24.928 -0.1227  0.0564  0.1047
16279W        W20579   7.142   0.355  10.667  0.0158 -0.1304  0.0632
16280W        W20580  11.590   4.313  27.397  0.2416  0.1002 -0.1517
16281W        W20581  20.582   1.867  11.461  0.0845  0.1486 -0.1232
16282W        W20582   3.240   5.641  32.204 -0.2122 -0.1242  0.0185
16283W        W20583  16.680   6.186  30.624 -0.1409 -0.2078  0.0486
16284W        W20584   3.586   4.568  30.119 -0.1517  0.0859  0.0958
16285W        W20585   7.062   3.920  44.720  0.1777 -0.1300  0.0880
16286W        W20586   7.575   4.080  11.120 -0.0005 -0.0892  0.0380
16287W        W20587   2.357   3.634   7.883 -0.0817 -0.2951  0.0980
16288W        W20588  15.354   3.333  41.099  0.0258  0.2170  0.1574
16289W        W20589  11.522   2.131   4.980  0.0770  0.1380 -0.3020
16290W        W20590   5.637   4.700  27.296 -0.0550 -0.5593 -0.0068
16291W        W20591  19.501   3.937  10.552  0.1850  0.2029 -0.0265
16292W        W20592   8.128   3.027   8.232  0.0665  0.0328  0.0341
16293W        W20593  19.979   1.521  32.428 -0.0124 -0.4306  0.0101
16294W        W20594   8.643   1.684   8.474 -0.0707  0.0260  0.1324
16295W        W20595  20.146   0.031  35.798  0.0823  0.0184 -0.0056
16296W        W20596  12.231   2.130   8.115  0.0458 -0.1549 -0.0823
16297W        W20597  18.706   0.502  17.253  0.2490  0.2268 -0.1255
16298W        W20598  14.639   0.359  44.877 -0.0594 -0.2191 -0.0315
16299W        W20599  12.270   3.813  35.910  0.1710 -0.3270  0.0910
16300W        W20600   1.436   4.346  11.854  0.0424  0.0288  0.0567
16301W        W20601   8.144   6.369  38.829  0.0334  0.1779 -0.1270
16302W        W20602  19.763   1.600   6.909 -0.0598  0.0327 -0.0524
16303W        W20603   5.295   5.135   6.217  0.0284 -0.1488  0.0659
16304W        W20604   3.250   2.155  43.249  0.0497  0.0172 -0.1079
16305W        W20605  15.121   2.103  14.761 -0.4497 -0.0849  0.1104
16306W        W20606   9.776   3.980  41.490  0.0308  0.2564 -0.0192
16307W        W20607  19.499   6.191   3.878  0.2087 -0.4038 -0.0214
16308W        W20608   4.334   0.734  35.832  0.2621 -0.1603 -0.1122
16309W        W20609   7.059   0.110  36.836  0.0075  0.0520  0.3138
16310W        W20610   0.078   6.163  27.456 -0.2969  0.0822  0.1253
16311W        W20611  20.780   0.924   4.588 -0.0528 -0.0414  0.2972
16312W        W20612   2.264   5.780   3.592  0.1065  0.2055 -0.1646
16313W        W20613  20.754   6.236  44.763 -0.2143  0.0792  0.0348
16314W        W20614  16.305   3.783  24.393  0.0075  0.2199 -0.0482
16315W        W20615   3.459   2.832   9.289  0.0351 -0.2539  0.0544
16316W        W20616   6.370   5.866   5.197 -0.0982 -0.0511  0.1279
16317W        W20617   5.965   2.780  27.602 -0.0273 -0.0823 -0.0304
16318W        W20618  16.464   3.005  24.138  0.1740 -0.0503  0.2339
16319W        W20619  15.345   0.307  31.058  0.0040  0.1264 -0.1210
16320W        W20620  14.786   3.382  34.163  0.1059  0.2077  0.0265
16321W        W20621  18.507   5.791   3.768 -0.2620  0.0356  0.0844
16322W        W20622   5.504   5.491  25.097 -0.0709 -0.1127 -0.1007
16323W        W20623   4.044   0.194   9.157  0.2461 -0.3477 -0.0238
16324W        W20624   3.382   3.073  12.840 -0.0510  0.1397 -0.0311
16325W        W20625   3.643   4.653  15.247  0.0855 -0.1638  0.1071
16326W        W20626   4.163   5.288  25.555 -0.3228 -0.0055  0.0691
16327W        W20627  19.223   4.911  18.856  0.2570 -0.1129  0.1050
16328W        W20628  20.272   1.238  37.120  0.0945  0.1577  0.0870
16329W        W20629   3.036   5.940  15.418 -0.1987 -0.2206  0.1741
16330W        W20630   9.558   3.019  44.025 -0.3259  0.0619 -0.2587
16331W        W20631  14.137   0.382  39.726  0.1513  0.2767  0.2032
16332W        W20632   0.424   1.157  29.752 -0.0005 -0.1299 -0.1844
16333W        W20633  10.204   3.412  28.387 -0.0815  0.1962  0.2362
16334W        W20634   8.589   3.472  25.446  0.2815  0.0616 -0.0381
16335W        W20635  10.071   1.436  36.361 -0.0108 -0.1082  0.0423
16336W        W20636   7.445   1.387  28.831 -0.2061  0.0709 -0.1449
16337W        W20637   8.899   0.531  27.505  0.0348  0.2024  0.0540
16338W        W20638   5.483   0.513  33.298  0.2385  0.1269 -0.2375
16339W        W20639  16.790   1.582  40.872  0.3814  0.2570 -0.1628
16340W        W20640   1.568   5.057  31.967  0.0847  0.1006 -0.0352
16341W        W20641  20.617   5.519   8.739 -0.2063 -0.0702 -0.0670
16342W        W20642  18.357   2.874  31.897  0.0024 -0.1568 -0.0241
16343W        W20643  16.581   4.032  42.782 -0.0497  0.1735 -0.2624
16344W        W20644   2.487   6.574   2.855  0.1936  0.2699 -0.1513
16345W        W20645   6.498   0.493  27.757 -0.2061  0.0509  0.1080
16346W        W20646   4.819   4.800  21.376 -0.1970  0.0011  0.4773
16347W        W20647  15.154   3.671  14.297  0.0655 -0.2341  0.1598
16348W        W20648   1.112   5.550  38.037 -0.3512 -0.0160 -0.0549
16349W        W20649   3.211   6.109  25.228 -0.2682 -0.0459 -0.2416
16350W        W20650   4.778   2.529  43.171 -0.1358  0.0793  0.3656
16351W        W20651   7.512   2.292  25.725 -0.1305 -0.4068 -0.1967
16352W        W20652   2.728   3.301   0.628 -0.1359  0.0309  0.0659
16353W        W20653  16.175   1.718  43.385 -0.3842  0.0298 -0.0140
16354W        W20654  11.855   6.424  12.970 -0.0381 -0.0727 -0.0834
16355W        W20655  20.707   1.692  34.543 -0.0939 -0.1496 -0.3011
16356W        W20656   1.120   6.557   6.020  0.1717  0.0684 -0.0210
16357W        W20657  19.465   2.013  37.177  0.1513  0.1398 -0.0453
16358W        W20658   0.477   4.082  45.102  0.3715  0.1191  0.2273
16359W        W20659   3.876   6.001  34.451  0.1290 -0.2379  0.0214
16360W        W20660   9.022   2.563  15.425  0.6307 -0.0524  0.0675
16361W        W20661  16.385   3.211  21.437 -0.0962 -0.1977 -0.1168
16362W        W20662  16.640   3.962  21.474 -0.5623 -0.0199 -0.1412
16363W        W20663  20.176   0.416  40.421 -0.1674  0.0450 -0.1771
16364W        W20664  12.844   5.687   5.924 -0.0200 -0.1037  0.2549
16365W        W20665  17.898   5.177  29.712 -0.2010  0.1599  0.3079
16366W        W20666   8.151   0.589  26.162 -0.1809 -0.1948 -0.2397
16367W        W20667   7.399   1.467  27.026 -0.3336  0.0190  0.0967
16368W        W20668  17.338   3.381   3.743 -0.0940  0.1398 -0.0340
16369W        W20669   2.147   6.171  30.940  0.1389  0.2831 -0.3048
16370W        W20670  16.183   4.059  20.375  0.1477  0.2872 -0.0592
16371W        W20671  18.315   3.368  11.649  0.2354 -0.0310  0.3229
16372W        W20672  19.131   2.677  37.770 -0.0803 -0.1727 -0.1307
16373W        W20673  10.770   5.951  37.340  0.1268  0.1701  0.1834
16374W        W20674   5.875   1.377   0.863  0.0581 -0.1265  0.0318
16375W        W20675   6.016   3.554   3.368 -0.0336 -0.1520 -0.0575
16376W        W20676   0.445   1.359  37.265  0.0229 -0.1384  0.1270
16377W        W20677  16.283   1.985  36.256 -0.0123 -0.1211  0.0627
16378W        W20678   1.441   5.904  36.492  0.0495  0.0681  0.0093
16379W        W20679  15.351   2.594  33.234 -0.0469  0.4278 -0.0226
16380W        W20680   6.533   4.232  26.503  0.1601  0.1389  0.0209
16381W        W20681  16.689   1.911  17.500  0.0721 -0.1558 -0.1592
16382W        W20682  11.079   5.787  12.412  0.0387  0.0950 -0.1573
16383W        W20683   6.788   1.009   5.185 -0.0111  0.0746 -0.1650
16384W        W20684   2.998   1.581  10.850  0.1400  0.0647  0.2172
16385W        W20685   6.003   2.490  35.310 -0.2708  0.1840  0.1551
16386W        W20686   7.088   4.042  35.775 -0.0558 -0.1689  0.2214
16387W        W20687   7.907   4.722  40.541 -0.2623 -0.2839 -0.2082
16388W        W20688   7.284   4.605  39.299 -0.2829  0.0018  0.2493
16389W        W20689   3.761   1.017  24.361  0.0989  0.0864  0.1714
16390W        W20690  15.393   1.086   0.207 -0.1382  0.0429 -0.0300
16391W        W20691  19.597   2.503   8.199 -0.0865  0.2399  0.1054
16392W        W20692  18.314   3.800   9.897 -0.2921 -0.0928 -0.3707
16393W        W20693  17.902   2.374   1.949 -0.2289  0.1260 -0.0217
16394W        W20694   3.621   1.060  15.486  0.1958  0.0139 -0.2757
16395W        W20695  13.109   1.300  17.464 -0.1038 -0.1610 -0.1617
16396W        W20696   3.017   5.673   1.190 -0.3160  0.2133 -0.0569
16397W        W20697   3.767   2.083  27.142  0.0693 -0.2875  0.0348
16398W        W20698   5.659   4.873  20.905 -0.2336  0.2821 -0.1589
16399W        W20699   5.952   2.354  26.809  0.0522  0.2364  0.0803
16400W        W20700   4.499   2.931  43.646  0.0411  0.3199 -0.3361
16401W        W20701   4.683   5.525  11.578 -0.0121 -0.0438  0.0570
16402W        W20702  16.983   4.828  20.928  0.3427 -0.0870  0.4273
16403W        W20703   3.929   0.858   8.366 -0.1626  0.1361  0.1341
16404W        W20704  17.543   1.756  21.319  0.1318 -0.0632 -0.0066
16405W        W20705  18.702   2.558  33.185  0.0144 -0.1519 -0.1553
16406W        W20706  16.435   5.462  17.584 -0.0782 -0.0557 -0.1968
16407W        W20707   5.620   0.784  30.176 -0.0283  0.1102 -0.0187
16408W        W20708   6.534   6.265  23.237  0.0280 -0.1665 -0.0010
16409W        W20709  21.047   0.083   3.248 -0.0538  0.0676 -0.0198
16410W        W20710  16.961   3.194  34.433  0.0016  0.1347 -0.3497
16411W        W20711  18.095   1.283  29.093 -0.0582  0.0598 -0.0189
16412W        W20712   1.157   2.025  30.600  0.0395  0.0051  0.0432
16413W        W20713  11.710   3.090  44.100  0.2536  0.0607 -0.0151
16414W        W20714   5.304   1.230  35.553  0.1729  0.2499  0.1548
16415W        W20715   3.462   3.616  35.517  0.1142  0.0907 -0.1871
16416W        W20716  10.509   1.352  26.970 -0.0069  0.1026  0.4426
16417W        W20717   2.752   3.093  30.224  0.2611 -0.1118 -0.1843
16418W        W20718   6.714   2.792  31.377 -0.2930 -0.1407 -0.0162
16419W        W20719  15.254   3.645  30.351  0.0113 -0.1409  0.1902
16420W        W20720   0.708   1.135  14.846  0.0696  0.0917 -0.0776
16421W        W20721  18.219   5.811  18.621  0.0708 -0.0509 -0.0909
16422W        W20722   0.224   0.909  16.079 -0.0609 -0.1828 -0.0825
16423W        W20723   1.303   3.729  27.816  0.3246 -0.0060  0.1832
16424W        W20724   4.299   5.736  44.771 -0.0239 -0.2347 -0.2668
16425W        W20725   4.724   6.108  15.134  0.0512 -0.0219  0.0710
16426W        W20726   5.145   4.771  28.387  0.0508  0.0056  0.2686
16427W        W20727  20.361   0.608  29.434  0.0469  0.0432 -0.1240
16428W        W20728   5.595   3.523   7.177  0.2685 -0.1637  0.3142
16429W        W20729   0.289   6.580  27.707  0.0148  0.1757  0.0233
16430W        W20730   5.274   0.848   2.652 -0.1248  0.0104  0.2052
16431W        W20731  13.973   0.165  43.969 -0.1007  0.0069  0.0041
16432W        W20732  15.382   4.678  38.609  0.5841 -0.0472 -0.1382
16433W        W20733  13.934   6.209  32.018  0.0237  0.0300  0.3329
16434W        W20734  16.748   5.513  43.248  0.1306 -0.2139  0.0916
16435W        W20735  17.653   5.977  15.108  0.0086 -0.0607 -0.2173
16436W        W20736  17.255   5.619  11.192  0.1672  0.0002  0.1795
16437W        W20737  18.352   5.226  38.671  0.0412  0.0392 -0.2316
16438W        W20738   1.078   4.946   6.762 -0.2338 -0.1521  0.3480
16439W        W20739   1.431   5.394  42.992  0.0198  0.1283 -0.0348
16440W        W20740   3.429   3.550  43.793  0.0452  0.0354  0.0927
16441W        W20741   4.444   3.691   3.689  0.0060  0.1663  0.2274
16442W        W20742   9.366   1.847  14.693 -0.0024 -0.1591  0.1511
16443W        W20743   5.426   4.082  39.092 -0.0039 -0.1512  0.0333
16444W        W20744  15.487   3.843  44.150 -0.1719 -0.1319 -0.1484
16445W        W20745   4.628   2.481  34.944  0.0194  0.0697 -0.0528
16446W        W20746   7.735   0.582  35.548  0.2656  0.1343 -0.0536
16447W        W20747   8.239   1.088  39.569 -0.0571  0.0734  0.0996
16448W        W20748  12.728   0.199  12.899 -0.1394 -0.1832 -0.0967
16449W        W20749   4.619   4.760  39.972  0.0097  0.0067  0.0752
16450W        W20750  12.795   3.891  19.083  0.0806  0.2370 -0.2306
16451W        W20751  14.285   2.280  21.330  0.3996 -0.0426  0.2549
16452W        W20752   3.950   1.450  22.364 -0.0652  0.1391 -0.0949
16453W        W20753  11.101   4.932  32.584  0.0930 -0.0338  0.3504
16454W        W20754  18.785   4.970  15.135 -0.2014  0.0124 -0.0844
16455W        W20755  11.015   4.670  40.016 -0.1190 -0.0362 -0.0130
16456W        W20756  13.347   4.750  18.231 -0.1458 -0.1320 -0.0887
16457W        W20757  19.428   5.947  15.374  0.0600 -0.2704  0.0151
16458W        W20758   6.294   5.796  11.993  0.2178 -0.0959  0.2760
16459W        W20759   6.310   3.018  19.991  0.0443  0.2765  0.1799
16460W        W20760  17.185   1.880  32.683  0.2237 -0.2484  0.1302
16461W        W20761   0.500   1.982   0.690 -0.1058  0.0071  0.1320
16462W        W20762  19.251   0.956   5.799  0.2461  0.1540  0.2156
16463W        W20763   9.646   1.105  29.209  0.0199  0.0198  0.2120
16464W        W20764  18.283   4.907   0.579  0.0640 -0.1314  0.2083
16465W        W20765  20.007   5.408  35.213  0.2426  0.3161  0.0664
16466W        W20766   3.754   1.189   2.705  0.1717 -0.1573  0.1105
16467W        W20767   2.147   5.738  10.100  0.0562  0.1931 -0.0638
16468W        W20768   1.619   3.965  45.114 -0.1374  0.0771  0.0320
16469W        W20769   9.477   5.916  15.068 -0.0307  0.0673 -0.2934
16470W        W20770  13.432   4.066  19.818 -0.1846 -0.0340 -0.1856
16471W        W20771   1.016   4.802   1.659 -0.2121  0.4772  0.3141
16472W        W20772   4.366   4.223  36.867  0.0574 -0.1138  0.0441
16473W        W20773   2.267   6.256   1.970  0.0765 -0.0152  0.1453
16474W        W20774  13.549   3.713   2.299 -0.0282  0.0981 -0.0596
16475W        W20775   4.119   2.382  12.451  0.2606 -0.0373  0.2004
16476W        W20776  10.905   1.264   3.522  0.2828 -0.1941 -0.3349
16477W        W20777  13.980   0.534  14.957 -0.0755 -0.2775 -0.0172
16478W        W20778  19.156   0.058   2.391  0.0750  0.1916 -0.1200
16479W        W20779   2.118   0.478   7.192  0.3513  0.2202  0.0863
16480W        W20780   8.926   2.965  28.103 -0.0951 -0.2448 -0.0437
16481W        W20781  19.263   1.324  35.506 -0.1844  0.0500 -0.0225
16482W        W20782  12.106   2.996  11.229 -0.2639  0.0321  0.2256
16483W        W20783  12.882   4.569   1.063 -0.2900  0.0121  0.1918
16484W        W20784  11.057   3.099   0.106 -0.2081 -0.1024  0.0725
16485W        W20785  21.092   1.951  37.667 -0.1453  0.0166  0.2273
16486W        W20786  12.967   0.061  32.810 -0.1394 -0.0516 -0.1634
16487W        W20787   4.060   2.467  24.856 -0.0358 -0.1747  0.1620
16488W        W20788   9.399   0.229  23.526  0.1795  0.2607  0.2984
16489W        W20789  18.361   2.735  19.289 -0.1280  0.1198 -0.1717
16490W        W20790  16.226   0.255  28.640 -0.1180  0.2020 -0.2263
16491W        W20791   8.781   3.221  16.160 -0.3021  0.0674  0.4042
16492W        W20792   2.164   0.900  10.280  0.0569 -0.1332 -0.2317
16493W        W20793   7.800   2.859  40.929  0.0365  0.0465 -0.2027
16494W        W20794  20.310   2.712  31.082  0.0634  0.1436  0.0395
16495W        W20795  15.059   4.314  36.894  0.0106 -0.1591  0.0377
16496W        W20796  20.104   2.730  44.552 -0.1508 -0.1443 -0.0059
16497W        W20797  18.942   0.153  12.449 -0.0950 -0.0516  0.0423
16498W        W20798  20.393   1.329  14.325  0.0296 -0.0495 -0.1260
16499W        W20799   8.301   4.571  44.978 -0.0153 -0.1391 -0.1139
16500W        W20800  16.666   1.672  23.754  0.1748 -0.4868 -0.0124
16501W        W20801  15.021   4.524   7.204  0.4895  0.0580 -0.3191
16502W        W20802  20.410   2.109   5.187 -0.0195  0.0178 -0.1580
16503W        W20803  11.855   2.651  37.649  0.0737 -0.0980 -0.0370
16504W        W20804   1.674   4.388  14.621  0.0063 -0.2181  0.1437
16505W        W20805   0.873   2.150   3.917  0.1814 -0.2372 -0.0624
16506W        W20806   3.919   0.770  14.830 -0.1122  0.2240  0.0645
16507W        W20807  18.599   3.421  16.919 -0.1937  0.1879 -0.3284
16508W        W20808   2.642   5.095  12.568 -0.1651 -0.0639 -0.4518
16509W        W20809   5.456   1.297  14.709 -0.1169  0.4136  0.0649
16510W        W20810  11.438   2.932  17.855  0.1851  0.2765  0.2878
16511W        W20811  16.294   3.254  17.384 -0.0438  0.1082 -0.0913
16512W        W20812   6.596   3.525  10.310 -0.1684  0.3411  0.3384
16513W        W20813   3.588   3.792  13.375  0.0610  0.0579  0.1062
16514W        W20814  14.099   2.999  22.254  0.1619  0.1428 -0.1703
16515W        W20815  10.625   0.716  11.079 -0.0125 -0.1147 -0.3203
16516W        W20816  16.060   6.299  32.389  0.1074 -0.0087 -0.0348
16517W        W20817  15.524   3.923  22.762 -0.2512 -0.2691  0.0692
16518W        W20818  14.315   2.416  16.429  0.0007 -0.0106  0.0509
16519W        W20819   2.950   4.407  37.638  0.0208 -0.3317  0.0429
16520W        W20820  17.178   3.015  20.775 -0.2553 -0.2139 -0.0529
16521W        W20821  20.537   5.519  38.418  0.0297  0.0901  0.1457
16522W        W20822  16.949   1.215   0.582  0.2829  0.0315  0.1530
16523W        W20823   5.646   1.474  26.901 -0.1165  0.0148 -0.0971
16524W        W20824  17.011   5.168   1.920 -0.4144 -0.1362  0.0141
16525W        W20825  18.942   4.623  41.307 -0.0779 -0.2359  0.0753
16526W        W20826  14.233   0.503  44.172  0.1400  0.2422 -0.0142
16527W        W20827   5.685   5.644  36.604  0.1574 -0.2668  0.1335
16528W        W20828   3.065   5.267  43.416  0.1374 -0.2093  0.1020
16529W        W20829  12.434   5.898   1.046 -0.1110 -0.0127 -0.0834
16530W        W20830   8.602   5.517  36.597 -0.0947  0.1718 -0.2077
16531W        W20831   3.020   1.155  39.733  0.0495 -0.0582 -0.0284
16532W        W20832   7.090   0.257   9.720 -0.0736 -0.2966  0.0953
16533W        W20833   5.471   2.516  24.421 -0.2038  0.1809  0.2795
16534W        W20834   7.300   6.178  30.930  0.3630  0.0266 -0.1564
16535W        W20835  20.971   3.106  16.078 -0.1248  0.0727 -0.1766
16536W        W20836  13.446   6.278  17.646 -0.0136 -0.1395 -0.0299
16537W        W20837   2.660   5.622  39.237 -0.1322  0.2176 -0.2091
16538W        W20838  18.897   0.183  31.863  0.0681  0.0195  0.0022
16539W        W20839   2.348   1.038  11.774  0.1455 -0.0617  0.0684
16540W        W20840  17.003   6.040  39.764  0.0267 -0.0432  0.0229
16541W        W20841  20.488   0.990  13.094  0.3777  0.0821  0.0988
16542W        W20842   3.183   0.567   1.404 -0.0658  0.1071  0.3116
16543W        W20843   7.568   5.700  13.923  0.0741  0.0546  0.0470
16544W        W20844   1.047   1.979  31.961 -0.4019  0.1514 -0.0348
16545W        W20845   8.377   1.767  41.271 -0.2798 -0.1419 -0.1397
16546W        W20846  12.789   0.876  11.116  0.4413 -0.2262 -0.2472
16547W        W20847   2.432   3.665  44.064 -0.0163 -0.2258 -0.0604
16548W        W20848  10.965   2.916  26.487 -0.0223 -0.0142  0.0216
16549W        W20849  19.641   4.946   7.131 -0.2149  0.0464 -0.2581
16550W        W20850  19.097   3.832  18.932 -0.0465  0.3534 -0.0529
16551W        W20851   7.390   3.144  13.627 -0.5243 -0.3991 -0.2544
16552W        W20852  17.822   2.793   1.236  0.2240 -0.2348  0.1213
16553W        W20853  18.501   5.740  34.383 -0.3758  0.0824 -0.0421
16554W        W20854   8.196   6.206  36.802 -0.0688 -0.1102  0.1155
16555W        W20855   7.871   1.779   7.999 -0.0583  0.0946 -0.1735
16556W        W20856  17.007   3.508  33.702  0.1005 -0.1063 -0.1123
16557W        W20857   6.409   1.440   3.266  0.1469  0.2965  0.1981
16558W        W20858  11.882   5.302  37.791 -0.2978  0.1828  0.0903
16559W        W20859   4.533   3.788  40.754 -0.2210  0.0016  0.0292
16560W        W20860  10.460   6.154   6.192  0.0065 -0.1521  0.0284
16561W        W20861   9.322   3.717  44.510 -0.0197 -0.0028 -0.3702
16562W        W20862   3.787   1.272   2.123 -0.2018 -0.0393 -0.3525
16563W        W20863  13.385   5.259  12.949 -0.0491  0.2569 -0.0543
16564W        W20864  16.696   5.658  13.125  0.2509 -0.2134 -0.2105
16565W        W20865   2.877   5.881  44.192  0.0636  0.1233  0.1895
16566W        W20866  14.803   5.967   6.754 -0.0546 -0.0257 -0.0182
16567W        W20867  13.043   0.655  12.851 -0.0375 -0.1505  0.0786
16568W        W20868  16.407   5.689  29.902 -0.2137 -0.2026 -0.0724
16569W        W20869  10.494   6.385  38.172  0.0487 -0.4042 -0.0171
16570W        W20870  15.270   1.794   3.630 -0.1282 -0.3577  0.0784
16571W        W20871  14.430   1.900   6.649 -0.2066  0.0269 -0.2824
16572W        W20872  14.393   1.257  35.443  0.1690 -0.3467 -0.1492
16573W        W20873   6.280   0.880  10.192  0.2535  0.0977  0.0672
16574W        W20874   1.225   3.009   2.067  0.0774 -0.2175 -0.1521
16575W        W20875   6.492   5.428  14.790  0.0647  0.2284 -0.1738
16576W        W20876  20.057   1.553  44.224  0.1292 -0.0373  0.0592
16577W        W20877   0.476   4.011  32.511 -0.0965  0.0127  0.0548
16578W        W20878  14.578   5.099   3.802 -0.1683  0.0980 -0.0186
16579W        W20879   2.232   4.705   3.488  0.0595 -0.1656  0.1080
16580W        W20880  13.760   2.830  14.982  0.3261  0.1345 -0.0711
16581W        W20881  13.580   1.229  13.543 -0.0737 -0.1429 -0.1112
16582W        W20882  11.605   0.909  40.159  0.2280  0.2184  0.1131
16583W        W20883  18.398   3.711  30.213  0.1972 -0.1908 -0.0750
16584W        W20884  19.392   0.174  16.582  0.1179 -0.1003  0.2493
16585W        W20885   2.481   2.463   5.229  0.0952 -0.0749 -0.0110
16586W        W20886   7.975   0.533  33.814 -0.0848 -0.1427 -0.2923
16587W        W20887   1.121   1.824   3.423 -0.0897 -0.0485 -0.0177
16588W        W20888   7.455   0.415  33.764 -0.2243  0.2057 -0.0045
16589W        W20889  17.366   0.227  34.807 -0.1808 -0.0598  0.1316
16590W        W20890   0.991   6.529  39.376 -0.1873 -0.1074 -0.0094
16591W        W20891  20.379   1.882   3.814  0.1198  0.2998  0.0771
16592W        W20892  12.139   0.286  38.096  0.2914 -0.4175  0.0954
16593W        W20893   9.295   2.014  27.213 -0.2541 -0.3159  0.2775
16594W        W20894  19.781   2.370  41.167 -0.1851  0.0082 -0.0472
16595W        W20895   0.654   4.637  30.693  0.1885 -0.1736  0.2688
16596W        W20896  15.663   0.826  35.007 -0.0303  0.1635  0.1266
16597W        W20897  14.886   1.636  14.500  0.1009 -0.1989 -0.0010
16598W        W20898  19.518   2.772   2.484  0.1918 -0.0856 -0.0279
16599W        W20899   2.649   2.368  41.555 -0.0766 -0.0326 -0.0059
16600W        W20900  15.754   1.925   3.802  0.3627  0.1432 -0.1769
16601W        W20901  12.421   4.738   1.545  0.2207 -0.1146 -0.0704
16602W        W20902   6.100   1.055  14.706 -0.0459 -0.1233  0.0756
16603W        W20903   0.276   3.192  32.857 -0.0410  0.3503 -0.0202
16604W        W20904   0.863   4.037   5.972  0.1139 -0.0743  0.2257
16605W        W20905  14.655   4.748  33.054 -0.3098  0.2513  0.1528
16606W        W20906   9.804   3.765   4.422 -0.1531 -0.0058 -0.2573
16607W        W20907  12.738   3.467  15.133  0.1232  0.1478 -0.0129
16608W        W20908  11.362   4.760  39.166 -0.1578 -0.0629 -0.1190
16609W        W20909   0.799   6.249  16.805 -0.0347  0.0919 -0.2121
16610W        W20910   1.927   5.284  32.204  0.1353 -0.1236 -0.1877
16611W        W20911   1.683   3.903  28.501  0.2932  0.0743 -0.0969
16612W        W20912   1.726   1.663  10.296  0.2914 -0.0927 -0.0938
16613W        W20913  12.912   1.114   0.442  0.0502  0.1215  0.1926
16614W        W20914   1.894   5.303  31.179  0.1469  0.0351  0.2579
16615W        W20915  17.584   4.071  21.510  0.1888 -0.0169 -0.1145
16616W        W20916   8.396   2.515  37.015  0.2332  0.0339  0.0098
16617W        W20917   6.765   0.836  10.349  0.2797  0.0119  0.0221
16618W        W20918  11.010   2.133   6.313  0.0820 -0.2280  0.1780
16619W        W20919   7.937   6.311  43.447  0.0383  0.0538  0.1069
16620W        W20920  14.697   0.172  11.434 -0.1572 -0.0139 -0.0229
16621W        W20921   9.348   0.594  39.884  0.0414 -0.0046  0.1305
16622W        W20922  15.738   2.070   1.086  0.1185  0.3047 -0.2124
16623W        W20923  12.533   2.366  32.649  0.3938 -0.0977 -0.2781
16624W        W20924   5.181   1.078  24.982 -0.0203 -0.0874  0.1460
16625W        W20925  17.486   2.449  19.243  0.2395  0.0484  0.2381
16626W        W20926  15.376   2.007  36.027 -0.1194 -0.1174  0.2235
16627W        W20927   7.237   5.014  13.573 -0.0310  0.3082  0.0784
16628W        W20928  15.335   3.442   9.658  0.2143  0.3933 -0.0878
16629W        W20929  21.029   2.241  33.861 -0.0035 -0.1181 -0.0994
16630W        W20930  14.366   3.392  29.550 -0.2258  0.0413  0.0635
16631W        W20931   5.312   2.753   4.178  0.3011 -0.0377  0.2867
16632W        W20932  10.727   4.812  37.228 -0.0930 -0.0388 -0.0218
16633W        W20933   3.611   3.796   9.409  0.3472 -0.0466 -0.0607
16634W        W20934   1.441   1.500  33.836 -0.2065  0.1518 -0.1658
16635W        W20935   4.838   2.589   6.907  0.0160 -0.0119 -0.1682
16636W        W20936  20.152   1.193  44.966  0.2273 -0.3404 -0.1185
16637W        W20937   7.059   1.635  26.628 -0.2328  0.4877 -0.0310
16638W        W20938   6.378   4.561  35.726 -0.0711  0.0824 -0.0947
16639W        W20939  10.302   0.533   0.013  0.3166 -0.1713 -0.3769
16640W        W20940  18.381   6.073  42.159  0.1990 -0.0579  0.0867
16641W        W20941   8.711   5.233   9.378  0.1249  0.0039  0.1700
16642W        W20942   6.110   6.051  39.923 -0.3770 -0.2963  0.2632
16643W        W20943   4.981   5.042   5.736  0.2722  0.1426  0.0302
16644W        W20944  14.794   1.279  29.937  0.0263 -0.0080  0.0290
16645W        W20945  20.142   4.128  38.251  0.1886  0.2046  0.2612
16646W        W20946  17.278   1.005  13.178 -0.0295  0.0466  0.0546
16647W        W20947  15.974   2.271  44.581 -0.0255  0.1052 -0.3971
16648W        W20948   1.536   2.123  38.291  0.0974 -0.0113  0.4398
16649W        W20949   7.108   5.880   5.676 -0.1542 -0.1897 -0.3212
16650W        W20950  10.768   1.236   8.592 -0.0594  0.2671 -0.0377
16651W        W20951   6.125   0.027  13.451  0.0477  0.0582 -0.1028
16652W        W20952  20.053   4.280   9.464 -0.1200 -0.0187 -0.0047
16653W        W20953  14.920   3.253  15.009 -0.0727  0.1332  0.2003
16654W        W20954  18.303   3.004   8.741 -0.0416  0.1785 -0.1575
16655W        W20955   4.981   0.889  35.362 -0.3894 -0.3381  0.0091
16656W        W20956   7.824   3.230  15.026  0.2082 -0.1726 -0.2835
16657W        W20957  10.241   6.038  31.975  0.1011  0.0541 -0.0546
16658W        W20958  12.314   3.581   4.211 -0.2970 -0.0792  0.0970
16659W        W20959  19.604   0.419   7.607 -0.1021  0.1339 -0.1505
16660W        W20960  20.515   0.682  18.337  0.0003 -0.4209 -0.1041
16661W        W20961  16.245   2.025  44.961 -0.0794 -0.1963 -0.4167
16662W        W20962   2.523   2.180  34.818  0.1234  0.1139 -0.0760
16663W        W20963   7.886   4.628  27.393 -0.0775 -0.0017  0.1264
16664W        W20964   4.450   5.787   8.575  0.0593 -0.0535  0.2910
16665W        W20965   3.238   0.596   4.351 -0.1875  0.2606  0.0673
16666W        W20966   6.861   3.810  13.899  0.1555  0.3055  0.1029
16667W        W20967  19.559   0.891  16.821  0.0374 -0.2691  0.2946
16668W        W20968   7.504   3.807  43.601  0.0191  0.0687 -0.1026
16669W        W20969  15.233   3.831  21.915  0.1680  0.0580  0.0999
16670W        W20970   2.673   5.324  41.215  0.1823 -0.3197  0.0762
16671W        W20971  17.171   3.299  35.867 -0.4083  0.1144  0.1737
16672W        W20972   8.862   1.554  29.916 -0.1691  0.0711  0.0779
16673W        W20973  15.110   4.503  12.633  0.3142  0.2801 -0.0138
16674W        W20974  12.086   0.750  40.821 -0.2588  0.3702  0.2224
16675W        W20975   3.932   0.390  40.345  0.0172 -0.3854 -0.2399
16676W        W20976   1.665   6.545  42.778 -0.0794 -0.1110 -0.2040
16677W        W20977  19.664   3.487   3.096 -0.2438  0.0843  0.1089
16678W        W20978  11.419   6.228  29.039  0.0929 -0.0105 -0.1094
16679W        W20979  16.611   3.213  23.347  0.0614  0.3626  0.1743
16680W        W20980  10.103   3.104  26.791 -0.0428 -0.2244 -0.1234
16681W        W20981  20.270   1.203  39.256 -0.2347 -0.0521 -0.0121
16682W        W20982   3.202   4.668  25.095 -0.0443  0.2143  0.0424
16683W        W20983   0.204   3.472  13.763 -0.1548 -0.1733  0.1635
16684W        W20984   3.929   1.484  40.682 -0.1207  0.0848  0.0035
16685W        W20985   8.501   1.016  25.789 -0.0338 -0.2202 -0.1589
16686W        W20986   0.902   0.132  41.154 -0.0750  0.3199 -0.1415
16687W        W20987   5.474   1.028  22.899  0.1225  0.1090 -0.3005
16688W        W20988   2.017   1.135  16.362  0.1816 -0.1040  0.1039
16689W        W20989   9.420   0.567  11.342  0.0151 -0.2280 -0.0227
16690W        W20990  14.686   1.147   6.060 -0.0275 -0.1376  0.0710
16691W        W20991   0.965   1.062  33.180 -0.0436  0.0789 -0.0763
16692W        W20992  16.114   2.633  15.469  0.0737 -0.2794 -0.0964
16693W        W20993   4.752   1.476  25.344  0.1459  0.0952  0.2294
16694W        W20994   7.954   5.958   2.805  0.0839  0.1476 -0.1807
16695W        W20995  16.468   2.366  44.652 -0.0658  0.0601 -0.0033
16696W        W20996  18.269   4.187  37.637  0.2610 -0.0340 -0.0596
16697W        W20997  10.204   4.009  30.056  0.1082  0.4131  0.0085
16698W        W20998   7.393   1.352  24.436  0.0639  0.1576  0.1719
16699W        W20999   6.176   2.300   8.797 -0.1113 -0.1585  0.1590
16700W        W21000  11.444   5.403   3.933 -0.0826  0.2994 -0.1266
16701W        W21001   2.955   0.369  34.595  0.0577  0.2368 -0.0461
16702W        W21002   8.882   2.592  33.041  0.0937 -0.4094 -0.1198
16703W        W21003  20.577   1.432   7.557  0.2672  0.0979 -0.1627
16704W        W21004  19.930   0.790  43.684  0.0950 -0.2723  0.2344
16705W        W21005  17.689   1.679  10.394 -0.0009 -0.0616 -0.0062
16706W        W21006  10.753   4.419   0.287  0.2418  0.2929 -0.2395
16707W        W21007  12.445   3.591   9.987 -0.2406  0.1786 -0.0435
16708W        W21008   6.258   5.928  28.449  0.1710  0.1753  0.1026
16709W        W21009  14.813   2.580  31.142  0.0695 -0.1324  0.1095
16710W        W21010  18.012   5.611  10.646 -0.1276 -0.0652 -0.1720
16711W        W21011  17.454   4.014   2.018  0.0595  0.0558  0.0096
16712W        W21012   7.453   6.075  24.269  0.1706  0.2597  0.3993
16713W        W21013  15.874   6.042  24.431 -0.1300  0.1618  0.0161
16714W        W21014  10.264   4.743  10.171 -0.0011 -0.0856  0.1531
16715W        W21015  10.862   3.835  31.221 -0.1255 -0.1506 -0.3062
16716W        W21016  18.442   2.920  43.141 -0.1682 -0.1832 -0.0046
16717W        W21017   8.298   1.545  33.262 -0.2081 -0.1095 -0.0665
16718W        W21018  14.425   1.171   8.577 -0.1160 -0.1638 -0.2561
16719W        W21019  14.526   4.047  29.110  0.0253  0.0103 -0.1829
16720W        W21020  14.664   0.113  28.909 -0.0159  0.0318 -0.2964
16721W        W21021   7.824   2.463  24.203 -0.0079 -0.0702 -0.0551
16722W        W21022   3.409   0.952  16.340 -0.2650 -0.1483 -0.0940
16723W        W21023  18.615   1.302  34.434 -0.0645 -0.0082 -0.2351
16724W        W21024   2.571   3.605   4.846 -0.3249 -0.1764  0.0120
16725W        W21025   8.519   1.441  27.907  0.1731 -0.0544 -0.0006
16726W        W21026  13.191   5.297  44.729  0.1866 -0.0243  0.2679
16727W        W21027   0.414   0.757  37.899 -0.1546  0.0650 -0.3332
16728W        W21028  13.841   3.920  10.140  0.0788  0.1458  0.1334
16729W        W21029  20.063   3.021   1.997 -0.0209 -0.0296  0.1239
16730W        W21030  21.106   3.859  44.328  0.0213 -0.2511  0.1543
16731W        W21031  10.010   2.026  33.167 -0.1623 -0.2837  0.1003
16732W        W21032  10.750   3.080  37.821  0.0630 -0.2087  0.1119
16733W        W21033  12.873   2.409  17.304  0.1680  0.1333 -0.0072
16734W        W21034  19.527   0.098  36.598  0.3116  0.0778 -0.1527
16735W        W21035   2.763   3.198  38.494  0.1625  0.0589 -0.0059
16736W        W21036   9.297   4.857  34.584  0.1518 -0.2371  0.1881
16737W        W21037  15.414   2.682   7.832  0.0106 -0.1583  0.0533
16738W        W21038   3.079   3.159  31.095  0.1619  0.0121 -0.1516
16739W        W21039  19.601   5.124  19.109 -0.2367 -0.2724 -0.2091
16740W        W21040   4.322   3.253   2.259 -0.0764  0.1740 -0.1549
16741W        W21041   9.542   3.553  27.694  0.1831  0.2220 -0.0219
16742W        W21042   0.733   4.464   9.463 -0.2687 -0.0898 -0.1274
16743W        W21043  12.483   6.029  35.000 -0.1294 -0.0029  0.0444
16744W        W21044  14.129   1.054  10.261 -0.0603  0.3065  0.1216
16745W        W21045  16.378   5.999   5.313  0.1212  0.0387  0.2517
16746W        W21046   4.367   2.806  44.926  0.0400 -0.0919 -0.2540
16747W        W21047   5.261   1.215  34.536 -0.0696  0.1493  0.2468
16748W        W21048   6.434   3.764  32.653  0.1393 -0.2353  0.0469
16749W        W21049  17.371   3.496   2.154  0.0068  0.0514  0.0546
16750W        W21050   1.023   2.125  39.259  0.3436 -0.1094  0.1989
16751W        W21051   4.062   6.040   4.501  0.0566 -0.1141 -0.1388
16752W        W21052  15.088   5.386  43.398 -0.0262 -0.1049 -0.0804
16753W        W21053  10.650   2.680  35.930 -0.0739  0.1356  0.2145
16754W        W21054  19.915   4.187  40.994 -0.2883  0.1769  0.0262
16755W        W21055   6.257   2.093  38.036 -0.0970  0.0075  0.1834
16756W        W21056   2.234   2.190  16.307 -0.3094  0.0280 -0.1790
16757W        W21057   9.028   4.404  34.710  0.0126  0.1417 -0.1087
16758W        W21058   9.554   5.368   3.394 -0.1403 -0.2153  0.0440
16759W        W21059  13.525   2.494  12.787 -0.1265  0.0746  0.0354
16760W        W21060   7.733   1.943   3.421 -0.1485  0.2290  0.2224
16761W        W21061   0.692   0.402  37.189 -0.1618  0.3073  0.1255
16762W        W21062  16.521   0.132   6.464  0.1335 -0.0343 -0.0569
16763W        W21063   6.298   3.477   8.305 -0.2248  0.1342  0.0626
16764W        W21064   8.317   2.141  39.725  0.1689 -0.1767 -0.0776
16765W        W21065   4.812   0.496  27.609 -0.0477  0.0632  0.1129
16766W        W21066  13.830   6.066  19.410  0.2054 -0.0061  0.2241
16767W        W21067   8.976   4.788  31.255  0.0265 -0.4916  0.2411
16768W        W21068  12.541   1.105  35.848 -0.1954  0.1696  0.0601
16769W        W21069  12.888   0.528  33.804  0.1086  0.0488 -0.1603
16770W        W21070  15.952   5.173  44.584  0.0414 -0.0257 -0.0638
16771W        W21071  18.314   2.063  35.313  0.0896 -0.0997 -0.2351
16772W        W21072   0.541   0.222  10.480 -0.1191 -0.4042 -0.3134
16773W        W21073   6.230   2.163  36.174 -0.1931 -0.0527 -0.1145
16774W        W21074  17.960   6.448   7.179 -0.0213 -0.3874 -0.1218
16775W        W21075   6.305   1.096   1.260  0.2750  0.0951 -0.4062
16776W        W21076  19.416   3.716  37.028 -0.0679  0.0793 -0.1631
16777W        W21077   0.441   0.107  13.283 -0.1793  0.0813  0.0491
16778W        W21078   9.157   3.576   1.449  0.1688 -0.1001 -0.3293
16779W        W21079  19.640   1.576  13.078 -0.1036  0.2854  0.0261
16780W        W21080  12.968   2.605  12.866  0.0382  0.0902 -0.3109
16781W        W21081   8.475   3.871  29.227  0.1026  0.0765  0.2910
16782W        W21082   2.018   1.481  41.101  0.3638  0.0737 -0.0674
16783W        W21083  10.753   6.164  30.229 -0.0851  0.0835  0.0001
16784W        W21084  16.034   1.593  37.125 -0.0031 -0.1161 -0.1477
16785W        W21085  17.597   2.601  44.833 -0.3461  0.3117 -0.1977
16786W        W21086  19.552   2.962   3.051 -0.1707  0.0555 -0.1993
16787W        W21087   2.761   4.226  23.933  0.4337  0.1261 -0.3113
16788W        W21088  14.793   2.911   1.520  0.2366 -0.0543 -0.0300
16789W        W21089   4.419   3.068  44.518 -0.0961  0.0751 -0.0473
16790W        W21090   6.390   6.028  40.738 -0.1929  0.1774  0.0397
16791W        W21091   0.672   0.565  17.756 -0.1212 -0.0219 -0.1016
16792W        W21092   6.089   4.857  28.894  0.0112 -0.0083 -0.2795
16793W        W21093   9.045   3.448  12.525 -0.1388  0.1356 -0.0142
16794W        W21094   2.104   4.794  32.149 -0.0450  0.1797  0.0699
16795W        W21095  10.258   6.260   1.770  0.1828  0.0431  0.0385
16796W        W21096   3.856   2.293  38.034  0.2587  0.0879 -0.2019
16797W        W21097  16.070   3.854  21.999  0.0649  0.2657  0.0477
16798W        W21098  15.731   3.218  36.347  0.1462 -0.0998  0.0068
16799W        W21099  16.294   0.079  21.057 -0.0284  0.1649  0.0477
16800W        W21100   5.057   2.762   9.315  0.1823  0.1314  0.0828
16801W        W21101  13.801   2.720  42.162  0.0391  0.0196 -0.1359
16802W        W21102   4.623   5.698   3.832 -0.3032  0.0764  0.2263
16803W        W21103   3.948   4.777  42.504 -0.2666 -0.1590  0.0779
16804W        W21104   9.167   0.249  30.945 -0.1943 -0.1279 -0.1545
16805W        W21105   1.512   0.669  30.980 -0.0989  0.0680 -0.1044
16806W        W21106   2.010   5.263  26.419 -0.0373  0.1740 -0.2179
16807W        W21107  17.776   1.154  10.721 -0.2080 -0.0144  0.0519
16808W        W21108  19.491   4.572  40.758  0.2536 -0.1226  0.1458
16809W        W21109  15.958   5.250  35.486  0.0356  0.0894 -0.0790
16810W        W21110  10.659   6.360  14.551 -0.0673  0.0792 -0.0410
16811W        W21111  14.704   6.389  43.142 -0.0335 -0.0341 -0.0638
16812W        W21112  12.208   1.999  17.036  0.1182 -0.0593  0.2459
16813W        W21113   1.266   0.544  33.129  0.1239 -0.0827  0.1809
16814W        W21114  14.601   1.134  14.437  0.0291  0.3873  0.0039
16815W        W21115   8.367   5.033  40.520  0.0811  0.2354  0.2113
16816W        W21116   2.298   2.574  44.055  0.2962 -0.0875 -0.1218
16817W        W21117  18.374   6.545  33.865 -0.1772 -0.0602 -0.2687
16818W        W21118  14.794   4.762  42.418  0.1670 -0.0435 -0.0414
16819W        W21119   8.999   3.456  38.459  0.0011 -0.3132 -0.1787
16820W        W21120  13.408   0.423   7.490  0.1670 -0.0647 -0.2632
16821W        W21121   8.266   1.518  16.165 -0.0543 -0.1080  0.3790
16822W        W21122   0.968   4.285  10.480 -0.0643 -0.2189  0.3032
16823W        W21123   5.038   2.804  28.104  0.3731  0.0928 -0.0542
16824W        W21124   7.429   4.006  13.313 -0.1149 -0.1268 -0.0565
16825W        W21125  17.815   0.209  42.526 -0.1511 -0.1876 -0.1194
16826W        W21126  13.390   2.875  33.251  0.0997 -0.0818 -0.3448
16827W        W21127   2.634   5.492   9.261  0.1258 -0.0589 -0.0879
16828W        W21128   3.185   1.237   2.766 -0.2746 -0.2913 -0.2172
16829W        W21129   8.232   0.707   8.850  0.2586  0.0633  0.4874
16830W        W21130   8.153   0.657  28.592  0.0246  0.1565  0.0478
16831W        W21131  16.952   5.477   6.884 -0.0014 -0.0929 -0.2004
16832W        W21132   4.254   2.770   2.526 -0.0600 -0.2193  0.2224
16833W        W21133  20.119   5.407   8.701 -0.2632 -0.0399  0.0735
16834W        W21134   7.343   5.133   3.784 -0.0926  0.3086  0.0109
16835W        W21135  20.623   2.001  33.902 -0.1417  0.1572 -0.2700
16836W        W21136  15.928   0.828  21.661 -0.1186  0.0777  0.0087
16837W        W21137   8.809   1.251  34.679 -0.3796 -0.1293  0.0490
16838W        W21138  17.940   4.933   7.640 -0.1632 -0.0656 -0.2801
16839W        W21139  18.708   6.021  17.956 -0.0495 -0.0632 -0.1322
16840W        W21140  17.867   4.325  33.134  0.1826  0.0121  0.1425
16841W        W21141  19.822   4.519  29.951 -0.1917 -0.2402 -0.1171
16842W        W21142  18.008   2.697   4.880  0.2093  0.0253 -0.1855
16843W        W21143   0.263   5.567   8.168  0.1361 -0.0618 -0.3300
16844W        W21144   3.174   5.888   8.742 -0.0287  0.1723 -0.0723
16845W        W21145   2.490   5.632  23.842  0.0486 -0.0591 -0.1495
16846W        W21146   1.213   4.339   1.660 -0.3069 -0.0622  0.1463
16847W        W21147  11.029   3.393  27.930  0.1067 -0.0173 -0.1692
16848W        W21148   8.020   1.125  28.521  0.0701 -0.1207 -0.2093
16849W        W21149  12.956   6.522   1.328  0.0513 -0.3513 -0.1546
16850W        W21150  13.444   3.461  29.278  0.1625  0.1635 -0.2837
16851W        W21151  12.308   0.518  33.869 -0.3800 -0.1681  0.1373
16852W        W21152  12.185   0.264  32.938 -0.2634  0.3043  0.1363
16853W        W21153  11.115   2.244  31.656  0.0818 -0.1238  0.1748
16854W        W21154   6.294   3.814  38.630 -0.1637  0.1359  0.0384
16855W        W21155  19.821   0.120  33.858  0.1324  0.0745 -0.0716
16856W        W21156   0.840   4.578  12.992 -0.0815 -0.0301  0.0927
16857W        W21157  17.396   3.153  36.357 -0.2007 -0.1281 -0.2548
16858W        W21158  17.503   2.832  20.393  0.2187 -0.0937 -0.1153
16859W        W21159   0.659   1.644  11.908  0.1627 -0.3297  0.4258
16860W        W21160  10.916   3.974   8.313 -0.0048 -0.2298 -0.0545
16861W        W21161  17.065   1.702  12.387 -0.3224 -0.1168  0.0710
16862W        W21162  11.866   0.592  44.247  0.1215 -0.0620 -0.2226
16863W        W21163   0.047   0.947   6.341  0.0769  0.1759  0.1185
16864W        W21164  11.725   3.316  14.755 -0.1885 -0.2524  0.0845
16865W        W21165  15.723   1.179   6.829  0.1208 -0.4149  0.1834
16866W        W21166  19.854   3.048  12.725  0.1679  0.1824  0.2934
16867W        W21167  18.886   0.571   2.525  0.0286  0.1543  0.0215
16868W        W21168  13.879   4.437  40.740 -0.1193  0.3569 -0.0581
16869W        W21169  19.060   0.859  11.591 -0.2196  0.0579  0.0180
16870W        W21170   6.799   4.560  44.285  0.0076  0.1830 -0.2714
16871W        W21171  10.787   2.659  15.877  0.0866 -0.0810 -0.1703
16872W        W21172  11.785   5.479  17.325  0.1070  0.1365 -0.2477
16873W        W21173  17.394   3.202  43.244 -0.2211 -0.0295 -0.0063
16874W        W21174  11.359   5.727  38.194  0.1149  0.1057 -0.0572
16875W        W21175  12.444   4.556   9.921 -0.4646 -0.2030 -0.1031
16876W        W21176  20.980   2.440  40.144 -0.0249  0.1873  0.2763
16877W        W21177   9.581   2.279  42.625 -0.0654 -0.0923 -0.1356
16878W        W21178   3.184   5.303  25.813  0.1622  0.3332 -0.0183
16879W        W21179  20.213   4.756  43.821 -0.4026 -0.3849  0.0291
16880W        W21180  20.736   4.257  14.383 -0.2803 -0.0306  0.1670
16881W        W21181  16.588   0.781  31.039  0.0649 -0.1873  0.2460
16882W        W21182   2.285   5.771  17.698  0.1622  0.0346 -0.0209
16883W        W21183   9.881   5.215  27.031 -0.1407  0.0237 -0.0332
16884W        W21184  16.373   3.899  37.997  0.3123 -0.1866  0.2312
16885W        W21185   9.065   4.209  16.079 -0.2554 -0.1530  0.0367
16886W        W21186  20.482   6.240   2.672 -0.4997  0.0899  0.1841
16887W        W21187  18.190   3.845  13.246 -0.0101 -0.0502  0.0706
16888W        W21188  19.556   2.397   0.344  0.4132  0.1026 -0.2130
16889W        W21189  15.219   2.232  30.726 -0.0013  0.0159  0.0922
16890W        W21190   7.889   0.648   6.949 -0.4814  0.0352 -0.4318
16891W        W21191  19.855   4.844  10.953  0.2785 -0.1022  0.3779
16892W        W21192  12.995   4.592   9.275 -0.0915 -0.0701  0.0333
16893W        W21193  20.772   4.965  44.213  0.2625 -0.0430  0.2448
16894W        W21194  14.428   3.608  34.656  0.0280  0.1700 -0.0376
16895W        W21195  11.077   5.370  38.288  0.0750  0.0920  0.0677
16896W        W21196  15.335   0.189  36.319  0.2853 -0.0832 -0.0212
16897W        W21197  18.577   6.521  38.329 -0.2536 -0.0146  0.1364
16898W        W21198   8.188   0.206  41.430 -0.0412  0.2094 -0.0808
16899W        W21199  17.948   5.848  12.148  0.0451  0.2140 -0.2349
16900W        W21200  20.293   2.601  14.788 -0.2945 -0.0779  0.0753
16901W        W21201   3.961   1.836  42.303 -0.0177 -0.0552 -0.0182
16902W        W21202   4.829   4.077  28.216  0.1529  0.0194 -0.3614
16903W        W21203  16.182   1.876  30.287 -0.0770 -0.0176  0.1032
16904W        W21204   5.967   3.379  25.798  0.1473 -0.1970  0.2291
16905W        W21205   4.819   4.066  34.327  0.0448  0.0519  0.1594
16906W        W21206  17.977   4.752  20.224 -0.1980 -0.0418  0.2481
16907W        W21207  14.054   3.758  10.898  0.1644 -0.4022  0.3557
16908W        W21208  20.520   5.125   1.897 -0.1543 -0.0918  0.1472
16909W        W21209  19.742   2.739  11.079  0.1041 -0.0276  0.0458
16910W        W21210   5.889   6.147  32.725  0.0174  0.4351 -0.0853
16911W        W21211  19.553   2.085  40.176  0.0426  0.2533 -0.1745
16912W        W21212  10.164   4.885  14.166 -0.0143 -0.2001 -0.4167
16913W        W21213  20.179   4.870  40.134  0.0152  0.3683 -0.0039
16914W        W21214   5.245   2.113  42.908 -0.2072  0.5576  0.2678
16915W        W21215  13.205   5.270  34.274 -0.0870 -0.2220 -0.2141
16916W        W21216   0.519   3.355  30.511 -0.1064 -0.0897 -0.1223
16917W        W21217  16.972   2.376  36.767  0.1649 -0.0729  0.3029
16918W        W21218  15.366   6.297  29.491  0.1390 -0.0783 -0.2197
16919W        W21219  18.705   0.853  21.178  0.0577 -0.0016  0.0420
16920W        W21220  12.574   2.915   4.996 -0.1294  0.1503 -0.2907
16921W        W21221   0.299   5.872   4.133 -0.1901 -0.3448  0.1262
16922W        W21222  17.748   1.242   9.264  0.1265 -0.1454  0.1602
16923W        W21223  13.337   4.589   6.619 -0.0904  0.2474  0.1921
16924W        W21224  20.646   0.172  29.104 -0.2472 -0.1785  0.2251
16925W        W21225  14.611   2.038   7.273  0.1218  0.1130 -0.1220
16926W        W21226  11.346   2.460   0.722 -0.4863 -0.2265  0.1021
16927W        W21227  16.846   4.924  12.654  0.3640  0.3213  0.1340
16928W        W21228   9.295   0.624  30.595 -0.4025  0.0815  0.0372
16929W        W21229   6.436   4.780  12.011  0.1724 -0.0439  0.0095
16930W        W21230   6.521   1.973   0.943  0.0268 -0.2961  0.1017
16931W        W21231   5.483   6.417  45.023 -0.0302  0.2107 -0.1380
16932W        W21232   7.418   4.673  41.357  0.2809 -0.1172 -0.0031
16933W        W21233  12.295   1.806  27.241 -0.2702  0.4716  0.1498
16934W        W21234  14.030   6.100  35.807  0.0633 -0.1531 -0.0830
16935W        W21235  14.694   1.112   8.188  0.1248  0.2047  0.0821
16936W        W21236  14.635   1.714  32.472  0.1600  0.1613 -0.0672
16937W        W21237  14.151   1.552  19.027  0.1295 -0.3279 -0.0805
16938W        W21238  16.840   3.920   2.764 -0.0291 -0.1325  0.0793
16939W        W21239  15.695   4.362   4.967 -0.0801 -0.3267  0.1788
16940W        W21240  11.207   0.887   0.432 -0.0177 -0.1134 -0.3186
16941W        W21241   3.773   1.651  25.612  0.2975 -0.2107 -0.1750
16942W        W21242   8.558   6.166  33.058  0.0410 -0.2138 -0.2006
16943W        W21243   5.404   4.329   8.029 -0.2674  0.2241  0.0125
16944W        W21244   6.469   4.480  36.287  0.0233  0.1067 -0.0794
16945W        W21245   2.997   4.884  27.466  0.0869  0.1165 -0.2497
16946W        W21246  19.652   3.190   0.140 -0.0112  0.2139  0.0484
16947W        W21247  16.942   5.056   9.511  0.0901  0.1137 -0.1388
16948W        W21248   9.992   5.154   3.195  0.0855 -0.0373  0.1582
16949W        W21249  18.835   2.040  18.794  0.0994  0.1437  0.0587
16950W        W21250  18.145   3.381   3.762  0.0306  0.0786  0.1687
16951W        W21251   1.683   0.996  34.617  0.0466 -0.1667 -0.1962
16952W        W21252  15.828   0.995  11.174 -0.0252  0.0226  0.3209
16953W        W21253   4.451   5.290  41.123 -0.0494 -0.1462  0.0196
16954W        W21254  10.750   4.177  34.956  0.2701  0.3936  0.0323
16955W        W21255   1.587   4.427   3.004 -0.1888 -0.1726 -0.2388
16956W        W21256  12.019   5.340   7.994  0.0591 -0.1595  0.1001
16957W        W21257  14.160   0.330  42.219  0.1692 -0.2092 -0.0070
16958W        W21258  15.437   5.639  12.915  0.3102 -0.0917  0.1540
16959W        W21259  13.345   1.390  37.262  0.0648 -0.1919  0.3123
16960W        W21260   4.465   1.995  38.098 -0.1185 -0.0225  0.0285
16961W        W21261   3.894   2.942  11.257 -0.0366  0.2216 -0.4252
16962W        W21262   1.312   1.245  15.549 -0.0423 -0.0016 -0.0562
16963W        W21263  18.484   4.029  33.684  0.1279  0.0438 -0.0958
16964W        W21264  12.911   5.878  16.479  0.1869  0.1886  0.0283
16965W        W21265  20.109   3.523  30.195 -0.0982 -0.0681 -0.1430
16966W        W21266  17.079   0.831  25.141  0.2749 -0.0026 -0.1359
16967W        W21267  15.695   3.842  41.956 -0.0176  0.0464  0.0837
16968W        W21268   3.981   5.119  38.785 -0.2085 -0.2361  0.1592
16969W        W21269  14.361   1.560  40.934  0.1079  0.0378 -0.0586
16970W        W21270   7.132   1.185  34.413  0.1988 -0.1945 -0.1706
16971W        W21271  17.259   1.144  34.944 -0.2805  0.0360 -0.0996
16972W        W21272   4.642   1.945  27.218 -0.3648  0.1004  0.0735
16973W        W21273   0.102   6.290  35.060  0.0760 -0.1529 -0.0900
16974W        W21274  13.973   4.228  42.019 -0.0089  0.0852 -0.0586
16975W        W21275  14.524   4.978  37.803  0.1485 -0.1847  0.3634
16976W        W21276   8.130   4.434  32.815 -0.1201 -0.1022  0.0511
16977W        W21277   1.763   0.773   7.711  0.1392  0.1853  0.0280
16978W        W21278   8.957   6.086  15.143 -0.1698  0.0821 -0.0622
16979W        W21279  14.942   4.768  31.999 -0.1145 -0.2875  0.0367
16980W        W21280   0.398   3.031  43.667 -0.1400 -0.2144  0.1669
16981W        W21281   1.997   1.337  43.783  0.0774  0.1997  0.2015
16982W        W21282  18.504   5.871   5.976  0.0792  0.1368 -0.1041
16983W        W21283  15.780   0.087   7.398  0.0763  0.0515  0.0281
16984W        W21284   5.093   6.259  36.540 -0.4622 -0.0072 -0.0060
16985W        W21285   8.144   1.361  14.681 -0.0106  0.1601 -0.1426
16986W        W21286   5.707   4.826   9.954 -0.1662 -0.0722  0.0699
16987W        W21287  12.737   0.332  37.225 -0.1661 -0.0940  0.0753
16988W        W21288   9.909   0.565  38.227  0.2618  0.0604 -0.1365
16989W        W21289  10.941   0.474   9.689  0.1245  0.0109 -0.0508
16990W        W21290   5.263   0.199   7.024 -0.2526 -0.0674 -0.1777
16991W        W21291  15.963   2.031  40.582 -0.1966 -0.4088 -0.0703
16992W        W21292   0.372   4.441  17.482  0.0270 -0.1692  0.0210
16993W        W21293  19.647   0.386  19.851 -0.1677  0.3049 -0.0509
16994W        W21294  20.014   3.925   5.939  0.2828  0.0636  0.1582
16995W        W21295   1.043   6.289   4.469  0.3608 -0.1356  0.1566
16996W        W21296   5.651   5.975  24.976 -0.2514  0.1657  0.1535
16997W        W21297  12.165   4.676  33.585  0.0916  0.2020 -0.2318
16998W        W21298   4.434   5.568  27.833 -0.0301 -0.1896  0.1081
16999W        W21299  12.610   2.244   6.956  0.0710  0.2540 -0.1692
17000W        W21300  10.656   5.541  35.816  0.1066 -0.3239 -0.0211
17001W        W21301   0.108   5.745   9.497  0.0677  0.1600 -0.0569
17002W        W21302   8.290   2.779  22.240 -0.1077  0.0485 -0.4667
17003W        W21303   2.439   4.514  11.891 -0.0321  0.0114  0.0442
17004W        W21304  17.897   5.174   0.756 -0.1846  0.1903 -0.2002
17005W        W21305   7.327   5.695  28.136  0.2656 -0.1437 -0.1045
17006W        W21306   2.496   5.279  12.980  0.1883 -0.0082  0.0772
17007W        W21307  17.505   1.378   1.881  0.2917 -0.0333  0.1943
17008W        W21308  11.289   5.798   5.318  0.3213 -0.1265  0.2633
17009W        W21309   2.181   3.500  15.148 -0.1254  0.1651 -0.1035
17010W        W21310   4.067   5.339  26.499  0.0955 -0.2162 -0.1711
17011W        W21311   3.828   1.399  43.281 -0.0229  0.0408  0.0898
17012W        W21312   3.841   4.691   4.221 -0.2228 -0.4076  0.0820
17013W        W21313  17.531   5.447   5.227  0.0780  0.0614  0.0762
17014W        W21314  10.161   3.935  30.519  0.0397 -0.0511 -0.0883
17015W        W21315  12.632   1.414   0.212 -0.3101  0.0829  0.0597
17016W        W21316  16.107   1.537  36.139  0.0077  0.1917  0.1534
17017W        W21317  18.867   0.059   9.160  0.0320  0.3954  0.2987
17018W        W21318   3.652   0.084  26.840  0.2028  0.2161  0.4520
17019W        W21319  11.579   3.493  39.464 -0.0176  0.0368  0.0416
17020W        W21320   4.179   1.925   3.620  0.0676  0.2655 -0.2334
17021W        W21321  11.828   6.421  14.328 -0.1644 -0.1381 -0.0793
17022W        W21322   5.271   6.069  37.781 -0.1947 -0.0725  0.4231
17023W        W21323  18.591   4.618   3.920  0.2070 -0.1185 -0.0179
17024W        W21324   9.990   3.652  35.146 -0.1669  0.2414 -0.2644
17025W        W21325  11.938   4.538  19.197  0.1176 -0.1576 -0.1646
17026W        W21326   2.552   5.149   8.847  0.0386 -0.1609 -0.1860
17027W        W21327   9.573   1.752  32.177 -0.0158  0.1124 -0.0453
17028W        W21328   6.130   2.396  34.353  0.2827  0.0682  0.1666
17029W        W21329   6.157   2.757  24.524  0.2499 -0.3056 -0.3893
17030W        W21330  11.524   4.598  30.137 -0.0827  0.0473 -0.4970
17031W        W21331  18.113   1.081  31.786  0.1570  0.1843  0.0756
17032W        W21332  10.241   5.468  31.934  0.0599 -0.2445 -0.2128
17033W        W21333   8.633   1.510  29.470 -0.0747 -0.1037 -0.3079
17034W        W21334   2.543   3.883  28.209 -0.2473 -0.4120  0.0489
17035W        W21335   5.765   3.748  44.180 -0.0948 -0.1903 -0.1030
17036W        W21336  12.683   6.562  13.313 -0.0028  0.2980 -0.1368
17037W        W21337  15.019   4.709  22.388 -0.1700 -0.1788 -0.0903
17038W        W21338   5.025   0.743  28.907  0.0028 -0.0965  0.4013
17039W        W21339   3.255   1.964  11.106 -0.1090  0.2508  0.0670
17040W        W21340   9.711   1.111  39.339 -0.0951 -0.0161  0.0506
17041W        W21341  16.706   2.164   1.180  0.0352 -0.0294  0.0056
17042W        W21342   6.082   0.466  20.071 -0.1310  0.0926 -0.0943
17043W        W21343  17.301   2.942  41.764  0.3732  0.1311  0.2112
17044W        W21344  10.717   5.490   3.361 -0.2621 -0.0787  0.2743
17045W        W21345  11.994   6.489  38.298  0.0664 -0.0892  0.1220
17046W        W21346   8.928   4.723  38.978  0.1746  0.2606 -0.0738
17047W        W21347  18.308   1.520  31.797 -0.2609  0.1241  0.3591
17048W        W21348  20.638   5.576  16.766  0.3254  0.1055 -0.0937
17049W        W21349  19.604   3.138   1.171  0.1611  0.0554 -0.3026
17050W        W21350  13.087   2.852  16.462  0.0795 -0.0306  0.1471
17051W        W21351   5.526   2.237  12.136  0.3817 -0.3369 -0.1323
17052W        W21352  10.604   3.830  18.206 -0.0865 -0.0740  0.0136
17053W        W21353   4.897   2.857  35.829 -0.0444  0.3053 -0.1101
17054W        W21354  20.725   4.778  31.389 -0.2485 -0.0204 -0.1722
17055W        W21355   2.080   6.192  26.523 -0.1840  0.0832  0.0366
17056W        W21356   2.963   4.558   0.531 -0.0886 -0.1967 -0.1002
17057W        W21357  13.575   1.003  39.634 -0.1919 -0.0418  0.1296
17058W        W21358  15.413   3.218   3.603  0.3114  0.1501  0.2424
17059W        W21359  19.933   0.928  38.019  0.0998 -0.1600  0.1332
17060W        W21360   7.942   0.989   9.130 -0.0240  0.0612 -0.2697
17061W        W21361  18.715   3.721   4.071 -0.1400  0.1966  0.2328
17062W        W21362   3.841   2.838  32.339 -0.0975 -0.3512 -0.0732
17063W        W21363   1.753   4.962  44.122 -0.0045 -0.3320 -0.3384
17064W        W21364  11.428   2.559  42.706 -0.2519 -0.0086 -0.0785
17065W        W21365  20.255   4.693  39.075  0.2520 -0.3108 -0.1061
17066W        W21366  14.993   5.695   6.324 -0.0691 -0.2672  0.0666
17067W        W21367  20.309   3.632  17.329 -0.1747  0.1079 -0.0511
17068W        W21368  15.348   3.641   4.472 -0.0104 -0.1443 -0.3331
17069W        W21369  18.286   5.696  38.919 -0.0870 -0.1649 -0.0089
17070W        W21370   1.630   1.246   5.861  0.0472 -0.1696  0.1049
17071W        W21371  16.859   2.124   2.763  0.3080 -0.0756  0.1355
17072W        W21372   7.152   0.823  40.578  0.1855  0.1369  0.0534
17073W        W21373   2.535   0.614   9.987 -0.0309 -0.1338 -0.0021
17074W        W21374  10.322   6.275   9.813 -0.0330  0.0450  0.0836
17075W        W21375  16.526   1.425  18.339  0.1945  0.1278  0.3070
17076W        W21376  19.533   3.989  31.192  0.1425  0.1492  0.0675
17077W        W21377  21.106   3.881  31.607  0.0037  0.2362 -0.0557
17078W        W21378   3.233   4.794  43.282  0.5320  0.0794 -0.1318
17079W        W21379  13.410   5.232  17.607 -0.0734 -0.0213  0.2477
17080W        W21380   6.305   4.891  33.755 -0.0496 -0.0041 -0.1816
17081W        W21381   7.424   4.099   5.626 -0.0630  0.0003 -0.3816
17082W        W21382  12.065   4.945  42.546 -0.0915  0.1496 -0.1211
17083W        W21383  20.000   2.237  31.161 -0.0526 -0.1146 -0.2808
17084W        W21384   9.986   3.491  33.982  0.1624 -0.0603 -0.1033
17085W        W21385  20.283   1.093  14.731  0.0719  0.1891  0.0501
17086W        W21386  15.842   1.948  23.517 -0.0107  0.0626  0.1375
17087W        W21387  17.626   6.436   8.014 -0.0159  0.0073 -0.2046
17088W        W21388   4.196   5.536   6.336  0.2371  0.0803 -0.2215
17089W        W21389  16.647   3.188  14.790 -0.1238  0.0285 -0.0555
17090W        W21390   3.609   4.563  12.138  0.0696  0.0898 -0.1785
17091W        W21391   9.035   0.545  36.021 -0.3182 -0.1305 -0.2766
17092W        W21392   8.858   0.057  43.690  0.0632 -0.0890  0.0785
17093W        W21393  10.067   4.756   2.866  0.1828 -0.1495  0.0301
17094W        W21394   6.022   6.426  29.603 -0.0361  0.1141 -0.1360
17095W        W21395   0.792   0.323  12.701 -0.3025 -0.0150  0.1672
17096W        W21396   0.489   1.860  19.357 -0.1519  0.4394 -0.0692
17097W        W21397  10.724   3.852  42.539 -0.2687 -0.2080  0.0462
17098W        W21398  15.913   0.770  17.495 -0.0069 -0.1092 -0.2404
17099W        W21399   3.951   3.883  27.087 -0.0373  0.1822 -0.5258
17100W        W21400  15.907   5.599  17.893 -0.1912  0.2452 -0.2295
17101W        W21401   3.256   2.604  43.016 -0.3551  0.0718 -0.1100
17102W        W21402   1.044   0.635  42.647  0.1692 -0.2145 -0.1406
17103W        W21403   0.475   2.619  33.721 -0.2464  0.0144  0.0223
17104W        W21404   5.546   2.222  44.635 -0.2985 -0.1334  0.1315
17105W        W21405  13.801   4.479  13.542 -0.1868 -0.4083 -0.1467
17106W        W21406  16.620   1.136   7.918 -0.2154 -0.0349  0.3356
17107W        W21407   9.745   6.299  37.368 -0.1014  0.2056  0.3726
17108W        W21408  18.902   0.519   4.760 -0.2982  0.0533  0.3524
17109W        W21409   9.226   4.880  13.643  0.2103  0.1304  0.3051
17110W        W21410   1.229   1.244  17.604  0.0091 -0.3006  0.2701
17111W        W21411  13.735   5.054  18.053  0.2701 -0.0940  0.0138
17112W        W21412  11.956   6.535  17.999  0.1550 -0.1866  0.0072
17113W        W21413  13.824   2.384  40.458  0.0096  0.1350  0.2233
17114W        W21414  12.010   0.880  33.559  0.2647  0.4461  0.0963
17115W        W21415  16.251   1.084  24.144  0.3252  0.0144  0.2870
17116W        W21416  18.693   6.412  39.445  0.0041 -0.2621  0.2364
17117W        W21417   2.601   4.404  29.929  0.3291 -0.2817  0.3678
17118W        W21418  20.396   4.497  36.284  0.2629  0.2257  0.2415
17119W        W21419   3.663   1.251  36.205 -0.0839 -0.4365 -0.0538
17120W        W21420  15.798   2.205  37.031 -0.1391  0.0230  0.1568
17121W        W21421  19.201   4.026  30.442 -0.2250  0.1161 -0.4062
17122W        W21422   2.637   5.846   9.943 -0.1343  0.1782 -0.1435
17123W        W21423   4.572   5.559  27.192 -0.1324  0.2411  0.1429
17124W        W21424   5.426   3.021  36.465 -0.0675 -0.1216  0.2267
17125W        W21425   6.226   3.332  40.160  0.4916 -0.0193 -0.1355
17126W        W21426   9.853   4.688   1.083  0.3760 -0.0452  0.2543
17127W        W21427   8.302   1.838  12.847  0.0138  0.2599  0.4898
17128W        W21428   5.018   1.377  38.539 -0.0996 -0.1383  0.1181
17129W        W21429  17.507   4.190   0.195  0.0692  0.2103 -0.2125
17130W        W21430  11.586   4.039   2.977 -0.5698 -0.0976 -0.2355
17131W        W21431  17.468   1.179  22.483 -0.0326  0.0785 -0.2211
17132W        W21432   5.382   0.695   7.776 -0.1065 -0.1147  0.1035
17133W        W21433  11.189   2.332  43.993  0.0117  0.1108 -0.0818
17134W        W21434  13.980   3.724  21.094  0.4287  0.0850  0.0138
17135W        W21435   7.058   3.909  15.967  0.2478 -0.1677 -0.1765
17136W        W21436  11.198   2.658   2.199 -0.0319 -0.1213  0.0235
17137W        W21437  18.350   5.189   6.619  0.0814 -0.1018 -0.1414
17138W        W21438  17.599   4.505  13.779  0.1730 -0.0147  0.1112
17139W        W21439   8.467   5.961  24.709 -0.0220 -0.2368 -0.1983
17140W        W21440  14.613   4.816  18.591  0.5808  0.2861  0.1741
17141W        W21441  18.027   6.264  16.078 -0.1236 -0.0738  0.3446
17142W        W21442  11.432   0.543  16.365  0.1356 -0.3108 -0.3213
17143W        W21443   9.507   3.739  40.535  0.0629 -0.0044 -0.1824
17144W        W21444   1.665   5.791  43.110 -0.1134 -0.0209  0.0703
17145W        W21445  10.833   3.910  11.995 -0.2691 -0.1260  0.0651
17146W        W21446   4.545   2.153  13.444 -0.2449  0.0423  0.2425
17147W        W21447  17.332   6.027  37.422  0.1787  0.2500 -0.3669
17148W        W21448  17.312   0.076  16.687 -0.1379 -0.2770  0.2169
17149W        W21449  16.207   2.726  42.272 -0.1430  0.2824  0.0071
17150W        W21450  15.740   4.104  23.794 -0.1113 -0.1241  0.0577
17151W        W21451  20.409   2.091  34.687 -0.1806  0.0651  0.1721
17152W        W21452   2.131   5.270   3.544  0.0707  0.0715  0.1325
17153W        W21453  14.105   1.076  13.301 -0.0478  0.1810  0.3054
17154W        W21454   9.503   3.620  35.399  0.1013 -0.0199 -0.1238
17155W        W21455   4.820   4.039   3.635 -0.1082 -0.2760  0.3721
17156W        W21456  15.760   2.321  35.406  0.0256  0.0285  0.1198
17157W        W21457  12.148   3.993  18.443  0.0828  0.1694 -0.1469
17158W        W21458  13.446   0.514  33.115 -0.0230 -0.0365 -0.2448
17159W        W21459  10.266   4.153  42.574  0.2871 -0.0346 -0.1034
17160W        W21460   5.131   6.431  33.388  0.0438 -0.0201  0.3568
17161W        W21461   1.445   0.053  37.205  0.2758 -0.4232  0.5127
17162W        W21462  17.580   5.662  36.697 -0.0364  0.2131  0.0780
17163W        W21463  18.141   6.458   4.177  0.0571  0.0870 -0.3274
17164W        W21464   2.655   5.531  12.276 -0.0160  0.0010  0.0859
17165W        W21465  19.612   3.297  29.995 -0.2391  0.4304 -0.1423
17166W        W21466  18.500   2.577   1.872 -0.1080  0.1652  0.0737
17167W        W21467  13.352   3.760  19.173 -0.1514  0.4099 -0.2085
17168W        W21468  11.613   3.802  14.523  0.0552  0.2576  0.1345
17169W        W21469  12.985   0.042   5.902 -0.1401  0.0109 -0.0948
17170W        W21470  14.137   2.566  36.218 -0.2403 -0.1240  0.0041
17171W        W21471  12.509   6.235   1.471  0.1787 -0.1052  0.2207
17172W        W21472  15.339   1.699  17.562 -0.0141  0.2034 -0.1889
17173W        W21473   8.597   4.217  16.970  0.2241  0.0559  0.4712
17174W        W21474  11.259   2.032  32.951 -0.2349 -0.0816  0.0378
17175W        W21475  13.520   1.459  42.716  0.1648 -0.2240  0.0495
17176W        W21476  10.177   6.156  32.516 -0.1274 -0.1587  0.2771
17177W        W21477  13.803   4.546  32.365  0.1397  0.0660  0.1027
17178W        W21478  19.169   3.570  12.358 -0.1306 -0.0792 -0.2658
17179W        W21479   5.905   5.813   4.266  0.1372 -0.0168 -0.2882
17180W        W21480   7.178   3.786  41.193  0.1826  0.1101  0.4026
17181W        W21481   1.018   1.136  37.902  0.0890  0.1940 -0.1810
17182W        W21482  15.991   5.382  41.872  0.0771 -0.0611  0.1561
17183W        W21483  10.699   1.969   8.177 -0.0067  0.0438 -0.1906
17184W        W21484  14.435   1.154  30.258  0.1221  0.3360 -0.0850
17185W        W21485   9.799   2.346  14.108  0.0419 -0.0399  0.3284
17186W        W21486   8.076   2.545  30.254 -0.2070  0.1377  0.3266
17187W        W21487  11.827   5.952   4.475 -0.0032  0.1319 -0.1350
17188W        W21488   7.554   3.703  28.096  0.0826  0.4048  0.0360
17189W        W21489   4.202   4.999  13.157  0.2205 -0.0738 -0.0680
17190W        W21490  15.693   2.450   8.874  0.2465  0.0765  0.0559
17191W        W21491   1.776   2.323  13.820 -0.0758  0.0763  0.0130
17192W        W21492   7.185   0.303  29.030 -0.0823  0.0509 -0.2489
17193W        W21493   6.664   5.189   2.940  0.0344  0.1726 -0.3357
17194W        W21494  19.525   3.763   6.173  0.2868 -0.0265 -0.0566
17195W        W21495  10.661   1.427  10.225  0.3146  0.0934  0.2068
17196W        W21496  18.791   3.720  33.904 -0.0897  0.0621 -0.0921
17197W        W21497   9.915   1.066  26.205  0.2919 -0.3468  0.0797
17198W        W21498  10.914   3.420   2.416 -0.3481  0.1368  0.1986
17199W        W21499  16.415   0.381  12.271 -0.0622  0.1649 -0.0309
17200W        W21500   9.680   0.248  11.779 -0.2562 -0.1601 -0.1204
17201W        W21501  17.134   1.240  15.185  0.1649 -0.0410  0.0406
17202W        W21502  11.694   3.316  35.814  0.4472  0.3142  0.0030
17203W        W21503   4.031   1.747  43.729 -0.1657  0.0021  0.1381
17204W        W21504  16.501   1.987  25.319 -0.2500 -0.1009  0.1424
17205W        W21505  13.842   4.102  10.607 -0.1222 -0.0079  0.0891
17206W        W21506   0.268   5.666  14.084  0.2860  0.1448  0.1728
17207W        W21507  14.985   6.366  22.848 -0.0381 -0.2409  0.2342
17208W        W21508  12.929   2.471  16.118 -0.2765  0.1401 -0.0521
17209W        W21509   5.389   4.405  29.270 -0.0159  0.0208 -0.0072
17210W        W21510   4.920   5.447  39.550  0.0139  0.0397 -0.4072
17211W        W21511   8.584   2.303   1.978  0.0744  0.1661 -0.1780
17212W        W21512   6.930   3.125  28.973  0.1384  0.1559  0.1596
17213W        W21513   9.585   4.839  35.641 -0.0803 -0.2705  0.0763
17214W        W21514   8.117   5.814  44.286  0.2639  0.0973  0.1644
17215W        W21515   0.227   0.112  43.272 -0.0069  0.3207 -0.0236
17216W        W21516  17.460   3.027  21.169 -0.0750 -0.0188  0.4517
17217W        W21517  12.082   2.990  17.498  0.1715  0.0539  0.0251
17218W        W21518  20.099   3.340  40.633 -0.0102 -0.0845  0.1276
17219W        W21519   9.717   0.655  25.941 -0.2046 -0.1070  0.0284
17220W        W21520  14.279   5.050  33.227 -0.1831 -0.0905 -0.2546
17221W        W21521  14.484   5.914  30.068  0.2582 -0.0598  0.0434
17222W        W21522  11.102   6.327  29.494 -0.1692  0.0506  0.1693
17223W        W21523   8.854   2.338  39.953  0.1539 -0.1493 -0.3344
17224W        W21524  19.545   3.572  11.535  0.0777 -0.0522 -0.1990
17225W        W21525   9.919   4.469   1.555 -0.1721  0.1722 -0.0337
17226W        W21526  19.447   0.309  39.678 -0.1927  0.4502 -0.2599
17227W        W21527  13.100   2.226  37.890  0.4147  0.2273 -0.4131
17228W        W21528   0.831   4.373  17.668 -0.1745 -0.1249 -0.0353
17229W        W21529   3.012   0.257   3.589  0.2113 -0.2923 -0.1963
17230W        W21530   8.264   5.962   3.193  0.0968  0.1206 -0.0560
17231W        W21531  10.347   4.025  43.176 -0.3564 -0.0938 -0.0928
17232W        W21532  17.561   2.222  23.516  0.0020  0.1877  0.0656
17233W        W21533   2.040   2.165  11.189  0.2988  0.1278  0.2794
17234W        W21534  12.142   2.776  15.582 -0.1516  0.1592  0.1110
17235W        W21535  12.473   2.193  30.777 -0.1565 -0.0508 -0.0195
17236W        W21536   0.710   5.537  44.925 -0.0593 -0.1506 -0.2631
17237W        W21537  17.465   4.600   4.627  0.0882  0.1233  0.1577
17238W        W21538  10.709   0.562  15.605  0.1652  0.1228  0.1397
17239W        W21539  19.425   2.917  21.098 -0.1970  0.2415 -0.1098
17240W        W21540   7.114   4.979  25.647  0.0212 -0.1160 -0.1228
17241W        W21541   6.295   5.956  43.944  0.1192 -0.3096  0.1819
17242W        W21542   1.118   1.389  32.003  0.2120  0.1709  0.0206
17243W        W21543  17.474   1.603  35.058  0.1075 -0.0840 -0.0940
17244W        W21544   9.197   3.766  10.660 -0.1110 -0.0159 -0.1833
17245W        W21545   4.629   5.336  26.623  0.0434 -0.0135 -0.0764
17246W        W21546   6.735   3.365  21.387 -0.0653  0.2452 -0.0959
17247W        W21547   0.063   6.137   4.528  0.2619 -0.0622 -0.3408
17248W        W21548   7.566   1.073  36.221  0.1058  0.0867 -0.0071
17249W        W21549  15.210   0.177  15.875 -0.1905  0.1326 -0.2902
17250W        W21550  20.874   2.737  34.372  0.3233 -0.1937  0.0850
17251W        W21551   7.042   5.896  10.091 -0.2335 -0.1614 -0.4311
17252W        W21552   4.833   4.537  28.085  0.1667  0.3724 -0.1866
17253W        W21553   4.670   1.761   1.173 -0.2386 -0.0164  0.2320
17254W        W21554  13.664   5.337  36.213  0.0671 -0.0795  0.1318
17255W        W21555   6.669   0.244  43.665 -0.1197  0.0681 -0.2842
17256W        W21556   1.364   2.768  25.543  0.0656  0.0415 -0.0623
17257W        W21557   6.437   0.878  41.043 -0.1396  0.3489  0.0915
17258W        W21558  19.306   5.120  31.945  0.0659 -0.3203  0.2160
17259W        W21559   7.815   3.758  32.190  0.0359 -0.2221 -0.2719
17260W        W21560   0.683   2.578  35.429  0.3591 -0.1791 -0.1196
17261W        W21561  19.241   1.356  14.029 -0.0848  0.0123  0.0239
17262W        W21562   8.816   3.353  43.233  0.3119  0.2082 -0.1755
17263W        W21563   5.676   6.343  21.659 -0.1714  0.0988  0.2489
17264W        W21564   8.085   3.603  41.588  0.1293  0.0142  0.2997
17265W        W21565   9.714   2.426  10.451  0.5359  0.1520 -0.0654
17266W        W21566  18.915   3.897  44.295 -0.1315  0.0974  0.0254
17267W        W21567  18.331   1.807  18.041  0.1032  0.1111 -0.3238
17268W        W21568  17.002   0.002  10.224  0.0342  0.0237 -0.0392
17269W        W21569  11.538   1.364   2.007 -0.1605  0.2101 -0.0998
17270W        W21570  13.787   2.112  16.635 -0.1353 -0.0562 -0.0652
17271W        W21571   3.563   1.239  31.176 -0.3234 -0.1243  0.1178
17272W        W21572  12.304   4.288  15.263  0.1301  0.0694  0.1657
17273W        W21573  14.673   3.292   8.218  0.0086 -0.1783 -0.0912
17274W        W21574  15.805   4.080  35.391 -0.1030  0.1496  0.0892
17275W        W21575   2.428   0.403  24.708 -0.0622  0.1538  0.1781
17276W        W21576   6.913   4.698  38.889  0.1727  0.1425  0.0313
17277W        W21577  13.729   5.499  21.765 -0.3559  0.0735 -0.0919
17278W        W21578   8.188   0.998  32.516  0.2495  0.1122  0.0113
17279W        W21579  13.961   3.983  40.628  0.1354  0.1146  0.1400
17280W        W21580   5.758   5.082   6.300 -0.1651 -0.0622  0.0229
17281W        W21581  17.181   4.355  40.544 -0.0798 -0.0161 -0.1877
17282W        W21582  19.986   3.977   3.075  0.2552  0.0411 -0.0774
17283W        W21583   0.676   2.266  17.012 -0.0698 -0.0806  0.1334
17284W        W21584  20.065   2.566  29.703  0.0807 -0.0570 -0.2487
17285W        W21585  17.362   0.594   3.164  0.0873  0.3560  0.1915
17286W        W21586  16.714   4.294   7.412  0.0167 -0.0586 -0.0076
17287W        W21587  11.108   6.049  13.877 -0.0926 -0.1009 -0.2118
17288W        W21588   4.730   5.903  25.149 -0.1195  0.1406  0.1427
17289W        W21589   3.706   2.554  40.913 -0.1061 -0.3076  0.1131
17290W        W21590  17.105   2.605  40.534  0.2932 -0.0267  0.1132
17291W        W21591  20.420   5.205  17.862  0.0806 -0.0043 -0.1343
17292W        W21592   3.501   5.499  10.919 -0.1572 -0.1484  0.0353
17293W        W21593   3.555   4.763  32.689  0.1239 -0.1882 -0.0270
17294W        W21594   6.731   5.132  15.864 -0.1268 -0.0662 -0.3595
17295W        W21595  17.494   2.855   4.072 -0.0822 -0.0285  0.0419
17296W        W21596  16.037   6.250   9.047 -0.1105 -0.0960 -0.0768
17297W        W21597  11.932   6.122  29.073  0.0319 -0.5202 -0.0621
17298W        W21598  13.432   1.572   8.114  0.2080  0.0019 -0.1407
17299W        W21599   3.489   2.613  10.753 -0.3134 -0.1242 -0.2520
17300W        W21600  15.500   5.119   0.979 -0.0387 -0.0881  0.1025
17301W        W21601   8.562   3.654  37.435  0.0964  0.1891 -0.2657
17302W        W21602  13.193   3.876   6.936 -0.4166  0.0147 -0.3587
17303W        W21603  16.583   5.792   3.096  0.2451  0.0753  0.0467
17304W        W21604  20.031   3.456  45.114 -0.1733 -0.1764  0.0825
17305W        W21605  10.333   3.442  33.542 -0.1399 -0.0010 -0.0677
17306W        W21606   4.777   4.061  40.371  0.0942  0.1874  0.2577
17307W        W21607  13.137   3.709  40.155 -0.3018 -0.2697  0.2451
17308W        W21608   1.062   4.580  11.381 -0.0265  0.0625  0.1028
17309W        W21609   8.660   6.026   6.136  0.1870  0.1361 -0.0614
17310W        W21610  16.750   1.353  19.717 -0.1631 -0.0849 -0.2609
17311W        W21611  11.446   2.475  37.451  0.2546 -0.0343 -0.2180
17312W        W21612  15.096   3.467  34.551  0.1349  0.1663 -0.1077
17313W        W21613   6.476   3.228  14.579  0.2894  0.0231 -0.1261
17314W        W21614   2.939   4.835   6.215 -0.0621 -0.3147 -0.2611
17315W        W21615   8.693   3.372  38.846  0.0711 -0.1309 -0.0063
17316W        W21616   6.933   6.504   7.448 -0.0703 -0.0315  0.1800
17317W        W21617   2.314   5.441  29.735  0.1005  0.0942  0.0518
17318W        W21618  11.608   1.405  13.553 -0.2972 -0.1436  0.1887
17319W        W21619   6.954   1.094   2.432 -0.1965  0.1558 -0.0812
17320W        W21620  20.358   0.180   1.787 -0.2951 -0.0405  0.0877
17321W        W21621  11.686   2.281  40.135  0.2061  0.0542  0.0022
17322W        W21622   9.766   4.896  11.158  0.1332  0.2106  0.0410
17323W        W21623   4.408   0.827  34.795  0.0108  0.0116  0.1089
17324W        W21624   6.707   0.589   7.296  0.1303 -0.0164  0.0799
17325W        W21625   9.406   3.721  31.500  0.0410 -0.1512 -0.1917
17326W        W21626   4.787   0.496   1.081 -0.1973 -0.0600  0.0569
17327W        W21627  15.496   3.847   3.534  0.0361  0.1627  0.2585
17328W        W21628   3.143   6.150  43.874 -0.1018  0.2032 -0.4247
17329W        W21629  18.193   4.300  41.292 -0.1081  0.1352  0.0739
17330W        W21630   9.379   2.246  13.285  0.1592 -0.2993  0.2305
17331W        W21631   7.176   4.585  30.043  0.1116 -0.1204  0.0226
17332W        W21632  11.894   1.910  33.021 -0.0902 -0.0805 -0.1024
17333W        W21633  20.709   4.131   4.324  0.0611  0.3555 -0.1311
17334W        W21634  18.043   4.469   6.293  0.2556 -0.0833 -0.1036
17335W        W21635  19.302   5.101  29.390 -0.1504  0.2312  0.0295
17336W        W21636   1.840   2.662  28.983 -0.0243 -0.0305 -0.0096
17337W        W21637  12.372   0.341  41.912  0.1881  0.1614 -0.2469
17338W        W21638  17.367   2.619  34.024  0.1081 -0.2332  0.2875
17339W        W21639  10.158   3.190  41.513 -0.2744  0.2505 -0.1348
17340W        W21640  19.724   0.214  39.037 -0.0349  0.1916 -0.2361
17341W        W21641   7.651   2.580  40.452  0.2432  0.0135  0.1323
17342W        W21642  11.984   6.187  39.455  0.2363 -0.0996  0.1725
17343W        W21643   9.750   3.643  26.271  0.1662  0.0130  0.2986
17344W        W21644   1.185   3.831  29.267  0.0866  0.3957  0.0379
17345W        W21645   1.019   2.699   8.840  0.1008  0.0439  0.0478
17346W        W21646   8.778   3.474  30.906 -0.2344 -0.0300 -0.1261
17347W        W21647   1.221   4.408  32.913  0.4270 -0.0038 -0.1913
17348W        W21648  19.921   1.810  38.232  0.0242  0.0133 -0.1098
17349W        W21649  18.413   0.671   4.733 -0.0245  0.1392 -0.1177
17350W        W21650   8.716   5.113  28.186 -0.0638  0.1180 -0.2684
17351W        W21651  17.504   3.758  29.984 -0.1087 -0.1988  0.2575
17352W        W21652   7.140   4.924  44.926  0.1575 -0.0323  0.1915
17353W        W21653  15.858   5.799  30.086  0.0010  0.1498 -0.2520
17354W        W21654  17.605   6.307  44.482  0.2651 -0.1909  0.1495
17355W        W21655   4.340   4.011  31.878 -0.0869 -0.0581  0.3413
17356W        W21656   0.582   1.159  42.656  0.0648 -0.1869  0.2157
17357W        W21657  13.064   5.792  14.426  0.1894  0.0525 -0.0751
17358W        W21658   3.838   3.912  36.668  0.2748 -0.0375  0.1679
17359W        W21659  19.879   0.743  42.215 -0.0087 -0.2333 -0.1596
17360W        W21660   8.840   1.578   8.012  0.1498  0.2267  0.0531
17361W        W21661   7.647   3.241  34.706  0.0748  0.1044 -0.2320
17362W        W21662   6.330   3.449  40.672  0.0047 -0.2289  0.0408
17363W        W21663  15.779   3.195  38.062  0.0695 -0.0149 -0.2961
17364W        W21664  13.805   2.965  17.967  0.0080 -0.0807  0.1160
17365W        W21665   4.059   3.330  43.086  0.2755  0.1272 -0.0047
17366W        W21666   8.468   0.707   6.908 -0.1244 -0.3013  0.0210
17367W        W21667  18.434   5.958   4.402 -0.1578 -0.0744 -0.0442
17368W        W21668  14.322   1.307   5.026 -0.1546 -0.0369 -0.1251
17369W        W21669  10.707   1.383   6.469 -0.0869 -0.1523  0.0624
17370W        W21670  16.062   2.052  33.377  0.1612 -0.2795  0.1252
17371W        W21671  16.793   4.807  10.833  0.1328 -0.0452 -0.0512
17372W        W21672  20.279   4.309  44.872  0.3855  0.3276 -0.1021
17373W        W21673  18.724   4.381  13.942  0.0212  0.0618 -0.1659
17374W        W21674  10.007   2.112   1.714 -0.0543  0.1665  0.0290
17375W        W21675   5.703   1.482  42.490  0.1040  0.1580  0.2638
17376W        W21676   3.287   1.147   1.300  0.1075 -0.0402 -0.0109
17377W        W21677  15.962   1.082  34.102 -0.1266  0.2125 -0.0783
17378W        W21678  19.238   4.691  20.230 -0.5255  0.1683 -0.1944
17379W        W21679  20.680   3.252   0.685 -0.1057  0.2323 -0.1881
17380W        W21680   8.652   3.311  24.958  0.0606  0.0465 -0.1284
17381W        W21681  14.537   0.536  28.237 -0.1202 -0.0685 -0.3838
17382W        W21682   2.648   4.787   9.162 -0.1558  0.0346  0.0621
17383W        W21683   8.109   5.362  39.657 -0.0150  0.0109  0.2609
17384W        W21684  13.058   0.573   7.856  0.0313 -0.3767  0.0718
17385W        W21685   1.131   6.508  35.961  0.0442  0.1632  0.0991
17386W        W21686  10.612   3.962  41.430  0.3937  0.1655 -0.1599
17387W        W21687  12.336   0.721   9.017 -0.3883  0.0582  0.0389
17388W        W21688  20.401   1.467  15.820  0.0345  0.3528 -0.0955
17389W        W21689   5.532   5.986  26.939 -0.0447  0.0350 -0.2313
17390W        W21690   1.025   3.538   7.359 -0.0224  0.3101 -0.0778
17391W        W21691   6.550   1.132   0.780  0.0660 -0.3212 -0.1712
17392W        W21692   6.964   4.871  41.588 -0.2369 -0.1865 -0.0646
17393W        W21693  13.305   6.211  30.382  0.0361  0.1569  0.1998
17394W        W21694  17.996   2.030  10.655 -0.3241 -0.3342  0.1598
17395W        W21695  21.144   3.778  36.364  0.0112  0.0431  0.1021
17396W        W21696   7.719   1.604  39.579  0.0447  0.0611 -0.0408
17397W        W21697   3.605   1.288  33.441  0.0501 -0.2136 -0.1960
17398W        W21698   8.253   5.031  29.569 -0.0263 -0.2134  0.2637
17399W        W21699  18.558   3.229  12.297  0.0575  0.1311 -0.0400
17400W        W21700  20.730   6.391   7.166  0.0061  0.0124  0.2705
17401W        W21701   6.072   3.449  27.641 -0.0948  0.1558  0.0749
17402W        W21702  20.720   3.800   0.435 -0.2626  0.0808  0.2617
17403W        W21703   9.335   4.604   1.149 -0.0433 -0.1440 -0.0127
17404W        W21704  10.419   0.328  12.450 -0.1433 -0.1704  0.4427
17405W        W21705   2.619   3.310   2.227  0.0993 -0.2708  0.2496
17406W        W21706  13.206   6.106   2.212  0.1975 -0.1595 -0.2254
17407W        W21707  15.641   4.010  31.572 -0.3144 -0.1280  0.1974
17408W        W21708   4.202   0.947  22.709  0.1892 -0.0352  0.0704
17409W        W21709   5.380   3.198  33.238  0.0246 -0.1660  0.1245
17410W        W21710  20.187   0.310   0.438 -0.1087 -0.0838  0.1033
17411W        W21711  15.407   6.068   7.553 -0.1536 -0.1414 -0.0911
17412W        W21712   6.718   4.488  10.144 -0.1608 -0.2137 -0.2582
17413W        W21713   2.419   2.292   6.924 -0.0143  0.2849 -0.1689
17414W        W21714   1.260   5.443  16.582  0.2225  0.1061 -0.2202
17415W        W21715  10.005   2.504  28.842  0.1470  0.1908  0.0392
17416W        W21716  20.875   1.948   9.711 -0.0799 -0.2672  0.1978
17417W        W21717  18.753   1.042  19.174 -0.1218  0.1988 -0.0137
17418W        W21718   0.593   0.707  44.597 -0.1701 -0.1873 -0.0133
17419W        W21719   6.946   4.350  34.910 -0.0872  0.1780  0.0450
17420W        W21720  10.659   4.059   0.766  0.0436 -0.1429  0.3010
17421W        W21721  21.110   1.474  26.646 -0.1192  0.2855 -0.2524
17422W        W21722   3.133   2.681   6.663  0.1161 -0.0832 -0.1480
17423W        W21723  16.071   3.481   4.904 -0.0256  0.1351 -0.0687
17424W        W21724   1.849   5.707  27.291 -0.1033  0.0444  0.0090
17425W        W21725  18.623   4.035  32.689  0.0067 -0.1162  0.3936
17426W        W21726  19.638   1.861  32.290  0.3240  0.1551  0.1372
17427W        W21727  13.855   0.352  32.925 -0.0897 -0.1868  0.0610
17428W        W21728  14.949   2.153  41.659 -0.3744 -0.1382 -0.2858
17429W        W21729   3.711   4.651  25.982  0.0168  0.1699 -0.3519
17430W        W21730  12.385   1.650  31.657  0.2226  0.2675 -0.1261
17431W        W21731  12.134   4.472  43.390  0.1112 -0.1682 -0.4209
17432W        W21732   8.812   1.283  11.294  0.0288 -0.0789  0.0159
17433W        W21733  15.536   2.197  13.292 -0.1093 -0.2127 -0.0474
17434W        W21734   3.371   4.186  25.224  0.1105  0.0060 -0.2262
17435W        W21735   5.376   4.028  37.165 -0.0105 -0.4284 -0.2323
17436W        W21736  14.427   5.039   8.142 -0.1631 -0.0007 -0.0944
17437W        W21737  18.750   5.067   1.037 -0.0146 -0.1433 -0.1530
17438W        W21738   7.921   1.468   8.874  0.3464 -0.2984  0.1401
17439W        W21739  19.389   4.080  37.369 -0.2318  0.4587 -0.1995
17440W        W21740  19.932   4.030  33.431  0.1355  0.2133 -0.0867
17441W        W21741   1.723   6.322  43.997 -0.0743 -0.0630  0.1458
17442W        W21742   6.130   3.084  34.276 -0.2434  0.0479 -0.1960
17443W        W21743  17.609   0.486  38.792  0.1453 -0.4387  0.0368
17444W        W21744  15.342   3.003  10.858  0.2448 -0.0746 -0.1120
17445W        W21745   9.642   1.907  36.974 -0.1269  0.0618 -0.1887
17446W        W21746   7.249   0.515  21.999  0.0319  0.2033 -0.0636
17447W        W21747   8.702   5.431  13.157  0.0653  0.0216 -0.0003
17448W        W21748   6.873   4.611  28.930 -0.0414 -0.0364 -0.0590
17449W        W21749  14.725   1.316  44.073 -0.0489  0.3653  0.2860
17450W        W21750  10.913   0.918  30.200 -0.0159 -0.0652 -0.0659
17451W        W21751   6.920   0.506  24.463  0.2264  0.1544  0.0357
17452W        W21752  16.288   4.992   7.213 -0.0766  0.1133  0.1865
17453W        W21753   5.828   4.012  34.679 -0.0815  0.0279 -0.1672
17454W        W21754  16.272   5.516  12.924  0.1032  0.1242  0.0471
17455W        W21755  10.754   1.971  14.673  0.0914  0.1279 -0.1381
17456W        W21756  20.935   6.143   1.908  0.0636  0.0384 -0.0447
17457W        W21757  15.165   6.487  38.635 -0.0726 -0.5289  0.0177
17458W        W21758  19.106   5.981  39.960  0.0337 -0.1043 -0.0412
17459W        W21759   0.007   0.209  38.483  0.0631  0.3511  0.1908
17460W        W21760  19.451   4.457   2.248 -0.0460 -0.0950 -0.1140
17461W        W21761  13.336   2.872  44.904  0.2053  0.0777 -0.1389
17462W        W21762   4.783   0.194  14.589 -0.1122  0.1449 -0.4274
17463W        W21763   9.504   0.307  10.415  0.0484 -0.0196 -0.1767
17464W        W21764  19.166   4.705  32.454 -0.1198  0.1121 -0.2555
17465W        W21765   2.521   3.926  28.693 -0.2448  0.0164 -0.0010
17466W        W21766  13.495   5.759  43.218  0.3029 -0.1024 -0.0982
17467W        W21767  20.411   0.474  35.063 -0.0800 -0.0828  0.0936
17468W        W21768  14.071   4.527  10.680 -0.1245 -0.1118  0.0283
17469W        W21769   4.707   2.032  11.184  0.0165 -0.0969  0.4194
17470W        W21770   7.484   6.496   9.457 -0.0339 -0.1403  0.3413
17471W        W21771   0.616   1.817  39.319  0.0312 -0.0659  0.1388
17472W        W21772   4.452   3.796   6.281 -0.1842 -0.0297  0.1883
17473W        W21773  13.372   4.995  39.505  0.3137 -0.2950  0.0196
17474W        W21774   3.652   0.103  27.814  0.2723 -0.1133 -0.1065
17475W        W21775   8.094   6.169  40.144  0.4691  0.0839 -0.1155
17476W        W21776  19.251   4.563  33.981 -0.0079 -0.2402  0.1989
17477W        W21777  10.665   1.862  32.416 -0.0629  0.1936 -0.0366
17478W        W21778   5.441   2.776  31.707 -0.0300 -0.1572 -0.0167
17479W        W21779   4.784   1.414  10.007 -0.2605  0.1872  0.0404
17480W        W21780  14.890   3.574   9.301 -0.0574  0.2888 -0.0147
17481W        W21781  13.571   6.492   5.982  0.2279  0.0083  0.0952
17482W        W21782  10.721   2.482  30.895  0.2901 -0.0929 -0.3340
17483W        W21783   0.254   3.585   8.510 -0.2098  0.0321 -0.2166
17484W        W21784  20.546   4.815  29.146  0.0230 -0.1974  0.0770
17485W        W21785   8.142   1.083  27.988 -0.0166  0.0008  0.1663
17486W        W21786  19.681   2.485  13.844 -0.0083 -0.0027 -0.1432
17487W        W21787   4.832   5.803  23.016  0.0754 -0.0173  0.0104
17488W        W21788   5.202   2.114  45.010  0.1568 -0.3708 -0.3668
17489W        W21789  15.396   4.683   7.505 -0.1514 -0.0534 -0.3383
17490W        W21790   2.774   1.706  15.571  0.1345  0.0635 -0.2983
17491W        W21791  19.996   4.385  34.283  0.0099  0.1190 -0.0293
17492W        W21792   1.158   0.336  34.703  0.3706 -0.1314  0.0548
17493W        W21793  13.188   0.460  10.590  0.1894  0.0489 -0.0336
17494W        W21794  11.469   2.392  12.334  0.3304 -0.0230  0.3581
17495W        W21795   0.935   2.823  15.317  0.0799  0.0887 -0.0584
17496W        W21796   7.825   1.672  16.556  0.0413 -0.3522 -0.1077
17497W        W21797  18.765   3.764  43.235  0.0556  0.1681 -0.5171
17498W        W21798   3.696   0.293   2.532  0.0134  0.0142  0.0100
17499W        W21799   8.433   5.466  43.697 -0.2650 -0.1750 -0.2013
17500W        W21800  19.013   0.188  35.926  0.0385 -0.0473  0.1004
17501W        W21801  14.560   6.455  20.992 -0.2940  0.2800 -0.1092
17502W        W21802   9.762   0.146  39.579 -0.2629  0.0781  0.0933
17503W        W21803  14.530   4.172  33.980  0.2326  0.1374 -0.0984
17504W        W21804  13.409   4.539  27.879  0.2424  0.2501  0.1891
17505W        W21805  16.008   2.242   1.628  0.2448 -0.2047 -0.1683
17506W        W21806  20.181   2.350  16.898 -0.0095  0.0612  0.1413
17507W        W21807   5.327   2.643  43.212 -0.1601 -0.2758 -0.1558
17508W        W21808  13.215   5.410  14.157  0.2675  0.2321 -0.0257
17509W        W21809  18.904   2.710  43.048  0.0038  0.1747  0.1115
17510W        W21810   1.921   4.350  15.118 -0.1239  0.2182  0.2382
17511W        W21811   2.734   3.790  35.766  0.1008 -0.0101 -0.1748
17512W        W21812  10.729   3.493  15.362  0.0406 -0.0108 -0.0970
17513W        W21813   8.497   2.897  29.146 -0.2105 -0.1016  0.1773
17514W        W21814  14.554   2.866  41.543 -0.0497 -0.1973  0.1330
17515W        W21815  20.284   1.020  13.953 -0.0590 -0.2218  0.0523
17516W        W21816  10.173   4.109  35.274  0.0702 -0.0963  0.0247
17517W        W21817   4.927   0.366  12.343 -0.0965 -0.0682 -0.1387
17518W        W21818  15.497   1.778  12.956 -0.0833 -0.0521 -0.2377
17519W        W21819  13.950   5.831  23.171  0.2114  0.2291 -0.2287
17520W        W21820   5.353   2.217   1.833 -0.2215  0.1562  0.0840
17521W        W21821  21.124   0.208  13.433 -0.0441 -0.0783 -0.3139
17522W        W21822  16.307   5.401  40.025  0.0486  0.0342  0.0419
17523W        W21823  17.287   0.417   5.415 -0.2327  0.0971  0.2264
17524W        W21824   1.612   5.460  36.382 -0.0376 -0.2006  0.2678
17525W        W21825  17.769   3.549  44.530  0.1338 -0.0362 -0.2783
17526W        W21826  19.777   5.777   5.675 -0.0600  0.1502  0.0340
17527W        W21827   0.175   4.774  36.200  0.2636 -0.1649  0.1965
17528W        W21828   3.289   5.801  43.511 -0.1753 -0.2125  0.1232
17529W        W21829  14.606   2.155  11.866  0.4404  0.0849 -0.2379
17530W        W21830   4.131   0.825  44.035 -0.1132  0.1380  0.0468
17531W        W21831   2.318   1.625   8.044  0.2131 -0.1713  0.0647
17532W        W21832   8.895   0.928  16.698  0.1703 -0.1110  0.1793
17533W        W21833   8.815   1.397   8.836 -0.2116 -0.3111  0.3930
17534W        W21834  17.841   4.041   9.953 -0.1594  0.2616  0.0322
17535W        W21835   9.092   0.996  37.633  0.0587  0.2080  0.0956
17536W        W21836   2.824   5.604  12.707  0.0024 -0.1662 -0.2125
17537W        W21837  11.215   2.131  37.101 -0.1863 -0.0677  0.3413
17538W        W21838  15.571   3.170  40.082 -0.2269 -0.0309  0.0964
17539W        W21839  11.737   2.388   0.428  0.0762 -0.3701 -0.0791
17540W        W21840   3.982   3.131  26.602 -0.0841 -0.2308  0.1146
17541W        W21841  19.456   1.354  32.237 -0.1451  0.0555 -0.0764
17542W        W21842  15.079   4.705   2.578 -0.3241  0.3483  0.1629
17543W        W21843   6.620   5.090   4.764  0.0081  0.1030  0.0196
17544W        W21844   4.113   5.545   4.526  0.0013  0.0413 -0.1536
17545W        W21845   3.606   2.775  16.089 -0.1149 -0.0599 -0.1972
17546W        W21846   8.224   0.704  41.942  0.4002  0.3438  0.2193
17547W        W21847  10.202   3.464   6.964 -0.1199  0.2405  0.0526
17548W        W21848   5.609   0.671  41.030 -0.0086  0.3577 -0.3171
17549W        W21849   8.939   4.410  25.630  0.1259  0.1673 -0.0294
17550W        W21850  13.611   2.943   3.429  0.0003  0.1070  0.1812
17551W        W21851   3.673   6.193  10.165  0.1982 -0.2187  0.2081
17552W        W21852  17.104   3.465  37.953  0.2436 -0.0569  0.3177
17553W        W21853  14.386   4.733  14.661  0.0406 -0.0511 -0.0690
17554W        W21854   2.091   4.489  30.098 -0.0988  0.1496 -0.1372
17555W        W21855   1.206   6.277  33.150  0.0602 -0.0037 -0.0496
17556W        W21856  15.678   0.330  44.349  0.0294  0.2720 -0.0220
17557W        W21857  19.351   1.394   3.998  0.1082 -0.4637  0.0932
17558W        W21858   5.951   3.215  27.167 -0.1535  0.0812 -0.0562
17559W        W21859   9.522   6.604  27.632  0.1223 -0.0515 -0.1625
17560W        W21860  16.601   4.733  23.770  0.2763 -0.1127 -0.0416
17561W        W21861   8.370   4.245  24.932  0.1414  0.1665  0.1159
17562W        W21862  12.128   5.459  42.610 -0.0188 -0.0318  0.3516
17563W        W21863   9.065   5.052  37.243  0.0331  0.1404 -0.2599
17564W        W21864  16.036   3.911  18.844 -0.2256 -0.0493  0.3161
17565W        W21865   5.876   2.317  22.608 -0.0634 -0.3476  0.4493
17566W        W21866   2.215   6.069   4.119  0.3084  0.0453  0.0566
17567W        W21867   7.522   2.091  39.577 -0.0875 -0.1757 -0.2784
17568W        W21868  19.163   3.942  32.764  0.0350  0.2251 -0.1770
17569W        W21869  17.216   0.069  16.207 -0.2037 -0.0186 -0.1965
17570W        W21870   3.239   3.980  23.105  0.0316  0.0110 -0.0622
17571W        W21871   9.534   6.145  27.510  0.0779 -0.0983 -0.2144
17572W        W21872   3.513   2.815   6.273 -0.1971 -0.2637 -0.0286
17573W        W21873  17.932   2.219   7.132  0.0507 -0.3125  0.0481
17574W        W21874  19.373   1.842  15.717  0.1402 -0.0379 -0.0918
17575W        W21875   8.747   2.104  26.791  0.0039  0.1541  0.1471
17576W        W21876  13.377   2.228  32.050 -0.4573  0.1134  0.0471
17577W        W21877  17.469   6.503  36.222 -0.0207 -0.0828 -0.3769
17578W        W21878   1.324   1.649  38.529  0.0128 -0.1873  0.2032
17579W        W21879  17.567   0.797   2.655 -0.1718  0.1895  0.1027
17580W        W21880  11.496   1.461  14.455  0.1640 -0.2613  0.1085
17581W        W21881   5.509   4.058   7.619 -0.3432  0.1036 -0.2440
17582W        W21882  14.112   1.798   5.605 -0.2378 -0.2353 -0.0111
17583W        W21883  16.094   0.756   6.793 -0.0139  0.3000 -0.0373
17584W        W21884   7.807   1.065  35.343  0.0468  0.2177 -0.1866
17585W        W21885   6.663   2.266  36.473  0.0941 -0.0723 -0.0867
17586W        W21886  19.977   5.027  30.005  0.1995  0.1531  0.2903
17587W        W21887  11.029   6.540  31.087 -0.1824  0.0330 -0.1243
17588W        W21888  18.651   4.939  40.640 -0.0127 -0.3848 -0.0753
17589W        W21889  17.157   1.774  34.156 -0.0215  0.2899 -0.2765
17590W        W21890  14.913   3.106  42.446 -0.1969  0.1567  0.0978
17591W        W21891   1.435   2.473  27.269  0.2492  0.1028 -0.1221
17592W        W21892  16.192   0.469  33.266  0.2855  0.2311 -0.0255
17593W        W21893  13.753   1.758  34.129 -0.1221  0.0211  0.5274
17594W        W21894  12.167   0.112   9.878 -0.1938  0.1752 -0.1875
17595W        W21895   6.983   6.536  30.561 -0.1616  0.0786  0.1061
17596W        W21896  14.613   5.207  38.895  0.0166  0.0468  0.0610
17597W        W21897  13.005   0.118   7.652  0.4035  0.0730 -0.0683
17598W        W21898   8.826   2.322  28.413 -0.2102 -0.1541  0.0591
17599W        W21899   2.082   5.680  31.943  0.1182 -0.2457  0.3030
17600W        W21900  15.400   4.269   6.993 -0.0630 -0.2391 -0.2069
17601W        W21901   3.425   2.471  31.861 -0.2402  0.0626 -0.0868
17602W        W21902  17.213   4.108   7.696  0.0483  0.0830 -0.1116
17603W        W21903   6.769   2.768  38.188  0.1380  0.2151  0.2025
17604W        W21904  14.832   0.200   5.556  0.0070 -0.0489  0.0433
17605W        W21905   2.080   2.409  41.205  0.0893 -0.1667  0.0282
17606W        W21906  12.875   5.748  19.482  0.0104 -0.0520 -0.3189
17607W        W21907   7.008   0.175  14.582 -0.2996 -0.0418 -0.0906
17608W        W21908  12.000   6.237   7.649  0.1183  0.1003 -0.2696
17609W        W21909  15.101   1.928  37.443 -0.2558 -0.0464  0.3267
17610W        W21910   0.242   6.500   4.892  0.0228  0.2741 -0.3670
17611W        W21911   4.329   2.124   9.094 -0.2211 -0.2803 -0.2297
17612W        W21912   9.885   3.841  40.153 -0.0890  0.2778 -0.3549
17613W        W21913   3.758   4.624  39.972 -0.2241 -0.1349  0.0591
17614W        W21914   5.465   2.417  33.798  0.2142  0.2452  0.0773
17615W        W21915   0.005   2.162  39.119 -0.1534 -0.0292  0.3836
17616W        W21916   1.370   3.775  17.732 -0.1648  0.1202  0.2803
17617W        W21917   2.770   2.470  36.831  0.1031  0.0340  0.1050
17618W        W21918   2.159   2.319  30.313  0.3652 -0.1084 -0.2016
17619W        W21919   6.547   4.439  22.352 -0.2184  0.0997 -0.0579
17620W        W21920  16.637   4.482  43.545  0.1348  0.0522 -0.0890
17621W        W21921  13.706   3.341  30.657 -0.0206  0.4881  0.0485
17622W        W21922  20.074   2.371  18.179 -0.0402  0.1739 -0.0310
17623W        W21923  17.828   1.222  13.411 -0.0225  0.2319 -0.2005
17624W        W21924  12.728   6.327  28.555  0.0894 -0.1387  0.1645
17625W        W21925  20.275   0.350  32.871  0.1149  0.2598  0.1191
17626W        W21926   8.456   2.236   1.490  0.0065 -0.1851 -0.0658
17627W        W21927   3.434   1.437  33.014  0.1682  0.0512 -0.0420
17628W        W21928  11.546   0.556   6.346  0.1998 -0.2580  0.0357
17629W        W21929  20.672   3.919  29.427  0.2146 -0.1720  0.0758
17630W        W21930  15.160   2.690  16.580 -0.0478  0.0539  0.0084
17631W        W21931   5.791   2.231   9.206 -0.3785 -0.1409  0.2105
17632W        W21932   4.974   4.187   2.642 -0.2084 -0.2187  0.0981
17633W        W21933   0.382   5.055  40.966  0.0601  0.2372  0.1846
17634W        W21934  19.693   5.150   7.958  0.2239 -0.1182  0.0767
17635W        W21935   7.398   5.933  13.451  0.1475 -0.3922 -0.2241
17636W        W21936  14.081   5.898  13.229 -0.2347  0.1923  0.0706
17637W        W21937  15.042   4.503  39.284 -0.1127 -0.0435 -0.1023
17638W        W21938  12.337   0.669  31.835  0.0243 -0.2291  0.0966
17639W        W21939   8.393   4.899  27.237 -0.1254  0.3539  0.3048
17640W        W21940  17.058   4.890   1.358  0.0695  0.0817 -0.0123
17641W        W21941  15.057   0.839  20.737  0.1443  0.4743  0.4804
17642W        W21942   8.414   2.988  29.689 -0.0227  0.0661 -0.2476
17643W        W21943   0.765   6.076  14.758 -0.0975  0.1931  0.1457
17644W        W21944   4.581   4.540  23.525  0.1230  0.2521 -0.0442
17645W        W21945  14.896   2.087  38.935 -0.2070  0.3155 -0.0192
17646W        W21946  19.076   2.200   9.121 -0.1607  0.5481  0.2428
17647W        W21947   2.989   4.562  43.928  0.0594  0.1532  0.1922
17648W        W21948   5.173   5.723  43.635 -0.3551  0.3030 -0.0979
17649W        W21949   4.550   1.533   6.528 -0.0875  0.0110 -0.0372
17650W        W21950  18.416   3.001  11.355 -0.1567  0.3335 -0.1439
17651W        W21951  16.702   4.052  39.659  0.2610 -0.0513 -0.1402
17652W        W21952   8.858   6.225  43.024  0.2677  0.0388 -0.1202
17653W        W21953   9.267   3.140   7.202  0.0168 -0.0118  0.3667
17654W        W21954   9.072   4.447   2.636  0.1606 -0.3181  0.1789
17655W        W21955   5.731   2.038  12.807  0.0077 -0.1955  0.0190
17656W        W21956  16.654   5.201   9.873  0.1027 -0.2357  0.4158
17657W        W21957   0.767   2.665  41.556  0.1334  0.1700 -0.2745
17658W        W21958  14.524   2.405  39.001  0.1067 -0.0382 -0.0064
17659W        W21959  10.536   4.738   8.037  0.0559  0.0176  0.1587
17660W        W21960  11.809   0.144  33.267 -0.0767  0.0518  0.2646
17661W        W21961  16.574   6.433  35.906 -0.0578 -0.0318  0.1609
17662W        W21962   9.473   6.101  43.757 -0.0352 -0.1324 -0.2230
17663W        W21963   6.563   3.083  36.160 -0.0962 -0.0838  0.1102
17664W        W21964   7.918   2.304  36.106 -0.2092 -0.0144 -0.2540
17665W        W21965  10.811   5.988  43.709  0.1354  0.0633  0.0615
17666W        W21966  20.742   6.475  13.335 -0.1562  0.0341 -0.4131
17667W        W21967  16.270   5.817   4.677  0.0016 -0.2170  0.3107
17668W        W21968   2.415   1.099  41.161  0.0278 -0.0145  0.0789
17669W        W21969  15.805   3.847  34.247 -0.2501 -0.1306  0.0832
17670W        W21970   2.601   5.342  43.671 -0.0192  0.1728  0.0587
17671W        W21971  16.531   3.025  44.188  0.0052  0.1630 -0.0264
17672W        W21972  13.326   0.572   2.148  0.3373  0.1975 -0.0575
17673W        W21973  15.601   1.678   2.714  0.0630 -0.4069  0.3621
17674W        W21974   2.056   1.253  36.665  0.1009  0.0439 -0.1400
17675W        W21975  20.864   5.316  41.703  0.0997 -0.1948 -0.0093
17676W        W21976   7.718   0.963   8.137  0.4021  0.0608 -0.2071
17677W        W21977   1.764   1.937  38.850 -0.2133  0.0551 -0.1039
17678W        W21978   0.708   6.022   2.096  0.2079  0.0266 -0.1783
17679W        W21979   8.009   0.806  22.513 -0.1191 -0.0154 -0.1895
17680W        W21980  10.143   4.212  11.399  0.0580  0.0533  0.0634
17681W        W21981   6.342   3.771  36.262  0.1529  0.1038  0.2294
17682W        W21982   1.423   3.642  38.241 -0.1754 -0.2263  0.2126
17683W        W21983   3.786   3.751  34.208 -0.2563  0.1689 -0.0848
17684W        W21984  14.930   0.236  23.133 -0.0269  0.2564  0.0767
17685W        W21985   3.692   4.115   9.834  0.0425  0.1698 -0.0986
17686W        W21986   3.795   6.505  31.351  0.4061 -0.0273 -0.1656
17687W        W21987   3.327   4.076  39.585  0.1455 -0.2605 -0.3423
17688W        W21988   6.670   3.284  35.352 -0.1540  0.0802  0.0656
17689W        W21989   4.312   1.880  32.798  0.0057 -0.1626  0.0590
17690W        W21990   1.734   2.499  39.826  0.3022 -0.3501 -0.1047
17691W        W21991  20.725   4.472  43.267 -0.2678 -0.1133  0.1709
17692W        W21992   0.122   3.614  36.839  0.0640 -0.1812  0.0982
17693W        W21993   5.270   3.858   4.762 -0.2480  0.0506  0.0199
17694W        W21994   1.323   0.963   3.380 -0.0858 -0.1199  0.4834
17695W        W21995  11.792   1.654   4.744 -0.0170  0.2468  0.3736
17696W        W21996   8.694   6.531  35.689  0.0376 -0.2958 -0.1678
17697W        W21997  20.376   4.717  27.948 -0.0231  0.2036  0.0967
17698W        W21998   0.154   1.928   2.080 -0.2237  0.2533  0.2765
17699W        W21999  15.794   5.848  15.170  0.0156 -0.0511 -0.0009
17700W        W22000   3.547   1.401   7.819 -0.0067  0.3572  0.3499
17701W        W22001  10.757   3.095  34.690  0.0454 -0.0123  0.0956
17702W        W22002  19.751   4.941  44.184 -0.2346  0.2711  0.1042
17703W        W22003  16.680   6.215   4.016  0.0040  0.1558  0.0056
17704W        W22004   7.000   4.112  22.315 -0.2148  0.1385 -0.0318
17705W        W22005  15.455   0.018  30.003 -0.2000 -0.2455 -0.0178
17706W        W22006   3.409   6.334  23.492  0.3130  0.0809  0.1667
17707W        W22007  19.260   4.652  13.246  0.0599 -0.2944  0.2518
17708W        W22008   9.214   2.225  24.747  0.1956 -0.2715  0.3135
17709W        W22009   3.156   0.785  13.665  0.2800 -0.1178  0.1885
17710W        W22010  13.884   0.079  18.191 -0.2271 -0.4233 -0.3715
17711W        W22011   5.878   5.712  24.604 -0.2309  0.0653  0.0595
17712W        W22012  16.586   5.873  21.399  0.0032  0.1786 -0.1200
17713W        W22013   1.405   3.297  39.121  0.2810 -0.1485 -0.4658
17714W        W22014  16.919   3.977  35.139  0.0894 -0.0508 -0.0177
17715W        W22015   7.115   5.621  29.558 -0.0114 -0.3739  0.2159
17716W        W22016  11.810   4.039   4.361 -0.0443  0.0968 -0.3550
17717W        W22017   4.868   1.051   6.984 -0.0859  0.0514 -0.0075
17718W        W22018  16.153   1.738  23.178 -0.2009  0.1135 -0.0167
17719W        W22019  10.987   2.321   1.909  0.1268  0.4581 -0.2356
17720W        W22020   3.762   4.629  35.814 -0.0480 -0.0719 -0.1429
17721W        W22021   3.453   2.155  44.292 -0.2139  0.1054  0.1703
17722W        W22022   4.730   4.721  37.089 -0.2343  0.2315  0.1111
17723W        W22023  17.043   3.205  32.738  0.0871  0.0935  0.2372
17724W        W22024  17.413   1.510   8.058  0.1298 -0.0056 -0.0116
17725W        W22025  12.780   1.669  35.102 -0.3045 -0.1005  0.4184
17726W        W22026  14.103   2.502  32.087 -0.2338  0.0270 -0.0363
17727W        W22027  14.813   6.073  31.553 -0.0203 -0.1275  0.1547
17728W        W22028  14.317   0.275  21.271  0.0204 -0.2229  0.1340
17729W        W22029   2.110   2.879  39.733  0.0733 -0.0521  0.0666
17730W        W22030   5.310   1.037  13.790  0.1073 -0.0925 -0.1195
17731W        W22031  13.191   5.117  36.404  0.2076  0.1132 -0.1299
17732W        W22032  10.359   3.367  29.030 -0.0202  0.3694 -0.2741
17733W        W22033  18.597   1.760  32.940  0.0134  0.2234  0.2962
17734W        W22034  10.003   6.551   5.060  0.2141 -0.1152 -0.4065
17735W        W22035   4.419   4.671  27.376 -0.1349 -0.0580  0.0287
17736W        W22036   5.306   5.530   8.115 -0.2464 -0.0800 -0.0932
17737W        W22037   8.798   6.520  10.371  0.1063  0.1157 -0.1426
17738W        W22038   2.179   0.580  32.858 -0.1285  0.1397 -0.1572
17739W        W22039   4.397   4.944   2.676  0.1607  0.1003 -0.1295
17740W        W22040   8.417   4.804  30.554 -0.0706  0.0163 -0.1340
17741W        W22041  17.468   4.449  21.799  0.1218  0.2599 -0.2171
17742W        W22042   6.054   6.548  36.800  0.1529 -0.0063 -0.3602
17743W        W22043   2.150   0.637  27.054 -0.0520  0.1058  0.2488
17744W        W22044  20.610   1.540  17.042  0.0102 -0.2240 -0.1224
17745W        W22045  18.567   6.356  40.462  0.0416  0.0443  0.3741
17746W        W22046  14.456   1.424  33.745 -0.0412  0.1852 -0.2246
17747W        W22047  12.455   3.906   0.170  0.1139  0.3688  0.2166
17748W        W22048  19.842   6.437  44.538 -0.4798 -0.0337  0.0805
17749W        W22049   8.919   2.410  14.137 -0.1731  0.3777  0.1369
17750W        W22050  18.466   0.836   9.658 -0.3449  0.2252 -0.1005
17751W        W22051   6.513   6.223  11.413 -0.1362 -0.0001  0.0992
17752W        W22052   8.397   2.904  37.810  0.0298 -0.1135  0.0428
17753W        W22053   2.989   1.324   1.763 -0.1773  0.0291 -0.0710
17754W        W22054  10.274   0.132   7.970  0.0658 -0.0060  0.0473
17755W        W22055   5.548   2.481   0.001 -0.2202 -0.2090  0.0353
17756W        W22056  15.281   1.204  31.124  0.0539 -0.2709  0.1044
17757W        W22057  11.320   0.681  29.764 -0.0123 -0.1946  0.2129
17758W        W22058  20.928   6.175  33.235  0.0854 -0.0104  0.2052
17759W        W22059   0.172   5.717  33.758  0.5907  0.1754 -0.1917
17760W        W22060   4.333   0.957  41.370  0.1278 -0.0317  0.1823
17761W        W22061  16.666   0.322  36.095 -0.3300  0.3287  0.0908
17762W        W22062   2.127   5.199  16.131  0.3132  0.0343  0.0734
17763W        W22063  14.476   1.781  10.260 -0.1518  0.1635 -0.0315
17764W        W22064  11.129   5.370  27.085  0.0488 -0.1847  0.0185
17765W        W22065  11.428   4.796  41.319 -0.2544  0.1774  0.1380
17766W        W22066   0.164   0.421   4.025  0.0787  0.1469 -0.0015
17767W        W22067  13.063   4.884  17.767  0.0636 -0.0908  0.5919
17768W        W22068  15.451   0.762  17.782 -0.0069  0.0102  0.1524
17769W        W22069  17.944   4.592   0.903  0.0923 -0.0194 -0.1311
17770W        W22070  19.571   1.099   3.711  0.0489 -0.0459 -0.2780
17771W        W22071  15.778   1.437  24.195  0.1314  0.0990  0.3546
17772W        W22072  17.029   4.062  32.885 -0.1440  0.3022  0.0172
17773W        W22073  18.666   1.466  36.401 -0.0704 -0.1142  0.1366
17774W        W22074   5.137   1.964  25.544 -0.1878  0.0553 -0.2662
17775W        W22075   2.491   4.214  42.793 -0.1655  0.2202  0.2149
17776W        W22076  15.758   2.689   1.566  0.1344 -0.0485  0.0703
17777W        W22077   9.800   3.979  15.039 -0.3019 -0.2678 -0.2331
17778W        W22078  11.183   5.344   4.481  0.1246  0.3416  0.0314
17779W        W22079  11.372   0.151  37.547 -0.1597  0.0715 -0.1196
17780W        W22080  10.885   0.799  13.222  0.0832 -0.1866 -0.0291
17781W        W22081   7.570   0.194   6.963 -0.2087 -0.0169 -0.0491
17782W        W22082  19.388   4.676  11.124  0.0222  0.4931  0.3441
17783W        W22083   3.188   4.564  27.827  0.0680 -0.2155 -0.0808
17784W        W22084  21.115   2.961   1.616  0.0556 -0.0496 -0.1339
17785W        W22085  20.603   0.468  29.851 -0.0708 -0.2302  0.0055
17786W        W22086   1.748   1.805  42.614  0.3723  0.0366  0.0657
17787W        W22087  19.976   3.867  11.390  0.2320  0.0180  0.0311
17788W        W22088   2.962   0.825  34.798  0.1397  0.1058 -0.4362
17789W        W22089   6.202   2.275  33.466 -0.0897  0.1540 -0.0808
17790W        W22090   3.453   3.505   7.688  0.0972 -0.0585  0.1602
17791W        W22091  18.134   4.037  15.355 -0.1395 -0.0041  0.0070
17792W        W22092  12.014   5.996  40.969 -0.0982 -0.2113 -0.1227
17793W        W22093  20.712   5.319  18.289  0.0765  0.0783  0.1550
17794W        W22094  11.730   1.909  43.508 -0.2489 -0.2511 -0.2168
17795W        W22095   0.563   0.613   1.680 -0.3117 -0.0719  0.2762
17796W        W22096  14.468   2.931  29.760  0.1266 -0.1835  0.1333
17797W        W22097  13.322   1.237  41.482  0.1904  0.0152  0.2171
17798W        W22098   5.413   5.055  25.633  0.1357 -0.2892  0.0178
17799W        W22099  13.016   0.290  29.286 -0.0337 -0.0196 -0.2617
17800W        W22100   1.009   5.399  16.118 -0.1488 -0.1446 -0.1385
17801W        W22101  17.348   1.026   0.988 -0.3675 -0.2899 -0.0784
17802W        W22102  11.962   4.428  38.534  0.1379  0.3571  0.0207
17803W        W22103  13.391   2.500   1.348 -0.0100 -0.2111 -0.2084
17804W        W22104   7.809   3.044  41.761 -0.0717  0.1240 -0.1894
17805W        W22105   3.156   2.426  31.399  0.0244  0.0466 -0.1398
17806W        W22106   7.912   1.545  28.919 -0.0401 -0.2408  0.1494
17807W        W22107  11.387   3.411   1.579  0.0854  0.0417  0.0368
17808W        W22108   3.590   0.783  41.247  0.1023  0.2565 -0.3745
17809W        W22109   0.100   1.783  12.708  0.0147 -0.1212 -0.1727
17810W        W22110  12.588   5.582  12.392 -0.3576  0.1686  0.0830
17811W        W22111   5.682   0.176  43.361  0.1946 -0.0442  0.1952
17812W        W22112  10.578   6.548   7.103 -0.3004 -0.2768  0.2175
17813W        W22113  16.536   5.720  25.322  0.5074 -0.0198  0.0465
17814W        W22114  17.427   5.805  38.385 -0.0378 -0.3484  0.1378
17815W        W22115  20.119   1.462   6.580  0.0856 -0.0347 -0.2995
17816W        W22116  16.732   1.820  31.684 -0.0386  0.1609  0.0606
17817W        W22117   4.449   3.215  10.664  0.1086  0.4174 -0.3258
17818W        W22118  10.749   3.636  14.034 -0.0601  0.1117  0.1676
17819W        W22119  17.960   2.201   5.813  0.0674 -0.0042  0.0557
17820W        W22120   7.797   3.863   9.946 -0.2726 -0.1559  0.1448
17821W        W22121   9.053   3.220  16.575  0.3474 -0.0035 -0.2996
17822W        W22122   7.225   0.999   4.897  0.1930  0.3045 -0.0247
17823W        W22123   0.367   1.368   2.388 -0.5233  0.3469 -0.0042
17824W        W22124   4.428   3.419   7.844  0.1244  0.0058 -0.0458
17825W        W22125  11.765   3.853  30.738  0.3045  0.0432 -0.0595
17826W        W22126  14.332   0.191  12.963  0.1985  0.0831 -0.2205
17827W        W22127   2.339   3.446  38.310  0.1150 -0.1639 -0.2510
17828W        W22128   3.060   2.020  28.150  0.0341  0.0187 -0.1997
17829W        W22129   6.051   2.002  24.961 -0.0461 -0.0936 -0.2713
17830W        W22130  11.175   2.968  41.594 -0.1233 -0.0748  0.1030
17831W        W22131  17.104   0.411   2.754  0.0387  0.1158  0.0056
17832W        W22132  10.871   3.967  43.231 -0.2366  0.1080  0.1951
17833W        W22133  20.352   1.047  30.989  0.0516  0.1982 -0.1270
17834W        W22134   3.193   6.589  14.301  0.0545 -0.1450 -0.1994
17835W        W22135  12.151   5.296   2.151  0.1470 -0.0601 -0.2630
17836W        W22136  14.516   0.326   7.659 -0.1073  0.3730 -0.1644
17837W        W22137  13.520   5.826  20.209 -0.2613 -0.1439 -0.0719
17838W        W22138  13.569   6.499  36.766 -0.0880  0.0080  0.2375
17839W        W22139  12.964   5.300  14.610 -0.0654 -0.2033  0.4319
17840W        W22140   0.266   3.349  35.896  0.1474 -0.1698 -0.1536
17841W        W22141  12.437   0.733  41.638  0.2027  0.3558 -0.0690
17842W        W22142  15.758   4.969  11.021  0.2384  0.0969  0.1653
17843W        W22143   5.438   5.067  27.619  0.0312  0.1744  0.2738
17844W        W22144   3.820   1.497  35.691  0.0468  0.2848 -0.0342
17845W        W22145  10.579   5.714  12.691 -0.1215 -0.0703 -0.1457
17846W        W22146  15.861   2.877  18.790 -0.2791 -0.3484  0.1569
17847W        W22147  12.656   3.010  32.509  0.1998  0.0685 -0.0339
17848W        W22148  20.054   3.499  34.799  0.1274 -0.0530 -0.2227
17849W        W22149  20.920   3.370   9.023  0.0842 -0.1900  0.0510
17850W        W22150  10.712   6.469  26.102  0.3985  0.1135 -0.0680
17851W        W22151  15.750   0.536  42.538 -0.3620  0.1880 -0.2692
17852W        W22152   2.504   1.484   9.991 -0.0671 -0.0893 -0.0273
17853W        W22153   6.713   2.880   1.267  0.1754 -0.2909 -0.1308
17854W        W22154  17.824   1.272   0.094 -0.0043  0.0493 -0.0504
17855W        W22155   5.352   2.948   0.028 -0.0639  0.1039  0.0814
17856W        W22156  17.976   1.343   4.493  0.0736 -0.1714 -0.1170
17857W        W22157  15.976   1.874   0.279 -0.1392 -0.0285  0.0696
17858W        W22158  15.214   1.159  42.817 -0.2216  0.0043  0.0225
17859W        W22159   3.797   1.919  35.238  0.2137  0.0880  0.1562
17860W        W22160  10.153   0.906  38.561  0.0340  0.1747 -0.3533
17861W        W22161   1.250   3.224  35.014  0.2254  0.1532 -0.3346
17862W        W22162  12.266   2.934   3.464 -0.1837 -0.0220  0.1128
17863W        W22163   2.013   4.200  27.562 -0.1692  0.2773  0.3435
17864W        W22164   0.192   0.701  17.669 -0.0158 -0.1998 -0.2017
17865W        W22165  18.321   0.019   7.480  0.2713 -0.1242  0.0169
17866W        W22166  12.049   5.056  18.967  0.1247 -0.2668 -0.2382
17867W        W22167  18.224   4.144  20.735  0.0627 -0.0982 -0.0734
17868W        W22168  19.060   4.850   3.914 -0.3399 -0.0178 -0.2411
17869W        W22169   8.847   5.770   3.018 -0.0868  0.2313 -0.0909
17870W        W22170   5.841   3.346   5.268  0.2396 -0.0199 -0.1433
17871W        W22171  18.890   4.059   1.522 -0.0750 -0.0911 -0.0823
17872W        W22172   6.521   5.958  14.630 -0.1248 -0.3663  0.3092
17873W        W22173   9.422   1.341  32.457 -0.3226  0.0867  0.0577
17874W        W22174  11.251   1.031   5.073 -0.0393  0.1095 -0.0413
17875W        W22175   7.132   4.073  14.729 -0.0737 -0.3070 -0.0509
17876W        W22176  12.865   5.805   2.378  0.0688 -0.0185  0.2173
17877W        W22177  16.696   5.451  34.268 -0.2167 -0.4969  0.1751
17878W        W22178  12.233   1.424  34.401  0.0430  0.1266  0.0612
17879W        W22179   9.231   0.604   6.371  0.1293 -0.5063 -0.1882
17880W        W22180   5.563   6.037  31.514 -0.0359 -0.0091  0.2321
17881W        W22181  18.505   6.003   5.393  0.2366 -0.2507  0.3409
17882W        W22182   4.112   3.227   4.861  0.2541 -0.2137  0.2363
17883W        W22183  18.428   2.128   4.436  0.1196  0.1676 -0.0624
17884W        W22184  15.065   3.554   3.436  0.2517 -0.0482 -0.1273
17885W        W22185   2.998   6.487  30.468 -0.0032  0.1435  0.2177
17886W        W22186  19.950   2.737  34.552 -0.1403  0.6003 -0.2107
17887W        W22187   5.338   0.988  36.136 -0.1619  0.1112  0.0484
17888W        W22188   7.051   4.454   4.144 -0.1234 -0.0625  0.1479
17889W        W22189   1.687   5.630   0.257  0.1270 -0.1330  0.0716
17890W        W22190   8.575   6.392  28.549 -0.1520 -0.3218 -0.0333
17891W        W22191  15.051   1.104  17.720  0.2020  0.1483  0.2730
17892W        W22192  17.587   0.660  35.636 -0.1293 -0.1766  0.1141
17893W        W22193   7.741   0.840  28.123  0.1442  0.5466 -0.1015
17894W        W22194   9.853   5.576   6.460 -0.0135 -0.2952  0.1113
17895W        W22195   8.153   4.833  34.569  0.0800 -0.1652  0.2038
17896W        W22196   5.343   2.858  22.591  0.1372  0.2568  0.0218
17897W        W22197   4.155   2.399   6.344  0.0071 -0.2358  0.0398
17898W        W22198   4.464   3.323  36.901 -0.0271 -0.3500  0.1137
17899W        W22199   7.703   3.558  24.400  0.0828 -0.0963 -0.1700
17900W        W22200   4.546   2.626  39.663 -0.0508 -0.1573 -0.0925
17901W        W22201  12.047   4.707  13.663  0.0679 -0.1313 -0.1543
17902W        W22202  19.232   4.697  31.104  0.4098  0.0302  0.0432
17903W        W22203  17.337   6.479  37.215  0.0331 -0.0223 -0.0303
17904W        W22204  10.222   5.944  34.952 -0.1021  0.1231 -0.1724
17905W        W22205   3.506   5.730  42.895  0.2256  0.2536 -0.0299
17906W        W22206  18.853   5.629  13.078  0.1826  0.1152 -0.1278
17907W        W22207  10.764   0.342  32.779  0.0703 -0.0458  0.0399
17908W        W22208  18.423   5.484  40.038 -0.1199 -0.0622 -0.1369
17909W        W22209  17.685   1.564  32.428 -0.1377 -0.2389  0.0589
17910W        W22210  19.678   0.993  41.792 -0.0720 -0.1573 -0.0854
17911W        W22211  14.586   5.000  15.946  0.3851  0.1723  0.0752
17912W        W22212  19.692   2.245  17.756 -0.2388 -0.0106 -0.0539
17913W        W22213  19.102   6.486   6.482 -0.1562 -0.0084  0.0615
17914W        W22214   6.323   6.378  15.559 -0.1987 -0.1890  0.1720
17915W        W22215  14.910   3.823  33.772 -0.2151 -0.3319  0.1624
17916W        W22216   3.236   3.674  42.575  0.0330 -0.1619 -0.1775
17917W        W22217   1.050   0.852  17.912  0.2284 -0.2946  0.2909
17918W        W22218  13.798   0.730  20.034 -0.2980 -0.1265 -0.1153
17919W        W22219  12.978   3.461  11.108  0.1988  0.1434 -0.2427
17920W        W22220   3.330   3.845  36.777  0.1367  0.0526  0.0749
17921W        W22221   9.980   0.384  36.974  0.2048  0.0216  0.2518
17922W        W22222  18.334   3.904   7.870  0.4146  0.3503 -0.1661
17923W        W22223   1.855   1.060  28.142  0.0247 -0.2856 -0.0939
17924W        W22224  18.585   3.618  36.395 -0.1518  0.0330  0.2201
17925W        W22225   0.478   3.084  41.750 -0.0656  0.2617  0.2222
17926W        W22226   7.943   2.556  29.672 -0.1644 -0.0033  0.4191
17927W        W22227  11.958   2.827  43.350 -0.0909  0.1447  0.3958
17928W        W22228  14.036   0.102   4.962  0.2407  0.0297  0.0814
17929W        W22229   2.776   0.759  30.544  0.1599 -0.1294 -0.1720
17930W        W22230   0.613   6.581  12.405  0.0200 -0.0213  0.1718
17931W        W22231  19.899   5.162   1.073  0.0548  0.2058  0.1637
17932W        W22232   7.087   3.010  16.486 -0.1203  0.0789 -0.1547
17933W        W22233  19.901   6.134   7.047 -0.1533 -0.2000 -0.0261
17934W        W22234   0.073   1.847  43.772  0.0912 -0.0745  0.0150
17935W        W22235  12.846   5.028  15.764  0.1202  0.3851  0.0559
17936W        W22236   6.068   1.259  43.749 -0.0699  0.1119  0.0824
17937W        W22237   0.169   0.896  13.065  0.2101  0.2363  0.1293
17938W        W22238   1.198   5.159  28.028  0.3519 -0.0571  0.1588
17939W        W22239  17.899   4.338  37.322 -0.1653  0.1735 -0.0355
17940W        W22240   7.246   0.650  37.562 -0.1184 -0.2062 -0.0318
17941W        W22241  16.738   4.668   7.077 -0.0575  0.1496  0.0709
17942W        W22242  12.031   0.466  39.945 -0.1238  0.2844 -0.3877
17943W        W22243  20.171   0.198  44.434 -0.1778  0.3202 -0.2151
17944W        W22244   6.942   3.294  27.134  0.0928 -0.1085 -0.3589
17945W        W22245   2.036   1.142  30.089 -0.4095  0.0247 -0.1633
17946W        W22246   0.415   2.613   9.556 -0.1104  0.0707 -0.1143
17947W        W22247  10.919   0.115  10.577  0.0415  0.0662  0.0951
17948W        W22248   1.079   6.077  14.265  0.0252  0.4214  0.0735
17949W        W22249  11.277   5.088  10.589  0.0693  0.1723 -0.2429
17950W        W22250   3.499   2.150  28.719  0.0593 -0.0042  0.4667
17951W        W22251   4.559   5.825   4.669  0.1338 -0.2244 -0.3321
17952W        W22252  17.857   2.116  19.210  0.1086  0.1378 -0.0844
17953W        W22253  14.504   2.752  19.690 -0.1777 -0.0048 -0.0079
17954W        W22254   4.949   1.783  23.463 -0.0568 -0.0390 -0.0278
17955W        W22255   7.156   2.885  31.130 -0.0003 -0.4200  0.3541
17956W        W22256   9.364   3.647  14.425  0.0619 -0.2135 -0.2671
17957W        W22257  17.250   0.106   1.452  0.0959 -0.1516 -0.0996
17958W        W22258  19.848   1.854   7.361  0.0224 -0.0454 -0.1024
17959W        W22259   4.957   1.893  36.191 -0.1422  0.2577 -0.3455
17960W        W22260   3.568   3.010   5.436  0.1850 -0.1991 -0.0091
17961W        W22261  15.084   2.519  22.862 -0.0546 -0.0848  0.3388
17962W        W22262  13.899   5.058  10.880  0.1508  0.0844  0.0386
17963W        W22263  18.731   1.962   3.411 -0.1041  0.2245  0.0626
17964W        W22264   1.249   3.687  33.136 -0.1823  0.2274  0.0270
17965W        W22265  20.955   5.763  40.117  0.2652 -0.3490 -0.0555
17966W        W22266  11.977   4.284   8.574 -0.0098  0.1177 -0.0206
17967W        W22267  13.199   3.998  37.983  0.2415  0.4652 -0.2148
17968W        W22268  16.874   4.451  30.816  0.0333  0.1499  0.0367
17969W        W22269   9.694   0.202  33.981 -0.1475 -0.1895 -0.0456
17970W        W22270   8.255   4.648  10.242 -0.0509  0.1097  0.0816
17971W        W22271   0.359   4.202  17.930  0.1338 -0.3265  0.1261
17972W        W22272   1.125   6.092   1.175  0.1711 -0.3768  0.3123
17973W        W22273  14.388   4.384  35.311 -0.2586 -0.2013 -0.1713
17974W        W22274   6.768   3.467  12.905 -0.2177  0.1470 -0.4291
17975W        W22275  19.904   4.639  12.025  0.0551 -0.0087  0.0052
17976W        W22276  21.144   6.343  11.769 -0.0747  0.0125  0.1296
17977W        W22277  20.863   5.845  10.713 -0.1329 -0.0129  0.2643
17978W        W22278   9.469   0.563   6.872 -0.2180  0.1072  0.2144
17979W        W22279  11.275   5.120  38.771  0.0289 -0.0913  0.0558
17980W        W22280   4.072   2.155  31.711  0.1160  0.0808  0.1408
17981W        W22281   3.869   0.501  35.720  0.0891 -0.0584 -0.0390
17982W        W22282  10.637   2.182  40.457 -0.0685 -0.4983 -0.0938
17983W        W22283  11.910   1.313   2.398 -0.2746 -0.0906  0.0083
17984W        W22284  16.311   2.554   7.911 -0.0049  0.0941 -0.4394
17985W        W22285  19.545   3.836  14.763 -0.2061 -0.1747 -0.2514
17986W        W22286   0.344   5.517  28.014  0.3158  0.3196  0.0114
17987W        W22287  18.140   5.914  30.994  0.0038  0.2260 -0.1098
17988W        W22288   8.836   2.073  28.847 -0.0295 -0.2259  0.1037
17989W        W22289  17.666   1.409  39.670  0.1776 -0.1147 -0.1399
17990W        W22290   8.324   3.954   9.905  0.2498  0.0717 -0.0845
17991W        W22291  19.116   4.716  10.729 -0.2101  0.0370 -0.1063
17992W        W22292   8.652   1.787  32.815 -0.3556  0.1690  0.1792
17993W        W22293  20.487   6.120  39.583  0.1724  0.3026  0.1366
17994W        W22294   4.860   2.016  31.986  0.0039 -0.0527  0.1090
17995W        W22295   9.434   6.023  35.419  0.3897  0.0976  0.3937
17996W        W22296   8.165   5.614  23.781 -0.2996  0.2771 -0.3964
17997W        W22297  15.481   1.055  43.775 -0.1974  0.5375  0.0165
17998W        W22298  17.623   3.934  15.303 -0.0250 -0.2417 -0.0480
17999W        W22299   0.784   2.770  13.103  0.0817  0.1478  0.4914
18000W        W22300   2.354   3.537  33.901 -0.0741  0.1855 -0.0110
18001W        W22301  18.974   4.999  32.881 -0.1907 -0.0259  0.0679
18002W        W22302  10.239   2.395  12.511 -0.4927 -0.1326 -0.0093
18003W        W22303  15.688   3.611  31.258  0.1023  0.1260  0.4863
18004W        W22304  17.937   3.202  42.468 -0.0689  0.2404 -0.0366
18005W        W22305  19.636   5.151   1.600  0.3268  0.1852 -0.1087
18006W        W22306   5.255   6.128  13.310 -0.1722  0.2175 -0.0513
18007W        W22307   0.274   2.026   3.810  0.0177  0.1691 -0.0648
18008W        W22308   7.331   1.843  44.260 -0.1459 -0.1391  0.0466
18009W        W22309  17.668   5.318  16.981 -0.1188  0.0159  0.2548
18010W        W22310  17.101   1.777  29.567  0.0977  0.4863 -0.1543
18011W        W22311  15.955   1.048   5.594  0.1172  0.2582 -0.0116
18012W        W22312  15.374   1.977  29.939  0.2651  0.2491  0.0036
18013W        W22313  12.566   6.246  11.466  0.1513  0.0430  0.0961
18014W        W22314  16.292   6.271  22.799  0.2709 -0.2521  0.2416
18015W        W22315  16.676   3.560  17.272 -0.0762 -0.0142  0.0143
18016W        W22316  12.857   4.404  10.292  0.2532 -0.1339  0.0717
18017W        W22317   0.738   5.222  29.935 -0.2292 -0.1654  0.1413
18018W        W22318   0.879   4.605  35.258  0.0812  0.2622 -0.1040
18019W        W22319  16.940   0.868  19.660 -0.0040  0.1259 -0.0671
18020W        W22320  18.824   1.813  35.319 -0.0032  0.2435 -0.0747
18021W        W22321   2.883   4.740   5.026 -0.2063  0.0832 -0.0557
18022W        W22322  10.757   5.182  36.850 -0.0110  0.2412 -0.3982
18023W        W22323  14.296   0.097   0.005  0.1007  0.0688  0.1690
18024W        W22324   1.083   3.774   0.812  0.0224  0.1187  0.0444
18025W        W22325   0.549   4.345  42.307 -0.1633  0.2457  0.0465
18026W        W22326  12.189   0.744  14.568  0.0811 -0.0165  0.3866
18027W        W22327   3.868   5.410   0.350 -0.4366 -0.1694  0.0420
18028W        W22328  20.843   2.621   0.329  0.0313 -0.0657 -0.1094
18029W        W22329  12.188   3.996  39.333  0.0138 -0.0666  0.1600
18030W        W22330  18.315   4.801  41.439 -0.3365 -0.1144  0.1413
18031W        W22331  12.148   2.965  11.744  0.1194  0.0588  0.2508
18032W        W22332  14.936   3.722  15.114  0.1678  0.0642 -0.0246
18033W        W22333   2.047   2.791  40.916  0.2767 -0.0423 -0.0975
18034W        W22334  12.310   5.296  34.088  0.0022 -0.1603  0.2293
18035W        W22335   7.326   5.785  43.925 -0.1216 -0.0497 -0.0990
18036W        W22336  17.367   3.915  31.029 -0.0548  0.0251  0.0377
18037W        W22337  13.002   4.007  15.910  0.0217  0.1108  0.1405
18038W        W22338   2.799   4.424  34.162 -0.0270 -0.3429  0.1238
18039W        W22339  18.867   4.545   6.700 -0.1332  0.2162 -0.1255
18040W        W22340   9.498   6.569  25.954  0.1485 -0.0934  0.1100
18041W        W22341   9.958   0.737   0.548  0.0351 -0.2245  0.1889
18042W        W22342  19.545   3.094  32.742  0.1103  0.1512  0.3480
18043W        W22343   4.249   3.417  30.073  0.1392  0.1174  0.0105
18044W        W22344  10.544   0.186  11.063 -0.0153  0.0105  0.2077
18045W        W22345  12.133   5.161  38.223 -0.1738 -0.1052  0.0517
18046W        W22346  10.522   3.909  11.304 -0.0367 -0.1403 -0.2560
18047W        W22347  17.233   3.457  40.337 -0.0610 -0.1504  0.0798
18048W        W22348   7.502   1.559  14.046  0.0170 -0.1300 -0.1897
18049W        W22349   4.700   3.499  37.327  0.0835 -0.1192 -0.0460
18050W        W22350   7.562   1.394  14.706 -0.2887  0.1741  0.1635
18051W        W22351   7.998   2.430  40.879 -0.1828  0.0052 -0.3588
18052W        W22352   1.927   3.204  36.327 -0.0727  0.1762  0.2016
18053W        W22353  11.233   5.035  36.294  0.1539  0.0319 -0.3027
18054W        W22354   6.032   3.779  24.290 -0.0309 -0.3846 -0.2401
18055W        W22355   6.521   4.171  13.362  0.0941  0.2662 -0.2171
18056W        W22356  13.921   4.357  14.082  0.1198 -0.0980  0.0615
18057W        W22357   4.699   1.753  30.181 -0.0345 -0.1649  0.2036
18058W        W22358  19.337   4.684   9.970  0.1950 -0.1608 -0.1227
18059W        W22359  11.977   1.430  41.299  0.0252 -0.1068  0.3442
18060W        W22360   6.765   4.341  40.306 -0.0738 -0.1035  0.4446
18061W        W22361  16.584   4.223  38.350  0.0018 -0.1412 -0.0887
18062W        W22362  21.117   3.035  29.827  0.0386 -0.2295  0.2603
18063W        W22363  16.302   5.831   0.664  0.2149 -0.1041  0.1088
18064W        W22364  12.835   1.961  18.950 -0.3929 -0.1520 -0.0760
18065W        W22365   7.355   0.732  36.945 -0.0137  0.1133  0.0591
18066W        W22366   7.876   4.137  43.484 -0.0059 -0.0986 -0.2075
18067W        W22367  17.729   5.680  43.216  0.0077  0.2707  0.0002
18068W        W22368  20.334   5.377   2.925  0.3302  0.0616 -0.1179
18069W        W22369   5.926   4.239  13.226 -0.1550 -0.0538  0.1573
18070W        W22370  11.627   2.415  33.026  0.1042  0.1023 -0.0541
18071W        W22371   6.270   4.520   6.790  0.0469 -0.2022 -0.1895
18072W        W22372   1.373   4.833   4.063  0.1657  0.1240  0.1501
18073W        W22373   8.808   6.489  25.682 -0.2663  0.2318  0.1658
18074W        W22374   1.029   6.007  37.218 -0.0519 -0.1478 -0.0647
18075W        W22375  19.956   1.833  17.528 -0.2587 -0.0220 -0.1891
18076W        W22376  17.277   1.314  32.293  0.1313  0.0828  0.1859
18077W        W22377   8.782   3.151  37.729 -0.0671 -0.0648 -0.0107
18078W        W22378   9.228   4.819  44.740  0.0050  0.0235  0.2934
18079W        W22379  20.358   5.562   9.165  0.3508  0.3380 -0.0422
18080W        W22380   3.228   5.741   1.754  0.2235 -0.2659  0.3419
18081W        W22381  16.246   5.603   5.638 -0.1447  0.0931 -0.2008
18082W        W22382  16.869   2.632  13.387 -0.0110 -0.1067  0.1456
18083W        W22383  20.132   1.477  30.634 -0.0089  0.2012 -0.0405
18084W        W22384  16.555   5.867  17.892  0.1141 -0.0463 -0.0516
18085W        W22385   9.870   2.407  26.171  0.1804  0.1341 -0.0527
18086W        W22386  11.758   3.050   2.357 -0.0384  0.1235 -0.0148
18087W        W22387   3.004   4.789   3.070 -0.0716  0.0700 -0.3721
18088W        W22388  14.240   5.312  21.757 -0.4267  0.0331 -0.1012
18089W        W22389   6.867   5.646   1.229 -0.0883 -0.1049 -0.1569
18090W        W22390  14.294   0.556  29.664 -0.0667  0.2834 -0.0498
18091W        W22391  17.085   4.433  38.241 -0.0132 -0.1174 -0.1176
18092W        W22392   7.972   6.569   9.326  0.1322  0.1808  0.0167
18093W        W22393  20.788   5.713  42.862 -0.1720  0.2392  0.2314
18094W        W22394  14.993   0.745  31.065  0.2728  0.1969  0.0801
18095W        W22395   1.561   2.958  36.583 -0.0751 -0.3839  0.1268
18096W        W22396  10.605   1.850  27.185 -0.1102  0.0244 -0.0341
18097W        W22397   6.465   2.475   4.803 -0.2646  0.1361 -0.0874
18098W        W22398   0.266   2.012  38.619 -0.2828 -0.2943  0.1254
18099W        W22399   8.053   2.247  44.138 -0.2714 -0.1575  0.3276
18100W        W22400   9.150   1.085  41.304  0.0042  0.1427  0.1978
18101W        W22401   9.486   0.822   3.437  0.0892 -0.0548  0.1724
18102W        W22402  18.712   0.855   9.221 -0.0096 -0.3942  0.4419
18103W        W22403   7.478   6.270  42.442 -0.0964 -0.0439  0.0970
18104W        W22404   7.837   2.648  10.157 -0.0102 -0.3459 -0.1450
18105W        W22405  14.649   6.381  11.117 -0.2399 -0.1649  0.0680
18106W        W22406   5.533   5.639  31.199 -0.2574  0.1969 -0.1311
18107W        W22407  12.036   0.553  39.481  0.4939  0.0219  0.0316
18108W        W22408   3.661   3.364  40.502  0.0758  0.1106  0.0215
18109W        W22409  18.825   4.851  29.578 -0.1440  0.0016 -0.1406
18110W        W22410  11.093   1.269   2.995  0.1848  0.0541 -0.2842
18111W        W22411  13.276   1.624  21.368  0.0659  0.0731  0.1655
18112W        W22412   6.572   5.027  43.730 -0.0094  0.2321 -0.1469
18113W        W22413  11.353   1.300  40.381  0.0102 -0.0060  0.1123
18114W        W22414   7.584   0.604  22.818 -0.2251  0.0270  0.1152
18115W        W22415   5.399   1.671  22.770  0.0437 -0.2433 -0.0421
18116W        W22416   8.896   5.993   5.635 -0.1194 -0.0469  0.0156
18117W        W22417   2.686   3.369   3.935  0.0268 -0.4830  0.1575
18118W        W22418  10.503   1.383  39.392  0.0884  0.2154  0.0432
18119W        W22419   7.977   3.450  28.565 -0.2092 -0.3076 -0.1238
18120W        W22420   5.496   5.303   5.424 -0.2666  0.0388  0.3475
18121W        W22421   8.320   6.104   1.426 -0.3024  0.1656 -0.1079
18122W        W22422   2.213   1.827  42.943 -0.0094 -0.4160  0.3484
18123W        W22423  12.095   2.799   9.924  0.2339  0.2364  0.0350
18124W        W22424   7.992   1.027   8.587 -0.0786 -0.1395  0.0579
18125W        W22425   5.924   2.951  32.607 -0.0301 -0.0364 -0.1373
18126W        W22426  14.158   3.531  15.252 -0.0730 -0.2695 -0.0942
18127W        W22427   3.961   5.421  30.650  0.1635 -0.1161 -0.0614
18128W        W22428   3.601   1.529   9.509  0.0794 -0.2665 -0.0729
18129W        W22429   1.515   1.654  44.693 -0.2122  0.0408  0.0734
18130W        W22430  13.546   2.358   9.600  0.1880 -0.0514 -0.2646
18131W        W22431  20.150   2.967  45.114 -0.0274  0.0206 -0.0453
18132W        W22432  11.477   5.963  29.469  0.4626  0.1822 -0.2213
18133W        W22433   4.310   0.104  24.320 -0.3664  0.1791  0.0753
18134W        W22434  10.166   0.210  33.875  0.0073  0.0025 -0.2765
18135W        W22435   9.661   1.038  16.979  0.0244  0.0964 -0.0581
18136W        W22436   2.078   3.378  33.074 -0.3271 -0.2537  0.0288
18137W        W22437  19.213   0.698  15.424  0.0326 -0.1468  0.2714
18138W        W22438   0.699   4.892  36.394 -0.0895 -0.2461 -0.0754
18139W        W22439   2.636   0.241   7.075 -0.0821 -0.2440  0.2011
18140W        W22440  18.823   0.936   5.516 -0.0580 -0.1587  0.2255
18141W        W22441   3.427   5.752  42.093  0.1006  0.4978 -0.1091
18142W        W22442  14.088   0.690  22.186 -0.2049  0.1155 -0.1465
18143W        W22443   3.530   5.170  30.778  0.1623  0.1254 -0.0140
18144W        W22444   9.803   4.949  15.410 -0.0167 -0.2062  0.0256
18145W        W22445  15.893   1.281  43.353 -0.2156 -0.1337  0.0145
18146W        W22446  18.797   5.118  10.740  0.1393  0.0866  0.2890
18147W        W22447  17.357   2.444  15.799 -0.0572  0.1390  0.0529
18148W        W22448   9.386   5.766   1.196  0.0126 -0.2302 -0.0253
18149W        W22449  15.834   0.817  22.766 -0.1230  0.0674  0.3441
18150W        W22450   4.247   4.950  10.911 -0.0110 -0.2618  0.3052
18151W        W22451  10.262   1.210  24.924 -0.0188  0.1415  0.1039
18152W        W22452  15.391   3.187  42.550 -0.2209  0.0008 -0.4404
18153W        W22453   1.409   2.239   2.656  0.3168  0.1248  0.0338
18154W        W22454  14.154   0.541  39.262 -0.1792 -0.1853 -0.0523
18155W        W22455   2.320   2.916  33.326 -0.1625 -0.0777 -0.1929
18156W        W22456   6.249   3.736  23.822  0.0826  0.2203  0.0732
18157W        W22457  21.073   2.211  32.243  0.3198 -0.2126  0.2848
18158W        W22458   9.366   6.016   7.640  0.1190  0.0396  0.3828
18159W        W22459  19.839   6.535  16.338  0.1909  0.0655  0.0330
18160W        W22460   2.122   6.036  31.423  0.3376  0.1011  0.0827
18161W        W22461  12.375   3.285  38.671 -0.0953 -0.0246  0.1274
18162W        W22462  14.778   2.967  38.303  0.0475 -0.3912  0.2171
18163W        W22463   1.386   3.612  43.221  0.1680 -0.2222 -0.0615
18164W        W22464   0.026   4.622  43.466 -0.1689 -0.1070  0.1745
18165W        W22465  14.328   2.065  43.912  0.1086 -0.2168 -0.0379
18166W        W22466   7.992   4.146  22.661 -0.3423 -0.1607  0.1636
18167W        W22467   7.305   4.581  13.351 -0.2201 -0.0783  0.0838
18168W        W22468  19.268   1.701  17.922 -0.2316 -0.5299 -0.4703
18169W        W22469  14.330   0.578  13.343 -0.1176  0.3106  0.0249
18170W        W22470  14.636   4.726  19.097  0.0149 -0.0318 -0.2582
18171W        W22471   9.360   4.123  39.403  0.2342  0.3659  0.1253
18172W        W22472   7.709   4.136  31.244  0.2204  0.0447 -0.0117
18173W        W22473   8.746   1.241  28.741 -0.0472 -0.0957 -0.0925
18174W        W22474   7.045   0.133   2.038  0.0689 -0.2646 -0.1511
18175W        W22475   9.584   4.241   0.103  0.5637 -0.1210 -0.1180
18176W        W22476  12.814   5.586   7.566 -0.0709 -0.0195 -0.2481
18177W        W22477   7.755   3.414  11.962 -0.1675  0.0728  0.0965
18178W        W22478  14.934   2.150  44.002  0.1330  0.2732 -0.2856
18179W        W22479   7.023   3.719  29.665 -0.0324  0.0776  0.0432
18180W        W22480  13.531   1.884  35.468 -0.0159  0.1542 -0.0161
18181W        W22481  10.954   1.107   6.150 -0.1071  0.3088 -0.3446
18182W        W22482  20.437   3.835  45.059 -0.1473  0.2415  0.0255
18183W        W22483   0.009   0.396  18.423  0.1497  0.1082 -0.5176
18184W        W22484  13.112   5.771  13.889  0.0350 -0.2649  0.0244
18185W        W22485  16.930   6.051  12.998  0.1359 -0.1451 -0.0079
18186W        W22486   4.137   4.663  30.131 -0.0329  0.0751 -0.0179
18187W        W22487   3.799   2.210  30.922 -0.1443  0.0064 -0.1882
18188W        W22488  13.050   1.109  20.265  0.1191  0.0168  0.0898
18189W        W22489   0.429   0.505  41.450 -0.3048 -0.1036  0.0283
18190W        W22490   9.056   3.560  41.909  0.0267 -0.0679 -0.0157
18191W        W22491   0.304   5.248  33.952 -0.3387 -0.3656  0.0879
18192W        W22492   4.751   6.558  30.764  0.3178 -0.0157 -0.0553
18193W        W22493   4.579   0.886  26.304  0.1589 -0.2368  0.1037
18194W        W22494   8.132   4.189  29.306  0.2331 -0.0548 -0.2419
18195W        W22495   3.939   4.005  24.945 -0.2485 -0.1367 -0.0206
18196W        W22496  11.191   3.545  38.296  0.5100 -0.0459  0.0718
18197W        W22497   8.547   5.808  17.092  0.1767 -0.0978  0.3280
18198W        W22498  20.564   1.568  38.003  0.1193 -0.2358  0.2142
18199W        W22499  17.288   6.559   5.221  0.2376  0.0538 -0.1270
18200W        W22500  19.969   2.385  11.330 -0.3051 -0.3442  0.2182
18201W        W22501   3.239   6.064   9.602 -0.0948  0.1594  0.0304
18202W        W22502  18.363   2.159   2.161 -0.0646 -0.2209 -0.2151
18203W        W22503   5.639   3.903  39.700 -0.1468 -0.0418  0.1596
18204W        W22504  14.862   5.549  32.223  0.0909 -0.0353 -0.1590
18205W        W22505  17.153   2.296  17.581  0.3999  0.0751  0.0343
18206W        W22506  16.703   5.832  40.280 -0.2168 -0.0249 -0.0575
18207W        W22507   8.740   5.065  27.625 -0.1348 -0.1521  0.1706
18208W        W22508   7.875   3.221  34.052  0.0992  0.0969  0.0345
18209W        W22509  15.594   1.594  18.636  0.3123  0.2519 -0.0785
18210W        W22510  13.218   0.159  12.832 -0.2514 -0.0430 -0.1173
18211W        W22511  17.756   4.819  23.035 -0.4226 -0.2670 -0.2420
18212W        W22512   5.408   6.162  24.574  0.1342 -0.1950 -0.1378
18213W        W22513   6.636   2.328  37.418  0.0010  0.2680  0.3009
18214W        W22514  14.751   0.742  14.186 -0.2350 -0.1727 -0.1227
18215W        W22515  10.147   1.175   3.678 -0.1529 -0.0422  0.2358
18216W        W22516  18.318   4.539  32.591 -0.1538 -0.0442  0.0118
18217W        W22517  13.103   2.794   3.715 -0.2744  0.0952 -0.1309
18218W        W22518  11.302   1.606  41.936  0.0204 -0.0219 -0.0230
18219W        W22519  13.541   2.030   3.946  0.1855 -0.0329  0.3295
18220W        W22520  12.353   3.454  37.711  0.1280  0.2140  0.3667
18221W        W22521  20.924   0.461  37.077  0.0660 -0.0651 -0.1634
18222W        W22522   6.436   6.428  35.341 -0.1634  0.0628 -0.1477
18223W        W22523   7.179   3.012  38.046  0.1418 -0.1980 -0.1992
18224W        W22524   5.913   2.222  35.760 -0.0600  0.1919  0.2965
18225W        W22525  16.333   4.477  17.334  0.1931  0.0452 -0.2301
18226W        W22526  10.362   5.893   3.353  0.0071 -0.2333  0.0897
18227W        W22527   4.603   0.535  36.164  0.2772 -0.0776 -0.2503
18228W        W22528   4.585   5.188   1.810  0.0921 -0.0795  0.1568
18229W        W22529  20.393   4.226  12.734 -0.2244 -0.3540 -0.3603
18230W        W22530  18.954   1.831  34.759  0.1988  0.0938  0.2647
18231W        W22531   4.317   4.898   5.363 -0.1764 -0.0902 -0.0630
18232W        W22532   2.803   5.494   1.661 -0.0936  0.0090 -0.0543
18233W        W22533  13.746   4.037  43.447 -0.0625  0.1532  0.0002
18234W        W22534  16.378   5.969   0.138 -0.3166 -0.0298 -0.1708
18235W        W22535   3.309   0.612   8.406 -0.0810 -0.0743 -0.0331
18236W        W22536  15.460   6.593  37.847 -0.0832  0.3955 -0.1791
18237W        W22537   8.760   2.267  16.890 -0.0172 -0.0145 -0.0176
18238W        W22538  21.068   6.272   0.487 -0.0009 -0.2773  0.0220
18239W        W22539  10.231   0.589  25.689 -0.1281 -0.2169  0.1144
18240W        W22540  10.352   1.219   8.089 -0.0133  0.2339  0.2203
18241W        W22541  11.276   6.199  38.307  0.2304 -0.1556 -0.0318
18242W        W22542  13.785   1.583   2.275 -0.4166 -0.2282 -0.1594
18243W        W22543  12.562   4.164   7.075  0.0377  0.0469  0.0530
18244W        W22544   0.949   0.393  16.435  0.0477 -0.1242  0.0813
18245W        W22545  14.591   1.617   5.701 -0.0669 -0.1156  0.3366
18246W        W22546   0.265   3.003  27.850  0.0313 -0.1071  0.0560
18247W        W22547   7.884   5.120   9.746  0.3080 -0.0160 -0.1076
18248W        W22548  14.775   0.151  29.491  0.2428 -0.0401  0.0784
18249W        W22549   5.157   2.561  36.751 -0.0398  0.0054 -0.1871
18250W        W22550  15.412   1.096   1.063  0.3270  0.1012  0.0753
18251W        W22551   3.559   1.685  43.614  0.0541  0.0616 -0.4289
18252W        W22552  16.932   3.045  43.391 -0.2549  0.0919  0.0833
18253W        W22553  13.957   2.111  20.768 -0.1457  0.0722  0.0379
18254W        W22554   4.716   3.596  22.019  0.1064  0.1860 -0.0975
18255W        W22555   5.865   3.861   0.734 -0.2202 -0.0440  0.0387
18256W        W22556  17.584   6.266  38.684  0.3470 -0.1371  0.3896
18257W        W22557   4.795   0.934  43.116  0.2841 -0.0534 -0.1093
18258W        W22558   1.901   0.888  35.191  0.2383  0.2209  0.0982
18259W        W22559   6.425   1.611  31.131  0.2432  0.1242  0.1899
18260W        W22560  13.842   6.096  42.206 -0.0956 -0.3011  0.0889
18261W        W22561  14.003   3.731  31.645 -0.3089  0.0368  0.1280
18262W        W22562  16.184   2.196  32.938 -0.0949 -0.2716  0.0896
18263W        W22563   7.978   1.057  13.041  0.0899  0.2828  0.0895
18264W        W22564   3.096   4.989  28.036 -0.1603  0.0304  0.1018
18265W        W22565  13.820   3.204  13.963  0.1390  0.0453 -0.0597
18266W        W22566   7.261   3.972  34.318 -0.1410  0.2030 -0.1463
18267W        W22567  17.338   2.172  22.424 -0.0604 -0.2084  0.2450
18268W        W22568  14.027   6.280  42.793  0.2749  0.3010 -0.0666
18269W        W22569   4.389   2.705  14.944 -0.0211 -0.0252 -0.0964
18270W        W22570   5.822   2.731  35.767 -0.2483 -0.0096 -0.2637
18271W        W22571   4.847   6.478   6.752 -0.1082  0.0172 -0.0737
18272W        W22572  12.509   2.675  36.942  0.1216 -0.1278  0.0849
18273W        W22573  11.235   4.164   4.274  0.2794  0.1247  0.0356
18274W        W22574   9.466   0.427  33.602 -0.0015  0.4448  0.6021
18275W        W22575  12.944   3.678   8.735 -0.1725 -0.2379  0.1942
18276W        W22576  21.007   1.526  33.275  0.0894  0.1223 -0.1014
18277W        W22577   9.446   6.106  25.064  0.2165 -0.1318 -0.0186
18278W        W22578  13.356   6.100   6.959 -0.1284  0.1918  0.1992
18279W        W22579   1.729   0.355   6.709 -0.1811 -0.0945 -0.0899
18280W        W22580   5.720   2.342  21.380  0.0098  0.0834  0.2976
18281W        W22581   9.534   0.364  24.550 -0.1622 -0.3653  0.2392
18282W        W22582   7.831   5.948  44.781 -0.0936 -0.0490  0.0877
18283W        W22583   2.272   0.250  13.507  0.2811  0.1998 -0.1959
18284W        W22584   9.954   5.225   6.777 -0.0705  0.0127 -0.1300
18285W        W22585   1.164   0.873   2.226  0.0819  0.0482  0.3432
18286W        W22586   1.088   0.266  39.793 -0.1802  0.2579 -0.0393
18287W        W22587  19.847   4.718  28.864 -0.2805  0.4816  0.0085
18288W        W22588  17.221   5.658  34.826 -0.0448 -0.0767  0.0285
18289W        W22589   5.747   5.648  31.728 -0.5121  0.1129 -0.2341
18290W        W22590   3.129   0.321  42.605 -0.1223  0.1019 -0.0102
18291W        W22591  15.867   0.432  43.447 -0.0145 -0.0143 -0.2977
18292W        W22592   7.813   5.421  15.976  0.0734  0.3579 -0.0391
18293W        W22593   6.926   3.882  32.742 -0.1816  0.2054 -0.1000
18294W        W22594   7.137   0.039  33.662 -0.1036 -0.2217  0.2628
18295W        W22595  14.285   1.283  30.733 -0.2467 -0.0694  0.0185
18296W        W22596  20.695   4.525   3.950 -0.0090  0.3710  0.1531
18297W        W22597  18.649   3.754   3.218  0.2184 -0.0828  0.1027
18298W        W22598  11.670   4.354  32.105  0.0933 -0.0998  0.3541
18299W        W22599  14.375   1.738  34.253  0.1301 -0.0442  0.1217
18300W        W22600   1.400   4.458  39.893 -0.1007 -0.0558  0.0099
18301W        W22601   7.791   1.115  43.099  0.1954 -0.1966 -0.1213
18302W        W22602  10.159   3.574  42.897  0.1788 -0.0020 -0.2783
18303W        W22603  15.992   3.420  15.862 -0.0670 -0.0041 -0.0949
18304W        W22604  11.977   5.517  18.247 -0.0171  0.1788 -0.1310
18305W        W22605   2.873   5.882   9.196  0.1198  0.0066  0.0940
18306W        W22606  17.980   3.167  44.332 -0.2826  0.2474  0.1769
18307W        W22607  19.836   1.246   8.018 -0.0779 -0.0963  0.0673
18308W        W22608  12.150   6.359  19.043 -0.0988  0.0799 -0.1727
18309W        W22609  15.299   5.889   5.559  0.3813  0.1176  0.0651
18310W        W22610   0.013   3.597  14.351 -0.3456  0.0789 -0.0353
18311W        W22611   5.534   3.828  24.394  0.2897  0.1214  0.4806
18312W        W22612   6.791   1.160   7.340 -0.3190  0.0839 -0.1707
18313W        W22613   6.766   5.363  33.728  0.1774 -0.3246 -0.1489
18314W        W22614   1.517   2.013  37.063 -0.0308 -0.1298 -0.1848
18315W        W22615   8.915   3.233  25.758  0.1776 -0.3253 -0.3156
18316W        W22616   4.989   0.294  14.085 -0.1067 -0.0376 -0.0423
18317W        W22617  12.849   5.854  41.613  0.0913  0.1582 -0.0346
18318W        W22618  20.936   1.415  32.507 -0.0604 -0.2663  0.0946
18319W        W22619  17.117   0.927  17.857 -0.1100 -0.0513 -0.2708
18320W        W22620  18.091   2.839   1.975 -0.0249  0.1555 -0.1874
18321W        W22621   3.926   1.407  42.756 -0.2387  0.0079 -0.0256
18322W        W22622   2.320   2.678  37.049 -0.1327  0.2266 -0.0362
18323W        W22623   5.295   1.601  34.820 -0.1111 -0.1111 -0.1254
18324W        W22624  11.400   3.339  32.885 -0.2784 -0.0433 -0.0723
18325W        W22625  15.723   1.818  33.758  0.1356 -0.2876 -0.2112
18326W        W22626  20.352   0.884  18.901  0.0511 -0.0590  0.1143
18327W        W22627   2.200   4.323   3.836 -0.1521 -0.1376 -0.0438
18328W        W22628  21.059   0.274  31.954 -0.1804  0.2491 -0.1684
18329W        W22629  20.474   2.149  30.845 -0.1495  0.1000  0.1993
18330W        W22630  18.392   3.843  38.233 -0.2037 -0.3767  0.1477
18331W        W22631   6.948   0.066  15.069  0.0377 -0.0896  0.3415
18332W        W22632   8.334   2.287   4.903  0.2408 -0.1552 -0.2378
18333W        W22633   2.066   4.105  25.812 -0.1333 -0.1259  0.0483
18334W        W22634   6.642   4.119  44.090  0.0049  0.4026 -0.0554
18335W        W22635   7.921   2.617  45.066  0.1076 -0.0130  0.0242
18336W        W22636  13.138   6.260  41.664  0.0675 -0.1673 -0.1069
18337W        W22637   3.515   2.807   1.333  0.4678 -0.0389  0.0949
18338W        W22638  10.693   0.581  40.597 -0.0934  0.1245  0.2088
18339W        W22639  11.562   1.134  38.846  0.1548  0.1647 -0.2150
18340W        W22640   6.697   2.477   8.894  0.1208  0.2129  0.4421
18341W        W22641  12.128   1.505  15.931  0.0248  0.0751  0.2471
18342W        W22642   6.799   3.113  43.559  0.1479 -0.2192  0.1737
18343W        W22643   8.178   3.636   9.148 -0.0543  0.0865 -0.0565
18344W        W22644   4.398   5.179  33.682 -0.0355 -0.2634  0.0550
18345W        W22645   1.287   5.990  35.933  0.1031 -0.0707  0.0804
18346W        W22646   9.008   1.091  38.496 -0.0726  0.1968  0.1204
18347W        W22647   6.542   5.890  44.346  0.1344  0.1094  0.1392
18348W        W22648   8.027   5.522  32.273  0.1701  0.2001 -0.2753
18349W        W22649  14.601   2.801  32.468  0.0596  0.0888  0.2392
18350W        W22650  18.997   1.810  16.152 -0.0854 -0.0271  0.1898
18351W        W22651  13.026   1.582  28.473  0.1278 -0.1114  0.1322
18352W        W22652  20.106   5.386  13.755  0.1363 -0.1514 -0.0639
18353W        W22653  11.549   6.392  16.806 -0.0277 -0.1151 -0.0327
18354W        W22654  17.391   6.356  14.815 -0.0415 -0.2042 -0.0912
18355W        W22655  11.691   3.948  45.049 -0.0875 -0.0927 -0.0042
18356W        W22656   7.030   2.727  14.464 -0.1705 -0.0279  0.1192
18357W        W22657  14.919   5.882  44.292 -0.0000 -0.0768 -0.1969
18358W        W22658  11.936   1.681  12.856 -0.3363 -0.2323 -0.1571
18359W        W22659   3.122   4.847  14.204  0.1585 -0.1485 -0.0248
18360W        W22660   1.011   4.297   7.991 -0.2529  0.0285  0.0480
18361W        W22661   6.855   5.005   1.064 -0.0930 -0.2754 -0.2182
18362W        W22662   8.077   3.182  22.934  0.1024  0.1917  0.0090
18363W        W22663  17.806   5.967  33.270  0.1103  0.4153  0.0150
18364W        W22664   2.462   2.999  33.871  0.0045 -0.0067 -0.1207
18365W        W22665   8.273   5.035  42.741  0.0753 -0.0493 -0.2442
18366W        W22666  14.249   3.281  28.771  0.3315 -0.0262  0.1586
18367W        W22667  17.975   3.902   0.266  0.1784 -0.1677  0.0600
18368W        W22668  14.021   2.969   4.195  0.1633 -0.0320  0.0840
18369W        W22669  12.585   0.333  31.515 -0.2547  0.0257  0.2438
18370W        W22670   8.519   5.859  14.840  0.1787 -0.3057  0.0570
18371W        W22671  20.097   5.674  38.536  0.1097  0.0407 -0.1030
18372W        W22672   6.064   5.451   3.700 -0.0314  0.2914 -0.1822
18373W        W22673  11.315   3.339  30.169  0.1977 -0.1025 -0.1212
18374W        W22674  10.310   6.264  15.460  0.2934  0.0037 -0.0772
18375W        W22675  19.657   3.765  34.559  0.0141  0.0017  0.1292
18376W        W22676   3.967   1.383  33.023  0.2998 -0.0642  0.2885
18377W        W22677  20.892   0.076   7.600 -0.4070 -0.0910 -0.0637
18378W        W22678  15.123   5.959  18.059  0.2895  0.0903  0.1129
18379W        W22679   5.545   5.608   1.910 -0.2024 -0.1565  0.0912
18380W        W22680  14.614   6.350  30.205  0.0019  0.3518 -0.0450
18381W        W22681  15.897   2.686  31.312 -0.1638  0.0491  0.1753
18382W        W22682  19.086   6.261  10.411 -0.0533 -0.0585 -0.0137
18383W        W22683   9.934   0.261   2.324 -0.3022  0.1675  0.3739
18384W        W22684   9.649   2.507  39.046 -0.1070  0.0126  0.2254
18385W        W22685   9.134   4.211  44.993 -0.1199  0.0368  0.2393
18386W        W22686   2.407   0.209  36.998 -0.0193 -0.1071 -0.0671
18387W        W22687  15.217   3.713   8.903  0.5321 -0.0911  0.1338
18388W        W22688   6.825   0.328   7.681 -0.0069  0.2960 -0.2134
18389W        W22689   7.987   4.560   6.088 -0.0994  0.1590  0.1169
18390W        W22690  13.022   2.567  41.971  0.1450  0.1437 -0.1219
18391W        W22691  11.250   1.695  36.143  0.1785 -0.2096 -0.0231
18392W        W22692  16.274   0.023  36.275 -0.2900 -0.0763 -0.1512
18393W        W22693  16.315   0.516  30.305 -0.2575 -0.0588 -0.0367
18394W        W22694  14.106   0.886  39.608 -0.0528 -0.0652  0.0050
18395W        W22695   7.712   0.704   1.410  0.4792 -0.2922 -0.2061
18396W        W22696  18.446   3.527  17.868  0.2295 -0.1265  0.0375
18397W        W22697  14.141   5.181  43.591 -0.2676  0.3881  0.0274
18398W        W22698  13.789   3.505  32.033  0.0563 -0.1806 -0.0790
18399W        W22699  16.367   1.672   4.344 -0.1179  0.0270  0.5815
18400W        W22700  13.044   2.082  29.024 -0.2143 -0.1182  0.3958
18401W        W22701  17.615   4.880  10.090 -0.4194  0.2169  0.0890
18402W        W22702   0.866   3.042  35.299 -0.2793  0.2275 -0.1712
18403W        W22703  14.306   4.789   2.059  0.2450  0.1576 -0.0130
18404W        W22704   5.171   2.190  23.691  0.0073  0.0994  0.0893
18405W        W22705   5.720   3.671  42.853  0.1803  0.3522  0.1150
18406W        W22706  15.671   4.901   8.768  0.0796 -0.0428 -0.1270
18407W        W22707  16.288   6.315  28.733  0.2141  0.0792 -0.3722
18408W        W22708  20.869   4.842  32.807 -0.0935  0.1395 -0.0975
18409W        W22709   2.466   3.403  33.437 -0.1288  0.0189  0.2980
18410W        W22710   7.886   1.014  34.067 -0.2307 -0.2530  0.1365
18411W        W22711  15.727   2.948   7.575  0.3443  0.2648 -0.0975
18412W        W22712  12.649   1.393  30.682 -0.1167 -0.3240  0.0321
18413W        W22713   6.719   3.221  30.514 -0.2176 -0.0288  0.0786
18414W        W22714  17.072   1.866  13.165  0.1021  0.0054  0.1976
18415W        W22715   4.718   1.867  26.737 -0.0136 -0.1217  0.0435
18416W        W22716  10.801   5.400  31.201 -0.0262  0.1141 -0.0763
18417W        W22717  10.327   5.597  29.256 -0.0818 -0.1388 -0.0265
18418W        W22718   3.301   1.212  36.565 -0.2063  0.0532  0.0379
18419W        W22719   5.372   3.444  12.659  0.3308  0.3308  0.0205
18420W        W22720   4.277   0.945  24.519  0.0071 -0.0509 -0.1161
18421W        W22721  13.391   3.389  41.438  0.1003 -0.1015 -0.3113
18422W        W22722   6.354   2.462   9.280  0.2208  0.0805 -0.2802
18423W        W22723  16.182   3.250   6.389 -0.0502 -0.1027 -0.2643
18424W        W22724   0.839   4.815  36.851 -0.4813  0.1834 -0.1281
18425W        W22725   6.283   2.066  27.093 -0.0382 -0.3074  0.0911
18426W        W22726  13.484   3.228   4.542  0.1594 -0.1125 -0.1625
18427W        W22727  10.800   1.614   9.499  0.1377 -0.2085 -0.4580
18428W        W22728   5.690   4.235   6.148 -0.0049  0.1198 -0.0311
18429W        W22729   5.062   4.442  35.136  0.1135  0.2309  0.0376
18430W        W22730   1.374   0.220  15.464  0.3043 -0.0006  0.0078
18431W        W22731   8.748   3.673  27.012  0.0063  0.2427 -0.1238
18432W        W22732  13.368   1.085  33.116 -0.0218 -0.0730  0.1052
18433W        W22733   3.144   0.528  37.840  0.1034 -0.1030 -0.0624
18434W        W22734   5.460   6.220  10.359 -0.1218  0.0826 -0.3288
18435W        W22735   8.560   5.275  40.071  0.2039 -0.0240 -0.0054
18436W        W22736   9.105   2.902   6.377 -0.3962 -0.1201  0.0940
18437W        W22737  14.519   6.040  28.242 -0.0158 -0.1039 -0.3371
18438W        W22738   4.695   4.932  30.166  0.2026  0.0525 -0.3556
18439W        W22739   8.971   4.885   5.131 -0.0142 -0.0345 -0.0608
18440W        W22740  18.766   4.758  13.525 -0.1533 -0.2180 -0.2878
18441W        W22741  14.668   4.749  35.308  0.0190 -0.3298  0.1865
18442W        W22742   5.764   4.593  15.937  0.2647 -0.2139  0.0486
18443W        W22743   1.409   2.658  38.036  0.1463 -0.0220  0.1698
18444W        W22744   9.343   1.601  26.244 -0.0697  0.0895  0.2097
18445W        W22745  20.403   0.501   1.230  0.0208  0.1763 -0.1452
18446W        W22746   2.362   5.451   9.756  0.2232 -0.1459 -0.0455
18447W        W22747   4.575   5.578  44.360  0.0745  0.0172 -0.2039
18448W        W22748  19.436   5.174  33.134  0.2464  0.1219 -0.1853
18449W        W22749  17.660   6.137  11.856 -0.3400 -0.1524  0.1856
18450W        W22750   4.308   3.722  10.279 -0.0198 -0.0148 -0.0633
18451W        W22751   5.936   5.459  22.628 -0.2577 -0.0060  0.4115
18452W        W22752   3.176   2.411  23.193  0.3456  0.0122 -0.1728
18453W        W22753   1.193   5.125  36.540  0.2522 -0.0024 -0.2675
18454W        W22754  16.809   0.880   0.271 -0.0433 -0.1067 -0.0350
18455W        W22755  13.531   3.206  10.182 -0.0495 -0.0468  0.1367
18456W        W22756   0.918   2.984  10.460 -0.0389 -0.2220 -0.0884
18457W        W22757  18.106   4.441  16.512  0.0383  0.1800  0.0045
18458W        W22758   2.547   2.256  40.480  0.0903 -0.2526 -0.0507
18459W        W22759   6.755   0.304  15.952 -0.1333 -0.5415  0.1446
18460W        W22760  11.678   6.362  38.695 -0.0589  0.1427  0.2735
18461W        W22761   0.011   0.305  42.892 -0.1454  0.2414  0.0461
18462W        W22762  16.094   3.732  33.754 -0.0969  0.0895 -0.1652
18463W        W22763  17.312   1.098  31.823  0.0382 -0.0425  0.0102
18464W        W22764  12.738   0.395  10.336  0.2668  0.4356  0.2240
18465W        W22765   5.128   1.372  40.962 -0.2709  0.0753  0.0086
18466W        W22766   6.851   4.209  24.188 -0.1347 -0.2280 -0.0128
18467W        W22767  16.142   1.138  23.087  0.2286  0.0334 -0.0746
18468W        W22768  18.261   4.095  40.715 -0.0675 -0.3622 -0.1308
18469W        W22769   6.161   3.988  26.155  0.1932 -0.1244  0.1710
18470W        W22770  13.377   6.350  37.211 -0.0049 -0.0718 -0.1503
18471W        W22771  13.174   5.050  39.049  0.0970 -0.1852  0.2549
18472W        W22772  12.753   0.797   8.197  0.0678  0.1523 -0.1626
18473W        W22773   1.336   2.105  28.758  0.0298 -0.1064 -0.1505
18474W        W22774   5.294   0.360  29.263  0.0753 -0.1405 -0.0718
18475W        W22775  13.264   1.146   9.801 -0.0266  0.1400  0.0155
18476W        W22776  14.010   2.069   5.173 -0.2050  0.0161 -0.0283
18477W        W22777  18.203   5.184  22.174 -0.0761  0.0266  0.0720
18478W        W22778   1.000   6.064  34.914 -0.0353 -0.3998  0.1464
18479W        W22779  11.247   3.663  32.548 -0.1604  0.1173 -0.1505
18480W        W22780   4.787   4.133  23.850 -0.1573 -0.2307  0.1505
18481W        W22781  16.697   6.190  14.138 -0.0330 -0.0355 -0.0755
18482W        W22782   4.309   0.843   7.612 -0.2403  0.0341 -0.0803
18483W        W22783   7.428   4.029  13.842  0.0377  0.0096 -0.2356
18484W        W22784   1.479   5.450  27.535 -0.0136 -0.0470 -0.3155
18485W        W22785   7.137   3.422  41.596 -0.0930  0.1277  0.2617
18486W        W22786  15.501   1.963  19.042  0.1140  0.1407 -0.1411
18487W        W22787  18.530   6.506  13.938 -0.0480 -0.4632 -0.6301
18488W        W22788  18.754   0.012  12.963  0.3208 -0.2350 -0.1222
18489W        W22789  16.775   6.231  34.197  0.1679 -0.1971  0.0954
18490W        W22790   1.478   1.898  30.212 -0.3087  0.2542 -0.1493
18491W        W22791   1.665   3.645  32.788 -0.1644 -0.0984 -0.3423
18492W        W22792  15.009   1.004  12.829  0.0119 -0.0018  0.1236
18493W        W22793  20.153   0.298  12.829  0.0959 -0.4085  0.0397
18494W        W22794   7.384   6.022  44.643 -0.2176 -0.2638  0.1585
18495W        W22795  19.365   5.167   2.931 -0.2436 -0.2084  0.1335
18496W        W22796   3.310   4.070   3.250  0.3282 -0.0004 -0.2816
18497W        W22797  12.181   1.219   3.604 -0.1615  0.1049  0.3080
18498W        W22798  15.075   5.921  21.903 -0.0407 -0.1774  0.0952
18499W        W22799  16.725   5.524  32.392 -0.0711  0.1482 -0.1787
18500W        W22800   5.805   0.174  28.185  0.1340 -0.2068  0.0399
18501W        W22801  14.595   2.111   2.258  0.0728 -0.0526 -0.1770
18502W        W22802   1.878   2.948  27.245 -0.1560  0.0112  0.2112
18503W        W22803   2.529   1.083   9.732  0.0219 -0.0223 -0.1110
18504W        W22804   3.064   0.368  30.307 -0.0761  0.1776 -0.1468
18505W        W22805   1.457   2.240  11.913  0.0895  0.2173  0.1001
18506W        W22806   6.061   6.473  14.706  0.0743 -0.2655  0.1730
18507W        W22807  21.084   2.891  10.830  0.1271 -0.1176  0.0008
18508W        W22808   4.278   5.315  35.840  0.1942  0.0240 -0.1544
18509W        W22809  20.246   5.627  10.281 -0.0068  0.1395 -0.3486
18510W        W22810  10.150   2.331  29.624  0.1661  0.0364  0.0906
18511W        W22811  16.642   5.680  39.768 -0.3024 -0.0409 -0.1971
18512W        W22812   0.811   0.983   1.481 -0.1918 -0.1266  0.1107
18513W        W22813  12.918   5.076  19.755  0.0693 -0.0813 -0.1453
18514W        W22814   2.692   3.181   7.029  0.2397 -0.0684  0.5099
18515W        W22815   6.472   2.249  24.689 -0.1711  0.0523 -0.0397
18516W        W22816   2.277   6.234  10.073 -0.0306  0.0915 -0.0171
18517W        W22817   1.173   4.930  31.147 -0.0329 -0.2483  0.1325
18518W        W22818  20.423   5.855  43.247  0.2714  0.0985 -0.0022
18519W        W22819   9.021   6.187   7.266  0.1190  0.1315 -0.1536
18520W        W22820  20.130   5.955  33.546 -0.2450  0.0196 -0.1656
18521W        W22821   6.388   0.974  27.485  0.0252  0.4658  0.0514
18522W        W22822   0.332   3.586   0.169 -0.1708 -0.0287 -0.0966
18523W        W22823   4.922   4.491   6.858  0.1867 -0.1020 -0.0460
18524W        W22824  15.276   4.639  11.054  0.1246 -0.0445 -0.1447
18525W        W22825   4.924   5.529  24.567 -0.1708  0.1057 -0.0282
18526W        W22826   5.287   0.267  31.663  0.3357 -0.2583 -0.3173
18527W        W22827  12.389   3.377  29.409  0.0960  0.0454 -0.2617
18528W        W22828   5.628   0.756  15.921  0.0240 -0.0734  0.1595
18529W        W22829   2.967   3.284  25.078  0.1961  0.4703  0.0310
18530W        W22830   9.337   4.537  14.408 -0.2862  0.2513 -0.0438
18531W        W22831   3.663   3.320  25.605 -0.1778  0.2077  0.2998
18532W        W22832  18.833   1.922  10.557  0.0651  0.0150 -0.0913
18533W        W22833  12.699   1.588  17.673 -0.1099 -0.2157  0.1186
18534W        W22834  14.191   2.208  16.971 -0.4977 -0.1846  0.1370
18535W        W22835   9.830   2.227   4.283  0.0820 -0.4426 -0.0184
18536W        W22836  17.053   0.829  33.179 -0.4410  0.0351  0.1123
18537W        W22837  20.305   5.485  30.026  0.0320  0.2714  0.2191
18538W        W22838   2.309   1.658  23.818 -0.0283 -0.0755 -0.0283
18539W        W22839   0.450   3.480  43.956 -0.2296  0.1060 -0.0392
18540W        W22840   0.970   0.789  44.286  0.0983 -0.1356 -0.2009
18541W        W22841   7.244   2.005   7.517 -0.0224 -0.3562 -0.0874
18542W        W22842   7.158   6.068  11.862 -0.6905  0.0487 -0.2920
18543W        W22843   5.544   0.518  36.076  0.1996 -0.2714  0.0285
18544W        W22844  18.401   3.511   8.722 -0.0226 -0.1094 -0.0191
18545W        W22845   2.511   2.631   8.479 -0.1509 -0.1006  0.0953
18546W        W22846   5.133   3.182  29.831 -0.0454  0.1196 -0.4677
18547W        W22847   3.136   4.081  38.968 -0.0212 -0.0438  0.0513
18548W        W22848  19.649   2.206  30.349 -0.0426  0.2880 -0.2970
18549W        W22849  14.026   5.866   1.881  0.0899  0.0904 -0.3264
18550W        W22850  10.074   4.417  30.624  0.0536  0.0652 -0.2968
18551W        W22851  18.197   1.104  43.097  0.1724  0.0766 -0.2132
18552W        W22852   7.120   3.055  28.151 -0.1405  0.1954  0.4294
18553W        W22853  19.927   3.786   7.281 -0.0346 -0.0768  0.0528
18554W        W22854   3.376   5.444  25.038  0.0954  0.0489  0.4655
18555W        W22855  17.169   4.779   0.810 -0.1479 -0.1619 -0.2617
18556W        W22856   4.976   2.589  27.654 -0.1142  0.2462 -0.2366
18557W        W22857  12.073   4.789  10.853 -0.1290  0.1058  0.1224
18558W        W22858   6.621   3.264  34.819 -0.1469  0.0147 -0.2008
18559W        W22859  17.030   2.523   5.477 -0.0449 -0.2149  0.1684
18560W        W22860  11.363   4.596   3.803  0.0316  0.0914 -0.2117
18561W        W22861   4.368   4.494  32.558  0.0659  0.1904  0.1053
18562W        W22862  11.903   2.893  10.439  0.3597  0.0009 -0.0033
18563W        W22863   8.230   5.975  33.492 -0.1928 -0.0658  0.1254
18564W        W22864  12.548   6.342  44.652  0.1502  0.2317 -0.0296
18565W        W22865   3.611   1.366   1.590  0.0047 -0.2242 -0.3336
18566W        W22866   3.183   5.546  26.872 -0.1686 -0.4047 -0.1158
18567W        W22867  16.229   2.247  17.254 -0.0718 -0.2738 -0.0625
18568W        W22868   0.096   5.163  33.017  0.0021  0.0809 -0.2504
18569W        W22869  21.126   6.531  39.492 -0.0796  0.1082 -0.0401
18570W        W22870   8.247   1.222  45.070 -0.0711  0.1811 -0.1958
18571W        W22871   9.306   2.175  29.115  0.1503 -0.3871 -0.0396
18572W        W22872  17.504   3.640  32.176 -0.3684  0.0392  0.2203
18573W        W22873   0.474   3.179  10.696 -0.1213 -0.0714  0.0562
18574W        W22874  13.590   5.112  21.354 -0.2312  0.3186  0.0964
18575W        W22875   6.825   3.272   7.157 -0.2735 -0.1290 -0.3111
18576W        W22876  13.239   1.133  16.647  0.2059  0.0291 -0.1503
18577W        W22877   1.729   2.823   6.920 -0.2018  0.0831  0.5788
18578W        W22878   4.479   5.152  11.295  0.3020  0.1025 -0.2184
18579W        W22879  11.632   4.549  14.095 -0.0062 -0.2271  0.0611
18580W        W22880   3.390   1.498  14.733 -0.0588  0.0879 -0.1255
18581W        W22881   0.142   6.363   4.131 -0.0672  0.2034  0.3398
18582W        W22882  20.576   1.486  45.015 -0.1159  0.0047  0.2078
18583W        W22883   8.678   3.126   3.324 -0.2338  0.2072 -0.3999
18584W        W22884  13.771   0.581  17.612  0.4552  0.0051  0.0068
18585W        W22885  13.728   1.752  13.762 -0.1145 -0.1831  0.2056
18586W        W22886   1.430   6.251  32.095 -0.2369 -0.0423  0.1470
18587W        W22887  14.553   4.417   1.802  0.0480 -0.0912  0.1467
18588W        W22888  20.727   3.184  28.627  0.0751  0.1830 -0.0446
18589W        W22889   8.736   1.407  36.070 -0.2363  0.1377  0.1657
18590W        W22890  18.419   4.704  14.270 -0.1869 -0.1543 -0.0568
18591W        W22891   4.385   3.725  31.311  0.1910 -0.1875  0.2252
18592W        W22892  18.034   3.329   7.149  0.2724  0.1810 -0.3805
18593W        W22893  18.820   2.621  20.253  0.1829  0.1437 -0.3322
18594W        W22894   9.289   4.808  37.793  0.1467 -0.0271  0.0619
18595W        W22895   5.031   0.029  45.067  0.0525  0.2395 -0.3815
18596W        W22896  14.411   5.907  14.646 -0.1135 -0.1689 -0.1545
18597W        W22897   5.137   1.452  22.279 -0.1296 -0.1520  0.1706
18598W        W22898   2.074   1.038   4.037 -0.1998  0.1738  0.1389
18599W        W22899   5.290   3.267   9.508  0.3481  0.1053 -0.0051
18600W        W22900  19.431   5.752  33.124  0.2244  0.0862  0.0049
18601W        W22901   5.297   0.983  32.864 -0.1684  0.1733 -0.0484
18602W        W22902  20.830   3.461   3.057 -0.0003 -0.1366 -0.0701
18603W        W22903  20.290   1.590   3.407 -0.2920  0.4595 -0.0377
18604W        W22904  12.934   0.958  40.085 -0.3474 -0.1716  0.1423
18605W        W22905   0.931   3.971   3.236 -0.0223 -0.0581 -0.0527
18606W        W22906   0.385   4.361  37.802  0.1261  0.0660 -0.3733
18607W        W22907  18.045   4.066  22.324 -0.1984  0.2574  0.0766
18608W        W22908  11.609   0.607  10.924  0.0976 -0.0101  0.0872
18609W        W22909   4.437   6.343   8.462 -0.1482  0.0401  0.0448
18610W        W22910   5.875   4.183  20.655 -0.1209 -0.3436  0.0434
18611W        W22911  10.288   1.653   9.988 -0.0069 -0.2941  0.0969
18612W        W22912  13.174   1.139   2.764  0.0435 -0.0580 -0.0039
18613W        W22913  14.958   2.170   3.582 -0.0151  0.1868  0.0517
18614W        W22914   1.020   2.089  38.312  0.3269 -0.0289 -0.0290
18615W        W22915  16.100   1.607  25.501  0.3536  0.2668 -0.1166
18616W        W22916   1.338   2.629   2.950  0.1315 -0.2914 -0.1317
18617W        W22917   0.874   0.334  41.625 -0.2362  0.0878  0.1751
18618W        W22918   9.156   4.798  25.352  0.3834  0.1867 -0.2160
18619W        W22919  18.714   2.468   9.899 -0.0051  0.2034 -0.0044
18620W        W22920  11.217   3.494  10.012  0.0611 -0.0453  0.1730
18621W        W22921   9.161   3.591   3.860 -0.0487  0.0709 -0.2166
18622W        W22922  11.154   0.993  41.718  0.0551  0.1478 -0.0626
18623W        W22923  16.281   5.865  39.207  0.0962  0.2887 -0.0290
18624W        W22924   1.998   1.970  32.837  0.1357  0.0484  0.0028
18625W        W22925   5.268   4.280  11.928 -0.0294  0.1643  0.3085
18626W        W22926   4.179   1.875  41.823  0.3297  0.3109 -0.0772
18627W        W22927  12.700   0.935   0.068 -0.3121  0.1174  0.1064
18628W        W22928  13.745   4.112  31.491 -0.2340  0.0862 -0.2255
18629W        W22929   7.704   6.295  39.866 -0.0422  0.2894  0.2008
18630W        W22930  10.718   3.105  29.284 -0.0476 -0.2382 -0.1437
18631W        W22931   6.644   5.169  23.108 -0.2736  0.0568 -0.1282
18632W        W22932  18.089   5.485  35.552  0.1084 -0.1367  0.1224
18633W        W22933  10.628   0.717   7.398  0.2438  0.0708  0.2115
18634W        W22934  11.953   3.289  17.921 -0.1790  0.0832  0.0870
18635W        W22935  16.144   0.612  36.933 -0.3040  0.2474 -0.2378
18636W        W22936   7.062   1.183  14.464 -0.0050  0.0991  0.1764
18637W        W22937  10.032   5.957  27.491 -0.2891 -0.2764 -0.2912
18638W        W22938   1.311   0.954  42.929  0.0034 -0.1892 -0.1715
18639W        W22939  20.909   4.692  16.710 -0.1037 -0.1100  0.0734
18640W        W22940   3.338   4.545  14.628  0.3557  0.0542 -0.0246
18641W        W22941  16.342   6.165  24.574  0.1264 -0.1172 -0.0369
18642W        W22942   0.625   4.743  34.927 -0.1159 -0.2117  0.1518
18643W        W22943  17.947   3.689   2.734 -0.0128 -0.0382 -0.1568
18644W        W22944  10.515   4.440  41.764 -0.1128  0.0065  0.0161
18645W        W22945  11.215   0.445  40.718  0.0495  0.2490  0.0830
18646W        W22946  16.779   3.375  19.187  0.1009 -0.3149 -0.4671
18647W        W22947  20.675   5.742   2.809  0.3083  0.0950 -0.0678
18648W        W22948   1.065   3.401  32.669  0.1748  0.0575  0.2370
18649W        W22949   1.064   5.976   5.879 -0.1697  0.1170  0.4983
18650W        W22950  11.791   4.961  40.529 -0.0534 -0.0127 -0.1573
18651W        W22951   4.037   2.773   9.424  0.3627  0.0169  0.0673
18652W        W22952  17.374   1.765  12.000 -0.1143  0.1400 -0.2201
18653W        W22953  12.291   0.679   4.885 -0.1233 -0.1879 -0.2839
18654W        W22954  15.059   3.667  40.678  0.2385 -0.0633  0.0517
18655W        W22955  11.050   2.851  38.550  0.1774  0.3440  0.0633
18656W        W22956   5.172   4.093  20.447  0.0837 -0.0028 -0.0858
18657W        W22957  15.350   3.151  35.354 -0.3250  0.1403  0.0830
18658W        W22958  14.258   3.088  12.859 -0.0216  0.0437 -0.1736
18659W        W22959   2.711   3.282   7.907  0.1051 -0.1188  0.0459
18660W        W22960   1.275   2.522  39.507  0.2290 -0.0127 -0.1275
18661W        W22961   1.407   1.116   1.340 -0.1385 -0.1932 -0.0673
18662W        W22962  10.980   4.972  12.299 -0.0232  0.0397 -0.1841
18663W        W22963  15.586   6.473  34.968  0.0799  0.1852  0.0009
18664W        W22964  10.749   2.501  31.397  0.2325 -0.1629  0.0751
18665W        W22965  11.128   0.425  14.856  0.1959  0.3170 -0.0759
18666W        W22966  18.781   2.522  39.757 -0.2345 -0.2006  0.3353
18667W        W22967   9.197   0.181  34.164 -0.1273 -0.0214  0.1032
18668W        W22968   6.048   4.812  13.950 -0.0600 -0.0656 -0.1777
18669W        W22969  14.794   4.621  12.242 -0.0616 -0.2512 -0.1593
18670W        W22970  10.719   6.377  37.010 -0.4498 -0.1384 -0.0537
18671W        W22971  20.746   0.802  39.802  0.0362 -0.0398  0.4558
18672W        W22972   9.223   0.429  44.111  0.2229  0.1274 -0.1508
18673W        W22973   0.880   1.873   6.724  0.1794  0.0583 -0.2096
18674W        W22974   0.405   4.116   3.432  0.2384  0.0828 -0.1345
18675W        W22975   3.232   5.937   8.258  0.2761  0.1536  0.2697
18676W        W22976  14.992   4.110  41.478  0.2672 -0.0192  0.2637
18677W        W22977   1.888   6.152  31.886  0.1731 -0.2301  0.0133
18678W        W22978   5.074   3.573  34.923 -0.3032  0.2317  0.2698
18679W        W22979   4.334   3.602   2.673  0.1246 -0.0304  0.0863
18680W        W22980   4.154   0.114  12.949  0.0845 -0.0474  0.1777
18681W        W22981   8.182   2.945  37.186 -0.0443 -0.0253  0.0504
18682W        W22982   2.659   5.405  38.749 -0.3291  0.1288 -0.1877
18683W        W22983  10.058   0.636   8.814 -0.3472 -0.1277 -0.2062
18684W        W22984  13.656   2.882  41.333  0.3124  0.1615 -0.3601
18685W        W22985  12.943   1.540   3.296 -0.2060 -0.0784  0.1330
18686W        W22986   5.515   2.640  11.846  0.0393  0.0788 -0.0782
18687W        W22987  14.848   5.636  22.903  0.1898  0.2143 -0.1081
18688W        W22988  15.941   4.637  44.647  0.0692  0.1466 -0.0287
18689W        W22989   4.098   0.285  34.293  0.0564 -0.0160  0.2660
18690W        W22990   5.144   1.094  14.341  0.0078  0.0688 -0.0212
18691W        W22991  16.640   5.987  14.607 -0.0795 -0.1274  0.2646
18692W        W22992   2.571   1.584   8.698  0.0269 -0.3476 -0.1782
18693W        W22993   7.630   0.739  40.710  0.0644 -0.1060 -0.0130
18694W        W22994   4.367   1.771  42.704  0.0704  0.1850 -0.1948
18695W        W22995  20.284   4.467  17.518  0.1498 -0.0382  0.0698
18696W        W22996  18.304   4.577  12.256 -0.0335 -0.3410 -0.1882
18697W        W22997   0.458   1.372   1.446 -0.1881  0.0588  0.0185
18698W        W22998   4.374   1.834  24.122  0.3541 -0.0100 -0.1625
18699W        W22999   1.419   6.260  28.443  0.1113 -0.2291  0.0800
18700W        W23000   2.738   4.568  34.647  0.0586 -0.2370  0.0738
18701W        W23001  12.696   3.215  28.979  0.1015  0.1704  0.1099
18702W        W23002   1.068   4.498   7.134 -0.0914  0.3920 -0.2575
18703W        W23003   0.194   1.191  14.980  0.0047  0.0998  0.0542
18704W        W23004   3.383   4.067  15.025 -0.1151  0.2734  0.4302
18705W        W23005  16.179   1.201  35.080  0.1087 -0.0852 -0.3617
18706W        W23006   8.472   4.709  38.792  0.4315 -0.1497 -0.0401
18707W        W23007   6.347   6.455  16.715  0.1440 -0.1775 -0.1086
18708W        W23008   8.873   4.032  11.040  0.2289 -0.2586 -0.0900
18709W        W23009   4.065   5.895  24.343  0.1532  0.0664 -0.0033
18710W        W23010  16.234   5.356   9.457 -0.4232 -0.0087 -0.1032
18711W        W23011   0.185   3.125  12.216  0.3201  0.2445 -0.0646
18712W        W23012  12.466   2.344   1.759 -0.2804  0.0504  0.0028
18713W        W23013  10.554   2.782  14.043  0.1212 -0.1337 -0.0801
18714W        W23014  10.975   0.891  12.700 -0.2017  0.4826  0.0191
18715W        W23015  18.100   1.464   1.126  0.2139  0.2611  0.1084
18716W        W23016  19.861   5.558  12.345 -0.6280 -0.0676 -0.1523
18717W        W23017  18.839   0.302   3.322  0.2723  0.1839  0.0977
18718W        W23018  14.290   4.637  36.719 -0.0337 -0.0568  0.0254
18719W        W23019  18.696   6.570  21.262  0.1547 -0.1274 -0.1501
18720W        W23020  12.910   0.249  38.174 -0.1622  0.0386 -0.2109
18721W        W23021   7.880   3.590  23.192 -0.0601  0.0235  0.4388
18722W        W23022   9.768   6.081  29.961 -0.3375  0.0708 -0.0520
18723W        W23023   8.835   4.599  29.873  0.0755 -0.4830  0.2185
18724W        W23024   2.878   0.212  24.635 -0.1930 -0.3023  0.1857
18725W        W23025  19.531   1.631  18.568 -0.1267  0.0848 -0.1948
18726W        W23026  12.816   4.966   3.236  0.0526  0.0777 -0.0738
18727W        W23027   6.971   5.448  43.800  0.1389  0.2220 -0.0175
18728W        W23028  18.868   2.038  15.720  0.1099  0.0683 -0.3476
18729W        W23029  16.281   2.758  19.681  0.1842  0.2367 -0.0527
18730W        W23030  16.248   3.358  36.094  0.1365 -0.1197 -0.0126
18731W        W23031  18.490   3.205  21.161 -0.0045  0.0891  0.1367
18732W        W23032   6.173   3.756  33.670  0.0323  0.2096 -0.0992
18733W        W23033   5.527   3.260  10.984  0.0172  0.0157 -0.0854
18734W        W23034  15.105   5.667  13.721 -0.0947 -0.0476 -0.0885
18735W        W23035  18.717   0.140  19.525 -0.0612  0.0371 -0.1451
18736W        W23036   5.202   4.091  43.978 -0.0282 -0.1213  0.1277
18737W        W23037   9.139   5.952   9.390  0.0277 -0.1967 -0.2679
18738W        W23038  19.156   0.334  19.706  0.0451  0.0739  0.0995
18739W        W23039  19.134   3.101  38.045 -0.1726 -0.1431  0.1575
18740W        W23040  18.696   0.275   7.983  0.2086 -0.0977 -0.1719
18741W        W23041   9.002   4.242   4.453 -0.1418 -0.2617 -0.1919
18742W        W23042   9.165   5.265   3.112  0.0659 -0.0042  0.0064
18743W        W23043  11.330   3.115  31.020  0.3435 -0.0357 -0.0322
18744W        W23044  12.930   3.395   2.946  0.1676 -0.1054  0.0663
18745W        W23045  11.188   3.187  31.889  0.0987  0.1803 -0.0448
18746W        W23046  11.632   2.316  36.838 -0.0911  0.2752 -0.2237
18747W        W23047   8.458   3.336  30.542 -0.2177 -0.1093  0.4023
18748W        W23048   7.971   4.834  41.915  0.0063  0.3029 -0.4126
18749W        W23049  20.602   5.189  14.556  0.6072 -0.1617  0.0768
18750W        W23050   9.739   5.762  25.440  0.1761  0.4111 -0.1132
18751W        W23051   7.897   1.327  42.075  0.0150  0.0252  0.0999
18752W        W23052  20.190   3.981  17.703 -0.3641  0.2565  0.2909
18753W        W23053  13.696   2.242  42.084  0.1973  0.0706 -0.3411
18754W        W23054  12.734   1.257  13.823 -0.0118 -0.3932  0.0946
18755W        W23055   3.124   6.037  40.103 -0.2213  0.0335  0.2799
18756W        W23056   5.365   1.636   6.352 -0.1281  0.2268  0.2170
18757W        W23057   4.034   2.103  23.052 -0.2985  0.0945  0.1164
18758W        W23058  17.406   6.185  16.460 -0.1252 -0.1002  0.2897
18759W        W23059   6.865   5.120  21.812  0.0449  0.0406 -0.1293
18760W        W23060   5.597   1.976   9.902  0.0528  0.3838  0.0379
18761W        W23061   5.613   3.717  27.881  0.0137  0.1410  0.0770
18762W        W23062  10.361   6.183   4.931 -0.1225 -0.1008  0.1314
18763W        W23063  14.023   1.536  10.315 -0.4350  0.0537  0.0529
18764W        W23064  11.785   5.078  31.992  0.1848 -0.0603  0.0899
18765W        W23065  19.154   5.670   7.308  0.0738 -0.0066 -0.0237
18766W        W23066  16.849   6.228   5.172  0.0066  0.2314  0.1969
18767W        W23067   3.109   0.007  44.773 -0.1230  0.1255 -0.1144
18768W        W23068   6.418   0.635  44.999 -0.0589 -0.1950 -0.0570
18769W        W23069   3.671   0.650  31.917 -0.2450 -0.2267  0.1015
18770W        W23070  14.219   3.229  34.307 -0.0303 -0.1071  0.2117
18771W        W23071  20.696   5.320  10.143 -0.1523  0.1493  0.2064
18772W        W23072  10.986   1.501  41.575  0.0800  0.0479 -0.2226
18773W        W23073   6.999   5.896  45.031 -0.1128 -0.1000 -0.1552
18774W        W23074   6.951   2.940  24.585  0.2291  0.1953  0.2300
18775W        W23075   8.537   3.431  33.241 -0.1206 -0.2544  0.1458
18776W        W23076  18.056   1.536  40.315 -0.1090  0.1010  0.2514
18777W        W23077   1.829   1.388  12.536 -0.1297  0.1901  0.1467
18778W        W23078   4.660   1.896  25.811 -0.1350 -0.0875  0.1527
18779W        W23079   1.115   6.137   6.448  0.2634 -0.0582  0.1427
18780W        W23080  13.099   1.361  28.951 -0.0457  0.0198 -0.0979
18781W        W23081  10.035   1.592   6.464 -0.1832  0.3560 -0.0059
18782W        W23082   3.841   3.372  27.922 -0.1651 -0.2773  0.0333
18783W        W23083  15.078   1.683  12.183  0.3014 -0.1417 -0.1709
18784W        W23084   6.825   1.200  39.318 -0.1628 -0.0050 -0.0226
18785W        W23085   7.145   5.048  29.845  0.2851 -0.1625 -0.1432
18786W        W23086   0.155   3.258   9.425 -0.0145  0.1613 -0.1408
18787W        W23087   9.642   5.098  41.214  0.2930  0.1102  0.0242
18788W        W23088   3.808   4.956  37.452  0.1227 -0.2531 -0.1468
18789W        W23089   2.250   3.299   0.539  0.0717 -0.0409 -0.0957
18790W        W23090  19.155   2.720  20.653 -0.2867 -0.0812  0.0892
18791W        W23091   0.932   1.814  36.394 -0.0239  0.2840  0.3750
18792W        W23092  15.114   1.629  44.533  0.1614 -0.0095  0.1999
18793W        W23093  14.732   6.191  18.294  0.1954 -0.1008 -0.0583
18794W        W23094   1.887   1.106  25.348  0.2050  0.1178  0.0431
18795W        W23095   6.620   1.657  25.818  0.1459  0.0084  0.1035
18796W        W23096   8.391   2.126  37.758 -0.0754  0.0443  0.0283
18797W        W23097  13.472   4.541   9.635 -0.1711 -0.1222 -0.1636
18798W        W23098  15.986   1.592  32.133  0.1398  0.0664 -0.0288
18799W        W23099  16.651   1.265   8.415  0.0692  0.0509 -0.2636
18800W        W23100  17.573   5.030   1.097  0.0422 -0.1259  0.1624
18801W        W23101  19.391   1.551  37.499  0.0063  0.0267 -0.3646
18802W        W23102   0.133   4.902   5.168  0.0202 -0.0385  0.0893
18803W        W23103  16.532   5.980  23.137  0.0370 -0.1475 -0.3654
18804W        W23104   7.592   6.531  16.426  0.1973  0.2721  0.0345
18805W        W23105  12.675   3.231   1.512 -0.1281  0.2637  0.1346
18806W        W23106   7.320   4.314  14.343 -0.3134 -0.2462  0.0400
18807W        W23107   8.504   3.987  42.935  0.0936  0.2684 -0.0885
18808W        W23108  14.653   0.114   1.610 -0.1669 -0.3359  0.0034
18809W        W23109   8.780   1.171  28.232 -0.0725 -0.1416  0.1202
18810W        W23110   5.843   2.196  42.539 -0.1197  0.1394  0.0185
18811W        W23111  11.720   2.554  33.563  0.1583 -0.1849  0.1397
18812W        W23112  18.255   1.409   0.309  0.0066 -0.1179 -0.2700
18813W        W23113  13.253   0.324  18.238 -0.1834 -0.0607 -0.2339
18814W        W23114   6.007   0.781  36.148 -0.1067  0.2396 -0.0626
18815W        W23115   3.318   2.977  42.206 -0.0930  0.2382  0.0113
18816W        W23116  19.251   4.018  39.793 -0.0928 -0.0775 -0.2435
18817W        W23117  15.039   1.652  43.388 -0.0368  0.0046 -0.1531
18818W        W23118  11.500   3.249  31.501  0.0309  0.1889 -0.1215
18819W        W23119  18.576   5.363  43.714 -0.0600 -0.2278 -0.2122
18820W        W23120  18.625   0.300  33.648 -0.1619 -0.1505 -0.1487
18821W        W23121  14.267   0.055  17.402  0.0394  0.0983  0.1288
18822W        W23122  17.109   0.091  33.897  0.1498  0.3732 -0.0719
18823W        W23123  18.650   4.463  44.863  0.2346 -0.0350  0.0826
18824W        W23124  15.107   3.246  44.401  0.2415  0.0634  0.0888
18825W        W23125  13.465   3.778  13.311 -0.1469  0.1373 -0.1483
18826W        W23126   4.083   6.515   1.258 -0.0259  0.0745 -0.0793
18827W        W23127  12.139   2.567   4.379  0.0272  0.1047 -0.1693
18828W        W23128   5.928   0.496  33.045  0.1803  0.2049 -0.1640
18829W        W23129  10.765   1.205   9.154  0.2619  0.0465  0.1508
18830W        W23130   1.487   4.216  33.968 -0.2971 -0.1016 -0.0544
18831W        W23131  20.928   0.360  35.999 -0.1411 -0.1233 -0.0368
18832W        W23132  13.827   4.011  43.960 -0.1107 -0.0133  0.2049
18833W        W23133  13.272   6.544   2.696 -0.1535 -0.1873  0.2780
18834W        W23134  15.827   2.840  24.636  0.0925  0.2717  0.2168
18835W        W23135  19.792   3.663  43.409  0.1427 -0.1589 -0.2138
18836W        W23136  18.835   3.798  29.973  0.3629 -0.1449 -0.2362
18837W        W23137   3.494   2.865   0.292  0.2149  0.1492 -0.2640
18838W        W23138  18.068   6.144   6.138  0.2249  0.1202  0.4909
18839W        W23139   3.315   1.080  35.713  0.1074 -0.1088  0.0104
18840W        W23140  14.386   6.466   7.503  0.0381  0.0766  0.3186
18841W        W23141   2.489   1.142  39.689 -0.2349 -0.0875 -0.2800
18842W        W23142  14.782   0.399  12.381 -0.3387 -0.1461 -0.1339
18843W        W23143   2.364   1.956  38.736 -0.0641 -0.0873  0.1129
18844W        W23144   3.733   0.006   8.163  0.2455 -0.0034  0.0397
18845W        W23145  16.618   0.324  29.974 -0.1241  0.1685 -0.1238
18846W        W23146  19.290   5.553  39.762 -0.2282  0.2789  0.1777
18847W        W23147   5.640   3.901   9.400  0.0036 -0.0221 -0.0198
18848W        W23148   7.106   1.645  25.759 -0.0225  0.1452  0.0431
18849W        W23149   9.670   5.274  30.639 -0.1415  0.0589 -0.2161
18850W        W23150   0.395   0.829  35.815  0.0738 -0.0064  0.0675
18851W        W23151  11.865   2.923   3.785  0.1526 -0.1745  0.1931
18852W        W23152  19.429   1.874  34.586 -0.2149 -0.2526  0.1000
18853W        W23153  15.171   0.113  23.905  0.1376  0.1680 -0.1774
18854W        W23154  12.198   3.011  29.104 -0.1292  0.3315  0.3118
18855W        W23155   2.706   6.558  28.911 -0.1105 -0.1044 -0.1917
18856W        W23156   6.362   4.064  41.278 -0.2130  0.0691 -0.1559
18857W        W23157   3.429   4.609  37.607 -0.3720  0.1600  0.1676
18858W        W23158  19.804   6.223  17.601 -0.0751  0.1701  0.1271
18859W        W23159  12.109   0.840  35.184 -0.1522  0.3081  0.1447
18860W        W23160  14.994   3.174   6.428  0.0609  0.0230  0.0595
18861W        W23161   1.097   0.427  15.940 -0.3949 -0.2244  0.1392
18862W        W23162   1.365   2.534  39.009 -0.1460 -0.0924 -0.0471
18863W        W23163   8.725   6.426  30.770  0.1197 -0.1359  0.1912
18864W        W23164   5.983   4.895  26.278 -0.0022  0.1542  0.2675
18865W        W23165   4.353   3.372   6.566 -0.0897 -0.1325 -0.0003
18866W        W23166  19.251   0.150   2.956 -0.3434 -0.0234  0.0987
18867W        W23167   0.851   3.513  10.730  0.0032 -0.0733  0.2279
18868W        W23168   9.291   1.499  25.647  0.2105  0.3664 -0.3001
18869W        W23169   6.036   5.444  33.075  0.1146  0.1249  0.3461
18870W        W23170  15.536   6.193  44.576 -0.2866 -0.0943 -0.0540
18871W        W23171   8.989   3.404  41.266  0.2580 -0.0331  0.1001
18872W        W23172  20.748   2.144  36.268 -0.0412  0.2091  0.1494
18873W        W23173  12.992   3.014  36.322 -0.3449  0.0193 -0.0981
18874W        W23174  19.826   6.442  10.243 -0.1268  0.1760  0.0268
18875W        W23175   4.454   6.453  25.622 -0.2760 -0.1444  0.1042
18876W        W23176  14.105   6.258  30.071  0.0124  0.1424  0.1993
18877W        W23177   8.902   1.962  10.800  0.0570  0.0809 -0.1526
18878W        W23178   8.087   0.976  36.404 -0.0083  0.0273  0.2601
18879W        W23179  13.258   2.461  29.420  0.1367 -0.0623 -0.1825
18880W        W23180  11.748   2.805  11.532  0.0818  0.1332 -0.0191
18881W        W23181  19.807   6.586   7.247 -0.3554 -0.2495 -0.1536
18882W        W23182   5.610   3.365  14.204 -0.1654  0.0629  0.1990
18883W        W23183   9.595   5.729  44.514 -0.2646 -0.0554 -0.3144
18884W        W23184   3.093   5.709  45.060 -0.2353  0.0366  0.3364
18885W        W23185  16.655   3.504  42.276 -0.2848 -0.2731  0.2790
18886W        W23186   3.121   1.084  10.977  0.0574  0.1362 -0.2771
18887W        W23187  13.257   0.938  29.902 -0.0265  0.4858 -0.1955
18888W        W23188   3.748   1.309   6.960 -0.0498 -0.3155 -0.1404
18889W        W23189  11.968   1.583  17.844 -0.0420  0.0017 -0.0265
18890W        W23190  16.369   2.731  16.920  0.2121  0.0642 -0.1794
18891W        W23191   6.052   1.472   3.758 -0.0900 -0.1886  0.1549
18892W        W23192  12.626   2.919  19.022 -0.0410  0.1079 -0.1603
18893W        W23193  19.282   6.294  16.681 -0.0159 -0.0934 -0.0209
18894W        W23194   5.161   2.816  40.110  0.0394  0.1157 -0.1217
18895W        W23195   3.159   0.265  44.301  0.0774  0.0107  0.0012
18896W        W23196   9.182   4.609  35.560 -0.2699  0.1672 -0.2131
18897W        W23197   9.405   4.301  42.437 -0.1050  0.0403 -0.0194
18898W        W23198  14.835   3.345  31.537  0.0553  0.4275  0.0567
18899W        W23199   3.202   3.705  11.165  0.1863 -0.1693 -0.0385
18900W        W23200  15.284   5.778  10.193  0.0368 -0.4743 -0.0740
18901W        W23201  17.225   4.016  10.424  0.1459  0.1038 -0.3199
18902W        W23202   5.109   1.368  15.051 -0.0426 -0.4511 -0.1524
18903W        W23203   9.189   1.493   9.239  0.0079 -0.1042 -0.2380
18904W        W23204  15.044   3.930  36.534 -0.1692 -0.2534  0.0117
18905W        W23205   0.335   1.085  15.538 -0.0968  0.2365 -0.0300
18906W        W23206  14.426   3.240  41.874 -0.0876  0.0241  0.1415
18907W        W23207   6.410   4.022  10.062 -0.3415 -0.3197  0.0830
18908W        W23208   4.095   2.335  11.568 -0.0897 -0.2010 -0.1811
18909W        W23209  20.161   4.910  19.892 -0.3990 -0.0515 -0.1127
18910W        W23210   1.567   0.518   9.037 -0.0340 -0.0078 -0.0212
18911W        W23211  13.185   3.165  34.447 -0.0321 -0.0355  0.3905
18912W        W23212   2.994   1.489  27.378 -0.0830  0.0453  0.0558
18913W        W23213   3.643   2.492  36.621  0.0909  0.0481  0.1799
18914W        W23214   1.133   2.635   4.451  0.3138 -0.2577 -0.0058
18915W        W23215   9.921   2.283  39.890 -0.0236 -0.5352  0.0075
18916W        W23216  20.574   0.553   9.594  0.0111  0.3101 -0.3356
18917W        W23217   9.668   6.036  10.428  0.0691  0.1597  0.0130
18918W        W23218  10.792   0.370  11.484  0.0287  0.4980 -0.0369
18919W        W23219   9.324   3.703   5.296  0.2153  0.1808 -0.0849
18920W        W23220   0.405   5.799  15.488 -0.1977 -0.0200 -0.1125
18921W        W23221   2.310   5.427  25.619  0.3371 -0.1517 -0.3883
18922W        W23222  15.627   2.824  12.699 -0.1211  0.0880  0.1608
18923W        W23223  18.713   0.044   4.422 -0.2485 -0.0722 -0.4694
18924W        W23224   2.476   4.276  33.530 -0.0042 -0.0755  0.2408
18925W        W23225  19.870   2.356  12.621  0.0722  0.2952  0.0864
18926W        W23226  16.856   2.710  30.960  0.0516 -0.0785 -0.0549
18927W        W23227  15.849   1.212   2.868  0.0527  0.1934  0.1457
18928W        W23228  16.925   1.741   8.817 -0.1038 -0.1458 -0.1285
18929W        W23229  18.855   4.802  17.966  0.3351 -0.1330 -0.0477
18930W        W23230   2.381   3.157  28.084  0.2808 -0.0962  0.0690
18931W        W23231   8.004   2.370  30.706 -0.0608  0.0748  0.0275
18932W        W23232  16.757   6.148  29.023 -0.5371 -0.2218 -0.0065
18933W        W23233  10.660   4.817  34.214 -0.0647  0.0398 -0.1119
18934W        W23234  13.421   2.639  13.329  0.2837  0.2606  0.0427
18935W        W23235  20.209   4.763  37.709 -0.1662  0.2675  0.2653
18936W        W23236   3.489   3.155   4.342  0.0563  0.0864  0.0086
18937W        W23237  19.177   2.518  39.442  0.0747 -0.0328 -0.0141
18938W        W23238  16.100   1.377  39.921 -0.0504  0.2536  0.1126
18939W        W23239  13.993   1.654  30.981  0.3223  0.1438 -0.0319
18940W        W23240  20.151   2.117   4.635 -0.1056 -0.1103  0.1480
18941W        W23241   0.621   2.538  14.831  0.1455 -0.1970 -0.1908
18942W        W23242  19.055   4.973   4.549 -0.0476  0.3593 -0.0666
18943W        W23243  16.919   2.235  34.734  0.1551 -0.0946 -0.2863
18944W        W23244   1.486   4.664  38.414  0.0694 -0.2551  0.0721
18945W        W23245   3.761   1.713   0.626  0.0243 -0.1294  0.1147
18946W        W23246   3.006   3.719   6.411  0.2488  0.0362 -0.2763
18947W        W23247  12.602   2.567  44.382 -0.0472  0.0260  0.3151
18948W        W23248   6.770   3.706  24.699  0.2412  0.1586 -0.0471
18949W        W23249  11.936   1.903  39.324 -0.0295  0.3679 -0.1092
18950W        W23250  21.007   5.937  16.614  0.2689 -0.0792  0.2548
18951W        W23251  16.179   0.631  15.116 -0.1067  0.2555 -0.0623
18952W        W23252   2.205   3.417  44.469  0.2163  0.0784 -0.0531
18953W        W23253  18.168   3.267  14.693 -0.1676  0.0883  0.1014
18954W        W23254  11.990   0.428   5.205 -0.5461  0.0830  0.0865
18955W        W23255   9.282   0.309  31.840 -0.0307  0.1161  0.0950
18956W        W23256  10.884   0.546  29.373 -0.1637 -0.3222 -0.0144
18957W        W23257  18.726   2.019  14.255  0.2336 -0.0084  0.0356
18958W        W23258  12.563   4.071  12.807  0.1844 -0.0384  0.1945
18959W        W23259   5.366   6.404  43.033  0.0813  0.0068  0.0534
18960W        W23260  11.853   3.708  42.761 -0.1692 -0.1506 -0.1979
18961W        W23261  17.404   1.452   1.312  0.0509  0.2325 -0.4299
18962W        W23262  16.064   0.606  24.196 -0.2382  0.1544  0.0216
18963W        W23263   3.663   5.567   8.800  0.2990  0.1511 -0.1404
18964W        W23264   8.709   2.718  31.082 -0.0714  0.1081  0.2991
18965W        W23265  11.752   1.100  11.103  0.0278  0.0370 -0.1621
18966W        W23266  13.216   5.450  21.308 -0.1141  0.0710  0.0876
18967W        W23267  12.904   0.450  13.443 -0.0893  0.1744  0.0185
18968W        W23268  18.170   0.147  19.428  0.0231  0.0315  0.1200
18969W        W23269   9.539   5.739  43.420 -0.1547  0.1914  0.0107
18970W        W23270  20.578   2.403   9.512 -0.0643  0.1499  0.0420
18971W        W23271   3.389   2.178  13.012  0.0851  0.1673 -0.2670
18972W        W23272   5.843   3.072  38.104 -0.0112 -0.1667  0.0735
18973W        W23273   6.266   4.060   3.194 -0.3105  0.1505 -0.0958
18974W        W23274   5.126   0.622  41.220  0.0720 -0.1247 -0.1189
18975W        W23275   1.558   3.891  44.051 -0.2140 -0.0775 -0.4015
18976W        W23276   7.852   1.233  14.266 -0.0253 -0.4638 -0.2950
18977W        W23277   4.911   2.003  40.193  0.0742  0.0474  0.0906
18978W        W23278   7.279   1.704  43.761 -0.2423 -0.3142  0.2078
18979W        W23279  16.708   0.790   8.840  0.1022 -0.3177  0.0678
18980W        W23280  17.871   0.668   8.488  0.1250 -0.1689  0.0649
18981W        W23281  15.210   3.223  30.057 -0.1061  0.2319  0.0388
18982W        W23282  18.782   5.576  32.574 -0.2971 -0.4769 -0.0686
18983W        W23283  10.280   6.219  30.582 -0.0776  0.0356  0.0121
18984W        W23284  16.698   5.146  17.238 -0.2491 -0.1019  0.0008
18985W        W23285   5.951   3.063  25.305 -0.1531 -0.0717 -0.2560
18986W        W23286  19.054   3.987  31.055 -0.1227  0.0806  0.0233
18987W        W23287  14.211   2.705  34.499  0.0264  0.2099 -0.2517
18988W        W23288  14.617   2.427  14.931  0.1257  0.2976  0.0621
18989W        W23289  13.097   5.215  10.603 -0.3042  0.2635 -0.3092
18990W        W23290  18.960   0.806   6.479  0.0636 -0.1128  0.1625
18991W        W23291  12.814   4.655  39.242 -0.2317 -0.0631  0.1554
18992W        W23292   0.427   4.432  30.035 -0.2094  0.2103 -0.1274
18993W        W23293  11.218   2.720  13.354 -0.3586 -0.2432  0.0125
18994W        W23294  16.067   5.700   2.311 -0.1318  0.1840  0.1002
18995W        W23295  10.265   5.148  25.762  0.0389 -0.0687 -0.0423
18996W        W23296  12.835   2.240  14.704  0.2123 -0.0494 -0.1516
18997W        W23297  12.477   6.542  10.238  0.1764 -0.3359 -0.0347
18998W        W23298   9.362   5.808  39.727 -0.0392 -0.1274  0.3444
18999W        W23299   2.629   2.066  23.973  0.0165 -0.0244 -0.1223
19000W        W23300  19.817   2.937   6.691  0.3647 -0.0559  0.0898
19001W        W23301   4.281   0.965   6.077 -0.3653  0.4839 -0.1129
19002W        W23302  16.264   4.895  36.520 -0.1302  0.0363  0.0296
19003W        W23303   7.479   1.359  33.830 -0.0929 -0.1828  0.2221
19004W        W23304  16.842   1.423  36.625  0.1820  0.1577 -0.2152
19005W        W23305  15.491   5.118  39.502  0.0351  0.0317 -0.1839
19006W        W23306  21.007   4.516  17.703 -0.0907  0.0284  0.1939
19007W        W23307   5.039   3.024  41.780  0.2699  0.1115  0.0929
19008W        W23308  17.619   2.621  11.398  0.2106  0.0330 -0.1127
19009W        W23309  15.518   4.516  13.039 -0.0907  0.0368 -0.1232
19010W        W23310  15.599   3.717  33.811  0.1323  0.0721  0.1620
19011W        W23311  10.806   0.482   1.309  0.1986 -0.0892 -0.0865
19012W        W23312   4.498   1.185  22.251  0.2667  0.2195 -0.0413
19013W        W23313   8.087   3.549  38.230 -0.1383 -0.1826 -0.0014
19014W        W23314   9.247   3.989  25.532 -0.0898  0.0220 -0.1542
19015W        W23315   1.440   6.497  12.843 -0.1321  0.4048  0.1226
19016W        W23316  15.913   3.731   9.127 -0.1524  0.0818  0.0046
19017W        W23317   4.378   5.264  15.039  0.0287 -0.0561 -0.0127
19018W        W23318   9.635   0.223  15.922 -0.2152  0.2078  0.1458
19019W        W23319   8.627   4.446  33.945 -0.5551 -0.2147  0.1099
19020W        W23320  12.542   1.850  32.578 -0.0716  0.1229 -0.0773
19021W        W23321   5.214   1.550  26.664 -0.1993 -0.1685 -0.1029
19022W        W23322   3.864   5.290  29.013 -0.1940  0.1398 -0.1351
19023W        W23323   0.383   6.098   9.197  0.2419  0.0214 -0.1102
19024W        W23324  20.418   1.632   1.218 -0.2919  0.0834  0.0457
19025W        W23325  19.363   1.512  41.049  0.0629  0.3057 -0.2018
19026W        W23326  10.903   3.159  14.068  0.0236 -0.1610 -0.2163
19027W        W23327  15.568   4.102  38.544 -0.3043  0.0968  0.0983
19028W        W23328   8.173   4.530   3.932 -0.1367 -0.2560  0.1755
19029W        W23329  13.219   6.216  28.787  0.0199 -0.0214  0.0870
19030W        W23330  17.825   5.495  45.115 -0.1129 -0.1391 -0.0329
19031W        W23331   4.011   4.613  34.975  0.1258  0.0939 -0.3270
19032W        W23332  17.474   2.039  21.933 -0.0908  0.1862  0.2902
19033W        W23333  20.315   1.621  19.878  0.1260  0.0406  0.0328
19034W        W23334  18.718   1.928  12.590 -0.3211 -0.0272  0.0672
19035W        W23335  14.078   2.353   5.607  0.0482  0.0901  0.0980
19036W        W23336   1.781   1.085  41.006 -0.1247 -0.0783  0.1170
19037W        W23337   2.731   6.067   1.124  0.4288 -0.0221 -0.0228
19038W        W23338  11.934   3.018  33.667 -0.1181 -0.2037  0.0245
19039W        W23339  11.190   1.506  31.607 -0.2031 -0.0498 -0.2388
19040W        W23340  11.399   4.765   3.299  0.0945  0.1713  0.1332
19041W        W23341   3.205   1.346  42.216  0.0011 -0.2551  0.2973
19042W        W23342   7.833   6.432  31.479  0.0137 -0.0765  0.0202
19043W        W23343  13.915   2.608  12.182  0.3247  0.0114  0.0676
19044W        W23344   5.956   1.837  25.825 -0.3598 -0.0428  0.3457
19045W        W23345   5.533   3.924  31.139  0.0568  0.2970 -0.0407
19046W        W23346   9.693   0.125  27.156 -0.1526  0.0506  0.0094
19047W        W23347   6.303   3.653  45.072  0.1973 -0.3329 -0.0629
19048W        W23348  16.300   6.582  12.969 -0.0828  0.2001  0.2486
19049W        W23349   5.072   3.120  38.783  0.1954 -0.1161  0.1887
19050W        W23350  10.518   0.883  41.011 -0.2450  0.1017  0.1763
19051W        W23351   5.462   2.809  27.900  0.0175  0.2106 -0.2966
19052W        W23352  13.071   3.972  11.114  0.1358 -0.1709  0.2690
19053W        W23353   0.217   6.400   6.376 -0.4016 -0.0829  0.0152
19054W        W23354  18.111   2.211  20.024 -0.1393 -0.3226  0.2777
19055W        W23355  11.796   0.972   6.504  0.2612 -0.1736 -0.0575
19056W        W23356   3.241   2.704  26.460 -0.0214  0.1026 -0.0426
19057W        W23357  19.604   2.797  13.413  0.2188 -0.2804 -0.0929
19058W        W23358   8.782   6.553  39.712 -0.0481  0.1209 -0.1282
19059W        W23359  14.819   0.075  12.897 -0.0107 -0.1391 -0.2114
19060W        W23360   0.762   5.950  39.630 -0.0162 -0.1977 -0.0036
19061W        W23361  19.816   3.750  37.334 -0.1809  0.1692 -0.1445
19062W        W23362   3.422   4.178  40.953  0.1384 -0.2301 -0.0469
19063W        W23363  18.880   5.647  33.994 -0.0041 -0.1012 -0.0314
19064W        W23364  15.120   1.810   2.490 -0.0462 -0.2424  0.1256
19065W        W23365  12.527   0.499  16.682  0.0513 -0.1269 -0.0866
19066W        W23366  18.597   3.409  16.407 -0.0122  0.1958 -0.0954
19067W        W23367  20.311   5.987  15.263 -0.1601 -0.0841  0.3729
19068W        W23368   6.242   2.306   0.738  0.0239 -0.0091  0.2704
19069W        W23369   5.272   4.925  15.986  0.0911 -0.3263 -0.1914
19070W        W23370  18.336   1.831  10.385  0.0653 -0.0042 -0.2650
19071W        W23371   8.591   4.638  41.265  0.0916 -0.0591  0.2693
19072W        W23372  10.297   4.823  35.492  0.1332  0.0969  0.0502
19073W        W23373  19.302   1.801  19.045 -0.0273 -0.1441  0.0761
19074W        W23374  15.953   0.095  37.114 -0.0163  0.0003 -0.2285
19075W        W23375  11.485   4.442  38.387  0.0852  0.0654 -0.1629
19076W        W23376  11.426   5.442  33.379  0.2606  0.0712 -0.0119
19077W        W23377   9.176   3.610  16.316 -0.0928 -0.1238  0.0153
19078W        W23378  10.837   4.075   6.419  0.2722  0.4264  0.0525
19079W        W23379  19.130   4.601   5.895 -0.1456 -0.2303 -0.1576
19080W        W23380  13.196   2.624   2.823  0.2134  0.0411  0.1500
19081W        W23381  10.651   0.091  44.657  0.0398 -0.1700 -0.0755
19082W        W23382   0.410   3.988  11.654  0.0328 -0.0848 -0.0883
19083W        W23383  13.866   5.229  35.063 -0.1740  0.1512 -0.0315
19084W        W23384  15.416   5.518  41.615 -0.1892  0.1111  0.2512
19085W        W23385   7.406   3.566  15.991 -0.0304  0.1023  0.1425
19086W        W23386   5.206   4.879  38.865 -0.0051 -0.0395  0.1104
19087W        W23387   1.726   2.531  41.482  0.2524 -0.2372  0.0309
19088W        W23388  11.079   5.149   1.650  0.2603 -0.0295  0.0105
19089W        W23389  16.485   3.143  20.818  0.0496  0.1994 -0.0733
19090W        W23390   4.473   2.236  42.491  0.5259  0.0463  0.0820
19091W        W23391   5.436   6.019  42.669  0.1534 -0.1133  0.0128
19092W        W23392  18.488   1.258  15.787 -0.0363 -0.1386  0.2372
19093W        W23393  17.981   1.142  11.342 -0.1585  0.0708 -0.0210
19094W        W23394  10.684   1.619  27.687  0.0177  0.1005 -0.2167
19095W        W23395  19.946   5.123   7.490  0.1640 -0.0421  0.0660
19096W        W23396  14.355   2.505  13.788 -0.2315  0.1728 -0.0871
19097W        W23397   6.059   5.148   9.984 -0.3657  0.0082  0.0641
19098W        W23398   4.748   4.035  42.778 -0.2948 -0.0285 -0.0987
19099W        W23399   1.666   0.976  10.231  0.2100 -0.0538  0.1343
19100W        W23400   5.178   3.698  39.292  0.3692  0.1796  0.0055
19101W        W23401  11.031   3.878   6.902 -0.1015  0.2300  0.0247
19102W        W23402   5.905   5.642  24.115  0.1971  0.4034 -0.1812
19103W        W23403   0.806   3.454  44.294 -0.2413  0.1174 -0.0705
19104W        W23404  12.367   3.366  36.161 -0.1389  0.0014  0.1742
19105W        W23405   1.643   5.895  29.349  0.0117 -0.1772 -0.0025
19106W        W23406  13.318   5.783  21.696  0.1898  0.0145  0.1018
19107W        W23407   1.723   2.154  10.067 -0.0146  0.0350 -0.0551
19108W        W23408   0.557   0.733   4.067  0.3245 -0.1371 -0.5345
19109W        W23409  19.081   6.266  43.618  0.1815 -0.3960  0.0211
19110W        W23410   9.958   5.471  38.952  0.0722 -0.0006  0.4508
19111W        W23411  11.407   6.477  44.767  0.1297  0.0092 -0.0477
19112W        W23412   5.902   5.112  29.314 -0.0626  0.0018  0.0212
19113W        W23413   5.206   0.284   2.919  0.1655 -0.2218  0.1321
19114W        W23414   0.037   1.495   6.369 -0.1064  0.4481  0.1019
19115W        W23415   0.968   5.674  28.781 -0.1829 -0.3226 -0.4454
19116W        W23416   8.862   3.738  37.045 -0.2504  0.0296 -0.2055
19117W        W23417  14.934   2.853  30.305  0.0842 -0.3239 -0.1380
19118W        W23418  18.862   2.327  12.310  0.2584 -0.2717  0.1994
19119W        W23419   2.405   0.736  16.429 -0.1729  0.1359 -0.2260
19120W        W23420   3.765   6.028  36.425 -0.1797 -0.4358 -0.3418
19121W        W23421   8.727   3.007  39.196  0.0152 -0.2733 -0.1773
19122W        W23422  15.278   4.368   8.534 -0.2055  0.4601  0.1753
19123W        W23423  11.192   3.101  14.499  0.1442 -0.1246  0.0705
19124W        W23424  13.003   4.015  21.434 -0.1628  0.0799  0.1740
19125W        W23425  20.965   1.240  14.190  0.0474  0.0144 -0.1120
19126W        W23426  15.131   5.021   6.186 -0.3012 -0.0502  0.1586
19127W        W23427   1.819   2.416  38.751  0.0218  0.1502  0.0755
19128W        W23428  16.436   0.498  36.452  0.3995 -0.1798  0.2077
19129W        W23429  20.781   3.328  40.209 -0.0279  0.1635  0.2573
19130W        W23430   8.758   5.657  15.319  0.0115  0.0816  0.0828
19131W        W23431   4.418   5.970  28.846 -0.1232  0.1300  0.0583
19132W        W23432   1.943   3.929  15.453 -0.4560  0.1566  0.1354
19133W        W23433  10.872   6.216   7.347  0.0355 -0.2429  0.0441
19134W        W23434  10.138   1.039  29.346 -0.0341 -0.1922 -0.0475
19135W        W23435   2.776   0.972  29.221  0.0853  0.1414  0.3236
19136W        W23436  10.621   3.654   7.868 -0.0304  0.3128  0.1968
19137W        W23437   3.783   0.749   3.522  0.0371 -0.0990 -0.0946
19138W        W23438  18.254   6.223   2.453 -0.0069  0.0542  0.1856
19139W        W23439  12.175   3.060  35.126  0.1001 -0.1069  0.1058
19140W        W23440   9.656   6.485  13.451  0.3968  0.3032  0.1490
19141W        W23441   4.079   1.239  30.252  0.1434 -0.0661  0.2817
19142W        W23442  12.287   4.776   3.327 -0.0496 -0.2096  0.1074
19143W        W23443  10.291   4.115   8.824  0.2153  0.2051 -0.0342
19144W        W23444  16.443   0.559  18.901 -0.3114  0.1467 -0.0335
19145W        W23445  13.589   3.369  40.439 -0.0422  0.3619  0.0978
19146W        W23446  19.478   2.252  42.163 -0.4118 -0.0363 -0.3768
19147W        W23447  14.012   5.183  29.431 -0.0191  0.3617 -0.3088
19148W        W23448   2.316   2.895   9.872 -0.1805 -0.0721  0.1239
19149W        W23449  15.377   2.761   0.590 -0.2122 -0.0102  0.1199
19150W        W23450   9.501   5.792   3.669 -0.1921 -0.0518 -0.0618
19151W        W23451  14.877   3.706   1.713 -0.0838  0.1794  0.0861
19152W        W23452  19.131   1.430   5.719  0.0180 -0.0600  0.1793
19153W        W23453   1.158   2.262  28.310 -0.1101 -0.0730 -0.0389
19154W        W23454  15.056   5.366  34.596 -0.1058 -0.0444  0.1139
19155W        W23455  12.920   4.111  45.108  0.2942 -0.2945 -0.2418
19156W        W23456   4.004   5.079  14.652 -0.3247 -0.0334 -0.0361
19157W        W23457   6.305   2.080  11.061 -0.1583 -0.0955 -0.3778
19158W        W23458   4.907   1.064  41.363  0.0683  0.1760  0.1078
19159W        W23459   8.524   5.604  13.929  0.2503  0.2880  0.1249
19160W        W23460  18.574   4.504   5.792  0.1159 -0.0168  0.0709
19161W        W23461   6.353   6.559  35.931 -0.2558 -0.2126  0.0319
19162W        W23462   8.425   3.844  38.409 -0.2706  0.3922  0.0874
19163W        W23463   3.800   4.783  23.209 -0.1378 -0.0687 -0.0181
19164W        W23464  11.093   0.878  44.782 -0.2709  0.1777 -0.3287
19165W        W23465   7.224   5.799  40.568 -0.0616  0.0920  0.2010
19166W        W23466   2.911   2.900  40.307  0.1810 -0.0947  0.3101
19167W        W23467  17.709   4.423  18.545 -0.0784  0.1283 -0.1512
19168W        W23468  10.608   0.955   1.321  0.1022  0.0649 -0.1709
19169W        W23469   0.283   5.239   3.074  0.0295 -0.0630 -0.1418
19170W        W23470  15.337   2.034  43.030 -0.2303 -0.1182  0.1854
19171W        W23471   6.658   2.273  23.372 -0.0438  0.1131 -0.2239
19172W        W23472  17.031   1.584  20.064 -0.0183  0.0924 -0.0075
19173W        W23473   3.798   3.183   8.591  0.0748  0.0563  0.0842
19174W        W23474   8.151   4.536  32.318 -0.2805 -0.0580 -0.0233
19175W        W23475   7.828   1.788   9.638  0.1204 -0.0906  0.1160
19176W        W23476   3.838   4.329  25.463  0.0966  0.0375  0.2110
19177W        W23477  15.191   2.646   2.288  0.0485  0.1059  0.0515
19178W        W23478   8.416   4.020  34.123  0.2274  0.0316 -0.0800
19179W        W23479  13.311   4.154  40.002 -0.1636 -0.1850 -0.2395
19180W        W23480   9.333   3.423   0.944  0.0472 -0.1524  0.5002
19181W        W23481  13.318   2.671  39.721  0.2699  0.1255 -0.0386
19182W        W23482  12.088   5.670   4.807 -0.0580  0.0318  0.0552
19183W        W23483  20.023   0.448   0.934 -0.0757  0.2135  0.5585
19184W        W23484  14.025   1.990  10.095  0.0277  0.0732 -0.2233
19185W        W23485   6.938   0.236  21.770  0.2733 -0.1307  0.1156
19186W        W23486   9.774   5.292  28.177  0.1917  0.0409  0.1159
19187W        W23487   0.460   4.490   4.452 -0.1142 -0.0544  0.0147
19188W        W23488  13.108   0.741  41.554  0.1631  0.0807  0.2465
19189W        W23489  16.207   0.040  13.491 -0.2398  0.1382  0.0996
19190W        W23490  17.412   4.839  12.779 -0.2667 -0.0669  0.0311
19191W        W23491   9.408   3.352   8.081 -0.0823  0.2025  0.3150
19192W        W23492  13.020   1.889  34.700 -0.3339  0.0141  0.0096
19193W        W23493   3.377   4.368  35.995 -0.2807 -0.2061 -0.3007
19194W        W23494   0.522   0.176  32.108 -0.1073  0.2055 -0.0651
19195W        W23495  10.440   1.839   6.467 -0.2651 -0.1191 -0.0835
19196W        W23496   3.156   4.005  41.738 -0.0086  0.0088  0.1856
19197W        W23497   7.775   2.570  32.842 -0.0190 -0.0274  0.0885
19198W        W23498  11.699   3.834  35.925  0.0155  0.1521  0.1722
19199W        W23499   6.675   0.421  30.952 -0.0318 -0.0851  0.3077
19200W        W23500  13.663   4.255   2.056 -0.0175 -0.0863 -0.0750
19201W        W23501   7.040   2.886  39.812 -0.4001  0.0634  0.1222
19202W        W23502   6.731   4.896  44.621  0.4283 -0.1232 -0.0947
19203W        W23503  16.095   0.926  39.651 -0.0854 -0.3810 -0.2697
19204W        W23504  16.885   3.460  19.685  0.1819  0.0106 -0.0260
19205W        W23505  20.204   4.943   8.847  0.1369 -0.2731 -0.0229
19206W        W23506  16.682   0.523  24.038  0.0575 -0.0563 -0.0501
19207W        W23507   1.255   2.517  38.493  0.1476 -0.0578  0.3808
19208W        W23508   7.023   1.840   6.883 -0.2057  0.3803  0.3155
19209W        W23509  18.976   4.659  43.317 -0.1826  0.0181 -0.1289
19210W        W23510  16.392   4.679   2.069  0.2346  0.2303  0.0458
19211W        W23511  18.516   4.668  31.148 -0.3534  0.0742 -0.0416
19212W        W23512   7.766   1.030  43.609 -0.1599 -0.2533 -0.0836
19213W        W23513   9.981   2.345  33.658 -0.1091 -0.0002 -0.0224
19214W        W23514  18.148   6.237  36.985  0.0869 -0.2616  0.1455
19215W        W23515  19.400   0.493  42.464  0.1503 -0.0875  0.1372
19216W        W23516   3.624   2.960  28.740 -0.0869  0.0459 -0.1599
19217W        W23517  17.510   6.080  19.187 -0.1249 -0.1228 -0.0069
19218W        W23518   5.195   0.209  44.438  0.0079  0.0303  0.1364
19219W        W23519  15.475   0.806   1.594  0.1385  0.0570 -0.2056
19220W        W23520   0.401   4.048   9.329 -0.0838 -0.4145 -0.1199
19221W        W23521   3.678   1.759  37.530  0.1489  0.1399 -0.3719
19222W        W23522  17.688   2.753  42.429  0.1369 -0.2119 -0.1549
19223W        W23523  13.405   4.946  11.613 -0.0915 -0.2058  0.0095
19224W        W23524   8.459   6.433  12.890 -0.2994  0.2905  0.2880
19225W        W23525  16.479   0.496   0.234 -0.1810  0.0143 -0.0047
19226W        W23526  18.072   4.087  12.105  0.1285 -0.2642  0.1151
19227W        W23527   1.625   4.695  33.748  0.0459 -0.1999 -0.4455
19228W        W23528   9.980   0.493  33.435  0.1473 -0.1687 -0.0896
19229W        W23529   6.121   1.482  24.875 -0.2754  0.3074 -0.0862
19230W        W23530   5.989   4.097  26.599 -0.0490 -0.0355 -0.2782
19231W        W23531   5.038   1.830   7.266  0.6488  0.0683  0.0520
19232W        W23532  18.021   0.135  37.901  0.1324 -0.0836 -0.0377
19233W        W23533  10.368   4.870   9.467 -0.0252  0.3474 -0.2003
19234W        W23534  20.315   4.346  29.000  0.2603 -0.3865  0.2124
19235W        W23535   9.142   5.510   0.243  0.2277 -0.0714 -0.0832
19236W        W23536  15.029   1.610   8.217  0.1259  0.1027 -0.1080
19237W        W23537  15.824   2.139  19.459  0.0044  0.4162  0.0021
19238W        W23538   7.803   4.663   9.492  0.1487 -0.2281 -0.1831
19239W        W23539  12.678   0.018   3.356  0.1717 -0.1301  0.1580
19240W        W23540   0.591   5.279  42.104 -0.0325 -0.0227  0.0010
19241W        W23541  14.576   6.204  29.672  0.0611 -0.0797  0.0012
19242W        W23542   6.044   6.013  32.248 -0.1065 -0.2670  0.0676
19243W        W23543  12.853   5.922  33.339 -0.2084 -0.0292 -0.1566
19244W        W23544  18.535   5.727  17.082  0.0310 -0.0295 -0.0706
19245W        W23545   5.584   3.003  13.861  0.1162 -0.1447 -0.0060
19246W        W23546   4.769   0.506  35.650 -0.0162  0.2556 -0.1081
19247W        W23547  18.726   6.452  32.902  0.1751 -0.3152  0.0940
19248W        W23548  14.171   3.796  38.366 -0.0088 -0.0646 -0.0074
19249W        W23549   0.996   0.573  26.872 -0.1068 -0.1765 -0.0635
19250W        W23550   3.941   5.708  42.008  0.1511  0.3152  0.1493
19251W        W23551   4.638   3.226  25.353  0.0352 -0.1225 -0.1939
19252W        W23552  20.509   3.108  43.726  0.1279  0.0111  0.0267
19253W        W23553   7.265   4.842  42.500 -0.0806  0.3127 -0.0564
19254W        W23554  15.974   5.972  33.758  0.2892 -0.0176 -0.0314
19255W        W23555   3.945   3.480   7.738 -0.1006  0.0106 -0.1990
19256W        W23556  18.643   3.873  41.551  0.2165  0.1729  0.0153
19257W        W23557  20.340   1.644  11.833  0.3292 -0.3027 -0.2540
19258W        W23558   4.599   5.860  34.734 -0.2539 -0.1356  0.1211
19259W        W23559  11.197   3.170  39.428 -0.0021  0.0639  0.0638
19260W        W23560  15.214   1.556  35.990 -0.0697  0.1443 -0.2045
19261W        W23561  14.132   0.229  12.134  0.2156 -0.0276  0.0300
19262W        W23562  15.481   5.839  11.420 -0.0611 -0.2558  0.0782
19263W        W23563  16.680   4.956  24.210  0.1025  0.0949 -0.0866
19264W        W23564  16.060   2.231  19.870 -0.0316  0.0734 -0.1839
19265W        W23565  12.785   5.256   2.275  0.2142  0.2249 -0.2339
19266W        W23566  10.608   2.441  30.394 -0.2602  0.0848  0.3149
19267W        W23567   7.200   0.266  36.089 -0.0464 -0.4607  0.3104
19268W        W23568   8.880   1.773  25.376 -0.2063 -0.1191 -0.0573
19269W        W23569   9.926   6.175   3.194  0.1861  0.0382 -0.1511
19270W        W23570  15.016   1.050  35.359  0.3154 -0.1662  0.0840
19271W        W23571   5.103   1.172  21.606 -0.0494 -0.1800  0.1974
19272W        W23572   8.238   5.634   5.314  0.1472  0.0990  0.4395
19273W        W23573   3.803   4.309   3.407  0.3181 -0.1525 -0.1903
19274W        W23574   6.699   1.390  34.569 -0.1922  0.2501  0.2229
19275W        W23575   8.150   6.147  13.100 -0.0480 -0.3753  0.1652
19276W        W23576   3.325   3.041   3.443 -0.0085  0.2436  0.0006
19277W        W23577  17.301   3.826   3.495 -0.1800  0.0752 -0.3839
19278W        W23578   5.681   2.611  26.328 -0.3031  0.1277  0.1379
19279W        W23579  20.244   0.827   2.617 -0.0280  0.0844 -0.2907
19280W        W23580   9.846   2.190  16.408  0.1813 -0.0020  0.0126
19281W        W23581  17.134   3.418  17.988 -0.1571  0.0909  0.2024
19282W        W23582  14.748   0.434  16.015 -0.0201 -0.0831 -0.0816
19283W        W23583  10.282   0.974   7.662 -0.1548  0.3042  0.0466
19284W        W23584  18.118   4.352  39.137  0.4261  0.0767 -0.0169
19285W        W23585   4.696   1.646  22.313 -0.0633 -0.1593 -0.2052
19286W        W23586  10.169   0.452   6.078  0.0953 -0.0591  0.0235
19287W        W23587   0.372   4.682   8.648  0.0816  0.1421 -0.1457
19288W        W23588  19.858   2.605  31.456 -0.0005  0.0111 -0.3478
19289W        W23589   4.797   0.065   7.591  0.1367 -0.1688 -0.0942
19290W        W23590   8.927   3.816  15.286 -0.2823  0.0224 -0.3297
19291W        W23591   8.170   2.630  35.775  0.1565 -0.0969 -0.0501
19292W        W23592   4.398   2.528   5.592  0.0663  0.0118 -0.0269
19293W        W23593  10.794   6.026  42.606  0.0315 -0.2414 -0.0301
19294W        W23594   0.272   3.141   2.404 -0.1691  0.0989  0.1629
19295W        W23595   2.047   6.471  27.241  0.0137  0.2327  0.0541
19296W        W23596  18.678   5.785  19.299  0.1523 -0.0836  0.2154
19297W        W23597  18.953   0.446   9.375  0.0951 -0.1986 -0.1153
19298W        W23598  13.059   3.841  39.607  0.3957 -0.0846  0.0064
19299W        W23599   2.841   1.730   3.529  0.1108  0.0313 -0.0428
19300W        W23600   6.900   2.797   1.788 -0.0981  0.1723 -0.0703
19301W        W23601  19.278   6.511  30.083  0.0092 -0.3588  0.0173
19302W        W23602  18.762   0.098  34.167  0.1031  0.4490  0.0543
19303W        W23603   8.647   6.548  24.728  0.1590  0.0597  0.0395
19304W        W23604   1.314   6.194   8.901 -0.0694 -0.2452  0.0686
19305W        W23605   3.948   0.555  42.197  0.1119  0.0771  0.0657
19306W        W23606   6.537   0.866  33.419  0.2034  0.1138  0.0095
19307W        W23607   0.746   2.434  35.952 -0.1830  0.1593  0.1413
19308W        W23608  10.941   0.989  35.427  0.0954 -0.0049  0.0655
19309W        W23609   1.693   1.851  35.205 -0.1385  0.2107 -0.0462
19310W        W23610   7.839   5.147   4.622  0.1930 -0.1081 -0.1414
19311W        W23611  17.951   2.405  41.809  0.0551  0.0572  0.2330
19312W        W23612  17.856   1.561  17.986  0.2420  0.1901  0.2963
19313W        W23613  17.164   3.318  17.494  0.2221  0.0276  0.1056
19314W        W23614   1.093   2.080  33.263  0.1475  0.0334  0.1979
19315W        W23615  13.400   6.054  28.197 -0.0651 -0.1980 -0.0550
19316W        W23616   6.359   1.569  30.441 -0.0040 -0.0088 -0.0872
19317W        W23617  11.109   4.466  29.204  0.0613  0.0654 -0.0224
19318W        W23618  15.535   4.215   2.650  0.2062  0.1218 -0.1836
19319W        W23619   6.885   6.193  20.972  0.0899  0.3417 -0.2121
19320W        W23620   0.489   2.503  42.569 -0.0526  0.1544  0.3848
19321W        W23621   0.922   4.607  30.289 -0.1517 -0.1026  0.3347
19322W        W23622  14.311   4.533  13.411 -0.0333  0.1388  0.1065
19323W        W23623   7.573   3.868   1.038  0.0191  0.3048 -0.2579
19324W        W23624   3.140   5.305  41.487 -0.2786 -0.1656 -0.0750
19325W        W23625   0.907   0.691  41.212  0.3193 -0.1387 -0.0664
19326W        W23626  19.645   5.863  41.508  0.1024  0.0549 -0.4241
19327W        W23627   0.823   0.702  29.521  0.1167  0.0216  0.2197
19328W        W23628   4.299   1.035  26.746 -0.1636 -0.0985 -0.1640
19329W        W23629   8.296   3.309  36.581 -0.0167  0.0459 -0.0768
19330W        W23630  11.880   0.689  11.347 -0.2457 -0.1214 -0.2235
19331W        W23631  12.130   5.729  32.785  0.0409 -0.2172  0.2381
19332W        W23632   7.540   2.091  16.351 -0.2778 -0.0696  0.1562
19333W        W23633  14.670   2.905   5.382 -0.0580  0.0040 -0.0031
19334W        W23634   5.799   4.691  34.009 -0.3232  0.0227  0.3213
19335W        W23635  20.369   0.776   7.538  0.2248 -0.0115  0.0382
19336W        W23636  17.669   1.196  14.395 -0.0810 -0.3211 -0.0378
19337W        W23637  10.851   1.042  36.714 -0.1611  0.4183 -0.0618
19338W        W23638   5.954   6.115  21.180  0.0755  0.0837  0.0248
19339W        W23639  18.766   0.963  36.973 -0.1814 -0.1607  0.3509
19340W        W23640  13.382   2.104   1.735  0.1098 -0.0831 -0.0401
19341W        W23641   0.691   5.322   9.128  0.0278  0.0631  0.0023
19342W        W23642  15.391   2.880  20.161 -0.0101 -0.2007  0.2589
19343W        W23643   4.620   2.121   2.646 -0.3765  0.1381  0.0520
19344W        W23644  14.947   5.806   0.686 -0.4347 -0.1123 -0.1425
19345W        W23645  15.359   0.035   7.698  0.0955 -0.1686  0.0547
19346W        W23646  15.102   1.195  39.500  0.1579  0.0262 -0.0129
19347W        W23647  11.845   6.485   9.534 -0.1027  0.0578 -0.1615
19348W        W23648  15.837   3.514  43.194  0.3425  0.2517  0.0842
19349W        W23649  10.080   2.523   9.905  0.2601  0.2878  0.0951
19350W        W23650   0.052   0.396  41.938 -0.0288 -0.0829 -0.0058
19351W        W23651  17.212   2.394  35.934 -0.1211  0.0337 -0.0708
19352W        W23652   6.071   4.970  41.886  0.0217 -0.1417 -0.1088
19353W        W23653  20.389   0.999   6.627 -0.2583 -0.0530  0.0250
19354W        W23654  20.557   4.221  39.799  0.2076 -0.1182 -0.0389
19355W        W23655  13.794   2.592  18.296 -0.2390  0.3420  0.3589
19356W        W23656   4.143   3.263  10.173 -0.2819 -0.0446  0.0574
19357W        W23657  15.293   0.678  13.050  0.0234 -0.2891 -0.0567
19358W        W23658   7.405   3.582  26.753 -0.1382 -0.2316 -0.2709
19359W        W23659   8.834   1.482   5.041  0.1108 -0.3858  0.1957
19360W        W23660  12.938   2.760  29.222  0.1157 -0.2035  0.1044
19361W        W23661   8.838   0.777  25.261  0.0141 -0.0722 -0.0392
19362W        W23662  20.725   4.884   3.522  0.0906  0.1455 -0.0061
19363W        W23663  10.719   0.090  29.534 -0.0213 -0.1748 -0.1239
19364W        W23664  16.251   3.225   3.189  0.1087 -0.0901  0.2037
19365W        W23665   7.581   2.204  22.133  0.1332 -0.1473  0.4414
19366W        W23666  15.279   4.704   0.653  0.1712  0.0723 -0.0933
19367W        W23667  11.230   5.974   9.253 -0.0857  0.3457 -0.1105
19368W        W23668  12.269   0.747   0.452 -0.1039  0.0305 -0.1285
19369W        W23669   8.409   4.419  10.701 -0.2647  0.0228 -0.1028
19370W        W23670   2.084   4.276  28.395 -0.0922  0.0552  0.1193
19371W        W23671   1.497   5.737   4.475  0.2192 -0.3363 -0.2078
19372W        W23672  21.128   4.056  43.413  0.1146 -0.0745 -0.0046
19373W        W23673  16.155   5.124  18.515 -0.1184  0.0190  0.1085
19374W        W23674  18.097   3.106  37.249  0.0924  0.0072  0.0394
19375W        W23675  16.397   1.147  21.774 -0.2219 -0.2394  0.2910
19376W        W23676   8.223   5.758  22.252 -0.2148  0.1642  0.1004
19377W        W23677  16.842   4.274  11.595  0.0360 -0.3881 -0.0634
19378W        W23678  19.838   2.201  33.224 -0.2032  0.1348  0.0330
19379W        W23679   0.906   4.086  41.369 -0.1452 -0.0674  0.0864
19380W        W23680  12.904   3.257  30.413 -0.0022  0.0885  0.0990
19381W        W23681  14.177   0.340  37.603 -0.1046 -0.0766 -0.1651
19382W        W23682  12.835   6.056  17.583  0.0518 -0.2000 -0.0460
19383W        W23683  13.856   3.433  29.629  0.5120  0.1709  0.0473
19384W        W23684  17.579   2.868  19.478 -0.1628 -0.2086  0.2158
19385W        W23685   6.902   6.210  40.470  0.3465  0.2477 -0.2962
19386W        W23686  13.204   3.588  19.997 -0.0717 -0.0997  0.0927
19387W        W23687  17.088   0.764  40.581  0.1393 -0.1596 -0.1002
19388W        W23688  19.632   3.932  17.898 -0.0073 -0.3322 -0.1986
19389W        W23689  20.068   4.912  30.960  0.0309 -0.0331 -0.0210
19390W        W23690   8.582   2.573  42.894  0.1806  0.0469  0.2531
19391W        W23691  15.487   0.608  16.472 -0.0903  0.2529 -0.1374
19392W        W23692  14.792   6.329  44.054 -0.2459 -0.2985 -0.0059
19393W        W23693  13.552   4.313  10.080 -0.0067  0.0048  0.0036
19394W        W23694   9.724   3.566  31.155 -0.0804 -0.0367  0.2303
19395W        W23695  20.911   4.079   9.937  0.2328 -0.0918 -0.0244
19396W        W23696  12.152   4.597  40.502 -0.0745 -0.2198  0.1920
19397W        W23697   7.291   4.188  39.004  0.0217 -0.1321 -0.0263
19398W        W23698  13.233   1.430   6.630 -0.0163 -0.0179 -0.0920
19399W        W23699   2.555   6.008  33.460  0.1225 -0.2940  0.3187
19400W        W23700  19.254   3.895  34.067 -0.0643 -0.2924  0.0105
19401W        W23701   6.873   2.253  21.976 -0.0327 -0.0405 -0.1039
19402W        W23702   2.804   3.967  39.437 -0.3290 -0.0093  0.1742
19403W        W23703   0.702   1.966  29.861 -0.0138  0.0013  0.0461
19404W        W23704   3.022   3.186  23.825 -0.0161 -0.1461  0.1271
19405W        W23705   4.244   6.155  32.841  0.1038  0.0776 -0.1399
19406W        W23706  18.974   1.762  37.703 -0.0574  0.3873  0.0546
19407W        W23707   0.253   0.966  44.843 -0.2998 -0.0586  0.2828
19408W        W23708  20.687   4.773   5.900  0.2571 -0.0164 -0.4452
19409W        W23709  12.190   1.106   2.960  0.0784  0.0026 -0.2112
19410W        W23710  10.214   0.568  14.669  0.0998 -0.1312 -0.3394
19411W        W23711   4.929   5.904  38.383 -0.3301  0.1455 -0.1292
19412W        W23712   5.602   5.084  32.944  0.0063 -0.0342  0.0443
19413W        W23713   5.959   0.801   0.069  0.0305 -0.0510 -0.0561
19414W        W23714   4.338   0.156  43.481 -0.2302 -0.0450 -0.0095
19415W        W23715   9.129   5.879   8.104  0.0977 -0.0217 -0.0643
19416W        W23716  14.871   2.642   6.491 -0.3294  0.0655 -0.0985
19417W        W23717   9.811   2.608  12.544 -0.0284 -0.3793  0.0189
19418W        W23718   0.221   1.830  39.669 -0.0953  0.1435 -0.0091
19419W        W23719   5.189   0.444  24.581  0.1925 -0.1839 -0.2444
19420W        W23720   4.033   2.843  35.385 -0.1419 -0.0512 -0.4801
19421W        W23721  12.163   4.724   8.182 -0.0489 -0.0830 -0.0052
19422W        W23722   0.383   2.366   7.919  0.2382 -0.3065  0.2365
19423W        W23723   8.455   6.584   4.550 -0.0675  0.1863  0.0941
19424W        W23724   1.112   2.209  12.343 -0.0485 -0.1012  0.1176
19425W        W23725   5.943   0.276  41.065  0.0124  0.1124 -0.1682
19426W        W23726  18.169   2.509  10.010 -0.1345 -0.2398  0.1016
19427W        W23727  16.529   0.982  36.589 -0.0698  0.0978 -0.1651
19428W        W23728  12.385   4.150  11.168 -0.1911 -0.3124 -0.0592
19429W        W23729   9.834   5.917   4.216  0.1646 -0.2923  0.0381
19430W        W23730   7.640   0.706  24.937  0.1082 -0.2422 -0.1141
19431W        W23731   4.062   5.713   0.897 -0.2724 -0.0385  0.0053
19432W        W23732   8.964   5.116  24.462  0.0295 -0.0863  0.0805
19433W        W23733  11.782   0.797   1.285  0.0713 -0.2589 -0.1154
19434W        W23734   1.694   0.851   5.051 -0.1332 -0.1329 -0.0153
19435W        W23735   6.223   6.078  10.190  0.0431  0.2189  0.0583
19436W        W23736  11.203   1.657  30.595  0.2352 -0.0009  0.2389
19437W        W23737  18.638   0.539  30.518  0.1736 -0.0477  0.3579
19438W        W23738   5.852   3.948  24.833 -0.0471  0.0671 -0.0128
19439W        W23739   3.503   1.198  11.728 -0.1386 -0.0407  0.0314
19440W        W23740   3.618   1.734  34.315 -0.1029 -0.0114 -0.0667
19441W        W23741  16.968   4.866  42.937  0.1611 -0.1257  0.0389
19442W        W23742  12.673   6.020  36.819  0.3667  0.1059  0.2102
19443W        W23743   0.278   4.334  43.138 -0.2263  0.0848  0.1254
19444W        W23744  15.728   0.713   1.100 -0.1585  0.1887  0.0233
19445W        W23745  18.492   2.968   3.774  0.0170 -0.0476 -0.0639
19446W        W23746  16.801   6.359  11.489 -0.0926 -0.1397 -0.2333
19447W        W23747   9.128   2.040  30.656  0.0536  0.2017 -0.0233
19448W        W23748  13.281   4.363  12.830  0.0992 -0.0452 -0.2706
19449W        W23749  14.367   4.693  43.443  0.3280  0.1824 -0.2460
19450W        W23750   3.592   4.658   9.832  0.1364  0.1204  0.1123
19451W        W23751   8.401   3.435  37.862  0.1411  0.2803 -0.0342
19452W        W23752  16.297   0.182  39.679  0.1462  0.0415  0.0998
19453W        W23753   7.910   2.515   0.414 -0.1462  0.4374 -0.0939
19454W        W23754  13.354   1.724  18.492  0.0639 -0.0794 -0.1833
19455W        W23755   3.326   4.765   4.420  0.0198 -0.0648 -0.0319
19456W        W23756  17.745   4.348   5.406  0.0736  0.3159  0.4486
19457W        W23757   6.013   3.448  38.420 -0.0347  0.3490 -0.2616
19458W        W23758  15.669   4.580   0.283  0.1297 -0.1809  0.1134
19459W        W23759   1.846   3.336  27.564  0.0243 -0.1544 -0.1036
19460W        W23760   4.702   1.799  24.973 -0.1594 -0.0555  0.2612
19461W        W23761  11.783   6.603  16.398 -0.2557 -0.0561 -0.5897
19462W        W23762   6.709   0.120  31.850 -0.0153 -0.0261 -0.3227
19463W        W23763  11.141   4.144  35.746  0.0005  0.1391 -0.0470
19464W        W23764   4.754   1.941   8.721  0.3096  0.2304 -0.0918
19465W        W23765  18.510   5.763   9.368  0.0810 -0.0416 -0.0668
19466W        W23766  20.168   6.213  36.580  0.2574 -0.1245 -0.2965
19467W        W23767  17.323   0.886  43.268 -0.3025 -0.0885 -0.0729
19468W        W23768   1.020   5.926  15.653 -0.1394 -0.0358 -0.2037
19469W        W23769   9.417   6.522   7.508  0.1674  0.0906 -0.2664
19470W        W23770   2.666   4.572  43.147 -0.0845  0.0996  0.0495
19471W        W23771  13.922   4.417  31.172  0.2877 -0.0145 -0.0175
19472W        W23772  11.004   2.486   1.089 -0.1004 -0.2118  0.0366
19473W        W23773   6.043   1.716   6.925 -0.1084  0.1262  0.0606
19474W        W23774   2.223   2.534  13.183  0.0747  0.1574  0.2963
19475W        W23775   1.181   1.335  28.729 -0.0749  0.0268 -0.1217
19476W        W23776  16.689   1.214   9.722 -0.1231  0.6632  0.0915
19477W        W23777  10.321   1.778   1.306  0.3545 -0.0755 -0.1926
19478W        W23778  11.735   0.084   7.567 -0.0600 -0.0605  0.1856
19479W        W23779  17.252   4.638  29.282 -0.1925  0.1535  0.2028
19480W        W23780   6.318   1.255   8.678  0.0949  0.1817  0.1082
19481W        W23781   6.767   2.554  42.603  0.2706  0.0515  0.2286
19482W        W23782   1.792   1.992  27.264  0.4709 -0.0285 -0.0520
19483W        W23783   2.906   0.659  24.467 -0.1194 -0.2872  0.0145
19484W        W23784   6.462   6.257  13.759 -0.1627  0.0024  0.1002
19485W        W23785   4.421   1.732  14.822  0.2140  0.0432 -0.1964
19486W        W23786  18.529   5.336  33.065  0.6059 -0.0530 -0.2914
19487W        W23787   9.751   3.559  16.990 -0.1099  0.2993 -0.5166
19488W        W23788  20.174   4.901  13.015  0.0858 -0.0054 -0.1113
19489W        W23789  16.428   5.992  11.773  0.1330  0.1067 -0.1809
19490W        W23790  12.201   5.259  36.511 -0.0384  0.1442  0.0105
19491W        W23791   4.148   6.441  36.369 -0.0147 -0.0427  0.2200
19492W        W23792  16.628   4.664  35.226 -0.4199 -0.1030 -0.1235
19493W        W23793   6.487   1.439  28.740  0.2351 -0.0816  0.2294
19494W        W23794  14.663   2.888  12.036 -0.2744 -0.1285 -0.0260
19495W        W23795  10.871   2.577   6.207 -0.2409 -0.1149  0.2491
19496W        W23796  18.016   1.058  42.584 -0.0401  0.1634  0.2188
19497W        W23797  13.681   6.182  41.749  0.2759  0.3137  0.2570
19498W        W23798   4.317   0.311  35.594  0.1433 -0.1707  0.0868
19499W        W23799  13.850   1.654  29.716  0.0807  0.0217 -0.3299
19500W        W23800   6.813   0.862  38.904 -0.0951  0.0344  0.0117
19501W        W23801  15.104   2.858  22.465 -0.1211 -0.1528  0.2149
19502W        W23802  17.171   6.488  21.705  0.5008 -0.6411  0.3054
19503W        W23803   3.901   3.062   6.416 -0.1645  0.0609 -0.1077
19504W        W23804  19.869   0.260   1.777 -0.1799 -0.1225 -0.2677
19505W        W23805   9.925   5.836  33.840 -0.2271  0.0180 -0.0792
19506W        W23806   9.101   1.828  44.536  0.1854  0.0168 -0.1415
19507W        W23807  19.397   1.944   2.758 -0.2143 -0.1471 -0.4101
19508W        W23808  19.199   0.366  18.605 -0.2779 -0.2687  0.1168
19509W        W23809   3.334   0.808  24.409 -0.0860  0.1027  0.1597
19510W        W23810   4.926   5.382  15.805  0.1299 -0.2140 -0.0865
19511W        W23811  14.355   0.314  20.782 -0.0610  0.1932 -0.2367
19512W        W23812   5.108   0.596  30.291 -0.0541  0.2264 -0.2386
19513W        W23813  20.808   6.350  18.392  0.0430 -0.1342  0.0417
19514W        W23814  16.520   6.198  32.030  0.0542 -0.2001 -0.1759
19515W        W23815  20.865   1.994   5.597  0.0226  0.0654 -0.1524
19516W        W23816   4.683   2.789   5.248  0.3965  0.2666  0.0025
19517W        W23817   4.561   2.465   2.268  0.0042 -0.0717  0.0851
19518W        W23818   2.885   0.321  45.118  0.0340  0.1891  0.0158
19519W        W23819  10.494   1.050  14.975 -0.2813 -0.2985 -0.2861
19520W        W23820  13.640   1.261  15.896 -0.1919 -0.1266  0.2514
19521W        W23821   3.952   1.626  10.857  0.0331 -0.0113 -0.2171
19522W        W23822   1.398   0.919  40.224 -0.0719  0.0845 -0.1840
19523W        W23823   9.615   4.971  27.876 -0.3281 -0.0413  0.1164
19524W        W23824   8.003   2.503  27.433  0.1438 -0.0021  0.2386
19525W        W23825  11.969   5.528  44.867 -0.0760 -0.1554 -0.1025
19526W        W23826   8.208   3.499   4.518 -0.2027  0.2675  0.2821
19527W        W23827   4.279   6.456  38.302 -0.1846  0.0860  0.2611
19528W        W23828  11.524   3.371   9.079 -0.1094 -0.2942 -0.3991
19529W        W23829  16.602   4.715  36.886 -0.0543 -0.0702  0.1097
19530W        W23830  19.399   2.661  20.160  0.2666 -0.1705  0.2566
19531W        W23831  12.467   1.027   5.630  0.1447  0.0143 -0.2497
19532W        W23832   7.323   2.593   9.981 -0.0342  0.1554 -0.2608
19533W        W23833   7.091   4.959   3.175 -0.1025  0.1811  0.1251
19534W        W23834  19.801   5.766  33.902  0.0160  0.0805 -0.5052
19535W        W23835   7.235   3.939  31.250  0.0045  0.2893  0.2844
19536W        W23836   7.988   4.617  33.263  0.0156 -0.2355  0.0651
19537W        W23837  12.348   3.780  19.292  0.0903 -0.0186  0.2934
19538W        W23838   4.336   5.503  35.336 -0.1686  0.1916  0.3119
19539W        W23839  19.321   4.188   3.756 -0.0776  0.0198 -0.1976
19540W        W23840  18.315   1.250   3.219 -0.1612 -0.0210  0.0054
19541W        W23841  19.676   3.334  41.421  0.1554  0.2920  0.0211
19542W        W23842   2.574   1.734  40.463  0.2331  0.0244  0.1412
19543W        W23843  18.396   6.062  15.672  0.4074 -0.0168 -0.1807
19544W        W23844  16.396   4.398  24.250  0.0830  0.1028 -0.1990
19545W        W23845   7.963   5.404  39.039  0.0894  0.3000  0.1852
19546W        W23846  11.282   1.151  37.144  0.4926 -0.1781  0.2608
19547W        W23847  17.776   2.660  15.430  0.0749  0.1005 -0.3480
19548W        W23848  15.742   1.695  29.732 -0.0743 -0.0141 -0.1366
19549W        W23849  13.917   5.252   6.826 -0.4260  0.1661  0.1156
19550W        W23850   4.586   0.425   4.017 -0.1543  0.1035  0.0963
19551W        W23851   4.869   0.258  28.953 -0.1799 -0.1563 -0.2513
19552W        W23852   1.801   3.418  39.509  0.1107 -0.2720 -0.0310
19553W        W23853  14.471   6.534  43.619  0.0469  0.4633 -0.0333
19554W        W23854   2.352   3.838   6.142  0.1165 -0.0981  0.2141
19555W        W23855  11.722   6.248  35.563 -0.3545 -0.1760  0.2443
19556W        W23856   1.505   4.126  25.855  0.0360  0.0544 -0.1873
19557W        W23857   7.485   3.677   3.812 -0.0690  0.1829 -0.0861
19558W        W23858   5.160   1.552  43.653  0.1756  0.1232  0.0861
19559W        W23859  11.118   3.227  17.582  0.2832 -0.0032 -0.1843
19560W        W23860  13.572   2.909  11.147  0.0781  0.1751  0.2344
19561W        W23861  16.607   6.156  23.668 -0.0704  0.2528  0.1359
19562W        W23862  13.319   6.424   1.801  0.0269  0.2495  0.0395
19563W        W23863   1.925   1.882  31.150  0.4467 -0.1846  0.0359
19564W        W23864   4.311   2.588  31.922 -0.0411  0.1373 -0.0896
19565W        W23865  16.764   2.710  31.481  0.0476 -0.4925 -0.3633
19566W        W23866   4.748   1.326  24.787  0.2494  0.0200 -0.1554
19567W        W23867   1.329   0.388  29.612 -0.0590 -0.0688 -0.2336
19568W        W23868   5.560   6.037  36.302 -0.0746  0.0845  0.0384
19569W        W23869  16.753   3.409  36.289 -0.1195 -0.1048  0.1841
19570W        W23870   0.460   2.873  31.739 -0.2564  0.0170 -0.0666
19571W        W23871  19.234   2.808  30.980 -0.2367 -0.2306 -0.5311
19572W        W23872   3.316   0.024  43.750  0.1740  0.3907  0.2325
19573W        W23873   9.028   2.683  34.333 -0.1903 -0.0395  0.1624
19574W        W23874  17.676   4.078   9.450  0.1290  0.0170 -0.4524
19575W        W23875   6.310   3.620  24.799  0.0387 -0.0061 -0.0599
19576W        W23876  11.099   2.710  17.435  0.0480  0.1612 -0.0283
19577W        W23877   8.584   4.347  16.043 -0.1202  0.1194  0.1002
19578W        W23878   9.863   1.464  15.117 -0.0644 -0.2173 -0.0410
19579W        W23879   2.060   1.829  30.256 -0.2713 -0.0173  0.1942
19580W        W23880   7.450   0.319  36.643 -0.3177 -0.1805  0.3737
19581W        W23881   9.709   2.798  14.385 -0.1276  0.0131 -0.1430
19582W        W23882   6.258   6.039  29.312  0.1134  0.0204 -0.1475
19583W        W23883  14.906   2.664  12.421 -0.1775  0.3396  0.1283
19584W        W23884   3.351   1.706  35.688 -0.0862  0.0056 -0.3802
19585W        W23885  10.603   4.801  27.874 -0.0394 -0.4198  0.0669
19586W        W23886  12.874   0.148  19.526 -0.2245 -0.5172 -0.4322
19587W        W23887   7.758   4.012  41.715  0.0124 -0.1753  0.1741
19588W        W23888  12.912   4.543  42.948 -0.0392  0.1022  0.1350
19589W        W23889  12.064   4.476   6.087  0.1246  0.3158  0.1163
19590W        W23890   3.010   3.600  29.392  0.0514  0.1786  0.2965
19591W        W23891   8.999   2.194  25.689  0.0976 -0.2133  0.1049
19592W        W23892  14.135   6.217   3.600 -0.0257 -0.0065  0.0108
19593W        W23893  15.305   1.417  33.162  0.0297 -0.1992  0.0376
19594W        W23894   9.208   4.437  39.756 -0.1169  0.4244 -0.2327
19595W        W23895  15.058   3.454  31.999 -0.1306 -0.0665 -0.0616
19596W        W23896  10.164   6.423  14.501  0.2918 -0.0252  0.2361
19597W        W23897   6.633   5.953  43.418  0.1990  0.0367 -0.1814
19598W        W23898  11.391   3.840   6.269 -0.1527  0.1092  0.1812
19599W        W23899  18.176   1.694  32.679 -0.0755 -0.1441 -0.1568
19600W        W23900  19.506   0.573   3.030  0.0865  0.1349 -0.0888
19601W        W23901   1.340   0.106  35.528  0.1222  0.2765 -0.0782
19602W        W23902   8.452   3.907  31.596 -0.0047 -0.0703  0.0445
19603W        W23903   6.386   0.395  36.280 -0.1479  0.1008 -0.0131
19604W        W23904   5.305   5.616  10.233 -0.1288  0.0445 -0.3106
19605W        W23905   3.130   1.863   6.238  0.1149 -0.0757 -0.1579
19606W        W23906  10.150   4.346   8.277  0.0722 -0.1010 -0.1707
19607W        W23907  10.368   0.373   2.543  0.1930  0.1393 -0.3127
19608W        W23908   5.117   3.553  42.223  0.1453  0.2047 -0.0022
19609W        W23909   7.775   3.299  10.135  0.2176 -0.0260 -0.0003
19610W        W23910  16.971   5.822  23.850  0.0100 -0.0429  0.0596
19611W        W23911   5.737   5.540  21.837  0.3484 -0.0667  0.0868
19612W        W23912   0.558   4.316   0.600  0.0676 -0.1967  0.0093
19613W        W23913   4.593   1.540   2.540  0.1570  0.0400  0.1900
19614W        W23914  12.638   2.002  37.698  0.1996 -0.2322  0.2211
19615W        W23915  19.685   1.407  20.423 -0.4116  0.0699 -0.0457
19616W        W23916   7.258   2.811  13.112  0.1039  0.0723  0.1749
19617W        W23917   4.619   4.059   0.103 -0.0815 -0.2190  0.2356
19618W        W23918  21.079   5.695   0.549  0.0206  0.3858  0.1263
19619W        W23919   8.574   2.859  25.816  0.2692  0.2488 -0.2113
19620W        W23920   8.380   3.430  11.978  0.1999 -0.0352 -0.2570
19621W        W23921  14.069   6.598   2.490  0.1615  0.0048  0.0076
19622W        W23922   5.428   1.008  40.736 -0.0139 -0.0598 -0.2890
19623W        W23923  21.123   6.086  31.841  0.2169  0.0300 -0.1854
19624W        W23924   6.370   5.816  42.240 -0.2195 -0.0026  0.1412
19625W        W23925  11.296   2.778  41.160 -0.0159 -0.0564 -0.0645
19626W        W23926   8.917   5.698  40.175 -0.0578 -0.1294  0.0884
19627W        W23927   8.668   5.380  11.166 -0.4781 -0.2009  0.1453
19628W        W23928   0.141   4.612   0.721 -0.1082  0.0613 -0.2471
19629W        W23929   5.659   4.550  13.618 -0.0841  0.2567  0.4079
19630W        W23930   0.925   4.675  39.864  0.1134 -0.0956 -0.1054
19631W        W23931  13.836   6.352  13.613 -0.1232 -0.0632 -0.1857
19632W        W23932  17.921   4.745  38.030  0.2918  0.0345  0.0510
19633W        W23933  20.818   5.807  44.550 -0.1617  0.0209  0.1076
19634W        W23934  20.152   5.457   4.099  0.0605 -0.2215  0.0390
19635W        W23935  18.478   0.532   2.932 -0.0829 -0.0100  0.1370
19636W        W23936  12.482   1.140  18.993 -0.0577  0.0177 -0.0421
19637W        W23937  13.819   3.158   5.111  0.5126  0.1679 -0.0107
19638W        W23938   8.896   4.163  29.529  0.1160  0.2009 -0.1029
19639W        W23939   2.446   4.807   1.127  0.1038 -0.1808  0.1620
19640W        W23940   0.839   5.919  13.848 -0.0823 -0.2252 -0.0655
19641W        W23941   8.552   4.455  37.831 -0.0609 -0.4155  0.4114
19642W        W23942   9.104   0.943   9.232  0.0045  0.4061  0.0758
19643W        W23943  20.448   0.840  32.927  0.2085 -0.3198 -0.0795
19644W        W23944   3.593   3.548  35.079 -0.0166 -0.1405  0.0163
19645W        W23945   1.908   2.569  31.966 -0.1978  0.1324 -0.2651
19646W        W23946   2.558   1.059  34.098 -0.1560 -0.1890 -0.0029
19647W        W23947  11.134   6.133   3.872 -0.0269 -0.1496 -0.1692
19648W        W23948   5.516   2.042  21.764 -0.3551 -0.3251  0.2065
19649W        W23949   0.164   4.586   8.157  0.2593  0.0174  0.0074
19650W        W23950  15.992   1.386  10.599 -0.0989  0.1409 -0.3157
19651W        W23951  15.367   3.732  35.119 -0.0834 -0.0990 -0.2889
19652W        W23952   7.564   6.114  23.512  0.2710  0.0507  0.0483
19653W        W23953   3.877   1.196  29.802 -0.2085  0.0252  0.1201
19654W        W23954  15.681   5.936  14.711  0.1891  0.6133  0.2008
19655W        W23955  11.837   2.067  15.102  0.1518  0.1127 -0.1296
19656W        W23956  13.807   6.156   1.483 -0.1038  0.3640  0.1558
19657W        W23957  17.421   5.416   3.034  0.1437  0.1290  0.0898
19658W        W23958  16.730   5.445  13.554 -0.3656 -0.0701 -0.1725
19659W        W23959   6.939   0.599  40.166 -0.2166  0.2109  0.0580
19660W        W23960   5.744   3.179  36.766  0.1203  0.1869  0.0675
19661W        W23961  16.554   4.300   2.953 -0.1097 -0.1083 -0.2076
19662W        W23962   7.127   5.154   2.722  0.0541  0.0840 -0.1148
19663W        W23963   6.795   3.185  31.083 -0.1561  0.1405  0.0128
19664W        W23964   5.191   1.661   1.332 -0.4877  0.1228 -0.0092
19665W        W23965  16.005   1.920  24.215  0.0640  0.2697  0.0424
19666W        W23966  12.661   0.555  31.030  0.1674 -0.0205  0.2980
19667W        W23967   2.410   5.472  31.519  0.1165 -0.2646  0.0168
19668W        W23968   1.938   4.420  11.731 -0.2091  0.2822 -0.0128
19669W        W23969   3.738   6.185  42.859  0.2093 -0.0434 -0.0960
19670W        W23970   5.593   3.630  25.213 -0.1834  0.0666  0.3898
19671W        W23971   3.401   0.020   3.446  0.0172 -0.1250 -0.1222
19672W        W23972  10.432   5.696   5.077  0.0704  0.3399  0.2895
19673W        W23973  14.541   0.413  36.755  0.1024  0.2307  0.0025
19674W        W23974  12.413   3.581  39.472  0.0919  0.1913 -0.3880
19675W        W23975  17.231   3.692  14.990 -0.1173  0.0348  0.2404
19676W        W23976  20.661   2.319   2.938  0.0402 -0.0533  0.0431
19677W        W23977   8.414   1.739  30.794  0.2832  0.3534 -0.0583
19678W        W23978   6.974   0.388  38.042 -0.0639  0.2940  0.1410
19679W        W23979   8.691   3.531   9.868 -0.1439  0.1669 -0.0837
19680W        W23980  14.089   0.868  33.807 -0.4963 -0.1252 -0.1728
19681W        W23981   4.275   5.667  11.836  0.0356  0.2276  0.1750
19682W        W23982   1.753   2.826  11.268 -0.3232  0.2710  0.0886
19683W        W23983  16.306   2.253  12.930  0.1243 -0.2324  0.0333
19684W        W23984   2.567   6.349  33.050  0.0152 -0.0283  0.0441
19685W        W23985   6.155   2.897  25.803  0.1580  0.0556 -0.1444
19686W        W23986  20.830   3.924   8.809 -0.1276 -0.4823  0.1514
19687W        W23987  17.004   4.313  41.807 -0.0536  0.3843 -0.2608
19688W        W23988   3.573   1.262  16.002  0.1154  0.1049  0.0563
19689W        W23989   6.416   0.470  34.742 -0.0815 -0.0062  0.3067
19690W        W23990  15.403   0.268  40.485 -0.0805  0.1235  0.3601
19691W        W23991   0.999   3.184  16.338  0.1118  0.0345  0.0926
19692W        W23992  18.241   1.294  17.753  0.1292  0.1210  0.1674
19693W        W23993  17.094   4.370  29.676  0.5006 -0.3482 -0.1782
19694W        W23994   4.312   4.552   5.745 -0.0443 -0.0864 -0.3223
19695W        W23995  12.524   2.866  40.526  0.2171  0.1470 -0.3119
19696W        W23996   3.542   3.184   2.978 -0.1363  0.1641 -0.2118
19697W        W23997  20.507   4.555  41.549 -0.2258 -0.1684  0.0001
19698W        W23998  12.339   4.784  39.132  0.0525 -0.0890 -0.0014
19699W        W23999  15.393   5.815   8.463 -0.1644 -0.1972 -0.3217
19700W        W24000  20.862   4.206  17.020 -0.0490  0.3284 -0.1852
19701W        W24001   0.586   4.906  10.447  0.0195  0.1855 -0.0447
19702W        W24002  14.160   4.777  17.913  0.2449  0.1390  0.2869
19703W        W24003  11.487   3.986   0.358 -0.0571 -0.1166 -0.0568
19704W        W24004  17.767   2.913  40.668  0.1287  0.3346  0.3920
19705W        W24005   6.392   4.303   2.676  0.2837 -0.1668  0.0490
19706W        W24006   4.289   0.812   8.666  0.4340 -0.1380  0.1433
19707W        W24007  10.564   3.031  11.671  0.1848 -0.0628  0.2642
19708W        W24008  16.759   2.684  39.758  0.0319 -0.1566  0.1571
19709W        W24009   2.579   4.437  28.395 -0.0937 -0.2777  0.0106
19710W        W24010  20.098   3.150  10.773  0.2093  0.2096 -0.0620
19711W        W24011   0.414   2.044  15.252 -0.2132 -0.0107 -0.3417
19712W        W24012   9.921   2.659  43.968 -0.0645 -0.1920 -0.3104
19713W        W24013  17.757   0.048   6.200 -0.2590  0.1547 -0.1096
19714W        W24014  18.155   3.334  44.951 -0.0292  0.2059 -0.0732
19715W        W24015  12.505   0.874  18.011  0.1763 -0.1738 -0.0846
19716W        W24016  18.408   5.933  20.132  0.0802 -0.3107  0.1486
19717W        W24017   5.399   5.108  23.713  0.1377 -0.0780  0.4167
19718W        W24018  15.267   1.784  38.693  0.0741 -0.0256 -0.1141
19719W        W24019   3.421   5.723  12.176 -0.1754 -0.0152 -0.0358
19720W        W24020   5.992   4.876  27.861 -0.3428  0.0757  0.2125
19721W        W24021  16.074   4.332   0.494 -0.2799  0.1706  0.1703
19722W        W24022  17.554   4.041  22.511 -0.3346  0.2187 -0.1037
19723W        W24023  15.917   4.842   3.835 -0.5542  0.4346  0.1407
19724W        W24024   8.167   5.607  36.994  0.2056 -0.0514  0.2150
19725W        W24025   8.413   3.456   7.922 -0.0894  0.2061 -0.1089
19726W        W24026  10.641   3.549  43.060  0.0077  0.0927  0.1824
19727W        W24027  15.698   0.730  31.021  0.1752 -0.2839 -0.0879
19728W        W24028  13.680   4.727  28.758  0.0260 -0.1426 -0.0461
19729W        W24029   4.950   3.934   6.163  0.2290  0.1065 -0.1632
19730W        W24030  20.080   2.320  33.927 -0.1965  0.0259 -0.0182
19731W        W24031   5.057   5.330  42.004 -0.2517  0.2746  0.1316
19732W        W24032   8.017   1.841  33.501  0.0556 -0.1546  0.3960
19733W        W24033   6.654   3.284  31.602  0.2195  0.0983  0.0833
19734W        W24034  17.303   0.127  29.298 -0.2898  0.2977  0.1638
19735W        W24035   4.813   1.483  21.258  0.0503 -0.1891  0.4305
19736W        W24036  18.844   6.214   4.636  0.1939  0.0621 -0.0987
19737W        W24037   5.413   6.425  26.714 -0.0740  0.0586  0.0815
19738W        W24038  14.125   3.607  42.438 -0.2833  0.1766  0.0913
19739W        W24039   4.257   0.001  31.932  0.4467  0.0739 -0.2902
19740W        W24040  20.966   1.325  31.067 -0.0996  0.2507 -0.0101
19741W        W24041  11.218   0.408  12.667 -0.0968 -0.2382  0.3555
19742W        W24042  20.400   3.555  18.959  0.2461 -0.0816 -0.1943
19743W        W24043   2.646   2.611  33.528 -0.0011 -0.0404  0.1636
19744W        W24044  11.694   3.278   1.057 -0.1158 -0.1220 -0.1077
19745W        W24045  14.677   1.167  41.126 -0.0740  0.1127 -0.1233
19746W        W24046   5.843   3.382   8.070  0.1269  0.0700 -0.0932
19747W        W24047   8.140   4.435   5.191  0.0493  0.0163 -0.0164
19748W        W24048  14.824   2.409   1.322 -0.0160 -0.1406  0.1801
19749W        W24049  19.636   0.005   2.622  0.0638 -0.0029 -0.0170
19750W        W24050   6.034   4.652  10.624 -0.0291  0.4021 -0.0580
19751W        W24051  12.366   4.375  40.956 -0.1606  0.0276 -0.0601
19752W        W24052  16.831   3.234  39.901 -0.0406  0.1711  0.0989
19753W        W24053  11.003   3.164  38.946 -0.1673  0.3897  0.1798
19754W        W24054   4.067   2.519  43.541  0.1978  0.3331 -0.1803
19755W        W24055  16.756   4.802  29.630  0.0194 -0.2121 -0.4080
19756W        W24056  12.647   2.107  41.858  0.1334 -0.0446  0.0282
19757W        W24057   6.867   3.253  33.400 -0.1001  0.0800 -0.0599
19758W        W24058   7.639   4.336  12.754 -0.1440 -0.2462  0.2424
19759W        W24059  20.027   4.367  16.670 -0.3130  0.1851 -0.4424
19760W        W24060  17.597   6.271  38.171 -0.3068 -0.2809 -0.1250
19761W        W24061   6.335   5.394  24.595 -0.0259  0.0490 -0.0395
19762W        W24062  16.624   5.471   0.484  0.0790  0.2762  0.1418
19763W        W24063   2.738   4.869  43.542  0.0791 -0.0935  0.3265
19764W        W24064   6.446   1.765  37.206 -0.2550 -0.2172 -0.0800
19765W        W24065  12.779   1.733  39.807  0.1860 -0.1316 -0.1477
19766W        W24066  15.798   1.446   7.225  0.2102  0.1541 -0.3569
19767W        W24067  17.487   1.358  40.345  0.1064  0.0621 -0.1625
19768W        W24068   7.571   1.839   8.816 -0.0497  0.0787  0.0930
19769W        W24069   3.924   0.357  35.187  0.2241 -0.3133 -0.0599
19770W        W24070  18.433   1.476  41.533  0.2408 -0.3078 -0.0214
19771W        W24071   2.173   2.908   3.441 -0.0676  0.0469  0.2726
19772W        W24072  10.860   6.108  12.839  0.1568 -0.0878 -0.0670
19773W        W24073  18.248   4.657   3.536  0.2580  0.0748 -0.1457
19774W        W24074   2.470   1.929   0.516  0.0598 -0.1000 -0.1311
19775W        W24075  14.016   3.974  18.853 -0.1357 -0.3488 -0.2639
19776W        W24076  13.698   1.744  39.263 -0.2763  0.0372 -0.0152
19777W        W24077   7.162   6.154  25.079 -0.2027  0.2550 -0.3415
19778W        W24078   2.465   5.228   5.625 -0.3261  0.1862  0.1760
19779W        W24079  20.024   1.253  36.335  0.0662 -0.1974 -0.1881
19780W        W24080  19.253   5.987  33.976  0.1039 -0.0811  0.1073
19781W        W24081  10.989   0.951   0.908  0.0308 -0.2914  0.0321
19782W        W24082   3.581   0.158  38.675 -0.0484 -0.0101 -0.0625
19783W        W24083   5.160   3.887  24.003 -0.0401  0.0905 -0.2268
19784W        W24084  19.349   4.803  38.488  0.0474  0.1224  0.0885
19785W        W24085   2.062   4.643  43.771  0.0473  0.1476  0.1620
19786W        W24086   4.098   0.188   0.361 -0.2300 -0.1737  0.2000
19787W        W24087  15.912   4.492   9.290 -0.0102  0.0652  0.3431
19788W        W24088   2.733   4.571   8.305  0.5071  0.2059  0.1375
19789W        W24089  15.496   1.611  10.549 -0.1629 -0.0554 -0.1969
19790W        W24090   8.798   1.572  16.177 -0.3985 -0.0442  0.0650
19791W        W24091   5.057   0.515  23.493 -0.0609 -0.1624 -0.0427
19792W        W24092  18.998   5.937  36.705  0.1058 -0.0989 -0.2315
19793W        W24093  15.336   3.611  41.588 -0.5007 -0.0214  0.1508
19794W        W24094   1.199   1.571  29.360  0.0405 -0.0301 -0.1600
19795W        W24095  15.238   0.359  38.165 -0.3056  0.0363  0.0193
19796W        W24096  10.227   2.348   0.047  0.1506  0.3678  0.0965
19797W        W24097   2.569   4.842  16.117  0.0531  0.1676 -0.0417
19798W        W24098  13.290   3.705  35.958 -0.3814  0.0286 -0.0587
19799W        W24099  16.656   5.932  38.435  0.0142 -0.1616  0.1576
19800W        W24100   2.034   3.719   0.722 -0.1958  0.1372  0.1106
19801W        W24101  15.450   4.137  20.795 -0.0619 -0.2303  0.1171
19802W        W24102   9.355   5.358  24.188 -0.0807 -0.0132 -0.0002
19803W        W24103   6.404   2.587   3.422 -0.0028 -0.2233 -0.2119
19804W        W24104  14.977   6.196  10.158  0.1899  0.0156 -0.0315
19805W        W24105  17.195   0.976  14.262  0.3845  0.2643  0.0233
19806W        W24106   3.230   4.234  29.574  0.0840 -0.0959  0.2206
19807W        W24107  17.360   5.036  16.570  0.3847  0.0437 -0.0179
19808W        W24108   4.412   4.485   9.523 -0.2596 -0.1580 -0.0612
19809W        W24109   7.919   4.504   0.183  0.2198  0.2946  0.0968
19810W        W24110   1.764   4.519  44.544  0.0581  0.4051 -0.1929
19811W        W24111  17.544   3.837  18.174 -0.0492  0.0852 -0.1833
19812W        W24112  16.759   0.155   7.804 -0.0619 -0.0796  0.3513
19813W        W24113   0.022   2.533   5.606 -0.3148 -0.0858  0.1462
19814W        W24114  17.788   0.045  38.485  0.0141 -0.0757 -0.1805
19815W        W24115   2.201   2.815   1.050 -0.0648  0.4583  0.1901
19816W        W24116  10.924   4.823  32.015  0.3806 -0.0191  0.1277
19817W        W24117  13.791   4.765  39.345 -0.1166 -0.1211  0.0291
19818W        W24118   5.669   2.976  25.967  0.2606  0.0291 -0.3829
19819W        W24119   3.933   4.758  36.692  0.1078  0.0290 -0.1999
19820W        W24120   5.369   1.819  28.098  0.1764 -0.1106  0.0287
19821W        W24121   2.394   1.671   5.487 -0.3332 -0.2001 -0.0332
19822W        W24122  11.880   3.880  37.329 -0.0134  0.0084  0.0357
19823W        W24123  11.711   4.008  41.072  0.0092  0.2327  0.2535
19824W        W24124  13.734   6.039  32.425  0.0724  0.0940  0.1795
19825W        W24125  16.671   1.311  24.638  0.0476 -0.0523  0.3566
19826W        W24126  20.996   0.600   6.741  0.2332 -0.3031 -0.3327
19827W        W24127   8.455   3.992   8.939  0.0151  0.0297  0.1470
19828W        W24128   4.973   0.561  34.194  0.1893  0.0075  0.1653
19829W        W24129  15.375   0.526  35.954  0.0520 -0.2930  0.0902
19830W        W24130  15.133   0.318  29.794 -0.1488 -0.0606 -0.0542
19831W        W24131  18.599   2.319   7.049 -0.1289  0.0202  0.1464
19832W        W24132   5.632   4.487   4.344  0.0025 -0.2224  0.0358
19833W        W24133   6.878   5.247  34.630 -0.2737  0.1205 -0.1934
19834W        W24134   1.839   3.358   7.831  0.2252 -0.1619 -0.0339
19835W        W24135   0.915   1.797  34.687  0.0563  0.2211  0.0486
19836W        W24136   1.217   3.535  11.060 -0.1436  0.0112  0.1431
19837W        W24137  15.133   2.560  38.578 -0.1993  0.0204  0.2195
19838W        W24138  11.703   5.683   9.946  0.1844  0.1145  0.3737
19839W        W24139  12.228   5.120  37.353 -0.1016  0.0701 -0.0355
19840W        W24140  18.123   0.094  35.286  0.2791 -0.0645 -0.0260
19841W        W24141  16.305   6.570  30.167  0.0478 -0.1144  0.0322
19842W        W24142   3.655   2.934  40.291  0.3897 -0.1338  0.2657
19843W        W24143   0.487   6.079   3.631 -0.0176  0.0515 -0.2720
19844W        W24144  14.097   5.853  17.426  0.0104 -0.0813  0.2608
19845W        W24145   4.695   5.177   0.440  0.0013 -0.2939 -0.1782
19846W        W24146  13.299   0.674  14.309  0.0578  0.1010  0.0546
19847W        W24147  14.691   1.843  18.945 -0.0796  0.0876  0.1778
19848W        W24148   5.387   3.217   3.856 -0.2111  0.2632 -0.1130
19849W        W24149  10.516   3.575  10.093  0.1592  0.0251  0.1342
19850W        W24150   3.825   3.820  40.453  0.2016 -0.0452 -0.0209
19851W        W24151   6.957   2.634  43.380  0.1588 -0.3109  0.1021
19852W        W24152   3.670   4.209  44.648  0.2450  0.0197 -0.0391
19853W        W24153   0.598   5.792  42.004 -0.2450 -0.0204 -0.0405
19854W        W24154   3.199   6.492  10.535 -0.1955 -0.2000 -0.3913
19855W        W24155   3.617   4.462  24.489  0.1082 -0.1574  0.0904
19856W        W24156  11.027   1.181  33.664  0.0082  0.0937 -0.0212
19857W        W24157   6.954   0.166   4.114 -0.3783  0.2148  0.0056
19858W        W24158   9.712   5.779  41.207  0.1321 -0.1502  0.0439
19859W        W24159   5.396   0.708   4.872  0.0959 -0.2008  0.1361
19860W        W24160   4.918   3.313  23.896 -0.1128 -0.0265  0.0520
19861W        W24161  10.052   5.098  28.535 -0.1251 -0.2129 -0.0844
19862W        W24162   0.913   4.761  17.239 -0.0215  0.0126  0.0878
19863W        W24163  12.345   1.082   2.464 -0.2868  0.2664  0.1485
19864W        W24164   1.498   4.637  38.962  0.0710 -0.0086 -0.0217
19865W        W24165   3.091   2.466  42.521  0.3837 -0.3777 -0.2290
19866W        W24166   8.457   3.508  45.042  0.0148  0.0031  0.1944
19867W        W24167  19.708   4.322  44.743 -0.1433  0.1038  0.1814
19868W        W24168   2.705   4.687  27.942 -0.1435 -0.0206  0.0214
19869W        W24169  10.051   3.691  11.136 -0.3217 -0.0119 -0.2850
19870W        W24170  17.973   3.062  42.995 -0.1928  0.0631  0.1153
19871W        W24171  14.636   2.037  16.706  0.0728  0.0904 -0.0188
19872W        W24172  12.135   4.924   2.842 -0.0150  0.4302  0.1566
19873W        W24173   4.707   1.919  35.430 -0.3803  0.1522 -0.1023
19874W        W24174  10.759   1.891  30.386 -0.1749 -0.0901  0.1027
19875W        W24175   2.565   3.839  13.879  0.0828 -0.1116 -0.0271
19876W        W24176   0.682   2.048  42.156 -0.1987  0.2880  0.0679
19877W        W24177  12.722   1.472   5.694  0.4866  0.1653  0.1466
19878W        W24178   0.208   0.239  33.007  0.0845 -0.0690 -0.1166
19879W        W24179   3.833   4.266  28.162  0.0681  0.4223  0.0019
19880W        W24180  21.096   0.633  16.446 -0.2217  0.0042  0.1145
19881W        W24181   7.745   4.782  10.114  0.2169  0.2048 -0.2000
19882W        W24182   8.437   0.721  10.108  0.3442  0.1384 -0.0978
19883W        W24183   8.379   2.785   4.797  0.5753  0.1092  0.1529
19884W        W24184  18.715   1.386  42.018  0.0135  0.0631  0.0360
19885W        W24185   2.242   0.476  33.383 -0.0912 -0.0904 -0.0609
19886W        W24186   4.436   4.771   6.272 -0.2611 -0.0186  0.1116
19887W        W24187  19.612   6.503  39.428  0.1827  0.0401 -0.1377
19888W        W24188  14.854   1.843  15.682 -0.1560 -0.2841 -0.2125
19889W        W24189   3.071   2.920  14.295  0.0892 -0.2438  0.0513
19890W        W24190  11.624   0.436  42.338 -0.1407 -0.2263 -0.0286
19891W        W24191  18.725   4.945  41.676  0.0248 -0.0534  0.1187
19892W        W24192  19.763   2.139  17.147 -0.0338  0.0245  0.1002
19893W        W24193  16.887   6.125  25.442 -0.1454  0.1096  0.3902
19894W        W24194  12.917   3.890  44.245  0.1974 -0.1259 -0.2064
19895W        W24195   8.272   5.600  12.947 -0.1194 -0.2111  0.2892
19896W        W24196   7.796   5.858   6.572  0.1320 -0.0501  0.1491
19897W        W24197  19.563   6.551   0.059 -0.1816 -0.2885  0.1004
19898W        W24198  18.407   4.373  36.477  0.1841  0.0071  0.0194
19899W        W24199  17.485   0.277  38.101  0.2148  0.0733 -0.1572
19900W        W24200  12.879   2.182  40.278 -0.0246 -0.0081 -0.1178
19901W        W24201   8.206   5.019   1.280 -0.1872 -0.1373 -0.2157
19902W        W24202  20.010   0.825  19.646 -0.0512 -0.0732 -0.0860
19903W        W24203   3.219   1.579  31.983 -0.0193 -0.1552  0.0908
19904W        W24204   6.036   5.847   2.692 -0.0529  0.0641 -0.2204
19905W        W24205   4.301   3.149  37.408  0.0447 -0.0127  0.2298
19906W        W24206  19.438   5.353   7.557  0.0473 -0.1459 -0.2815
19907W        W24207   7.947   3.900  38.630 -0.2141 -0.1085  0.0821
19908W        W24208  17.112   4.022  15.344 -0.1345  0.1010  0.0868
19909W        W24209   7.435   3.609  10.347 -0.0466 -0.1962 -0.1639
19910W        W24210   2.329   0.270  31.936  0.0374 -0.2932  0.0156
19911W        W24211   9.221   1.703  13.909 -0.2713  0.0529  0.1703
19912W        W24212  20.891   1.412   3.855  0.1572  0.0455  0.3471
19913W        W24213  19.016   6.529  36.380  0.1544 -0.1342  0.0743
19914W        W24214  19.211   0.543  39.275  0.0253  0.1116 -0.1187
19915W        W24215  20.576   0.081  44.819  0.1475 -0.2322  0.3103
19916W        W24216   5.101   3.832  13.715 -0.1334  0.0644 -0.0807
19917W        W24217  14.831   3.688  40.185  0.0673 -0.1289 -0.1371
19918W        W24218   2.136   0.246   5.747  0.0325 -0.1262 -0.0529
19919W        W24219  19.975   2.268  13.444 -0.0035  0.0164 -0.0382
19920W        W24220   4.067   1.484  34.345  0.0967 -0.0192 -0.2608
19921W        W24221   3.500   5.805  15.505  0.1050 -0.0083  0.2544
19922W        W24222  12.924   3.392  39.643  0.0683  0.1863  0.2805
19923W        W24223  11.350   1.873   9.217 -0.1824 -0.0920  0.0853
19924W        W24224   1.080   3.721  26.510 -0.0496  0.0509 -0.0164
19925W        W24225   2.156   3.861  27.251 -0.0183 -0.0483  0.1123
19926W        W24226  16.883   0.387   6.205  0.0393 -0.0030 -0.1178
19927W        W24227  18.423   1.846  19.039  0.0542 -0.0263 -0.2210
19928W        W24228   7.822   3.014  25.120 -0.3059 -0.2585 -0.0108
19929W        W24229  11.658   5.369  31.133  0.3542  0.2124  0.0221
19930W        W24230   4.444   0.609  11.585 -0.1873  0.1246  0.3057
19931W        W24231  17.268   2.941  31.038 -0.2334  0.0278 -0.1085
19932W        W24232   1.928   4.784  11.373  0.1770 -0.0446  0.4939
19933W        W24233   5.345   5.669  23.084 -0.0126  0.1645  0.0518
19934W        W24234  14.088   4.098  19.818  0.3679  0.0865 -0.3632
19935W        W24235   7.898   3.942  15.729 -0.0372  0.1212 -0.2630
19936W        W24236   7.363   5.922   3.181 -0.2450 -0.0171  0.0365
19937W        W24237  13.085   1.263  43.381  0.0835 -0.3440 -0.2505
19938W        W24238  16.376   1.426  34.210 -0.2890  0.0349 -0.1469
19939W        W24239  15.671   0.651  19.530  0.0464  0.0545  0.0518
19940W        W24240   1.965   4.762  42.334  0.2620 -0.2960  0.0759
19941W        W24241   8.730   1.884  36.500  0.1895  0.4046  0.0095
19942W        W24242  19.598   6.347   3.328  0.1874  0.3140  0.0733
19943W        W24243   8.128   1.865  36.447 -0.0902  0.0986 -0.2159
19944W        W24244  18.737   6.247  16.744  0.2101  0.1962  0.3328
19945W        W24245   1.597   0.012  32.381  0.1259 -0.1193  0.2017
19946W        W24246   4.497   3.179   0.537 -0.2665 -0.1472 -0.1986
19947W        W24247  18.843   0.660   6.002  0.1652 -0.2378 -0.0161
19948W        W24248   7.134   5.344  36.768 -0.3856  0.1591  0.0493
19949W        W24249   7.607   6.494  37.035 -0.0646  0.0549 -0.1719
19950W        W24250   4.182   1.544  39.132 -0.0623 -0.0813 -0.2586
19951W        W24251  15.224   4.278   5.475  0.0664  0.0234  0.1139
19952W        W24252  11.179   0.121  17.096  0.0788 -0.0123 -0.0419
19953W        W24253  13.973   2.966  10.304 -0.0263  0.0181 -0.1727
19954W        W24254  10.983   6.292  17.848  0.3448  0.1921  0.3180
19955W        W24255  14.307   5.853  10.759 -0.1130  0.1031  0.2022
19956W        W24256  11.233   2.896  27.857  0.0836 -0.1122  0.1508
19957W        W24257   7.040   2.150   6.491 -0.0156  0.1602  0.0711
19958W        W24258  17.156   4.699  23.115 -0.3913 -0.0901  0.3108
19959W        W24259   8.315   3.820  28.209 -0.2451 -0.0952 -0.1793
19960W        W24260   5.257   3.378  42.781 -0.0551 -0.0807  0.1790
19961W        W24261   8.880   1.932  35.987 -0.0691  0.0077  0.2865
19962W        W24262  12.006   3.244  31.516  0.1856 -0.1035 -0.2030
19963W        W24263  17.053   0.015  37.953 -0.1214 -0.0830  0.0402
19964W        W24264  12.564   3.643  18.616  0.2903  0.1076 -0.3246
19965W        W24265   8.888   0.606  31.866 -0.1723 -0.0314 -0.3891
19966W        W24266   0.156   5.622  10.694  0.0505 -0.3144  0.2059
19967W        W24267   3.602   4.182  12.856 -0.1267 -0.1839 -0.0167
19968W        W24268  14.131   0.652  44.980  0.1735 -0.2672  0.2025
19969W        W24269   6.576   1.427   4.445 -0.0889 -0.3038  0.1640
19970W        W24270   8.384   4.338  26.346 -0.0463 -0.1710  0.0494
19971W        W24271   2.964   6.264  32.689 -0.0138 -0.1034  0.1521
19972W        W24272  19.212   2.614  11.040  0.1608 -0.1110 -0.1157
19973W        W24273   9.781   6.112   1.324  0.0107 -0.1402  0.1907
19974W        W24274   0.066   0.842  10.980 -0.1280 -0.2326  0.1474
19975W        W24275   7.537   6.518  29.960  0.1718  0.1639 -0.1976
19976W        W24276  18.893   6.191  17.277 -0.2906 -0.2598 -0.1379
19977W        W24277   1.446   0.191   1.588  0.0710 -0.0619 -0.0824
19978W        W24278  16.950   2.799  17.635  0.1435  0.0586  0.0106
19979W        W24279   9.588   4.648  40.333  0.1696 -0.1288  0.0288
19980W        W24280   8.601   6.566  35.216 -0.0476  0.3627  0.0636
19981W        W24281  14.409   3.215   3.996 -0.0709 -0.0481 -0.0898
19982W        W24282   8.693   4.391  11.367  0.0701  0.2046  0.0379
19983W        W24283   6.509   5.936  31.523 -0.0111  0.0675  0.3067
19984W        W24284  15.352   1.831  41.628 -0.1601 -0.0443 -0.1765
19985W        W24285  10.820   0.678  14.520 -0.0771  0.1915  0.0323
19986W        W24286   3.262   5.311  37.677  0.0851 -0.0275  0.0617
19987W        W24287  14.109   4.937   1.204  0.0211  0.0820  0.0078
19988W        W24288  18.892   1.946  33.326  0.2365 -0.1919  0.0702
19989W        W24289  16.596   3.544  41.637 -0.1304 -0.0852  0.0970
19990W        W24290   5.892   4.550  30.007  0.4413  0.0004 -0.1426
19991W        W24291  20.616   4.819  38.607 -0.0824 -0.4496 -0.2642
19992W        W24292  15.753   6.017   3.402  0.0745 -0.3156  0.1446
19993W        W24293   5.466   1.542   2.098 -0.0262 -0.0508 -0.2496
19994W        W24294  19.761   3.877   8.962 -0.1629  0.1663 -0.6044
19995W        W24295   1.379   2.518   2.159  0.2417 -0.1101 -0.2928
19996W        W24296   5.932   2.909   5.586 -0.5055 -0.1128  0.1196
19997W        W24297   7.926   0.504  31.567 -0.1970  0.0224  0.2856
19998W        W24298  15.667   2.702  13.998 -0.1949 -0.0614  0.1941
19999W        W24299   9.236   3.426  31.110 -0.1884 -0.0228 -0.0070
20000W        W24300  16.243   5.246  16.395  0.3380 -0.2855  0.1255
20001W        W24301   7.539   1.721  33.477  0.0042  0.0500 -0.2318
20002W        W24302   5.860   1.325  30.407  0.0365  0.1487  0.3578
20003W        W24303  19.774   2.128   0.856 -0.0753  0.2058 -0.2797
20004W        W24304   1.468   0.887  39.050 -0.2609  0.1218  0.1307
20005W        W24305  16.125   2.718   3.875 -0.0953  0.0613  0.0669
20006W        W24306   6.994   2.594  31.902  0.1279  0.2266  0.3916
20007W        W24307  16.951   2.237  19.344 -0.1406 -0.3424 -0.0940
20008W        W24308   5.675   1.997  14.351 -0.1406 -0.4647 -0.0415
20009W        W24309   5.864   3.631  20.732 -0.2485 -0.2631 -0.2587
20010W        W24310  20.369   0.733  39.341  0.2021  0.1305  0.0643
20011W        W24311   7.575   4.491  27.744  0.2013  0.1719  0.0228
20012W        W24312  10.692   4.820   4.831 -0.1555 -0.0123  0.0108
20013W        W24313   6.500   5.497  37.360 -0.0693 -0.2004 -0.4442
20014W        W24314  10.634   3.901  25.431 -0.0796 -0.1874  0.0451
20015W        W24315   5.079   5.122  21.701  0.0149 -0.0064  0.0680
20016W        W24316   0.133   3.673  17.718 -0.4755  0.0788  0.0269
20017W        W24317  15.402   0.583   9.220  0.0033  0.0701 -0.0335
20018W        W24318  11.934   5.749   5.345  0.2489  0.0230 -0.1375
20019W        W24319  19.775   5.745  10.346  0.3079  0.0695 -0.0380
20020W        W24320   3.387   3.921   2.315 -0.0254  0.0781 -0.2175
20021W        W24321   8.944   1.258   9.691 -0.1559 -0.1789  0.0974
20022W        W24322  12.989   4.993  19.196 -0.1307  0.2577 -0.0575
20023W        W24323  17.529   0.011  21.141 -0.0586 -0.1952 -0.0542
20024W        W24324  17.223   2.773  35.508 -0.0915  0.2289 -0.1845
20025W        W24325   8.495   0.721   9.557  0.0233 -0.2275 -0.0830
20026W        W24326  20.145   0.905  36.712 -0.3332  0.0976 -0.4745
20027W        W24327   1.706   2.021  45.021  0.1663 -0.0265 -0.4054
20028W        W24328   9.353   6.058  42.049  0.0492  0.1533  0.3075
20029W        W24329  20.492   3.565   8.322  0.0731 -0.2448  0.1589
20030W        W24330  12.694   1.219  17.269  0.1358 -0.1027  0.2151
20031W        W24331  21.053   3.919  41.949 -0.1337 -0.0909 -0.1066
20032W        W24332  11.929   2.057   2.458  0.1143 -0.2183 -0.1653
20033W        W24333  17.575   3.903  32.990  0.0994  0.3282  0.1200
20034W        W24334   5.100   1.781  30.954 -0.1428  0.2208 -0.1316
20035W        W24335  21.107   1.121  17.390 -0.0753  0.0556  0.1783
20036W        W24336  16.323   6.236  44.370  0.1348  0.0082 -0.2789
20037W        W24337  12.659   5.040  36.473  0.0327 -0.2482  0.0048
20038W        W24338   0.237   6.276  15.155  0.2496 -0.2554 -0.0327
20039W        W24339   8.388   1.259   9.797 -0.1373  0.6359  0.2593
20040W        W24340  14.430   3.118   4.534 -0.1768  0.1831 -0.0933
20041W        W24341  10.593   2.119  43.138 -0.0459  0.1978 -0.0985
20042W        W24342   6.827   4.195   8.067 -0.0331 -0.0758 -0.1340
20043W        W24343   1.606   4.133  29.319  0.0216 -0.5215  0.1806
20044W        W24344   7.700   1.070  39.825  0.0915 -0.1663  0.3076
20045W        W24345  14.920   3.334   4.451 -0.2271  0.0190  0.1720
20046W        W24346  11.055   1.550   8.960  0.1318  0.0575  0.1917
20047W        W24347   1.745   2.082   2.314 -0.1116  0.0079  0.0741
20048W        W24348   0.473   1.616  26.768 -0.1703 -0.2213 -0.1256
20049W        W24349  21.130   5.342   3.460 -0.3089  0.0522  0.1406
20050W        W24350   5.466   4.469  30.266 -0.1150 -0.2127  0.1832
20051W        W24351   4.059   0.355  39.834  0.0046 -0.0316  0.1257
20052W        W24352  10.621   4.778  32.420  0.0861 -0.0459  0.3812
20053W        W24353  14.515   3.273  19.801  0.1330 -0.1885 -0.0160
20054W        W24354  14.375   3.682   0.807  0.2092  0.0122  0.3390
20055W        W24355  20.208   4.930   5.209  0.1329  0.0310  0.0747
20056W        W24356  14.237   0.588  17.920  0.0319  0.2243  0.0067
20057W        W24357   0.110   3.678  16.342  0.1406  0.1654  0.1388
20058W        W24358  12.363   4.296  13.266  0.1018 -0.1663 -0.4369
20059W        W24359  10.886   2.178  15.659 -0.0044 -0.0155 -0.2879
20060W        W24360  20.500   5.309   5.079 -0.1837  0.2793 -0.0435
20061W        W24361   4.749   3.912  44.213  0.0530  0.1861 -0.2716
20062W        W24362  20.321   1.848  13.608  0.1750  0.2993 -0.0615
20063W        W24363  19.030   0.912   7.150 -0.2678  0.0009 -0.3742
20064W        W24364   3.133   0.513  29.005 -0.0962 -0.0696  0.0220
20065W        W24365   8.473   2.853   0.737  0.1826 -0.1470 -0.1420
20066W        W24366  15.259   4.229  17.310 -0.1068  0.0122 -0.3207
20067W        W24367   6.403   3.797  42.118 -0.2133  0.2965 -0.0852
20068W        W24368   5.597   4.602  41.169  0.0275  0.1399 -0.0194
20069W        W24369   5.258   3.224  12.070 -0.0139 -0.0736 -0.1086
20070W        W24370   2.098   3.016  25.288 -0.4095 -0.0077  0.3146
20071W        W24371   0.473   1.232   6.414  0.1099  0.0639  0.2173
20072W        W24372   5.844   1.116   4.505 -0.1237 -0.0005  0.1711
20073W        W24373   5.371   2.836  11.231 -0.0878 -0.2908 -0.1169
20074W        W24374  20.313   0.037  40.130 -0.2051  0.0176  0.0066
20075W        W24375   8.174   3.789   3.111 -0.2662  0.0205  0.0655
20076W        W24376  18.150   6.290  19.870 -0.0514 -0.1407  0.1322
20077W        W24377  21.076   2.899  31.606 -0.1477  0.1918 -0.3129
20078W        W24378   7.222   2.022   9.756  0.2196 -0.1165  0.1199
20079W        W24379   6.923   5.830  36.649 -0.1331 -0.2855 -0.1298
20080W        W24380   9.162   5.686  25.247  0.2695 -0.1790  0.0947
20081W        W24381   7.660   4.278  42.675  0.2841  0.1273 -0.1184
20082W        W24382   8.878   3.847  44.756  0.2135 -0.1230 -0.1572
20083W        W24383  10.651   0.740  30.697  0.1151 -0.3287  0.0684
20084W        W24384   7.536   1.400  39.130 -0.1647 -0.0848 -0.0223
20085W        W24385  20.498   1.373   1.897 -0.3402  0.3799  0.0260
20086W        W24386  10.659   2.311   1.406 -0.2677 -0.0880 -0.0706
20087W        W24387  16.974   3.896  19.739 -0.0830 -0.0626  0.1237
20088W        W24388  19.428   4.303   5.536 -0.0439 -0.1295 -0.1096
20089W        W24389   8.115   2.475  16.274 -0.2085 -0.0050  0.1021
20090W        W24390  10.699   6.026  26.836 -0.0818  0.0381 -0.0398
20091W        W24391   3.015   6.353  15.110 -0.1239 -0.2977 -0.0057
20092W        W24392  18.346   2.324  36.844 -0.1514 -0.4349  0.0937
20093W        W24393  10.183   2.219   5.538 -0.0835 -0.0236 -0.0476
20094W        W24394  11.136   3.965  33.546  0.1593 -0.2839 -0.0991
20095W        W24395  11.534   0.218   9.390  0.0064  0.0897  0.2413
20096W        W24396  15.518   1.097  10.657  0.5379 -0.0934  0.1271
20097W        W24397   6.617   4.472  31.717 -0.0897  0.1084 -0.2043
20098W        W24398   9.508   3.840  28.804 -0.1607  0.0331 -0.0484
20099W        W24399   0.263   1.634   2.892  0.0529  0.1102  0.0634
20100W        W24400   6.512   5.453  30.733 -0.1714  0.0791  0.0899
20101W        W24401   0.790   1.930  11.437  0.1726 -0.1931 -0.0372
20102W        W24402   0.245   3.621   5.819  0.0510 -0.1662 -0.3064
20103W        W24403   7.960   0.792  34.478  0.3116  0.3609 -0.0306
20104W        W24404  16.061   0.529   9.989  0.1037 -0.0517 -0.1141
20105W        W24405  18.123   3.447  10.502 -0.0888 -0.2165  0.0819
20106W        W24406  17.109   6.137   9.394  0.1736 -0.0680 -0.4610
20107W        W24407   5.331   2.274  27.480 -0.1113 -0.2562 -0.0678
20108W        W24408  16.691   2.982   9.082 -0.1240 -0.1952 -0.0250
20109W        W24409  15.505   0.793  20.768 -0.1800  0.5107 -0.1528
20110W        W24410  18.554   0.744  32.765  0.0633 -0.3352  0.0225
20111W        W24411   0.425   2.599  28.053  0.1564 -0.0037 -0.0211
20112W        W24412   8.537   3.938  39.714  0.0799  0.2376 -0.0399
20113W        W24413   7.569   3.072  31.446  0.3093 -0.0126 -0.0003
20114W        W24414  12.877   2.780   6.834  0.0264  0.0186  0.0724
20115W        W24415  15.475   1.415  20.045  0.1811  0.2584  0.0469
20116W        W24416  13.430   3.018  15.295  0.0753  0.0506  0.0330
20117W        W24417   6.282   3.659  37.545  0.1774  0.0000 -0.0241
20118W        W24418   3.345   4.685   7.027 -0.3193  0.0956 -0.0264
20119W        W24419  12.250   5.750   8.819  0.0586  0.1165  0.0384
20120W        W24420   6.880   5.420  26.322  0.3371 -0.1139 -0.0865
20121W        W24421   7.130   4.608  40.655 -0.1879  0.0407 -0.0510
20122W        W24422  18.705   5.057  40.105  0.2421 -0.1133  0.0100
20123W        W24423   0.108   3.209  16.703 -0.3069 -0.1267 -0.3004
20124W        W24424  14.376   2.664  12.378 -0.0150  0.1515 -0.1412
20125W        W24425   1.430   0.088  33.317 -0.0501 -0.2649  0.0338
20126W        W24426   3.508   0.882  28.056  0.0720  0.1765  0.0061
20127W        W24427   9.762   4.764  42.219 -0.1749  0.1277  0.2785
20128W        W24428   2.540   5.876  39.631 -0.0700  0.1293  0.1324
20129W        W24429   6.923   2.935   8.932  0.2931  0.1668 -0.1784
20130W        W24430  15.182   5.870  33.029  0.0336 -0.4867  0.1380
20131W        W24431   5.993   2.416  37.019  0.2740  0.1972 -0.1956
20132W        W24432   0.047   4.643   6.222 -0.2061  0.0802 -0.0909
20133W        W24433   3.279   1.782  37.798  0.0648  0.2190 -0.2684
20134W        W24434   9.726   5.591  34.452 -0.1664 -0.1695  0.3494
20135W        W24435   9.018   1.580  41.359  0.1579  0.0215  0.1430
20136W        W24436   7.096   1.637  40.780  0.0860  0.1779 -0.1205
20137W        W24437  19.530   4.593  12.379  0.2076 -0.2130 -0.1853
20138W        W24438  18.566   0.746   0.096 -0.3719  0.0209 -0.2319
20139W        W24439  16.272   2.338  31.017  0.0203  0.0266  0.1257
20140W        W24440  13.103   0.516  31.308 -0.1333 -0.0167 -0.0823
20141W        W24441   7.777   6.469  41.147 -0.0602  0.0087  0.1390
20142W        W24442   1.572   6.203  26.439  0.2591 -0.1445  0.0193
20143W        W24443  18.948   5.663  35.676  0.0571  0.0087  0.1380
20144W        W24444   4.668   4.706  29.520 -0.0584  0.1657  0.1762
20145W        W24445   1.936   6.423  38.732  0.1416  0.2051 -0.2579
20146W        W24446   4.567   3.166  38.643 -0.1175 -0.3688 -0.0987
20147W        W24447  13.861   1.517  20.834 -0.0324 -0.3657  0.0059
20148W        W24448   2.268   3.455  32.115  0.0702 -0.0367  0.1153
20149W        W24449   1.285   5.688   8.776  0.2887 -0.0927  0.2989
20150W        W24450  20.438   3.321  28.246  0.1269  0.1028  0.3731
20151W        W24451   8.186   1.349  12.677  0.0383  0.0273  0.2141
20152W        W24452   5.765   4.023   7.190  0.0526  0.2980  0.1541
20153W        W24453   5.570   1.401   3.570  0.1257  0.1637 -0.0154
20154W        W24454   0.616   0.769  14.247 -0.0435 -0.1080  0.0010
20155W        W24455  12.100   0.624  32.545 -0.0611  0.0745  0.1985
20156W        W24456  10.031   3.844  14.219 -0.0493 -0.0864  0.0407
20157W        W24457   6.262   4.806  39.562  0.0683  0.2827  0.0557
20158W        W24458  14.563   5.025  16.497 -0.3028 -0.1060 -0.0648
20159W        W24459  15.829   4.424   7.763 -0.2671 -0.0620 -0.1387
20160W        W24460   1.795   2.079  29.827 -0.3597 -0.0891 -0.2899
20161W        W24461   2.154   5.382   7.738  0.0757  0.1134 -0.0934
20162W        W24462  15.608   1.242  11.579 -0.1968 -0.2170  0.0162
20163W        W24463   7.129   4.799  34.551  0.0383 -0.1937  0.1489
20164W        W24464  14.457   3.453  19.319  0.0115 -0.2354  0.0332
20165W        W24465   6.225   1.834  35.806 -0.0377  0.0068  0.1338
20166W        W24466  14.345   1.819   1.851  0.1615  0.1509  0.3334
20167W        W24467  12.742   2.430  35.479  0.3771  0.2829 -0.1545
20168W        W24468  10.857   3.534  29.006 -0.0956 -0.0129 -0.0362
20169W        W24469  14.497   4.521  16.321 -0.0628  0.1635 -0.0320
20170W        W24470   1.182   2.049  27.369 -0.0195  0.0123  0.0427
20171W        W24471   0.931   0.328  38.495  0.2438 -0.1833  0.1200
20172W        W24472   4.123   1.947  38.397  0.1489 -0.0596  0.1636
20173W        W24473   8.767   4.172  13.832  0.2266  0.1223 -0.0424
20174W        W24474   2.583   1.959   2.773  0.3783 -0.1058  0.1889
20175W        W24475   8.938   5.681   0.914  0.0263 -0.2167 -0.0144
20176W        W24476   8.502   0.334   3.125 -0.1792  0.1058 -0.1364
20177W        W24477   2.167   2.843  27.658 -0.0223 -0.0643  0.1064
20178W        W24478  18.060   6.310   7.781  0.1221  0.1036  0.5071
20179W        W24479   4.121   3.572  28.842  0.1081  0.1449 -0.4489
20180W        W24480   1.615   3.145  38.161 -0.0024 -0.1130  0.0955
20181W        W24481  16.847   3.414  20.610  0.0793 -0.0341 -0.0172
20182W        W24482  18.271   1.047  34.761  0.2162  0.1173 -0.1052
20183W        W24483  13.207   1.434   3.911 -0.0797  0.3622 -0.1909
20184W        W24484   9.225   4.816  30.060  0.0673 -0.0792  0.0188
20185W        W24485  18.726   6.472  15.469 -0.0722 -0.2942  0.0663
20186W        W24486   6.397   5.972  30.985 -0.0125 -0.0829 -0.0807
20187W        W24487  18.775   1.071  44.030 -0.0652 -0.3236  0.1108
20188W        W24488  11.604   2.226   5.489  0.1305  0.2900  0.1055
20189W        W24489  20.095   5.924   8.425 -0.0213 -0.0323 -0.0939
20190W        W24490   3.597   6.238  42.365  0.4098 -0.0095 -0.0482
20191W        W24491   6.476   0.025  38.149 -0.2156 -0.1749  0.1371
20192W        W24492   6.475   2.596  40.460 -0.1355  0.0905  0.0976
20193W        W24493  20.716   6.424   9.076 -0.4646 -0.0223  0.0060
20194W        W24494  20.084   4.809  10.468 -0.0652  0.0386 -0.0080
20195W        W24495   3.313   3.117  23.300 -0.1116  0.1282 -0.0239
20196W        W24496   4.456   1.384   5.962  0.0835 -0.0017 -0.1400
20197W        W24497   2.423   2.699  11.913 -0.4098  0.0903 -0.0994
20198W        W24498  10.164   2.007  43.432  0.2060 -0.1512  0.2118
20199W        W24499   6.592   3.354   2.353  0.2254 -0.1067 -0.1960
20200W        W24500  19.839   5.129  11.391  0.1653  0.0697 -0.2413
20201W        W24501  17.733   4.466  22.231  0.1248 -0.0175 -0.2178
20202W        W24502   8.997   6.094  42.513 -0.1802  0.1883  0.0409
20203W        W24503   9.311   3.614   2.259  0.2122  0.3308  0.2004
20204W        W24504  19.969   4.166   3.639 -0.1745 -0.2254  0.0506
20205W        W24505  17.383   3.897  42.136  0.0382 -0.2213 -0.1605
20206W        W24506  18.789   2.142   5.915  0.0222  0.2929  0.1222
20207W        W24507  18.110   5.982  33.856 -0.0049  0.0222 -0.0143
20208W        W24508  17.714   4.247  39.395 -0.0213  0.3691  0.0869
20209W        W24509   0.094   2.805   5.036 -0.0137 -0.1595 -0.4396
20210W        W24510   3.051   3.881   7.282 -0.0206  0.0913 -0.1943
20211W        W24511  15.070   2.884   4.635  0.1838  0.0387  0.1538
20212W        W24512  18.408   5.722  44.037  0.4385 -0.3378  0.2893
20213W        W24513  14.087   3.120  13.402 -0.0000 -0.1281  0.0850
20214W        W24514   2.464   5.100  39.842 -0.3034  0.0096  0.0117
20215W        W24515   8.182   3.513   8.332 -0.3552  0.0778 -0.3563
20216W        W24516  12.926   5.452   6.370  0.1657 -0.0729 -0.3931
20217W        W24517  20.564   3.066   7.483  0.1062 -0.1075 -0.1414
20218W        W24518   7.566   0.660  42.882 -0.2944 -0.1279  0.2101
20219W        W24519  10.400   2.730  42.222 -0.1680  0.1860 -0.1065
20220W        W24520  18.269   2.429  30.595  0.1370  0.0234 -0.0043
20221W        W24521  17.937   6.407  39.376 -0.2381 -0.0609 -0.2196
20222W        W24522   7.221   4.273  12.006 -0.0000  0.0447 -0.3687
20223W        W24523   6.198   0.743  31.829  0.2252  0.1325  0.0346
20224W        W24524  19.297   2.238  40.883 -0.0448  0.0112 -0.4830
20225W        W24525   3.960   3.278  44.803 -0.0936  0.0133 -0.1251
20226W        W24526  12.323   1.902  27.816  0.1315 -0.0343 -0.0788
20227W        W24527  16.020   3.935   5.037  0.1995  0.1952  0.0979
20228W        W24528  16.841   5.979   7.911 -0.1774  0.2124 -0.1124
20229W        W24529   1.664   6.193  44.502  0.0910 -0.2772  0.1079
20230W        W24530  17.439   4.083  36.497 -0.2184 -0.4647 -0.3656
20231W        W24531  10.417   5.213  40.069  0.1057 -0.0634 -0.0318
20232W        W24532  15.463   4.026  28.822  0.0795  0.0164  0.1951
20233W        W24533   9.310   6.450  30.740  0.0351  0.0843  0.1914
20234W        W24534   9.823   2.665  27.836 -0.0654  0.0191  0.2405
20235W        W24535   9.848   4.290   0.643  0.0794 -0.1183  0.1956
20236W        W24536   5.058   3.603  32.741 -0.0863 -0.3250  0.2366
20237W        W24537  16.676   3.063  41.596 -0.0685  0.0621  0.0885
20238W        W24538  15.438   5.133  36.972 -0.0910  0.2885 -0.1702
20239W        W24539   5.748   1.727  29.026  0.0722 -0.0733 -0.0416
20240W        W24540   9.572   3.264   3.450  0.2334 -0.2118 -0.0665
20241W        W24541  14.455   5.021  44.940  0.3075 -0.1165  0.0357
20242W        W24542  18.597   0.104  44.148  0.1277  0.1950  0.2667
20243W        W24543   1.333   5.902  11.189  0.2648 -0.0020 -0.2989
20244W        W24544  12.608   3.253   9.643 -0.0521  0.0642 -0.2014
20245W        W24545  11.450   1.681  18.345 -0.0617  0.1271  0.0946
20246W        W24546   9.400   1.231  41.720  0.0455 -0.0694 -0.0405
20247W        W24547  16.109   5.955  36.606  0.0212  0.1588 -0.0600
20248W        W24548  18.933   4.590  38.097  0.0848 -0.0499 -0.2446
20249W        W24549  17.563   5.476  12.150 -0.1121 -0.2535  0.1763
20250W        W24550  11.847   3.441  37.628  0.1063 -0.1650  0.0843
20251W        W24551   2.503   5.577   4.048 -0.1016  0.0395 -0.0460
20252W        W24552   1.312   2.059  29.255 -0.1896  0.1757 -0.1027
20253W        W24553   2.936   4.839  44.802  0.0676 -0.1599 -0.1388
20254W        W24554  15.755   4.143  14.013  0.1693  0.0285  0.0947
20255W        W24555   7.184   2.838  27.169 -0.4148  0.0412 -0.0363
20256W        W24556  12.809   4.838  37.849 -0.2944  0.1381  0.0083
20257W        W24557  18.191   4.939   4.018 -0.0213 -0.1197  0.3790
20258W        W24558  17.336   5.365  19.488  0.3693  0.0230  0.0717
20259W        W24559   6.285   1.326  11.821  0.2653  0.4395 -0.3139
20260W        W24560  14.503   1.706  17.037 -0.2479  0.2796 -0.0196
20261W        W24561  16.833   1.202  34.375  0.3679  0.0497  0.1241
20262W        W24562  12.482   4.252  35.052  0.0388 -0.0514  0.1315
20263W        W24563  11.242   0.923  18.188  0.1156  0.0947 -0.0056
20264W        W24564   6.376   1.528  43.422  0.3985  0.4776 -0.2423
20265W        W24565  20.226   0.012  39.553  0.0991  0.2247 -0.0842
20266W        W24566   2.099   4.762   5.686 -0.1309  0.1794  0.1953
20267W        W24567   7.605   4.625  42.214  0.2023 -0.3186 -0.3986
20268W        W24568  14.936   5.548  30.846 -0.0115  0.1593  0.2550
20269W        W24569   5.044   2.234  28.986 -0.1758 -0.0511 -0.1191
20270W        W24570   0.877   6.399  34.002  0.0460 -0.1782  0.0018
20271W        W24571   2.679   0.751  33.715  0.1236 -0.2452  0.0755
20272W        W24572  14.564   0.657  22.348 -0.3464  0.0100 -0.1937
20273W        W24573   6.246   5.882  30.464 -0.0161 -0.1412  0.2095
20274W        W24574  13.450   1.183   8.467 -0.2726  0.0000  0.1876
20275W        W24575   3.809   2.782  14.099  0.1165 -0.0793 -0.1349
20276W        W24576  20.470   0.247   3.965  0.0252 -0.2761  0.0129
20277W        W24577   6.670   0.023  11.233  0.0184 -0.1134 -0.0176
20278W        W24578  18.548   6.162   0.840  0.2212 -0.2079  0.1174
20279W        W24579  17.096   4.156   4.225  0.0015  0.1914  0.1708
20280W        W24580  12.666   2.249   8.440  0.2701  0.1836  0.0182
20281W        W24581  10.460   4.731  30.584 -0.2751 -0.0627  0.3994
20282W        W24582   3.657   5.279  23.220 -0.2271 -0.2028  0.1653
20283W        W24583   1.850   3.657  30.530 -0.0009 -0.3945  0.0053
20284W        W24584  15.989   4.554  13.071  0.0451 -0.0683  0.0364
20285W        W24585   2.700   6.412  15.571  0.2025  0.0724 -0.2055
20286W        W24586  16.965   0.917   6.441 -0.0628 -0.1219  0.0817
20287W        W24587  11.553   0.728  27.714  0.0862  0.0771  0.0877
20288W        W24588   5.870   4.172  35.172  0.1381 -0.2600 -0.0628
20289W        W24589   2.926   4.859  31.311 -0.1509 -0.2877  0.0025
20290W        W24590  19.090   2.222  17.848  0.0938  0.1720 -0.2355
20291W        W24591  20.365   1.296  40.494  0.1833  0.4859 -0.0414
20292W        W24592  10.612   1.014  33.426 -0.1133 -0.1145  0.1104
20293W        W24593   8.621   1.292  41.436 -0.0742  0.0871 -0.0051
20294W        W24594   7.226   4.221  23.387  0.4260  0.0482 -0.0778
20295W        W24595   4.598   1.697  30.941 -0.0625  0.1945 -0.1943
20296W        W24596   7.110   0.737   7.511 -0.1590 -0.0838  0.2925
20297W        W24597  12.868   5.248  13.802 -0.1323 -0.2595 -0.0222
20298W        W24598  10.405   1.298  28.983 -0.0534 -0.0182  0.3381
20299W        W24599   8.596   3.650  41.706 -0.0080 -0.1152  0.1604
20300W        W24600   7.788   0.863  41.168 -0.3308 -0.1363  0.1137
20301W        W24601  20.479   5.495  18.662 -0.1122  0.0540  0.0713
20302W        W24602   1.287   5.392  45.081  0.1678  0.0780 -0.3515
20303W        W24603   4.312   0.661  40.200 -0.1423 -0.1906  0.1412
20304W        W24604   5.170   1.047  26.853 -0.2286 -0.2371 -0.0304
20305W        W24605   5.589   6.480  11.285 -0.1630 -0.0594  0.2290
20306W        W24606  16.132   2.570  42.747  0.0647  0.2178 -0.0439
20307W        W24607  15.151   5.892  19.999  0.1107  0.0004  0.1868
20308W        W24608   9.506   0.897  35.855  0.2695  0.2357  0.2045
20309W        W24609  18.017   3.702  35.734 -0.0535  0.1159 -0.1308
20310W        W24610  17.926   5.465  33.602  0.0283  0.0152 -0.0522
20311W        W24611  19.089   0.290   4.217 -0.0444  0.0155 -0.0410
20312W        W24612  18.194   3.922  41.721 -0.1623  0.2495  0.1201
20313W        W24613   4.577   6.156   7.941 -0.1687  0.0548  0.2701
20314W        W24614  17.848   1.889  11.977 -0.0520  0.0489  0.0434
20315W        W24615  11.228   3.712  29.852  0.1892 -0.4459 -0.0367
20316W        W24616   5.555   4.451  43.703 -0.1330  0.1435  0.0394
20317W        W24617  20.671   5.698  31.018  0.0351  0.1271  0.1306
20318W        W24618  18.725   4.179   0.367  0.0039 -0.0323 -0.2642
20319W        W24619  20.036   4.054   0.888 -0.0112 -0.1866  0.1896
20320W        W24620   7.259   3.358  44.372  0.1391 -0.0471  0.0685
20321W        W24621   9.718   3.312  40.168  0.3932 -0.1163 -0.1424
20322W        W24622   8.010   5.958   7.021  0.0996  0.0918  0.3035
20323W        W24623   7.900   5.698  12.179  0.4058 -0.3351  0.0846
20324W        W24624   0.550   5.493   8.577 -0.0149  0.0616 -0.1017
20325W        W24625  11.382   1.096  31.338 -0.2313 -0.1709  0.1213
20326W        W24626   3.035   3.932   4.011  0.0206 -0.2171  0.0972
20327W        W24627   4.611   2.167  31.600  0.1334  0.1946  0.3254
20328W        W24628   0.068   5.176  16.164  0.2081  0.0522 -0.3165
20329W        W24629   4.583   0.746  25.076 -0.1407 -0.1874 -0.0958
20330W        W24630  17.166   3.554  33.114  0.0194 -0.1931 -0.0873
20331W        W24631  14.306   3.773  15.851  0.2082 -0.1124  0.0348
20332W        W24632   9.904   4.789  10.526 -0.1002  0.2354  0.2318
20333W        W24633  16.308   1.750  10.539  0.2654 -0.0604 -0.1674
20334W        W24634   3.306   1.542  41.530 -0.1494 -0.4175  0.1777
20335W        W24635  12.988   4.609   6.113 -0.0648 -0.0219  0.2521
20336W        W24636  10.149   3.974  26.996 -0.0327 -0.0066 -0.0539
20337W        W24637   3.100   0.703  23.691 -0.1214 -0.3627  0.1094
20338W        W24638  14.587   0.958  35.106  0.0833 -0.1896 -0.1036
20339W        W24639  20.812   1.070  18.988 -0.1230  0.0180 -0.1339
20340W        W24640  13.761   5.299  43.108  0.0185  0.0979 -0.2439
20341W        W24641   2.728   0.802  24.909  0.0536 -0.2344 -0.2242
20342W        W24642  15.180   6.297   4.309 -0.1128 -0.2403  0.1481
20343W        W24643   1.998   1.232  25.826 -0.1960 -0.1022  0.1728
20344W        W24644  16.032   0.560   8.178  0.1240 -0.0822  0.2479
20345W        W24645  14.641   1.956  30.185 -0.1547  0.5779  0.0434
20346W        W24646  16.371   0.259  34.560 -0.2304 -0.4769 -0.1070
20347W        W24647   5.838   5.559  39.278  0.0178  0.0676  0.0461
20348W        W24648   3.099   3.458   3.065 -0.2313  0.0071 -0.1129
20349W        W24649  15.138   2.553  20.348 -0.2916  0.0265  0.0311
20350W        W24650  20.547   6.274   9.704 -0.0961  0.1845 -0.0494
20351W        W24651  20.371   3.871  29.064  0.0644  0.0707 -0.0454
20352W        W24652  18.080   0.264  13.914 -0.1424 -0.0738  0.2760
20353W        W24653  16.278   5.288  24.152 -0.1417 -0.0603 -0.1078
20354W        W24654  18.044   3.374  33.243 -0.1061  0.0319 -0.4228
20355W        W24655   6.485   2.911  29.299  0.0608 -0.3117  0.1595
20356W        W24656   7.732   0.213   1.559 -0.0119  0.0397  0.0041
20357W        W24657   2.648   0.534  38.647  0.0821 -0.0531  0.2231
20358W        W24658  15.552   5.090  12.027  0.1126  0.1705 -0.2816
20359W        W24659  12.725   4.329   5.260 -0.3259  0.0783 -0.1160
20360W        W24660   1.060   1.782  14.688 -0.0900 -0.1999 -0.0236
20361W        W24661   0.557   4.637  11.309  0.3331 -0.0583  0.0710
20362W        W24662   4.469   1.709   8.007 -0.6177 -0.0571 -0.1208
20363W        W24663  15.029   0.841  32.518  0.0190 -0.0901 -0.0130
20364W        W24664  20.610   4.249  42.065  0.1084  0.2543 -0.1274
20365W        W24665   6.645   2.475  44.505  0.1659  0.0010 -0.3219
20366W        W24666  11.153   2.881  37.611  0.1722  0.0894  0.1756
20367W        W24667   1.819   2.891  10.709 -0.1520 -0.0210  0.0395
20368W        W24668   9.590   3.680   1.878  0.1156 -0.0232 -0.1324
20369W        W24669   4.366   0.796  21.771  0.1982 -0.0303  0.0502
20370W        W24670  20.284   3.822   5.220 -0.0270  0.0022 -0.4465
20371W        W24671   5.941   2.298  24.558 -0.0695 -0.1221 -0.0145
20372W        W24672  12.923   1.216  17.969 -0.0059 -0.0597 -0.2346
20373W        W24673   9.019   6.581  38.086  0.0426  0.0223 -0.2412
20374W        W24674  16.436   4.537  34.324 -0.0261  0.1330  0.3856
20375W        W24675   9.336   0.905  14.338 -0.4476  0.0103 -0.1250
20376W        W24676   6.320   4.108  23.469  0.2830  0.0733 -0.2017
20377W        W24677  16.315   2.069  35.663  0.2380  0.2882  0.1215
20378W        W24678  16.831   6.515  44.201 -0.2121 -0.0062 -0.1424
20379W        W24679   0.129   3.264  41.405  0.3165  0.0094 -0.0736
20380W        W24680   3.063   3.869  40.871  0.2776  0.2466  0.1204
20381W        W24681   4.905   4.757   1.072 -0.2214 -0.3948 -0.1196
20382W        W24682   4.907   2.535  21.106  0.0165 -0.0740 -0.1648
20383W        W24683  17.377   3.624  19.908 -0.1582 -0.0226  0.1353
20384W        W24684  11.801   0.464  34.558 -0.1473 -0.2127 -0.3268
20385W        W24685  18.927   6.110  21.135  0.0368  0.1779 -0.1855
20386W        W24686   8.786   3.858  13.425 -0.2171 -0.0109 -0.1352
20387W        W24687   5.211   5.317  34.271 -0.0291  0.0148  0.1284
20388W        W24688   9.209   5.803  34.999 -0.1005 -0.2264  0.0419
20389W        W24689   0.761   0.154  40.664  0.0453  0.1513  0.2836
20390W        W24690  17.972   4.049   1.151  0.3890 -0.2953 -0.2880
20391W        W24691   4.659   5.479  22.596  0.1715  0.2981 -0.1368
20392W        W24692  15.595   3.127  23.328 -0.1408  0.1141  0.2855
20393W        W24693  14.434   2.965  10.444 -0.3911  0.1144 -0.1435
20394W        W24694   3.719   3.352  30.538  0.0587 -0.0116 -0.0599
20395W        W24695  16.248   6.253  35.569 -0.0036 -0.2090  0.3684
20396W        W24696  11.330   5.376  32.557  0.0778 -0.0145  0.0579
20397W        W24697  19.342   1.956  20.814 -0.0900  0.0302  0.1401
20398W        W24698  20.530   2.991  10.515  0.2465  0.0159 -0.0646
20399W        W24699   3.229   5.415  26.340 -0.0455 -0.1517  0.0246
20400W        W24700  15.141   1.144  44.603  0.0760  0.0817  0.2641
20401W        W24701   8.088   1.645  40.856 -0.0588 -0.1691  0.1292
20402W        W24702  15.624   5.730  10.610 -0.0308  0.1206  0.2523
20403W        W24703   0.199   2.666  34.168  0.0168  0.0247 -0.0327
20404W        W24704  15.159   5.538  28.617 -0.0193 -0.0344  0.0907
20405W        W24705  20.454   1.320   5.798 -0.4179 -0.1106  0.4049
20406W        W24706  18.575   4.414  17.055  0.0190  0.1648 -0.0353
20407W        W24707  10.577   0.122  34.195  0.0546  0.0595  0.2203
20408W        W24708  12.539   0.823  35.429 -0.0864 -0.1716  0.0025
20409W        W24709  12.851   4.890  20.310  0.2511  0.3561  0.0528
20410W        W24710   0.751   1.351   2.746  0.2634 -0.0718  0.0517
20411W        W24711  21.063   1.833  16.679  0.2924 -0.2226  0.0840
20412W        W24712  16.252   1.133  29.765  0.0987  0.0176  0.1178
20413W        W24713  17.710   2.299  41.163  0.0510  0.0527  0.2149
20414W        W24714   2.446   3.359   3.468  0.1054  0.1072 -0.0566
20415W        W24715  16.636   6.223  12.137  0.1657  0.0192  0.2480
20416W        W24716  10.063   3.488  16.160  0.0409  0.0267  0.2249
20417W        W24717  16.914   1.767  16.261 -0.0594  0.0759 -0.2788
20418W        W24718   2.354   2.934   8.858 -0.0243 -0.0215  0.0289
20419W        W24719  19.725   5.352  39.808 -0.0766 -0.0259 -0.4579
20420W        W24720  18.896   4.424  40.750  0.0991  0.2405 -0.1084
20421W        W24721   6.578   6.190  34.439 -0.0478  0.1795  0.1742
20422W        W24722  16.994   4.173   3.752 -0.0348  0.1342 -0.1844
20423W        W24723  19.038   2.389  44.316  0.0515 -0.2194  0.3828
20424W        W24724   9.737   5.716  42.879 -0.0600 -0.0292 -0.0020
20425W        W24725   3.094   3.296   9.312 -0.2593  0.1666  0.2518
20426W        W24726   9.258   3.614  33.977 -0.3797 -0.1661  0.0505
20427W        W24727  20.097   1.535  18.403  0.1125  0.1012  0.1797
20428W        W24728  10.643   0.233  38.727 -0.0673 -0.1350  0.2798
20429W        W24729   1.517   5.408  17.037  0.3811 -0.2999  0.2953
20430W        W24730  13.776   4.561   7.471 -0.0907 -0.0897  0.0523
20431W        W24731   3.941   1.055  10.846  0.0897  0.4745 -0.2807
20432W        W24732   0.814   3.334   4.021  0.2375 -0.2174  0.0917
20433W        W24733  14.993   4.990  12.467 -0.2478 -0.1972 -0.1229
20434W        W24734  14.183   3.332  10.626 -0.2648 -0.0561 -0.2736
20435W        W24735  17.663   0.125   3.312  0.2343  0.2590 -0.3760
20436W        W24736  16.898   2.974  18.087  0.0818  0.0358  0.1011
20437W        W24737  17.060   3.975  13.019  0.2424  0.1616  0.0364
20438W        W24738  17.485   2.452   6.939  0.3594 -0.1043  0.1183
20439W        W24739   9.755   1.309  10.987  0.0531 -0.0235  0.1117
20440W        W24740   2.693   1.041  10.209  0.0819  0.0639 -0.0350
20441W        W24741   9.639   1.259  12.435  0.2889 -0.0783 -0.2541
20442W        W24742  15.233   5.292  36.549  0.3122  0.0494  0.0509
20443W        W24743   4.052   6.107   8.221 -0.5728 -0.0720  0.0079
20444W        W24744  18.817   5.219  16.599  0.2646 -0.3816 -0.1619
20445W        W24745  15.888   5.558  22.285 -0.1147  0.0967  0.0749
20446W        W24746   2.086   5.693  39.522 -0.0154 -0.2052 -0.0336
20447W        W24747   5.064   6.119  32.356 -0.0421 -0.4315  0.2657
20448W        W24748   1.766   0.633   1.752 -0.0747  0.0670  0.0787
20449W        W24749  15.689   2.364   6.877 -0.3073 -0.1467 -0.0473
20450W        W24750   7.687   0.562   7.784  0.0045  0.0715  0.1220
20451W        W24751   5.254   2.734  28.923 -0.0253 -0.1003 -0.4353
20452W        W24752   7.153   4.224   2.267 -0.1467 -0.1707 -0.0923
20453W        W24753   5.626   4.089  42.608  0.5494 -0.1395 -0.2544
20454W        W24754  13.104   3.782  33.778 -0.1256 -0.1785  0.0092
20455W        W24755  20.457   1.608  39.596 -0.0602 -0.1810 -0.3285
20456W        W24756  19.162   5.767  41.381 -0.1490 -0.2398  0.1933
20457W        W24757  18.933   4.131  21.045 -0.1435 -0.2630  0.1018
20458W        W24758   2.246   3.296   4.311 -0.2255 -0.1814 -0.0074
20459W        W24759   3.623   2.743  34.189 -0.1424  0.3035 -0.0060
20460W        W24760  20.372   4.858  35.904  0.1527  0.0280  0.1677
20461W        W24761  10.530   1.705  43.632 -0.2981  0.1056  0.2323
20462W        W24762   5.051   1.276  24.342 -0.2692 -0.1196  0.0643
20463W        W24763  20.737   6.443   1.578  0.2522  0.2356  0.1631
20464W        W24764   5.616   2.098  32.678  0.0603  0.0286  0.2220
20465W        W24765   4.754   1.777  33.890  0.4109 -0.0842  0.2863
20466W        W24766   6.563   6.585  31.396 -0.1848  0.0967  0.3694
20467W        W24767  17.045   2.383  43.750 -0.0670 -0.1157  0.3338
20468W        W24768   6.525   3.913   8.489  0.1739  0.0604  0.2474
20469W        W24769  10.828   4.243  29.603  0.1559 -0.1937  0.0921
20470W        W24770   4.952   0.054  20.441  0.1395 -0.3671 -0.0016
20471W        W24771  17.409   5.942   7.918  0.1176  0.0064  0.1951
20472W        W24772   4.082   0.233  38.608 -0.3951  0.0069 -0.1991
20473W        W24773   2.976   2.195  12.715 -0.1445 -0.0156  0.1370
20474W        W24774   3.569   3.397  10.095  0.1344  0.1379  0.0013
20475W        W24775  15.230   0.394  12.676  0.0006  0.1773 -0.2284
20476W        W24776  20.319   3.042  38.917  0.2250  0.2117 -0.0148
20477W        W24777  18.684   2.410  10.406 -0.0502  0.1845  0.1302
20478W        W24778   9.257   3.938  40.981  0.1321 -0.0616  0.2958
20479W        W24779   1.803   5.659   3.644  0.0504 -0.0154 -0.1033
20480W        W24780   9.535   0.684  26.496  0.0860  0.0124  0.0331
20481W        W24781  18.309   0.520  20.789 -0.1887 -0.0435 -0.1539
20482W        W24782   2.482   5.182  34.159  0.1379  0.2955  0.0596
20483W        W24783   0.834   5.757   4.968  0.1951 -0.0840  0.1878
20484W        W24784  16.169   1.304  38.177 -0.1872 -0.2711  0.2159
20485W        W24785  10.795   3.541   9.379 -0.2036 -0.0689  0.3045
20486W        W24786   6.084   3.825  40.288  0.1474  0.0969  0.2201
20487W        W24787   6.050   4.826   0.455 -0.2032  0.1163 -0.4165
20488W        W24788  12.315   2.024  35.780  0.1049  0.1331  0.0161
20489W        W24789   9.188   4.632  29.463  0.0650 -0.0324  0.0078
20490W        W24790   4.455   6.100  35.264 -0.0390  0.2698 -0.1427
20491W        W24791  17.202   5.465  30.194 -0.2269  0.0084 -0.1052
20492W        W24792   2.902   1.457  35.635 -0.0431  0.2338 -0.0811
20493W        W24793   7.623   5.142  37.689  0.1009  0.0915  0.0027
20494W        W24794   9.885   6.093  43.156 -0.2365 -0.1467 -0.1060
20495W        W24795   3.964   2.280  29.869  0.2146  0.0901  0.0083
20496W        W24796   7.700   4.737   8.988  0.0067  0.0243  0.0435
20497W        W24797   4.336   2.824  11.546  0.0778  0.2287 -0.1218
20498W        W24798   4.926   2.747  38.013 -0.4726  0.1819 -0.0311
20499W        W24799   2.460   1.796  16.008  0.2161 -0.1712 -0.0034
20500W        W24800  14.071   4.699  30.241 -0.0031  0.2385  0.1192
20501W        W24801   2.384   4.926  32.882 -0.1995 -0.0207  0.1620
20502W        W24802   9.454   4.441  27.986  0.4870 -0.3715 -0.1737
20503W        W24803  13.376   3.294   8.547 -0.1051  0.1957 -0.2035
20504W        W24804   7.958   5.913  41.156 -0.0958 -0.1159 -0.0666
20505W        W24805  10.341   3.748  15.745  0.0480  0.1424 -0.1764
20506W        W24806   1.666   3.405  37.282  0.0808 -0.0037  0.1742
20507W        W24807  12.612   5.981  34.500 -0.0182  0.2486 -0.2880
20508W        W24808  11.181   1.068  32.445  0.0042  0.4229 -0.0935
20509W        W24809  15.221   1.563  11.418  0.0034  0.1393 -0.2398
20510W        W24810  10.946   3.536  37.898  0.1647  0.1222  0.1672
20511W        W24811  16.995   1.098  20.222 -0.0726 -0.0131 -0.1618
20512W        W24812  14.621   4.974  40.610  0.2015 -0.1556 -0.1194
20513W        W24813   5.671   3.112  41.499 -0.0674 -0.3574  0.0888
20514W        W24814   9.924   0.521  27.039 -0.1057  0.3324  0.4307
20515W        W24815   0.085   1.285  42.514 -0.1928  0.0505  0.3021
20516W        W24816   8.637   0.243  37.304 -0.1380  0.2222  0.2308
20517W        W24817  12.075   2.292  18.355  0.1889 -0.1492 -0.0891
20518W        W24818  20.367   2.814  36.766  0.2757 -0.0792 -0.0265
20519W        W24819  10.196   1.200  17.892 -0.3148  0.1623  0.2397
20520W        W24820   3.589   6.093  44.520  0.0093  0.1219 -0.1693
20521W        W24821  16.566   3.782  13.153 -0.1519 -0.1938  0.1482
20522W        W24822   2.193   2.560   6.551 -0.1245 -0.0951  0.1618
20523W        W24823  13.964   2.035  35.204  0.2901 -0.0120  0.0880
20524W        W24824   2.617   1.043  40.637  0.2752 -0.0236  0.1515
20525W        W24825   6.900   2.903  11.071 -0.1550 -0.3113  0.0196
20526W        W24826   1.839   3.737  11.256  0.3494  0.0183 -0.2884
20527W        W24827  13.893   4.111   6.095 -0.0651  0.1090  0.1567
20528W        W24828  11.295   1.236  35.619  0.0405  0.0958  0.0916
20529W        W24829  13.186   1.864  28.141  0.0675  0.0969 -0.1539
20530W        W24830  11.572   4.731  27.729 -0.0870 -0.1844 -0.0802
20531W        W24831  14.647   4.180  16.767 -0.2554 -0.2825 -0.2681
20532W        W24832  12.522   4.332  28.697  0.1320  0.0091 -0.4313
20533W        W24833   2.621   3.599  30.229 -0.0411 -0.1724  0.2252
20534W        W24834  19.815   5.492   8.329 -0.1955 -0.2670 -0.2483
20535W        W24835   4.083   2.165  37.436 -0.1002  0.0160  0.0785
20536W        W24836   2.989   0.241   8.522 -0.2631  0.0787 -0.1876
20537W        W24837  12.454   2.825  38.196 -0.1184  0.2811 -0.0262
20538W        W24838   3.812   6.405  32.811 -0.0822 -0.1131 -0.1674
20539W        W24839   9.932   0.229  42.840 -0.0844 -0.1263 -0.2563
20540W        W24840   6.895   6.497  33.164 -0.2761 -0.1273  0.0141
20541W        W24841   7.545   5.080  39.211 -0.3561  0.0242  0.0941
20542W        W24842  13.389   6.448  18.247 -0.0712  0.0378 -0.0747
20543W        W24843   8.429   3.649   1.224 -0.0319 -0.3392 -0.0414
20544W        W24844  19.615   2.580  33.020 -0.1877 -0.1550 -0.1208
20545W        W24845   7.800   1.080   4.832 -0.0750  0.0519  0.2133
20546W        W24846  15.577   3.178  41.586  0.1387 -0.0288  0.0058
20547W        W24847   2.651   6.430   7.731  0.2429 -0.1037  0.1404
20548W        W24848  11.689   2.454  10.626  0.0799  0.4796 -0.0813
20549W        W24849  13.004   3.277  44.782 -0.0057 -0.2635  0.1188
20550W        W24850  16.278   3.792   9.456 -0.1260  0.1118 -0.0893
20551W        W24851   1.203   0.298   5.557  0.0858 -0.0557 -0.2382
20552W        W24852   5.227   5.816  40.811 -0.1314 -0.0925 -0.1358
20553W        W24853   9.965   1.096  42.257 -0.0259 -0.2965 -0.1889
20554W        W24854   7.243   2.427  16.132  0.2771  0.2473 -0.0319
20555W        W24855  16.356   0.140  29.195  0.0229 -0.1810 -0.0120
20556W        W24856  19.286   2.519   1.843  0.0202  0.2260  0.0894
20557W        W24857  18.545   2.561  16.689  0.2352  0.0416  0.0901
20558W        W24858  13.896   3.158  16.662 -0.0677 -0.2069 -0.2862
20559W        W24859   6.715   2.279   5.179  0.1953  0.1031  0.4986
20560W        W24860   3.844   2.695  37.680 -0.0199  0.0096  0.3320
20561W        W24861  15.068   6.135   8.331 -0.0611 -0.3562  0.3726
20562W        W24862   5.505   4.211  14.604 -0.1379 -0.4465 -0.2139
20563W        W24863   5.028   2.025   0.935 -0.2680  0.2735 -0.1761
20564W        W24864   1.875   4.565  28.002  0.0201  0.1253  0.1443
20565W        W24865   9.135   3.357  36.915  0.1228  0.1145  0.1560
20566W        W24866  18.600   2.061   9.289 -0.0942  0.0820  0.1269
20567W        W24867  15.994   3.442   6.850 -0.0919 -0.2291  0.0886
20568W        W24868  14.244   4.568  41.688 -0.2299  0.0756  0.0718
20569W        W24869   6.255   1.303  24.391 -0.0544 -0.1259 -0.1594
20570W        W24870   4.039   3.528  22.664  0.0068  0.1694  0.1775
20571W        W24871  16.545   3.600  22.018 -0.0818 -0.2465  0.0019
20572W        W24872  17.521   3.779  30.531 -0.0408 -0.1330 -0.0280
20573W        W24873  13.821   0.409  33.505  0.2465  0.0413  0.1424
20574W        W24874   2.487   5.902  35.677 -0.3520  0.0351  0.1398
20575W        W24875  17.863   3.732   4.859 -0.1393 -0.0039  0.3364
20576W        W24876  19.487   6.428  20.435  0.0088  0.1190  0.0380
20577W        W24877  18.059   3.521  16.871 -0.1295  0.0696  0.2610
20578W        W24878  14.837   1.280  21.007  0.1921 -0.0562 -0.0661
20579W        W24879   2.332   5.907  15.512  0.3087  0.1009 -0.0743
20580W        W24880   5.288   4.331  31.999 -0.0707  0.0867  0.0191
20581W        W24881  13.704   4.236  42.922  0.1592  0.1555  0.0981
20582W        W24882   1.146   5.310  27.055  0.0128  0.1547 -0.3008
20583W        W24883  19.197   0.978  29.878  0.1527  0.0616  0.1613
20584W        W24884  11.989   3.375   3.058 -0.5295 -0.2576 -0.0700
20585W        W24885   6.147   1.773  15.335  0.2845 -0.2507 -0.0820
20586W        W24886   1.887   4.018   2.133 -0.1009 -0.1959 -0.0456
20587W        W24887   6.920   5.866  11.408 -0.1322  0.1211 -0.2548
20588W        W24888  19.590   2.478  35.171  0.2947 -0.1428  0.3477
20589W        W24889   8.935   1.701  43.591 -0.0578  0.0526  0.0204
20590W        W24890  12.156   2.929   7.354 -0.3678  0.1205  0.1256
20591W        W24891   1.621   5.125   6.600 -0.0962  0.0266  0.2719
20592W        W24892   5.606   5.287  35.703  0.2220 -0.0860 -0.0564
20593W        W24893  16.578   5.411   3.509 -0.2047 -0.0070  0.1998
20594W        W24894   1.074   0.351  14.382  0.2067 -0.3687  0.0044
20595W        W24895  20.857   3.404  36.145 -0.1725 -0.1278  0.0087
20596W        W24896   3.499   1.156  26.896 -0.0202 -0.1979  0.1051
20597W        W24897   4.435   0.772  43.452 -0.0156  0.1934 -0.1940
20598W        W24898  14.321   6.107  41.273 -0.2731  0.2260  0.1326
20599W        W24899  12.512   0.432  19.679 -0.0419 -0.0853  0.0870
20600W        W24900   5.934   1.727  38.188 -0.2792 -0.0470 -0.1745
20601W        W24901  16.510   1.313  29.263  0.2161 -0.2056 -0.1384
20602W        W24902   9.418   0.587  41.399  0.4213  0.2266 -0.2340
20603W        W24903  11.062   4.062   7.766  0.1881  0.0275 -0.3948
20604W        W24904   5.944   0.695   6.105  0.1788  0.1249 -0.0158
20605W        W24905   4.261   5.072   0.154 -0.3427 -0.2120  0.0073
20606W        W24906   6.588   2.086  30.276  0.3984  0.0217 -0.1803
20607W        W24907  10.057   5.895  26.695 -0.1714  0.1283 -0.1641
20608W        W24908   6.079   3.750  11.630  0.1341  0.1800 -0.1632
20609W        W24909  17.906   4.493  21.092 -0.1370 -0.1032  0.1679
20610W        W24910  12.884   6.232  37.225 -0.0128  0.1932 -0.2880
20611W        W24911   6.593   2.912  23.532 -0.0397  0.1308  0.0056
20612W        W24912  10.287   6.030  37.105 -0.0764  0.0964  0.3791
20613W        W24913  13.302   5.459  30.729 -0.0635  0.0922  0.1951
20614W        W24914  14.512   6.182  17.469 -0.1942  0.0621  0.3182
20615W        W24915   7.339   4.537  29.106  0.1528 -0.4807 -0.3267
20616W        W24916   5.135   3.303  23.440 -0.2193 -0.0182  0.0525
20617W        W24917  13.918   1.584  36.415  0.0025 -0.1485  0.1139
20618W        W24918  20.722   5.713   1.028  0.0669  0.2751  0.1868
20619W        W24919   9.762   5.865  14.366 -0.1291 -0.0370  0.0463
20620W        W24920   0.265   5.122  12.384 -0.0251 -0.1940  0.2597
20621W        W24921  20.798   3.946   3.084 -0.1264  0.1945 -0.0442
20622W        W24922  11.096   6.169  44.119  0.1615  0.0995 -0.2410
20623W        W24923   2.597   1.908  35.203  0.3267 -0.1533 -0.1579
20624W        W24924   5.416   4.981  32.241  0.3525 -0.2068 -0.2295
20625W        W24925  10.408   2.203  33.437 -0.0090 -0.3920  0.2862
20626W        W24926   2.197   0.939   2.713  0.1717 -0.0146 -0.0783
20627W        W24927  14.714   4.320  19.330 -0.1425  0.1112  0.0243
20628W        W24928  16.349   1.467  39.467 -0.2459 -0.0648 -0.3154
20629W        W24929   7.172   2.111  23.690 -0.2039  0.0981  0.6709
20630W        W24930  13.344   5.294  31.280  0.5451  0.1938  0.1498
20631W        W24931   7.347   6.586  40.191 -0.2542  0.1468  0.0372
20632W        W24932   8.206   5.949  26.184  0.1957 -0.1548 -0.2330
20633W        W24933  10.918   0.872  14.098  0.2378 -0.2984  0.0136
20634W        W24934  20.249   4.977   2.292  0.2390 -0.1263 -0.0251
20635W        W24935  19.345   0.662  35.174 -0.0150  0.4130  0.1792
20636W        W24936  12.964   4.219  11.963  0.0104  0.0054 -0.0854
20637W        W24937  10.566   6.204  16.839 -0.2450  0.0788 -0.0425
20638W        W24938  15.268   2.967  10.363  0.1029  0.2516 -0.1392
20639W        W24939  16.321   2.446  21.149 -0.2882  0.0669 -0.4525
20640W        W24940   5.767   6.155   9.851  0.0853 -0.0535 -0.2275
20641W        W24941  14.195   1.258  20.289  0.0217  0.0636  0.0938
20642W        W24942   1.581   1.951  10.976 -0.0935 -0.1395 -0.2282
20643W        W24943  16.116   1.839   5.217  0.0492  0.4061 -0.1172
20644W        W24944   1.266   2.065  26.838 -0.0632 -0.0445 -0.0935
20645W        W24945   8.463   2.975  34.954  0.1705  0.1147 -0.0430
20646W        W24946  10.630   4.251  29.162 -0.0167  0.0101  0.0247
20647W        W24947   6.989   1.504  14.020 -0.1499 -0.1294  0.1931
20648W        W24948  19.361   3.241  30.427 -0.2368 -0.0422 -0.1929
20649W        W24949  11.705   5.894  42.587 -0.0279  0.2418  0.1533
20650W        W24950  10.167   3.964  26.266 -0.0245  0.1742  0.0798
20651W        W24951  17.837   3.269   8.657  0.3984 -0.0202 -0.3959
20652W        W24952   6.424   1.124  39.782 -0.0727  0.2042 -0.0311
20653W        W24953   8.826   1.036  29.267  0.2857  0.2552  0.0903
20654W        W24954  17.833   0.007  18.149  0.0709 -0.1718 -0.4829
20655W        W24955  16.896   1.704  31.059 -0.2479 -0.0555 -0.1351
20656W        W24956  14.732   5.211   9.724 -0.2360  0.0842 -0.0538
20657W        W24957  11.903   5.254  30.637  0.0671 -0.2692  0.1227
20658W        W24958   1.832   5.653   8.634  0.1508 -0.0155 -0.1247
20659W        W24959  13.251   0.895  15.315 -0.3525 -0.0492 -0.2197
20660W        W24960  17.705   3.058  23.930 -0.1613  0.1263  0.1142
20661W        W24961   1.568   4.725  37.763  0.1010  0.0827  0.3966
20662W        W24962  18.077   1.085  14.954 -0.3526  0.2200 -0.1649
20663W        W24963  19.929   0.835  43.168 -0.1744  0.0779  0.3344
20664W        W24964   5.579   5.374  42.216 -0.0347  0.0341 -0.0734
20665W        W24965   8.420   4.819   0.263  0.1180  0.0722  0.0369
20666W        W24966   6.844   2.525  12.979 -0.1881  0.0805  0.1112
20667W        W24967   0.808   1.500  29.704 -0.3149  0.3769  0.2333
20668W        W24968  14.240   3.201   1.131  0.0066  0.1785  0.2540
20669W        W24969   2.429   2.939  13.587 -0.0705 -0.0130 -0.1142
20670W        W24970   0.352   3.798  31.976  0.0715  0.0752  0.1057
20671W        W24971   4.095   0.415  10.742  0.0141 -0.1514 -0.3038
20672W        W24972  17.433   1.324  17.758  0.1071  0.1970 -0.3902
20673W        W24973  16.849   2.894   4.830  0.0261  0.1418  0.2815
20674W        W24974   5.777   6.251   3.371 -0.2049  0.2753 -0.1777
20675W        W24975  13.387   1.569  44.721  0.2018 -0.1759  0.0003
20676W        W24976   1.383   1.250  14.086  0.1631  0.2339 -0.0151
20677W        W24977   1.132   5.908   6.889  0.2723  0.0506 -0.2094
20678W        W24978  11.099   4.202  12.273  0.2168 -0.1429 -0.0070
20679W        W24979  14.499   4.421  36.089  0.0175  0.3357  0.0221
20680W        W24980   6.161   0.215   1.100  0.2015 -0.2209 -0.1672
20681W        W24981   8.136   4.520  33.726 -0.1312 -0.3694  0.1377
20682W        W24982  13.927   0.623  43.776 -0.0721  0.2241 -0.1122
20683W        W24983  15.564   6.268  10.265 -0.1916 -0.3642  0.0547
20684W        W24984   4.835   2.876  14.089  0.0581 -0.3138 -0.1663
20685W        W24985   9.869   4.391  28.387 -0.3105  0.0439  0.4291
20686W        W24986  19.369   0.161  40.138  0.1091  0.1402  0.4610
20687W        W24987  11.704   3.855  18.020 -0.0447 -0.2764  0.3321
20688W        W24988  20.626   5.409   7.753 -0.0532  0.1335 -0.0768
20689W        W24989   0.440   1.771  40.610 -0.0482 -0.3357  0.0094
20690W        W24990  16.905   2.320   7.607  0.1358  0.4470 -0.0365
20691W        W24991  12.820   3.947  20.645 -0.2748  0.0478  0.1193
20692W        W24992  14.465   1.371  19.840 -0.0117  0.3866  0.2409
20693W        W24993  14.019   2.096  36.265 -0.0106  0.1757 -0.2158
20694W        W24994   5.994   5.117  11.387 -0.0788  0.4046 -0.0531
20695W        W24995  12.420   0.414   6.452  0.2248  0.1635 -0.0398
20696W        W24996   2.509   0.980  24.466  0.0022 -0.2843  0.4807
20697W        W24997  21.002   1.946  35.035 -0.0777  0.2220  0.2953
20698W        W24998   6.644   2.943  44.893 -0.1474 -0.0979 -0.0952
20699W        W24999   4.109   5.867  30.813 -0.1411 -0.0976 -0.0641
20700W        W25000   4.461   2.394  40.117 -0.2264 -0.3358  0.3586
20701W        W25001   8.699   0.752  42.052  0.3464 -0.0187 -0.2042
20702W        W25002   2.770   4.763  25.284 -0.1908  0.1159 -0.0417
20703W        W25003   0.963   3.059  41.909  0.1833 -0.1145  0.2649
20704W        W25004  12.574   3.003  15.287 -0.2600  0.1456  0.1401
20705W        W25005  17.257   2.472  13.056  0.4741 -0.2443  0.3306
20706W        W25006  21.088   5.669  29.545 -0.0115  0.1029  0.0487
20707W        W25007  10.713   0.283  18.008 -0.0717  0.3486 -0.0869
20708W        W25008  11.611   3.871  35.012 -0.2754  0.1211 -0.1288
20709W        W25009  16.274   0.061   7.361 -0.0352 -0.0733  0.2180
20710W        W25010   8.024   1.094  16.514 -0.2827  0.3412  0.2175
20711W        W25011  14.861   5.113  35.079 -0.0679 -0.0802 -0.2478
20712W        W25012  10.394   6.131  36.622  0.2944 -0.0202 -0.1428
20713W        W25013  19.522   3.768   5.113  0.2588  0.1993 -0.0971
20714W        W25014   6.401   1.260   2.151 -0.0567 -0.0690 -0.1313
20715W        W25015  13.867   2.361  43.701 -0.0470 -0.1206 -0.2567
20716W        W25016   2.900   3.343   8.782  0.1545 -0.1990 -0.0205
20717W        W25017   4.819   0.609  11.203  0.2370 -0.0159 -0.1719
20718W        W25018   6.306   6.155   6.721  0.1030 -0.0713 -0.3337
20719W        W25019  17.954   3.482  41.992 -0.0725 -0.1415 -0.1843
20720W        W25020  20.618   5.886  32.662 -0.2937 -0.1476 -0.0902
20721W        W25021  17.716   2.130  38.711  0.0802 -0.0254 -0.0707
20722W        W25022  10.514   2.013   3.236  0.0771  0.3194 -0.0328
20723W        W25023  16.425   1.323   0.666 -0.0841  0.0041  0.0490
20724W        W25024   0.392   4.162  14.858  0.1805  0.0034 -0.2560
20725W        W25025   3.828   1.330  44.740  0.2776 -0.1119 -0.0384
20726W        W25026  21.053   4.655  42.892 -0.2633  0.3056 -0.2209
20727W        W25027   3.484   4.559  23.959 -0.0243 -0.2432  0.2130
20728W        W25028  14.323   6.198  36.528 -0.2589 -0.3213  0.0007
20729W        W25029   6.422   5.614   5.972 -0.0793 -0.0240 -0.0517
20730W        W25030  15.284   0.642  42.604 -0.1013 -0.1617 -0.0685
20731W        W25031   3.205   5.952  38.091 -0.1365 -0.1571 -0.0197
20732W        W25032   0.407   2.879  44.660 -0.2038  0.1157 -0.0120
20733W        W25033  15.531   5.960   2.602 -0.1368 -0.0705  0.1388
20734W        W25034  18.192   0.764  43.624 -0.0399 -0.2679 -0.5833
20735W        W25035  10.213   4.545  16.654  0.0611  0.0513 -0.2773
20736W        W25036   7.924   5.311   7.385  0.1622 -0.2371 -0.0841
20737W        W25037   4.968   5.843   8.724 -0.5877 -0.2754  0.1569
20738W        W25038  11.133   3.126  28.832 -0.1807 -0.1565  0.0621
20739W        W25039  15.755   6.016  18.755  0.2800  0.0248  0.1677
20740W        W25040  14.384   1.529  14.613  0.1737 -0.0593  0.0587
20741W        W25041   7.902   0.669  23.971 -0.0284 -0.1155 -0.2238
20742W        W25042  12.630   0.724   6.851 -0.1454  0.0720  0.0426
20743W        W25043   5.137   6.293  27.115  0.1396  0.2247  0.0505
20744W        W25044   7.972   1.516  11.627 -0.1274  0.1484 -0.0166
20745W        W25045  16.693   2.199  15.987 -0.1795  0.0221 -0.3003
20746W        W25046  15.878   5.604  24.190  0.1144 -0.2775  0.2033
20747W        W25047  20.150   5.119   0.169 -0.2982 -0.2761  0.2248
20748W        W25048   4.676   0.009  15.139 -0.2334  0.1105 -0.4400
20749W        W25049  13.139   0.475  18.708  0.3745 -0.1081 -0.1261
20750W        W25050   3.198   3.998  35.700  0.0697  0.1704 -0.2468
20751W        W25051  14.054   0.813   4.394  0.2654  0.0557  0.1492
20752W        W25052  16.652   5.763  20.598  0.1556 -0.1803  0.1507
20753W        W25053  10.874   6.559  32.490 -0.0017  0.1333  0.1565
20754W        W25054  17.799   2.281  21.682 -0.0630  0.2042 -0.4204
20755W        W25055  13.060   6.261  31.861  0.2044  0.1778  0.0221
20756W        W25056   2.343   1.673  38.264  0.2014  0.2973  0.1226
20757W        W25057  12.345   0.553  44.072 -0.1134  0.2605 -0.0157
20758W        W25058  14.519   1.051   6.895  0.0054  0.1462  0.1718
20759W        W25059   2.753   2.341   6.525 -0.0718 -0.0165  0.0975
20760W        W25060   5.457   3.320  27.073  0.4165  0.1802  0.2849
20761W        W25061  16.400   5.377  21.332  0.2307 -0.0560 -0.0476
20762W        W25062  11.604   0.298  39.449  0.3526  0.2727  0.0468
20763W        W25063  19.457   2.759  43.018  0.2954 -0.4083  0.4066
20764W        W25064   4.569   4.017   8.044  0.1372 -0.1471 -0.0419
20765W        W25065  11.470   1.248  29.792  0.0861 -0.0545 -0.1020
20766W        W25066  13.630   0.524  43.280 -0.0961 -0.0198  0.2651
20767W        W25067  19.285   3.342  11.929  0.0055 -0.0156 -0.2422
20768W        W25068  12.665   3.152  29.841 -0.4576 -0.0200 -0.2756
20769W        W25069   8.060   3.976  15.190 -0.3121  0.0667 -0.0667
20770W        W25070  17.955   2.219  13.388 -0.0276 -0.0198 -0.0208
20771W        W25071   0.205   4.054  34.128  0.2284  0.1431 -0.0272
20772W        W25072  15.009   0.684  44.602 -0.0229 -0.0016  0.2087
20773W        W25073   2.663   2.719   6.817  0.0565 -0.0067 -0.1232
20774W        W25074  20.941   5.095  13.355  0.2179 -0.0666  0.1138
20775W        W25075  13.284   5.760  43.695 -0.1335 -0.2835  0.0933
20776W        W25076   5.123   4.407   0.818  0.2432  0.0155 -0.2911
20777W        W25077   6.924   1.326  37.634  0.1191 -0.1358 -0.0932
20778W        W25078  11.659   3.194  18.280  0.0191  0.2323  0.1188
20779W        W25079  21.009   2.045   8.709 -0.0782 -0.2668  0.0640
20780W        W25080   9.090   2.306  23.002  0.0200 -0.0829  0.2809
20781W        W25081   2.941   6.270   4.718  0.0210 -0.3392  0.0613
20782W        W25082  18.588   1.227  45.047 -0.0741  0.3241  0.2218
20783W        W25083  17.140   2.242  33.792 -0.1316  0.1394 -0.2227
20784W        W25084   0.624   6.340  10.644  0.2609 -0.0601  0.2305
20785W        W25085  19.254   3.506  34.749 -0.0424  0.1700  0.2346
20786W        W25086  14.968   3.678  12.544 -0.1042  0.0725 -0.1699
20787W        W25087   7.938   2.408  34.624 -0.0908  0.0358 -0.0282
20788W        W25088   5.476   5.987   4.059  0.2790  0.4869 -0.0141
20789W        W25089   3.755   5.747  13.833  0.4079 -0.2003  0.0768
20790W        W25090  16.814   5.629  21.077  0.1408 -0.0099 -0.2481
20791W        W25091  19.401   0.332  38.368  0.3117 -0.2970  0.0872
20792W        W25092  12.362   1.041  42.140  0.1653  0.2784 -0.0345
20793W        W25093   1.600   2.285  11.444 -0.4445 -0.0173  0.0232
20794W        W25094  19.748   4.741   8.678  0.3865 -0.3057 -0.0152
20795W        W25095   5.918   5.393  42.782 -0.1191  0.3438  0.1327
20796W        W25096  11.433   1.401  33.268  0.2844  0.2649 -0.1004
20797W        W25097  15.544   3.745  32.032  0.3847  0.0511  0.1812
20798W        W25098   6.572   3.049   8.608 -0.0655  0.0852  0.1520
20799W        W25099  14.618   5.832  17.084  0.0795 -0.1315  0.1447
20800W        W25100   7.128   1.250   8.379 -0.1112 -0.0474 -0.1058
20801W        W25101  15.693   0.717  33.358  0.0639  0.1086  0.0160
20802W        W25102   0.733   6.035  32.298 -0.0704  0.2348 -0.2197
20803W        W25103  18.286   4.862   6.073 -0.1059 -0.0821 -0.1304
20804W        W25104  13.563   0.057  31.523  0.1736 -0.0358 -0.1527
20805W        W25105  11.014   5.160  33.956 -0.0737  0.3404  0.0846
20806W        W25106  16.069   3.273  31.305 -0.0204  0.1020  0.2940
20807W        W25107  18.334   4.291  35.556  0.1642  0.0117 -0.2075
20808W        W25108   9.850   4.568  33.822  0.0012  0.0407  0.1624
20809W        W25109  16.906   3.710   6.889 -0.0746 -0.0690  0.0818
20810W        W25110   0.934   6.573  37.386  0.1332  0.2486 -0.2281
20811W        W25111  20.992   5.575  37.875 -0.2069 -0.0362 -0.0343
20812W        W25112  10.435   2.851   6.305 -0.0639  0.1126  0.0433
20813W        W25113  13.018   6.350   8.069  0.1994  0.2882 -0.2131
20814W        W25114  15.868   6.159  42.442  0.0774 -0.1421  0.0162
20815W        W25115  20.100   5.813  12.725  0.0477  0.2650 -0.0128
20816W        W25116   7.317   0.449  28.525 -0.2670 -0.0669 -0.3193
20817W        W25117   4.634   1.460  15.189  0.0897 -0.0402  0.1933
20818W        W25118   3.819   1.136  25.263 -0.0400 -0.3445 -0.0380
20819W        W25119   7.840   0.663  37.758  0.1091  0.0918 -0.2294
20820W        W25120  18.635   4.288  34.629  0.0007  0.0916  0.1618
20821W        W25121  10.654   1.023  43.487 -0.2034 -0.0721  0.1957
20822W        W25122  16.221   0.987  10.841  0.1708  0.0468 -0.0759
20823W        W25123  20.513   5.430  10.630 -0.1390  0.1085 -0.0160
20824W        W25124   1.966   4.565  13.697 -0.0446  0.0616  0.1173
20825W        W25125   3.098   6.311  33.475 -0.2336 -0.0841 -0.0337
20826W        W25126  20.635   3.584  18.539 -0.2630  0.3050  0.2582
20827W        W25127   7.215   6.502  24.283  0.0522 -0.2444 -0.0818
20828W        W25128   7.445   1.358   4.628  0.3338 -0.0819  0.0911
20829W        W25129  18.084   5.939   2.042 -0.1591  0.1207 -0.0245
20830W        W25130  11.302   1.703  34.236 -0.3104 -0.0625 -0.1074
20831W        W25131  11.871   0.840   2.570  0.2233  0.0768 -0.0147
20832W        W25132   1.899   0.139   9.264  0.3981  0.0923  0.0105
20833W        W25133   0.515   3.360   8.165 -0.3047 -0.0719 -0.0027
20834W        W25134  10.030   2.596  37.895 -0.0234  0.1543 -0.2402
20835W        W25135  19.904   4.569  41.303  0.1864 -0.1755 -0.1647
20836W        W25136  18.338   2.071  44.850  0.1272 -0.0126  0.1272
20837W        W25137  16.583   3.754  18.852  0.0834 -0.0199 -0.2468
20838W        W25138  15.427   3.681  11.170 -0.0965 -0.0832  0.1714
20839W        W25139   0.403   2.172  27.245  0.2031  0.0586 -0.0316
20840W        W25140  16.877   6.593  22.169  0.0962  0.2572  0.0900
20841W        W25141   1.311   2.769  39.976  0.0633  0.2076 -0.1741
20842W        W25142   1.750   3.148   8.665  0.0213  0.2926 -0.0218
20843W        W25143   6.709   5.853   6.953 -0.2140  0.2284  0.0317
20844W        W25144   9.385   1.933  43.333  0.0142 -0.0195  0.1881
20845W        W25145   8.393   5.906   0.169 -0.0861  0.1603  0.2915
20846W        W25146   9.916   4.696   5.260 -0.0324 -0.0110 -0.0886
20847W        W25147   6.279   4.891  25.866 -0.1565 -0.0020 -0.0913
20848W        W25148   0.869   0.453   2.062 -0.1394 -0.0403 -0.1755
20849W        W25149   0.804   2.871  33.997  0.0727  0.2147  0.1220
20850W        W25150   0.442   3.978  44.552 -0.0466  0.0656  0.2143
20851W        W25151   0.913   1.492  26.659  0.1694 -0.0346  0.0602
20852W        W25152  15.878   3.105  23.865  0.2140  0.2437  0.0919
20853W        W25153  15.745   1.427  13.205 -0.1619 -0.0069 -0.0504
20854W        W25154  10.926   6.412  11.037  0.2231 -0.2206  0.1111
20855W        W25155  14.042   3.390   7.164  0.0341  0.0562 -0.0322
20856W        W25156   4.781   5.719  29.118  0.2752 -0.1127  0.0322
20857W        W25157  10.987   4.108  19.087  0.1987 -0.1490  0.1041
20858W        W25158  18.690   0.006   1.833 -0.1253  0.1112 -0.0385
20859W        W25159   8.460   5.956  28.482  0.1592  0.4813 -0.0869
20860W        W25160  19.237   1.030  37.443  0.2197  0.0456  0.3266
20861W        W25161   2.966   0.129  14.811 -0.0806 -0.4656 -0.1112
20862W        W25162   0.104   3.246  13.313 -0.1375  0.2205  0.1035
20863W        W25163  10.511   4.199  37.382 -0.1823 -0.1320  0.1241
20864W        W25164  13.459   5.740  40.387  0.2996 -0.3214  0.0507
20865W        W25165   0.469   2.023   9.311  0.0288 -0.1753  0.0943
20866W        W25166   0.068   6.181  44.636  0.0584  0.0579  0.0284
20867W        W25167   2.751   5.811  31.272 -0.0136 -0.1859  0.3928
20868W        W25168  19.758   3.168  13.751  0.0187  0.2015  0.3438
20869W        W25169  10.010   2.099   6.637 -0.1921 -0.0938 -0.2520
20870W        W25170   4.945   4.177   5.052 -0.0550  0.1972 -0.0059
20871W        W25171  15.486   5.427   0.095  0.2380 -0.3409  0.3069
20872W        W25172  16.934   4.153  23.245  0.0321  0.1296 -0.1021
20873W        W25173   0.224   0.357  35.822  0.0779 -0.0477  0.0825
20874W        W25174  14.208   4.809  31.051  0.0525  0.2698 -0.2519
20875W        W25175  20.161   3.537  18.023  0.2534  0.1971 -0.1006
20876W        W25176  13.754   5.916   3.732 -0.1109  0.0216  0.0427
20877W        W25177   5.630   5.065   4.501 -0.1282  0.3659 -0.0762
20878W        W25178  19.763   6.246   0.997 -0.0538  0.2076 -0.2334
20879W        W25179   9.122   3.409  30.550 -0.4160  0.1606 -0.0443
20880W        W25180  11.967   4.211   3.888  0.0164  0.1516 -0.2818
20881W        W25181   6.959   3.246   8.161  0.1152  0.1946  0.0171
20882W        W25182   0.208   2.932  30.410  0.0934  0.0394 -0.0713
20883W        W25183  15.041   5.307  14.224  0.3180 -0.0941  0.2241
20884W        W25184   0.081   2.177   6.525 -0.1009  0.1580  0.2590
20885W        W25185   5.698   1.060  21.618 -0.3434 -0.1218 -0.1466
20886W        W25186   6.813   0.266  25.256  0.5613  0.0765 -0.1281
20887W        W25187   0.930   1.393  37.242 -0.0478 -0.2549 -0.2250
20888W        W25188  14.684   1.987  31.943  0.0494 -0.0707 -0.1071
20889W        W25189  15.693   2.989   4.904 -0.2075 -0.0877 -0.2314
20890W        W25190  18.986   6.014   5.703 -0.1089 -0.0992  0.2007
20891W        W25191  11.402   2.422  44.487  0.1844  0.0600 -0.1460
20892W        W25192   1.307   3.890  14.683  0.2394 -0.0230 -0.0288
20893W        W25193  13.848   3.539  16.010 -0.2557 -0.1464 -0.3098
20894W        W25194   3.328   0.535   8.889  0.0609  0.1690 -0.2161
20895W        W25195   3.956   2.840  44.460 -0.0507  0.0857  0.3086
20896W        W25196  16.131   0.313  13.946 -0.1037 -0.2925  0.1214
20897W        W25197   5.666   4.218  25.212  0.0003 -0.1705  0.1915
20898W        W25198  18.265   6.560  21.001 -0.2558 -0.2158  0.1022
20899W        W25199   6.957   1.677   9.939 -0.2159  0.0797 -0.0327
20900W        W25200   7.372   4.076   0.298 -0.1176 -0.3683  0.1253
20901W        W25201  11.858   3.670   5.298 -0.0228 -0.3150 -0.0892
20902W        W25202  15.558   4.205   6.443 -0.2927 -0.2088 -0.0298
20903W        W25203  19.845   5.861  18.062 -0.1739  0.2138  0.1547
20904W        W25204   3.761   1.638  39.417 -0.2402 -0.0215 -0.0507
20905W        W25205  17.115   0.937   5.418  0.1038  0.1503 -0.2259
20906W        W25206  12.993   5.167  36.888 -0.0080 -0.0867 -0.0763
20907W        W25207   3.303   0.256  10.896  0.1300 -0.0822 -0.1525
20908W        W25208  16.568   4.462   8.499 -0.1216  0.0116 -0.2748
20909W        W25209  18.295   4.775  42.628  0.0741  0.1705  0.1496
20910W        W25210   5.291   3.290  10.538 -0.1940  0.0446  0.0312
20911W        W25211   9.951   2.790   4.657  0.0018 -0.1269  0.3333
20912W        W25212  13.663   4.915  41.091  0.0517  0.0460  0.1859
20913W        W25213   6.734   5.157  31.110  0.0402  0.3473 -0.2135
20914W        W25214   2.137   6.219  39.588 -0.3572 -0.0756  0.2309
20915W        W25215  11.408   5.335   5.289 -0.2910  0.1170 -0.2178
20916W        W25216   3.790   0.072   2.101 -0.0012  0.1888  0.0072
20917W        W25217   7.295   5.735  29.996 -0.0038  0.1502  0.3690
20918W        W25218  19.074   5.536  16.286 -0.0630  0.4960 -0.1038
20919W        W25219   7.675   5.054  15.690  0.1592  0.2284  0.0947
20920W        W25220  20.051   1.905  18.042 -0.0943 -0.0179 -0.1395
20921W        W25221  16.439   2.862  22.997  0.0417 -0.1425 -0.2001
20922W        W25222   8.542   5.977  43.900  0.1102  0.0413  0.1743
20923W        W25223   6.629   4.364   3.446 -0.0055  0.3135  0.1953
20924W        W25224  10.005   0.632  39.355 -0.2964  0.1553 -0.4132
20925W        W25225  12.071   4.505  14.663  0.0034  0.0416  0.4051
20926W        W25226  15.906   2.615  14.995 -0.2074 -0.1234  0.0992
20927W        W25227   0.172   4.225  10.535  0.3173 -0.0904 -0.1295
20928W        W25228   5.301   1.499   9.250  0.1434  0.0528 -0.0787
20929W        W25229   6.385   6.352  10.962 -0.3134  0.4111  0.0494
20930W        W25230  12.846   0.637  41.993  0.1330  0.0548 -0.0939
20931W        W25231  13.487   2.160  18.295  0.0561  0.2533 -0.2320
20932W        W25232   7.059   4.928   8.548 -0.1044 -0.4098  0.0258
20933W        W25233  16.232   2.253  39.001 -0.3031 -0.1636  0.1487
20934W        W25234   5.918   4.835  31.408  0.0807 -0.4163 -0.2840
20935W        W25235   8.437   0.968   4.284  0.1450 -0.1335 -0.3172
20936W        W25236  14.292   0.196  11.158 -0.2019 -0.0359 -0.2264
20937W        W25237  17.047   4.086  10.858 -0.2352  0.1577  0.0556
20938W        W25238   4.684   0.536  38.010 -0.2628 -0.0567  0.1447
20939W        W25239   5.508   0.727  20.360  0.1299  0.0063 -0.3115
20940W        W25240   9.527   2.324  37.876 -0.1557 -0.0043  0.0845
20941W        W25241  19.420   2.692  12.429 -0.2886  0.2697  0.2229
20942W        W25242  17.897   2.292  30.085 -0.2123  0.2288 -0.2795
20943W        W25243  14.993   1.664  13.982  0.1090  0.1420 -0.0554
20944W        W25244  12.933   3.234  31.608 -0.2429 -0.1407 -0.2614
20945W        W25245  16.207   5.121   8.361 -0.0544  0.1249  0.1110
20946W        W25246   4.171   0.903  42.507  0.1004 -0.1773  0.0153
20947W        W25247   6.805   0.996   1.390 -0.0101  0.2166  0.0883
20948W        W25248  10.416   5.061   7.036  0.1380 -0.1991  0.6372
20949W        W25249   4.096   3.403   0.825 -0.1367 -0.2121  0.1299
20950W        W25250   9.823   2.570   2.648 -0.0562  0.1222 -0.1967
20951W        W25251   3.182   5.308  42.005 -0.0336  0.0775  0.0430
20952W        W25252   0.388   3.550   3.691  0.1502 -0.1026  0.0997
20953W        W25253  12.460   3.879  14.093 -0.1793  0.1550 -0.1698
20954W        W25254  17.637   5.214  30.996 -0.3307  0.0888 -0.1107
20955W        W25255   5.047   0.847   5.328 -0.0734  0.1642 -0.1662
20956W        W25256  16.555   3.804   2.100 -0.3166 -0.0687 -0.3549
20957W        W25257   1.092   0.539  13.495  0.0453 -0.0307  0.0259
20958W        W25258  10.622   1.165   5.796 -0.0496 -0.0068 -0.1074
20959W        W25259   9.268   0.969  34.492  0.0231  0.0270  0.2582
20960W        W25260   3.110   0.501  31.203  0.0180 -0.1846  0.0603
20961W        W25261   4.720   2.331  44.956  0.1838 -0.0911 -0.0309
20962W        W25262   4.369   5.863  43.907 -0.1817 -0.0288 -0.1362
20963W        W25263  13.568   6.577   6.740 -0.0238 -0.0569 -0.0504
20964W        W25264   8.831   5.910  11.188  0.1438  0.1048  0.1377
20965W        W25265  11.970   3.423  39.870  0.2408 -0.1527 -0.0368
20966W        W25266   7.047   4.246   1.391  0.1151 -0.1674 -0.2182
20967W        W25267   7.704   3.045  29.721 -0.1623 -0.1879  0.1538
20968W        W25268  18.807   1.363   5.284  0.0075  0.0187 -0.0400
20969W        W25269  13.032   5.677  36.920  0.0577 -0.1092  0.1912
20970W        W25270  15.191   6.029  20.547  0.2966 -0.0501  0.0477
20971W        W25271  14.742   6.257   1.790  0.2253  0.0016 -0.1702
20972W        W25272   5.185   3.167  13.512  0.0580  0.0073 -0.1188
20973W        W25273   6.352   3.481  10.754 -0.1833 -0.1975 -0.1290
20974W        W25274  17.079   5.069  13.823  0.2664  0.1514  0.1590
20975W        W25275  14.239   3.389  32.291 -0.2359  0.3627 -0.0732
20976W        W25276  19.211   1.913  39.010 -0.1743  0.2110 -0.2537
20977W        W25277   0.500   0.481  42.982  0.0695  0.0685  0.0560
20978W        W25278  10.587   1.620  11.356  0.0089  0.1081  0.0968
20979W        W25279  18.070   5.295  37.267 -0.2199  0.1553  0.0936
20980W        W25280   0.381   5.336  36.284 -0.1368  0.3933 -0.2427
20981W        W25281  17.670   1.202  44.274  0.1563  0.2654 -0.0445
20982W        W25282  17.452   5.762  13.130  0.1579 -0.2301  0.2198
20983W        W25283   7.258   5.619   9.286 -0.0712  0.0034 -0.4011
20984W        W25284  15.149   4.115  14.029 -0.2549 -0.1903  0.2248
20985W        W25285   6.790   3.570  41.929  0.5483  0.0766  0.3589
20986W        W25286   8.898   4.244  43.121  0.1752 -0.4526  0.3021
20987W        W25287   8.457   2.227  13.746  0.0421 -0.2115 -0.2450
20988W        W25288   0.747   3.931   1.173  0.1343  0.1888 -0.2636
20989W        W25289  11.875   0.905  15.019 -0.2123  0.2560  0.1480
20990W        W25290  14.519   1.545  37.846  0.2118 -0.1244 -0.2963
20991W        W25291  13.456   5.500  34.625  0.0020  0.2298  0.0567
20992W        W25292  20.286   2.659   7.482 -0.0329  0.0544 -0.1430
20993W        W25293  17.938   0.466  33.159 -0.1726  0.1143  0.0111
20994W        W25294  18.479   2.733   6.805 -0.0126 -0.1602  0.1348
20995W        W25295  13.172   0.524  14.983 -0.0356  0.0551 -0.0322
20996W        W25296   7.884   4.720   0.879 -0.0449  0.0665  0.1003
20997W        W25297   6.201   1.382  39.289 -0.0850  0.3916  0.1456
20998W        W25298  17.250   5.512  37.399  0.1095  0.2047  0.3282
20999W        W25299  13.484   2.357   7.772  0.2784 -0.0425 -0.2801
21000W        W25300   4.365   4.425   8.991 -0.1473 -0.0396  0.0320
21001W        W25301  18.362   3.355  13.352 -0.1922  0.1203  0.1794
21002W        W25302   4.258   5.353   3.875 -0.0419  0.2054 -0.1854
21003W        W25303  14.005   2.101   3.026 -0.2196 -0.4278  0.1876
21004W        W25304  16.742   5.371   4.625  0.0653 -0.0940  0.2274
21005W        W25305   0.055   0.236  16.719 -0.2247 -0.4526 -0.0039
21006W        W25306   2.668   4.985  31.696 -0.0755 -0.1631  0.0757
21007W        W25307  15.959   1.987  31.321  0.0137  0.0155 -0.0423
21008W        W25308  14.803   0.696   3.752 -0.4141  0.2964 -0.1845
21009W        W25309   8.971   4.623   4.147  0.1146  0.1156  0.0292
21010W        W25310   3.579   5.850   6.948 -0.1458 -0.2602 -0.3727
21011W        W25311  13.805   2.266  32.847 -0.0379  0.1563  0.0961
21012W        W25312   5.742   6.078   1.564 -0.0151 -0.1052  0.3334
21013W        W25313  11.186   2.996  27.318  0.0137 -0.2590 -0.0756
21014W        W25314  12.651   0.288  42.398  0.0689  0.0738  0.0928
21015W        W25315   9.070   3.425   3.350 -0.0751 -0.1553 -0.2130
21016W        W25316  12.767   2.424  38.372 -0.0796 -0.1378  0.2943
21017W        W25317   5.589   3.257  27.590 -0.2879 -0.1728 -0.0060
21018W        W25318   9.986   2.199  39.361  0.0857 -0.4074  0.2032
21019W        W25319  18.837   4.650  36.329  0.1280 -0.2005 -0.4148
21020W        W25320  18.754   2.594  15.853 -0.1638 -0.1549 -0.2354
21021W        W25321   9.736   2.535   5.551 -0.0058  0.0414  0.0597
21022W        W25322  14.986   2.728  37.248  0.0531  0.0186  0.0842
21023W        W25323   1.318   2.093  32.512 -0.0991 -0.2193  0.2869
21024W        W25324  15.366   6.082  35.189  0.0946 -0.2942  0.0711
21025W        W25325   6.078   0.346   2.406  0.3116 -0.0747 -0.2130
21026W        W25326  15.455   3.876  15.148  0.1695  0.1443 -0.0520
21027W        W25327  15.645   4.683   2.850 -0.0826  0.2985 -0.0977
21028W        W25328   6.031   2.921  44.432  0.1799  0.0276  0.0323
21029W        W25329   6.892   6.462  35.068 -0.1605  0.2638 -0.0113
21030W        W25330  18.290   2.753  36.263 -0.0850  0.0913 -0.1804
21031W        W25331  20.162   1.018  35.365 -0.1309  0.2108 -0.2394
21032W        W25332   2.919   3.842   0.576 -0.2254 -0.2684 -0.1312
21033W        W25333   4.704   3.061   1.763 -0.1333  0.1609  0.0032
21034W        W25334  11.813   4.264  36.872  0.0918  0.3395  0.0764
21035W        W25335   6.093   5.172  15.228 -0.1132 -0.1189  0.1792
21036W        W25336  20.290   4.805  31.962  0.1206  0.0465  0.0544
21037W        W25337  11.769   1.170  32.161  0.1042  0.0220  0.1155
21038W        W25338  19.511   0.609  37.854 -0.3640 -0.1434  0.1980
21039W        W25339  14.714   1.115  41.999 -0.1510 -0.3344 -0.0629
21040W        W25340  16.279   5.107  38.194 -0.2542 -0.1295  0.0812
21041W        W25341  17.355   5.805   8.676  0.3273 -0.0286 -0.0817
21042W        W25342   5.574   5.143  34.508  0.0331  0.0661 -0.3095
21043W        W25343  12.498   6.531  38.005  0.2324  0.0966  0.0453
21044W        W25344  10.163   0.443   4.374  0.0096  0.1743 -0.0874
21045W        W25345  12.117   0.960  36.213  0.1515 -0.0054  0.1894
21046W        W25346   2.042   5.733  25.293  0.0352  0.0877 -0.2618
21047W        W25347  19.251   3.160  45.047 -0.0865 -0.1959 -0.2939
21048W        W25348   9.098   5.693  13.960  0.1152  0.2190  0.3091
21049W        W25349  16.582   3.673  16.654 -0.1183  0.1613 -0.1171
21050W        W25350   6.825   3.395  15.264  0.1048 -0.0016  0.0845
21051W        W25351   7.164   0.628   6.050  0.0974 -0.0747  0.1408
21052W        W25352  15.483   0.474  30.594 -0.2238  0.0908 -0.0813
21053W        W25353   9.305   1.324   7.960  0.1822  0.0467 -0.2275
21054W        W25354  10.551   0.815  31.224  0.0176 -0.1106  0.1369
21055W        W25355  13.273   2.455   4.085 -0.2405  0.0750 -0.3420
21056W        W25356  18.545   1.759  34.387 -0.0347 -0.2844 -0.0433
21057W        W25357  20.716   4.633  33.940 -0.0157 -0.0220 -0.1496
21058W        W25358   7.614   5.035  38.672 -0.2703  0.0301 -0.0497
21059W        W25359   5.788   0.229  20.964 -0.0790  0.5167  0.0457
21060W        W25360   5.399   4.742  24.191 -0.2877 -0.0944 -0.1715
21061W        W25361  14.273   2.119  20.335 -0.1155  0.3537 -0.0863
21062W        W25362   8.353   3.965  23.147 -0.4306 -0.1054 -0.0077
21063W        W25363  14.748   5.633  11.752 -0.0637  0.1235 -0.0172
21064W        W25364  14.337   0.524  17.421  0.0360  0.0632  0.1330
21065W        W25365  18.877   2.219   2.028  0.2439  0.0064 -0.0611
21066W        W25366   2.642   2.725  45.059  0.0604  0.0716  0.0546
21067W        W25367   8.643   3.450   1.665 -0.0339 -0.1254 -0.0992
21068W        W25368  10.831   5.439  10.804 -0.2062  0.3647  0.0495
21069W        W25369  10.476   1.567   8.406  0.0069 -0.0471  0.4899
21070W        W25370  20.992   2.196  14.273  0.0030 -0.3310 -0.1041
21071W        W25371   1.212   5.360   8.009 -0.1885  0.1490 -0.4663
21072W        W25372   9.340   3.213  23.272 -0.1133  0.0304  0.1232
21073W        W25373   3.391   2.053  31.147 -0.0464  0.0628  0.0110
21074W        W25374   4.847   5.719   0.470 -0.0199  0.2377  0.1340
21075W        W25375  13.245   0.232   9.716 -0.0933 -0.0166  0.0310
21076W        W25376  17.590   3.522  12.715 -0.1359 -0.3074 -0.2064
21077W        W25377   5.752   6.118  26.457 -0.0369  0.1085 -0.0111
21078W        W25378   7.395   4.425  41.837  0.5600 -0.0008  0.0779
21079W        W25379   1.841   0.531  14.202 -0.1237  0.0334  0.0801
21080W        W25380  17.354   2.516  10.153  0.0409  0.1675 -0.1505
21081W        W25381  19.312   6.453  41.098 -0.2304  0.2171 -0.1654
21082W        W25382   0.414   3.803  41.414  0.0787  0.2898  0.1576
21083W        W25383   7.302   5.614  34.109  0.0907  0.0385 -0.1655
21084W        W25384  21.127   5.936  27.035  0.0644  0.0990  0.0518
21085W        W25385  18.448   3.845  16.543  0.1221  0.0622 -0.0258
21086W        W25386   8.662   5.019  36.506  0.0706  0.1022  0.0593
21087W        W25387   4.691   3.554  38.974  0.2311 -0.0114 -0.0317
21088W        W25388  19.964   4.055  20.396 -0.2215  0.0955 -0.4062
21089W        W25389  15.091   6.189  34.285  0.0753  0.5246 -0.0113
21090W        W25390   0.955   2.735  43.451  0.0325 -0.0214 -0.0934
21091W        W25391   5.503   3.276  14.725  0.1655 -0.1620  0.1307
21092W        W25392  10.209   2.240  14.688 -0.1783 -0.1550  0.1984
21093W        W25393  17.284   6.129  45.025  0.2101 -0.1078  0.0187
21094W        W25394  19.435   4.792  37.996  0.0097 -0.0464 -0.1094
21095W        W25395   5.882   1.800  20.293  0.2310 -0.2005 -0.1572
21096W        W25396  14.033   2.155  42.960 -0.2056  0.0933 -0.2635
21097W        W25397  15.815   3.053   6.140 -0.0560 -0.3825  0.1382
21098W        W25398  13.202   6.150  42.921  0.1726 -0.4002 -0.0209
21099W        W25399   4.467   1.868  43.931  0.2981  0.2719 -0.1623
21100W        W25400  17.329   0.941  12.257 -0.1353 -0.1163  0.0502
21101W        W25401   0.456   3.381   1.973  0.0010  0.3240 -0.2582
21102W        W25402   6.628   2.715  38.684 -0.2129 -0.2677 -0.2857
21103W        W25403  13.285   6.282  32.397  0.0543  0.1539  0.1448
21104W        W25404  20.333   3.202  33.336 -0.3172  0.0571  0.1189
21105W        W25405  16.043   4.893  19.093  0.3564 -0.0418 -0.1285
21106W        W25406   2.107   2.332   3.576 -0.0134  0.1719  0.1746
21107W        W25407  19.352   3.645  30.758 -0.0266 -0.2530 -0.0987
21108W        W25408  14.530   0.625  41.105 -0.2522 -0.0262 -0.1855
21109W        W25409  20.555   1.637  38.538  0.0658  0.2025  0.1578
21110W        W25410   8.985   1.143   0.563  0.2272 -0.0153 -0.0404
21111W        W25411  18.272   2.480  29.741  0.0107 -0.2197 -0.0030
21112W        W25412   6.799   3.933  12.604  0.0518 -0.2752  0.2136
21113W        W25413  20.953   3.588  41.589  0.1757 -0.0158  0.4825
21114W        W25414   4.437   1.174  30.665  0.2991 -0.0825 -0.1662
21115W        W25415   4.585   4.756  43.861 -0.0179  0.1099  0.2122
21116W        W25416  10.678   4.258   6.835 -0.0846  0.2505  0.1540
21117W        W25417  16.933   0.007   5.729 -0.2527  0.2025 -0.1643
21118W        W25418  13.130   1.129   7.984 -0.0468 -0.2116  0.1509
21119W        W25419   4.565   4.388   0.966 -0.0042 -0.2884 -0.0959
21120W        W25420   1.791   3.248   4.615 -0.0866  0.0460  0.2242
21121W        W25421   3.273   4.696  39.763 -0.1784 -0.1568 -0.1162
21122W        W25422   7.258   2.061   3.457  0.2746 -0.1049 -0.0158
21123W        W25423  17.196   3.854   8.159 -0.0349  0.3736 -0.1802
21124W        W25424  10.154   0.709  13.817 -0.1694 -0.2452 -0.0911
21125W        W25425   7.137   5.264  22.231  0.2260  0.0625 -0.1766
21126W        W25426  19.472   5.495   9.687 -0.1090 -0.0836  0.0271
21127W        W25427  11.650   0.053  34.751 -0.0590 -0.1705  0.2916
21128W        W25428  21.015   1.403   2.355  0.1078 -0.2756  0.0766
21129W        W25429   1.322   0.498   4.056 -0.0128  0.2955 -0.1579
21130W        W25430   6.878   6.109  44.597  0.1335 -0.0587  0.1930
21131W        W25431  17.464   2.950   7.167 -0.3137 -0.1147  0.0141
21132W        W25432   6.260   2.362   0.226 -0.1187  0.1675 -0.0622
21133W        W25433   3.728   2.290   1.399  0.1625  0.0596  0.0710
21134W        W25434   7.893   0.041  43.921  0.1811 -0.0654  0.0905
21135W        W25435   9.821   2.079  12.539 -0.0473 -0.0016  0.1048
21136W        W25436   7.610   5.519  41.861 -0.0682  0.2672 -0.1170
21137W        W25437   2.276   2.538  36.582  0.2631  0.3646 -0.0208
21138W        W25438  18.380   3.646  18.536  0.1529 -0.0059 -0.1594
21139W        W25439  11.047   5.182  19.154  0.2051 -0.1357  0.0219
21140W        W25440  18.531   2.056  13.442 -0.2243 -0.2148 -0.1595
21141W        W25441   1.816   3.401  36.773 -0.2930  0.1383 -0.1046
21142W        W25442  18.537   0.505  13.683  0.0030 -0.0703 -0.1233
21143W        W25443   0.245   6.047  32.457  0.1683 -0.0757  0.0386
21144W        W25444   5.052   3.587  36.964 -0.2124 -0.3726  0.1423
21145W        W25445  14.733   3.478  38.765  0.1376  0.1065 -0.0525
21146W        W25446   1.780   6.568  37.674  0.1358 -0.2571  0.3521
21147W        W25447  12.399   2.876  35.564 -0.4247 -0.0358 -0.0786
21148W        W25448  17.736   4.942  31.979 -0.0754  0.3489 -0.0257
21149W        W25449   1.013   0.985   8.080  0.0192 -0.1492  0.1766
21150W        W25450  11.055   4.370  30.501  0.0362  0.0887 -0.1968
21151W        W25451  13.522   0.208   3.964  0.1129 -0.0925 -0.2317
21152W        W25452   7.350   1.646  27.862  0.1301  0.2704 -0.0953
21153W        W25453  17.096   0.839  30.889 -0.2897  0.0051 -0.1888
21154W        W25454  17.287   6.199  34.072  0.1726 -0.1069  0.2005
21155W        W25455  18.592   2.426  18.505 -0.0486 -0.1367  0.2020
21156W        W25456  18.424   0.804  39.837 -0.1007 -0.1520 -0.0557
21157W        W25457  16.721   0.072  43.337 -0.0799 -0.1360 -0.4666
21158W        W25458   7.225   0.132   5.185  0.0217 -0.0980 -0.2443
21159W        W25459  16.511   0.839  34.960  0.0095  0.0505  0.0278
21160W        W25460  10.488   0.656   0.453  0.1029  0.2105 -0.0521
21161W        W25461   5.151   2.973   5.940 -0.0214 -0.0698  0.2728
21162W        W25462  11.133   2.612  37.133 -0.1832  0.1375  0.3219
21163W        W25463  10.018   3.037   8.643 -0.0906  0.1150 -0.0476
21164W        W25464   3.871   3.371   5.263 -0.0428 -0.1198  0.2375
21165W        W25465   7.457   2.931   9.016 -0.2209  0.1047 -0.1030
21166W        W25466   6.804   1.103   8.734 -0.2557 -0.0990  0.0238
21167W        W25467   3.788   3.935   0.396  0.0227  0.0560  0.1381
21168W        W25468   2.864   4.282  25.200  0.0550 -0.1565 -0.0102
21169W        W25469   9.321   1.232  13.660  0.0564  0.0745 -0.1440
21170W        W25470  14.453   0.435  20.204  0.0132 -0.1917 -0.0844
21171W        W25471  17.835   2.240  43.123  0.5128 -0.0347  0.2151
21172W        W25472   5.055   5.116   5.258 -0.0695  0.1620  0.1828
21173W        W25473  21.081   4.590  32.451  0.1223 -0.0131  0.3114
21174W        W25474  13.573   1.883   5.419 -0.0403  0.1047  0.0949
21175W        W25475  11.087   3.700  40.407  0.1297  0.1105 -0.2956
21176W        W25476  16.839   2.716  34.348  0.0828  0.1239 -0.0166
21177W        W25477   4.830   2.558  32.113 -0.0515 -0.2632 -0.1658
21178W        W25478  17.544   2.750  21.619  0.2638 -0.0384  0.1983
21179W        W25479  16.485   4.877  21.170  0.1208 -0.0090 -0.4014
21180W        W25480   0.211   0.662  32.703 -0.0221  0.1494 -0.1141
21181W        W25481  19.283   3.293   8.567  0.0853 -0.4313  0.2018
21182W        W25482   3.475   3.798  44.327  0.0170  0.1476 -0.0066
21183W        W25483  12.668   3.442  33.549  0.1004 -0.2100  0.1815
21184W        W25484  16.490   4.342   6.230  0.1994  0.0783 -0.0263
21185W        W25485  20.310   2.106  13.110 -0.2657  0.3885 -0.0959
21186W        W25486   2.006   6.589   8.455  0.2011 -0.0103 -0.0169
21187W        W25487  12.959   4.416  32.201 -0.1032 -0.1824  0.1760
21188W        W25488   8.698   5.144  38.898  0.1327  0.0382 -0.1900
21189W        W25489  12.404   6.302  34.167  0.0367  0.1173  0.1175
21190W        W25490   4.291   6.574  35.139  0.0399  0.2177  0.0744
21191W        W25491   2.346   1.630  36.754 -0.0518 -0.1173 -0.2906
21192W        W25492  20.930   2.787  14.329 -0.0312  0.0295 -0.0714
21193W        W25493  11.941   4.982  13.236 -0.0105  0.0778  0.1488
21194W        W25494  10.004   3.068  30.513 -0.1267 -0.0330 -0.0386
21195W        W25495  20.643   0.625  10.095 -0.1917 -0.1851  0.2295
21196W        W25496  10.109   3.528  27.295  0.1201 -0.1140 -0.0661
21197W        W25497  16.721   6.197   1.057 -0.2295 -0.1105  0.0773
21198W        W25498   7.437   4.555   0.093  0.0835 -0.0923  0.1688
21199W        W25499  18.680   2.677  10.786  0.1084 -0.0074 -0.3468
21200W        W25500   0.011   1.022  11.898  0.2817 -0.0863  0.0640
21201W        W25501  20.799   5.079   7.419 -0.3310 -0.0657 -0.1230
21202W        W25502  14.793   1.007  15.461 -0.0108 -0.1940  0.1527
21203W        W25503   8.598   6.545  10.846 -0.0298 -0.1483 -0.0578
21204W        W25504  16.870   0.379  45.055 -0.0297  0.1817 -0.0124
21205W        W25505  13.764   3.241  19.831  0.0195 -0.0257 -0.1058
21206W        W25506  20.870   5.491   4.825 -0.2664 -0.1928 -0.0789
21207W        W25507  11.829   4.350  37.496 -0.2909  0.0730 -0.0505
21208W        W25508  16.719   5.642  11.078 -0.0751 -0.0828  0.0275
21209W        W25509  15.774   6.538  29.552  0.3372 -0.0525  0.2342
21210W        W25510   4.619   2.242  42.014  0.4917  0.1203  0.0166
21211W        W25511   1.164   1.752   1.819 -0.0499 -0.0990 -0.2234
21212W        W25512   3.851   3.973   3.059  0.1991 -0.3595  0.4400
21213W        W25513   3.554   1.111   0.002  0.1825  0.0300 -0.1073
21214W        W25514   4.285   2.041  13.872 -0.1919  0.0295  0.2214
21215W        W25515  12.762   0.838  31.511  0.0048 -0.3187 -0.2415
21216W        W25516   1.294   1.837  11.516  0.2273  0.0962  0.4668
21217W        W25517   4.123   0.933   6.968 -0.0712  0.0243  0.2163
21218W        W25518   8.068   4.503  11.450 -0.1961  0.0393 -0.3479
21219W        W25519  15.343   1.368  19.203  0.2673  0.2366 -0.0269
21220W        W25520   5.352   2.033   9.474 -0.0115  0.0735  0.0668
21221W        W25521   5.203   5.730  41.460 -0.0574  0.0271  0.1402
21222W        W25522   4.898   3.971  26.331  0.0094  0.1663  0.0973
21223W        W25523  12.038   6.187  43.356  0.3041  0.1686  0.0749
21224W        W25524  20.643   4.031  34.591  0.0963  0.3313 -0.1630
21225W        W25525  15.625   1.508  11.117  0.0159  0.4785 -0.1793
21226W        W25526  10.001   1.760  35.646  0.3350 -0.1616 -0.1914
21227W        W25527   1.181   1.757   2.703 -0.1669  0.0506 -0.1641
21228W        W25528   5.076   3.416  11.246 -0.0061  0.2288 -0.0349
21229W        W25529   7.945   5.090  26.637 -0.2550 -0.3046 -0.0988
21230W        W25530   6.777   1.318   5.554 -0.1289 -0.1644 -0.2170
21231W        W25531   5.784   2.237  20.445 -0.1294  0.5708  0.1747
21232W        W25532   2.602   6.434  44.657 -0.4102  0.0108 -0.0251
21233W        W25533   2.133   4.253   9.531 -0.0273 -0.1407 -0.0906
21234W        W25534  13.438   4.984  35.091 -0.0395 -0.0136 -0.1535
21235W        W25535   8.065   0.094  13.590  0.0930  0.0923  0.3426
21236W        W25536   3.535   2.505  43.495 -0.1444  0.1464  0.1599
21237W        W25537  13.426   4.378  40.934 -0.2160  0.2169 -0.1091
21238W        W25538   8.045   1.433   5.132 -0.2715 -0.1246 -0.1023
21239W        W25539  10.411   1.470  12.741 -0.2041  0.1801 -0.1794
21240W        W25540   8.293   4.400  13.848  0.0830  0.0501  0.2591
21241W        W25541  12.003   1.920   5.687  0.1036  0.1833 -0.0515
21242W        W25542   2.125   1.229  23.441 -0.0845 -0.1779 -0.1939
21243W        W25543   4.174   1.257   6.541 -0.3314  0.1482 -0.2333
21244W        W25544  20.091   1.680  20.312 -0.0241 -0.1526  0.1541
21245W        W25545   9.878   2.296  38.248 -0.3435 -0.0296 -0.1303
21246W        W25546   6.676   0.246  30.176 -0.0507  0.0684  0.0610
21247W        W25547   6.692   0.076  13.282  0.2699 -0.0445  0.1780
21248W        W25548  15.842   1.960  38.747 -0.0969  0.1806  0.0134
21249W        W25549  18.125   3.883  17.722  0.2610 -0.0059 -0.1095
21250W        W25550  17.251   1.851  15.020  0.1143  0.1362  0.1485
21251W        W25551  16.852   3.267  37.139  0.2174 -0.3375  0.2004
21252W        W25552  13.233   2.338  34.762 -0.0382 -0.0817  0.1793
21253W        W25553   8.188   1.047   7.095  0.0800 -0.1140 -0.5153
21254W        W25554   1.225   1.891  29.762 -0.1549 -0.2241  0.0107
21255W        W25555  16.524   5.874   1.473 -0.1129 -0.0211 -0.0479
21256W        W25556   3.437   0.952   1.832 -0.2690 -0.1859  0.1776
21257W        W25557  20.249   6.399   9.200 -0.1489  0.3038 -0.0730
21258W        W25558   2.563   1.111  27.061 -0.0227 -0.2876  0.4652
21259W        W25559   0.773   5.308  27.727  0.5955 -0.0463  0.0334
21260W        W25560  20.080   3.669  41.059 -0.0203  0.0788 -0.0603
21261W        W25561   5.900   5.474  15.666  0.0736 -0.3474  0.0145
21262W        W25562   7.753   4.971  16.709 -0.0680 -0.3287 -0.2217
21263W        W25563  20.362   5.616  43.735 -0.2339  0.0566  0.0200
21264W        W25564  16.432   0.668  14.251  0.0127 -0.0230 -0.1224
21265W        W25565  17.396   2.948  15.801 -0.0375  0.1513 -0.0177
21266W        W25566  15.725   2.440   4.118  0.1141  0.2016  0.1370
21267W        W25567   5.857   0.011  10.396 -0.3399  0.1119  0.0134
21268W        W25568  12.507   5.679  15.153 -0.2057 -0.2028  0.0751
21269W        W25569  15.260   0.559   2.918 -0.0434  0.2837 -0.0088
21270W        W25570  19.749   1.713  33.375 -0.0800  0.3490 -0.1204
21271W        W25571   3.474   4.762  44.915 -0.1170  0.3270  0.0130
21272W        W25572   2.103   3.179  43.265  0.0196  0.2131  0.1333
21273W        W25573   3.070   2.233  37.726  0.1397 -0.1541  0.3365
21274W        W25574   2.243   2.398  29.158  0.0565 -0.0690 -0.0143
21275W        W25575  15.762   4.142  41.079 -0.1750 -0.0804 -0.0003
21276W        W25576  18.413   3.017   0.199  0.0596  0.0310  0.0966
21277W        W25577  13.175   6.279  29.902 -0.2308  0.0931 -0.0062
21278W        W25578   5.938   6.408  36.307  0.2077 -0.3445  0.2329
21279W        W25579  11.065   5.732  33.517  0.2415 -0.1896 -0.0506
21280W        W25580   4.767   6.106  38.862 -0.0810 -0.1420 -0.2909
21281W        W25581  13.692   1.928  21.146  0.1546  0.3501 -0.0415
21282W        W25582  18.960   2.239  37.980 -0.2030 -0.4876  0.0810
21283W        W25583   5.084   4.363  37.490 -0.1204  0.0378  0.0958
21284W        W25584  17.653   5.901   1.889 -0.0476 -0.1426 -0.1748
21285W        W25585   7.843   4.948  11.424 -0.1054 -0.1462 -0.2230
21286W        W25586   5.323   3.542  41.808  0.1467  0.2117  0.1857
21287W        W25587  16.941   5.182  41.660 -0.3116 -0.3334 -0.0758
21288W        W25588   1.529   6.263  38.412 -0.0308  0.0203 -0.2144
21289W        W25589   6.995   3.327  41.021  0.0540  0.3048  0.1529
21290W        W25590  11.535   0.662  41.506  0.1476 -0.1138  0.2025
21291W        W25591  11.492   0.557  44.732  0.0956  0.0586 -0.3442
21292W        W25592  12.194   5.896  17.400 -0.0532  0.0350  0.1547
21293W        W25593   8.060   6.405  29.180  0.2452 -0.1202  0.0882
21294W        W25594   0.388   5.499   7.648  0.0507  0.1091 -0.0979
21295W        W25595  17.465   0.453  43.000 -0.0086  0.0972  0.4047
21296W        W25596  19.567   5.540  35.399  0.1133  0.0880  0.1917
21297W        W25597  16.054   4.019  18.349 -0.2833  0.4464 -0.0731
21298W        W25598   9.881   0.353   0.151  0.0826  0.0229  0.0259
21299W        W25599   5.118   2.673  15.318 -0.0379  0.0477 -0.3233
21300W        W25600   6.375   0.576   9.429  0.1475  0.4874  0.0761
21301W        W25601  11.485   5.846   3.668  0.0429  0.1330 -0.1264
21302W        W25602  19.510   1.490   3.412 -0.1096 -0.1829 -0.0031
21303W        W25603  18.191   1.167  39.365  0.0884 -0.0637 -0.1061
21304W        W25604   5.681   2.884  24.899 -0.3027  0.2484 -0.0045
21305W        W25605  17.877   5.674   4.496 -0.0311  0.1459  0.2181
21306W        W25606   3.546   4.335  34.916 -0.1034 -0.2731  0.1479
21307W        W25607  15.835   4.091  15.460  0.3600  0.0609  0.0018
21308W        W25608   3.927   3.733   6.386 -0.1022 -0.1486 -0.0988
21309W        W25609   5.387   2.802   8.769 -0.0620 -0.0237  0.2263
21310W        W25610  18.392   4.628  33.880 -0.0013  0.3859 -0.1410
21311W        W25611   5.310   4.561  22.711  0.1115  0.0735  0.1985
21312W        W25612   5.176   3.278  44.780 -0.3105 -0.3769 -0.1049
21313W        W25613   1.953   5.717  32.537  0.1368  0.1204 -0.2582
21314W        W25614  21.025   0.226  35.474  0.0188  0.1671 -0.1306
21315W        W25615   8.532   4.421  13.339 -0.0402  0.2203  0.0582
21316W        W25616   4.672   1.432   9.375  0.2026 -0.0103 -0.1737
21317W        W25617   0.638   1.415  27.808  0.2214  0.3486  0.0782
21318W        W25618  16.022   2.201  20.500  0.0451  0.0672  0.0625
21319W        W25619   8.187   5.392   6.555  0.0637 -0.0090  0.0588
21320W        W25620  11.896   0.701  34.053  0.0708  0.0394 -0.0256
21321W        W25621   0.567   3.813  30.712  0.0756  0.3000 -0.0478
21322W        W25622   5.832   0.405  34.884  0.1077 -0.0210 -0.1278
21323W        W25623  15.791   2.781  33.532  0.1579 -0.1183 -0.1638
21324W        W25624   5.898   1.401  43.223 -0.1678  0.2082 -0.0020
21325W        W25625   9.538   1.755   3.184 -0.2410 -0.1053 -0.1406
21326W        W25626   4.906   1.534  34.419 -0.0475 -0.0843  0.0375
21327W        W25627  13.740   3.598  10.526 -0.0282 -0.0701  0.0583
21328W        W25628   8.328   2.502  24.970  0.0990 -0.1875  0.0488
21329W        W25629  20.933   2.479  29.106 -0.1636  0.0922 -0.0448
21330W        W25630  10.972   0.467   2.580 -0.0777 -0.1337 -0.0267
21331W        W25631  13.214   0.415  15.584 -0.0821  0.0738  0.0114
21332W        W25632  16.462   2.444  39.464  0.1224 -0.2639 -0.0025
21333W        W25633  19.387   5.297   9.227  0.1155  0.0952 -0.1392
21334W        W25634   2.572   2.881  28.559 -0.1136  0.1296  0.0163
21335W        W25635   5.655   0.517  16.386 -0.2037 -0.0702 -0.0063
21336W        W25636  18.358   5.641  42.639  0.1273 -0.1247 -0.2147
21337W        W25637  11.147   0.876  39.873 -0.1848  0.1184 -0.0084
21338W        W25638  12.209   6.538   6.897 -0.0644  0.0674 -0.2760
21339W        W25639   5.388   1.233   1.109  0.0316  0.0362 -0.0474
21340W        W25640   7.923   1.991   0.307 -0.4633 -0.0822  0.1364
21341W        W25641  11.679   0.330   8.261 -0.0742 -0.2701 -0.0147
21342W        W25642  10.918   5.603  37.005  0.2524  0.1393  0.1803
21343W        W25643  19.196   5.529  12.692  0.1181 -0.2763  0.1273
21344W        W25644  10.613   5.722  29.961  0.2837  0.0647 -0.1241
21345W        W25645  20.311   4.286  12.193  0.1315 -0.3036 -0.0911
21346W        W25646  17.220   2.066   4.620  0.1046 -0.1329  0.3065
21347W        W25647  11.501   3.787  30.283  0.0534  0.0185  0.0908
21348W        W25648   4.011   3.393  13.600 -0.2336  0.0122 -0.2228
21349W        W25649  18.755   4.232   4.963  0.0200 -0.2066  0.2745
21350W        W25650   4.844   1.420   1.587  0.0535  0.1950 -0.1225
21351W        W25651   9.110   5.563  29.601  0.0666  0.1392 -0.1261
21352W        W25652   7.141   2.176  33.510 -0.0524  0.0585 -0.0057
21353W        W25653  13.204   1.049   4.481  0.1962  0.2881 -0.0681
21354W        W25654  15.013   3.427   5.947  0.1731  0.1587  0.2264
21355W        W25655  17.587   5.536   9.439  0.0751 -0.0439  0.0492
21356W        W25656  18.869   0.357  29.320 -0.0015 -0.1515  0.0328
21357W        W25657  18.154   5.366  30.134 -0.0930  0.0841 -0.0531
21358W        W25658   2.090   4.278  42.043 -0.1121  0.0085 -0.3466
21359W        W25659   8.251   3.635   0.320  0.4488 -0.0342 -0.0316
21360W        W25660   2.174   1.292   3.073 -0.2310 -0.1435 -0.1282
21361W        W25661   1.678   3.939   4.985  0.1485 -0.0405  0.0924
21362W        W25662   1.063   4.013  17.397  0.0968 -0.0100 -0.1374
21363W        W25663   6.146   4.600  37.649 -0.1139  0.3935 -0.0419
21364W        W25664  20.342   3.328   5.233  0.4686  0.0613 -0.2772
21365W        W25665  11.813   1.685  34.681  0.2863 -0.0250 -0.0457
21366W        W25666  21.039   4.511  44.298 -0.0743  0.0968  0.2616
21367W        W25667  16.785   0.472   5.635  0.0988  0.0703  0.2146
21368W        W25668   9.184   5.299  44.902  0.1012 -0.1662  0.2062
21369W        W25669   1.180   1.398   8.736  0.0725 -0.1079  0.0198
21370W        W25670   4.541   4.782  25.719 -0.3305 -0.2910  0.0883
21371W        W25671  13.292   5.919  39.926 -0.3589 -0.0599  0.1829
21372W        W25672   2.032   3.093   6.657  0.2020 -0.1319  0.0881
21373W        W25673  16.142   5.125  33.960  0.0072  0.0052  0.0204
21374W        W25674  20.687   4.350  33.470  0.1195 -0.0282 -0.2914
21375W        W25675  14.811   1.735  13.039  0.1521 -0.0607 -0.1001
21376W        W25676  10.007   0.311  25.183  0.3807 -0.2484  0.0283
21377W        W25677   9.637   1.006  24.936  0.1827  0.2339  0.2118
21378W        W25678   5.483   0.812   3.085  0.0319  0.0355  0.1157
21379W        W25679  14.566   4.204  37.064  0.0529  0.0451 -0.2555
21380W        W25680  10.233   4.519  16.105 -0.1235 -0.1961 -0.1336
21381W        W25681   5.874   0.921  44.530 -0.2574 -0.1374 -0.1722
21382W        W25682  19.534   3.836  13.718  0.0998 -0.1028 -0.0592
21383W        W25683  20.713   1.929   7.111 -0.2008  0.4281 -0.1541
21384W        W25684  13.614   2.909   2.713 -0.0000  0.0068 -0.3060
21385W        W25685   3.466   0.480  24.019  0.1228  0.0019  0.2135
21386W        W25686  17.387   4.013   6.596  0.1841  0.0882  0.0477
21387W        W25687   1.201   0.115  34.174  0.0136 -0.2761 -0.1484
21388W        W25688   9.072   5.695   4.895  0.0293 -0.1573 -0.0718
21389W        W25689   8.738   2.408  16.158 -0.1656  0.0839  0.0284
21390W        W25690   0.389   3.569   7.475  0.1653 -0.0035  0.1033
21391W        W25691   5.050   6.486  14.865  0.1982 -0.0177  0.1781
21392W        W25692  10.942   2.672  41.908 -0.0995  0.3808  0.1784
21393W        W25693  20.345   4.143  33.095 -0.2604  0.1152 -0.0170
21394W        W25694  17.078   4.944  33.741 -0.2286  0.0082 -0.0254
21395W        W25695  18.767   3.900  16.890  0.0697 -0.0679 -0.1004
21396W        W25696  18.852   4.170  11.544  0.1692 -0.1517  0.1113
21397W        W25697   4.486   5.858   9.049  0.0094 -0.1681 -0.1677
21398W        W25698  15.146   4.854  14.454 -0.2486  0.2564  0.1533
21399W        W25699  19.340   6.039   6.948  0.0474  0.1023 -0.0262
21400W        W25700   7.314   2.248  11.154  0.0902 -0.4293 -0.2291
21401W        W25701  14.724   1.159  16.783  0.1700  0.1473  0.3121
21402W        W25702  10.567   4.086   2.687  0.1625  0.1623 -0.1873
21403W        W25703   9.755   0.882   3.865  0.1795  0.2640 -0.1833
21404W        W25704  19.814   0.246  42.347 -0.1792 -0.0875 -0.3188
21405W        W25705  14.664   2.135  33.423 -0.3347  0.0048 -0.0502
21406W        W25706   6.088   0.419  11.756 -0.2405 -0.0285  0.3399
21407W        W25707   4.537   6.442  29.072  0.1622 -0.0784  0.2171
21408W        W25708   6.962   1.389  22.933  0.1996 -0.0334 -0.1485
21409W        W25709  12.450   2.544   2.217 -0.0247 -0.1495  0.2852
21410W        W25710  13.347   3.022  33.880 -0.2185  0.3119 -0.2268
21411W        W25711   8.082   6.203  15.601  0.1563  0.1007 -0.0022
21412W        W25712   8.233   1.788  23.501  0.0523  0.2769  0.2632
21413W        W25713   6.037   5.843  44.798  0.0643  0.3176  0.0422
21414W        W25714   6.944   0.918  37.998  0.0277 -0.0851  0.0915
21415W        W25715  20.773   4.407  15.564 -0.2554  0.0491  0.0216
21416W        W25716  20.358   0.221  15.371 -0.1983  0.0035  0.0476
21417W        W25717  19.161   2.949   2.775 -0.1148 -0.0079 -0.2165
21418W        W25718   7.076   4.406  38.105  0.2414 -0.2840  0.1539
21419W        W25719  18.436   0.052  10.090  0.0329 -0.2517  0.2051
21420W        W25720  10.057   1.805  16.638 -0.1412 -0.2124 -0.2512
21421W        W25721   6.250   3.274  24.358  0.3024  0.0317  0.2314
21422W        W25722   6.241   3.973   0.338  0.1668  0.0205 -0.0486
21423W        W25723   6.434   1.795  27.989 -0.1666  0.1890 -0.1481
21424W        W25724   6.214   2.169  10.121  0.0555  0.2141  0.0715
21425W        W25725  17.992   1.272  32.212 -0.0748 -0.0667  0.0727
21426W        W25726  17.222   1.207  41.523  0.1868  0.1647 -0.1613
21427W        W25727  19.877   1.178  15.809 -0.0560  0.4676 -0.1614
21428W        W25728  15.660   1.682  43.231 -0.1080 -0.2525  0.1918
21429W        W25729  15.724   2.664  31.766 -0.1125 -0.1273 -0.0398
21430W        W25730   2.281   2.709   2.812  0.3694 -0.1608  0.2122
21431W        W25731   4.563   4.673  11.147 -0.0772 -0.1735 -0.0395
21432W        W25732  13.366   0.406   2.595 -0.2458 -0.0886  0.0848
21433W        W25733  16.973   5.488  24.818  0.0213  0.1819 -0.3302
21434W        W25734   2.410   4.671  35.362 -0.4613  0.0597 -0.0492
21435W        W25735   8.263   0.177  30.104  0.2476  0.1730  0.0031
21436W        W25736   0.397   0.114  39.691 -0.3835  0.0843 -0.2349
21437W        W25737   3.693   2.573  24.444 -0.0521  0.0382  0.0760
21438W        W25738  11.366   1.064  13.287 -0.2099  0.0361  0.3774
21439W        W25739  10.833   1.953   3.835  0.0183  0.0655 -0.0689
21440W        W25740   0.201   5.196  13.063  0.0560  0.0945  0.1026
21441W        W25741  17.837   5.160   8.542 -0.0408  0.2019 -0.2256
21442W        W25742  17.374   1.617   4.814  0.0292  0.1100 -0.1290
21443W        W25743   0.455   5.698  30.086  0.0648 -0.2610  0.3934
21444W        W25744  11.964   5.519  36.085  0.4784 -0.1058 -0.0528
21445W        W25745  13.907   4.202   9.721 -0.1792  0.0744  0.1183
21446W        W25746   3.787   5.260  42.737  0.0824  0.0745  0.2170
21447W        W25747  16.020   6.467   0.769  0.1426 -0.1127 -0.1548
21448W        W25748  20.881   1.766  31.390  0.0496 -0.1524 -0.1168
21449W        W25749  13.805   6.597  34.897  0.0241 -0.2811  0.0259
21450W        W25750  11.684   0.629  10.277 -0.0430  0.1187 -0.1439
21451W        W25751   1.717   4.456  43.368  0.1081  0.1351  0.2556
21452W        W25752   2.366   3.222  41.045  0.1152  0.0125  0.0927
21453W        W25753  19.030   6.229   5.076  0.2739 -0.4062 -0.0285
21454W        W25754  20.628   5.529   4.309  0.0822  0.0062 -0.0278
21455W        W25755   4.756   0.852  41.788 -0.1097 -0.0124  0.0235
21456W        W25756  14.289   1.051  40.805 -0.0278  0.0374  0.0280
21457W        W25757  14.642   5.080  14.397  0.1094  0.0994 -0.4180
21458W        W25758   9.826   4.932   8.705  0.0549  0.0392  0.3588
21459W        W25759   1.389   1.679  37.941 -0.4268  0.0140  0.0013
21460W        W25760   7.174   0.253  32.576 -0.0300 -0.0004  0.1417
21461W        W25761  14.082   1.795  44.283 -0.0226  0.0147  0.0596
21462W        W25762   9.424   1.569  29.292  0.1756  0.0413  0.1190
21463W        W25763  17.644   3.666   3.112  0.3067 -0.0094  0.0279
21464W        W25764   5.168   5.699  42.331 -0.0140 -0.0438 -0.1768
21465W        W25765  15.880   4.881  11.627 -0.2002  0.0697  0.0116
21466W        W25766   1.341   4.481   0.220  0.0090  0.0196  0.3246
21467W        W25767   2.089   3.734   4.619  0.0012  0.1188 -0.1686
21468W        W25768  18.213   1.189  11.833  0.0378 -0.0162 -0.2294
21469W        W25769   7.094   2.296  23.152 -0.2063  0.1125 -0.2838
21470W        W25770  12.634   4.619  43.420 -0.2979  0.0683  0.0704
21471W        W25771  15.918   1.182  15.272  0.0428 -0.0485  0.2084
21472W        W25772   1.268   5.697   3.720 -0.4044  0.1592  0.0723
21473W        W25773   9.044   2.094   2.610  0.0232  0.0784 -0.1025
21474W        W25774  13.943   1.500  28.760  0.1543  0.0689  0.0982
21475W        W25775   1.923   1.460  37.583 -0.1323 -0.0468  0.1480
21476W        W25776  19.890   0.664  19.129  0.1134 -0.2258 -0.2060
21477W        W25777  20.424   3.173   6.164  0.1003  0.0936  0.2081
21478W        W25778   2.462   1.576  39.965 -0.2150 -0.2650  0.0482
21479W        W25779   1.747   4.017   7.441  0.0149 -0.2927  0.1595
21480W        W25780  16.710   3.703  24.712 -0.0840 -0.0327 -0.1377
21481W        W25781   7.652   2.319  10.595  0.2325  0.1089  0.0768
21482W        W25782   0.706   1.394   6.832  0.1057 -0.0091  0.0310
21483W        W25783  19.315   4.593   6.391 -0.1629  0.0492 -0.2696
21484W        W25784   3.875   4.719  39.122 -0.1444 -0.1061  0.2847
21485W        W25785   6.393   5.285  42.812  0.0646 -0.2365  0.0238
21486W        W25786   5.934   5.767  19.904  0.1097  0.1204 -0.2000
21487W        W25787   6.871   4.139  21.605 -0.1034  0.1864  0.0472
21488W        W25788  16.664   6.192   5.676 -0.1795  0.1541  0.0611
21489W        W25789  16.348   3.140   4.030  0.3421 -0.2055  0.0963
21490W        W25790  16.820   5.775  35.250  0.0727 -0.2142  0.0902
21491W        W25791  10.309   3.877  29.159  0.1262  0.2964 -0.0356
21492W        W25792   1.254   1.089  30.277 -0.0386  0.0426 -0.1415
21493W        W25793   8.698   1.223  17.081 -0.0646 -0.1904  0.1638
21494W        W25794   5.213   0.731  16.221 -0.0198  0.2608  0.0314
21495W        W25795  14.829   4.468  35.647  0.0092  0.2587 -0.1241
21496W        W25796  11.744   3.524  26.804 -0.0275  0.0722  0.1186
21497W        W25797  12.595   0.111  17.519 -0.1116  0.5127  0.0253
21498W        W25798  11.018   0.439  39.569 -0.0964 -0.3918  0.2453
21499W        W25799  16.327   1.427  12.472  0.0292  0.1049 -0.1318
21500W        W25800   3.750   5.956  27.543 -0.0371  0.2469  0.0414
21501W        W25801  19.444   6.556  30.994 -0.0090 -0.0494  0.2402
21502W        W25802  16.537   0.664   9.918  0.1581 -0.2064 -0.0063
21503W        W25803   1.150   2.049   5.736 -0.2044  0.0314  0.4374
21504W        W25804   2.593   2.247  26.304  0.1671 -0.2101 -0.2220
21505W        W25805  15.543   6.484  32.188  0.0358  0.0605 -0.0384
21506W        W25806   5.075   2.331  21.893 -0.1340 -0.0860 -0.2407
21507W        W25807  11.786   2.595  40.999  0.1171  0.0285  0.0372
21508W        W25808   7.594   5.789  32.617 -0.1182  0.2633  0.0182
21509W        W25809  20.464   3.357  12.563 -0.0528 -0.1932  0.1590
21510W        W25810  18.652   4.366  18.204  0.0867  0.0047 -0.2895
21511W        W25811  12.182   2.355  40.053 -0.0929 -0.4238 -0.2113
21512W        W25812   7.089   0.400  42.088 -0.1387 -0.0272  0.2948
21513W        W25813  13.902   1.561   7.950 -0.1636 -0.4677 -0.1341
21514W        W25814   4.226   0.133   4.864 -0.2304 -0.2614  0.2808
21515W        W25815  10.039   3.533   3.593  0.0088  0.1581  0.1677
21516W        W25816   2.873   0.289  11.252 -0.1912 -0.0775 -0.0494
21517W        W25817  18.516   0.555  12.860 -0.0561 -0.0439  0.1558
21518W        W25818  19.378   2.413   4.658 -0.2978  0.2924  0.1712
21519W        W25819   4.491   2.290  22.339 -0.0409  0.2421 -0.0972
21520W        W25820   9.831   6.239  29.334  0.3409 -0.0092  0.2290
21521W        W25821  17.018   0.501  16.397 -0.1502  0.2136  0.1436
21522W        W25822  19.680   1.116  37.099 -0.0037 -0.2316  0.1274
21523W        W25823  11.750   1.121  14.126 -0.1073  0.4135 -0.0341
21524W        W25824   5.888   1.726  36.205 -0.3799  0.0086  0.1397
21525W        W25825   3.270   5.334   9.913  0.1208 -0.0455  0.0870
21526W        W25826   7.359   3.583  22.917 -0.2547 -0.0507 -0.0405
21527W        W25827  17.767   5.417  21.231 -0.1057 -0.0726 -0.3232
21528W        W25828   1.541   0.152  35.048 -0.3610  0.0690 -0.1015
21529W        W25829  16.464   3.106  18.293  0.0660  0.0010  0.0732
21530W        W25830  19.770   1.470  15.331 -0.2315 -0.2929 -0.1369
21531W        W25831   7.912   5.212   1.634 -0.2540 -0.0914  0.1325
21532W        W25832  19.803   4.568   4.167 -0.1669  0.2824 -0.2033
21533W        W25833  19.925   1.124  14.390 -0.1402 -0.1092 -0.0116
21534W        W25834  17.501   2.926  35.939 -0.2675 -0.0072  0.3521
21535W        W25835   6.983   2.176  27.295 -0.1645  0.0610  0.2039
21536W        W25836   8.413   0.308   5.889  0.2415 -0.0882  0.0927
21537W        W25837   6.959   0.715  11.633 -0.1439  0.0572 -0.1363
21538W        W25838  20.752   5.540  11.184  0.0740  0.2924 -0.0189
21539W        W25839  11.721   0.814  42.829  0.0224 -0.1029  0.2243
21540W        W25840  19.676   3.703   9.477  0.1742  0.1260  0.0206
21541W        W25841   7.840   2.046  27.107 -0.0349  0.1179 -0.1122
21542W        W25842   5.072   5.687  13.883  0.0096  0.1277  0.0963
21543W        W25843  17.035   3.729   1.862  0.2273 -0.1766 -0.0668
21544W        W25844   0.443   0.576  10.084 -0.0626  0.2230  0.0541
21545W        W25845  19.354   2.722   6.927 -0.1254  0.2203 -0.0111
21546W        W25846   4.644   0.232   4.490 -0.1921  0.1810 -0.0822
21547W        W25847  19.256   3.998  29.025 -0.0968 -0.1813 -0.2902
21548W        W25848   1.808   6.501   7.948  0.0008  0.3640  0.0287
21549W        W25849   1.206   1.974   2.304  0.0330  0.0498  0.1743
21550W        W25850   4.572   2.694   0.774 -0.1740 -0.2208 -0.3639
21551W        W25851  19.678   1.096  32.760  0.3902 -0.2985  0.1555
21552W        W25852  18.854   3.333   6.464 -0.1905  0.2130 -0.1004
21553W        W25853  19.954   5.195  28.755  0.0192  0.0776 -0.2371
21554W        W25854   3.530   5.790   3.183 -0.1699  0.2992 -0.0472
21555W        W25855   2.287   3.408  26.515  0.2364 -0.0245 -0.0652
21556W        W25856   4.349   0.377  26.439  0.1245 -0.3137  0.1140
21557W        W25857  15.772   5.764  30.700 -0.1629 -0.0143 -0.0706
21558W        W25858   6.105   3.877  35.634  0.0275  0.0507 -0.1273
21559W        W25859  14.231   4.276   2.167 -0.1279  0.0428  0.2408
21560W        W25860  11.017   4.412  41.944  0.2401  0.1933  0.0021
21561W        W25861  15.820   5.838  34.337  0.2517  0.0490 -0.2430
21562W        W25862   8.911   2.826  17.072  0.0623  0.2890  0.1138
21563W        W25863  15.955   4.987   5.340 -0.1112  0.3775  0.1358
21564W        W25864  12.640   2.916  17.367  0.2627  0.3142 -0.0741
21565W        W25865   4.499   4.821  14.755 -0.1055 -0.0673 -0.0008
21566W        W25866  19.693   4.806   5.211  0.1564 -0.0166 -0.0200
21567W        W25867  13.897   2.917  20.446  0.1620  0.0133  0.2048
21568W        W25868  17.010   6.074  23.322  0.0518 -0.1462 -0.1972
21569W        W25869  13.791   1.899  19.032  0.0703  0.3218 -0.1769
21570W        W25870  15.621   0.225  31.874 -0.1370 -0.2587 -0.0824
21571W        W25871  20.525   0.026  19.368  0.0123 -0.3319 -0.0240
21572W        W25872   9.738   1.914  38.963  0.0543  0.3137  0.1051
21573W        W25873   4.529   4.580  13.918  0.1200  0.1079 -0.1956
21574W        W25874  10.882   5.676  42.212 -0.0766 -0.1888 -0.2358
21575W        W25875  16.939   5.300   3.187  0.3555 -0.1443  0.1437
21576W        W25876   7.959   3.115   4.866  0.3079 -0.0646 -0.2203
21577W        W25877  16.182   5.760  42.737  0.0218 -0.3575  0.3131
21578W        W25878  14.989   4.526  34.967 -0.0544 -0.0172  0.2768
21579W        W25879  17.212   5.388  13.455 -0.2493  0.0541  0.0926
21580W        W25880  20.714   0.370  40.089 -0.1709  0.2788 -0.1709
21581W        W25881   5.819   4.730  38.178  0.2235  0.0144  0.1180
21582W        W25882   9.467   6.455  12.792 -0.1694  0.2159  0.0174
21583W        W25883   0.953   5.356  43.078  0.0949  0.0654 -0.1308
21584W        W25884  15.469   6.528  37.342  0.1182 -0.2306  0.2550
21585W        W25885   2.999   3.847   8.583 -0.1217 -0.0858  0.0315
21586W        W25886   2.714   1.305  15.330 -0.1136 -0.3023  0.0665
21587W        W25887  18.031   2.431  38.400 -0.2635 -0.0771  0.0022
21588W        W25888  13.007   2.413  44.717 -0.0240  0.1574  0.1641
21589W        W25889  10.368   0.724   2.931  0.2322  0.0815  0.3691
21590W        W25890   9.334   3.139  14.247 -0.1342  0.0637 -0.1292
21591W        W25891   0.582   0.796   8.072  0.1386  0.1611  0.1973
21592W        W25892  13.880   2.522  30.730  0.1529  0.1196 -0.0560
21593W        W25893  16.680   3.011  11.280 -0.4004  0.1559  0.0871
21594W        W25894  15.619   1.077   3.510 -0.2589  0.0287  0.0602
21595W        W25895  17.214   3.030  31.532 -0.0237  0.0325 -0.2174
21596W        W25896   1.498   6.201  43.546  0.0905 -0.1541 -0.2763
21597W        W25897  20.377   4.453  18.939  0.0086 -0.3290  0.0090
21598W        W25898   9.623   2.354  26.782 -0.1519 -0.1819 -0.2097
21599W        W25899  19.616   6.243  36.735  0.0733 -0.2802  0.3078
21600W        W25900  12.214   2.495   4.922  0.0610  0.0575 -0.2143
21601W        W25901  18.724   2.887  43.679  0.1937  0.1371  0.0039
21602W        W25902   7.788   4.510  39.961  0.0247  0.0275  0.0719
21603W        W25903   4.963   4.203  21.952 -0.0849 -0.0920  0.0466
21604W        W25904   7.184   4.479  33.776  0.1609 -0.0566  0.0079
21605W        W25905  19.664   0.914  36.666  0.1667 -0.1756 -0.2658
21606W        W25906   9.640   2.327  10.937  0.1738  0.0665 -0.0553
21607W        W25907  16.955   6.562   6.529  0.0022  0.3589 -0.1226
21608W        W25908  10.806   4.714  11.679 -0.0464  0.0521 -0.1706
21609W        W25909   5.974   1.976  14.769 -0.0302  0.0011  0.3879
21610W        W25910  20.546   5.818  30.546 -0.1874 -0.5315  0.3265
21611W        W25911   9.834   4.163   6.626  0.1691 -0.3503 -0.0495
21612W        W25912   2.303   2.059  43.843  0.1160 -0.2823  0.0817
21613W        W25913   6.594   4.530   6.360  0.0217 -0.2514 -0.2457
21614W        W25914  14.538   5.344  15.567 -0.3567 -0.1137 -0.1339
21615W        W25915   8.277   6.395  31.086 -0.1866  0.1518 -0.2255
21616W        W25916  14.423   0.614  40.562  0.0313  0.2847  0.0470
21617W        W25917   7.921   0.674  16.846  0.1877  0.0348  0.4673
21618W        W25918  15.856   2.825   6.588 -0.1702 -0.1536  0.3191
21619W        W25919   5.097   1.048  29.411 -0.2211 -0.1257 -0.0496
21620W        W25920  21.003   4.569  14.062  0.0634 -0.1157 -0.0577
21621W        W25921  15.212   4.038   0.566  0.1138 -0.1995  0.3812
21622W        W25922  15.685   3.908  21.694  0.0555  0.1193  0.1547
21623W        W25923  15.190   1.409  37.115 -0.3686  0.0075 -0.0506
21624W        W25924  20.504   4.591  33.025 -0.0664  0.0625 -0.1619
21625W        W25925   1.323   3.717  32.325  0.3003 -0.1341 -0.0961
21626W        W25926  16.769   3.360  29.168 -0.0423  0.0385 -0.1799
21627W        W25927   7.414   4.947   1.837  0.2106 -0.0074 -0.1218
21628W        W25928  17.534   5.432  41.604 -0.1308 -0.2907  0.1503
21629W        W25929  11.869   5.936  13.071  0.1037 -0.0335 -0.2275
21630W        W25930   1.603   5.045  38.131 -0.0494 -0.1621  0.2000
21631W        W25931  11.436   4.526  15.568 -0.2300  0.0076 -0.1735
21632W        W25932  15.690   3.688  41.230 -0.2053 -0.0022  0.1237
21633W        W25933   7.503   3.892  27.605 -0.1776 -0.2816 -0.0067
21634W        W25934   5.847   2.679  34.056 -0.1231  0.0344  0.1557
21635W        W25935  10.701   0.932  10.164 -0.3499  0.0524 -0.0093
21636W        W25936   0.174   3.364  12.716 -0.0501 -0.1965 -0.0258
21637W        W25937   3.231   0.092   4.581  0.4250 -0.1710  0.1990
21638W        W25938  14.136   2.403  14.639 -0.0747  0.0006  0.2213
21639W        W25939  15.547   2.447   1.936 -0.1834 -0.0167 -0.1171
21640W        W25940  19.041   2.125  21.453  0.2327  0.1962 -0.1817
21641W        W25941  16.950   3.209  35.448 -0.0794 -0.0208  0.0564
21642W        W25942  11.173   0.936  33.240 -0.0535 -0.3897 -0.1263
21643W        W25943  10.338   4.941  44.916  0.1602  0.1102  0.1491
21644W        W25944   6.192   2.736  27.130  0.1567  0.2467  0.2039
21645W        W25945   9.581   4.309  41.068  0.0103  0.0838 -0.1532
21646W        W25946   1.830   1.501  14.179  0.0850 -0.1061  0.2288
21647W        W25947   6.708   3.075  10.593 -0.0763  0.0734  0.0242
21648W        W25948   8.982   0.582   1.252 -0.0619  0.0033 -0.1114
21649W        W25949  19.009   1.327   0.797 -0.4982  0.1679 -0.2027
21650W        W25950   0.956   1.338   3.566 -0.0563  0.2684  0.2632
21651W        W25951  19.040   1.684   3.647  0.0716 -0.0189 -0.0262
21652W        W25952   5.565   0.954  37.787  0.2217  0.1904 -0.1699
21653W        W25953  14.073   6.592   0.807 -0.1016 -0.0365  0.1510
21654W        W25954   0.841   1.674  37.967 -0.2257 -0.2094  0.0367
21655W        W25955   4.217   3.070   1.661  0.1457  0.2423  0.2124
21656W        W25956  20.722   1.776  15.479 -0.1163 -0.4372  0.2602
21657W        W25957   4.104   5.706  38.133 -0.1018 -0.1816  0.2131
21658W        W25958  12.295   0.331  15.617 -0.0058 -0.2732 -0.0476
21659W        W25959   4.533   0.535   0.245 -0.1342  0.3722  0.0571
21660W        W25960  19.644   1.792   5.256 -0.2996  0.0558  0.1040
21661W        W25961  13.757   2.841  38.060 -0.0296 -0.3188  0.1044
21662W        W25962   9.972   4.438  37.944  0.4937 -0.0993 -0.0209
21663W        W25963   7.959   5.773  41.656  0.3984 -0.1273 -0.0741
21664W        W25964   8.972   0.305  40.231 -0.1537 -0.2088  0.8174
21665W        W25965  17.424   1.057  43.771 -0.0262 -0.3746  0.2042
21666W        W25966  19.660   6.575  37.127 -0.1249 -0.0456  0.2126
21667W        W25967  16.906   0.677  39.143  0.0769  0.0478 -0.1458
21668W        W25968  19.861   1.148  19.174  0.1291 -0.3186  0.1647
21669W        W25969   5.638   3.304  29.754 -0.4325  0.0343 -0.0893
21670W        W25970  18.021   4.204  21.821  0.3604 -0.0283  0.0843
21671W        W25971  18.008   0.491  40.046 -0.1094 -0.0384 -0.1616
21672W        W25972  19.248   6.286   9.365 -0.0270 -0.0687  0.2352
21673W        W25973  16.014   2.845  34.001  0.0258 -0.0792 -0.0367
21674W        W25974  10.345   2.093  13.426 -0.0738 -0.0603  0.0133
21675W        W25975  14.079   5.371  34.581  0.3229  0.1344  0.0540
21676W        W25976  13.325   6.440  29.292 -0.0292  0.0811 -0.1529
21677W        W25977  10.167   2.613   7.807 -0.1104 -0.0652  0.0400
21678W        W25978  15.352   2.569  31.149 -0.0552  0.0403 -0.0576
21679W        W25979   5.810   1.088   5.385  0.3677  0.1547 -0.2202
21680W        W25980  11.919   0.747  37.402  0.0188  0.0519 -0.1752
21681W        W25981  19.850   3.016  33.151 -0.5096  0.1054 -0.2857
21682W        W25982   5.004   1.454   0.922 -0.1540 -0.3373  0.0104
21683W        W25983  10.022   3.395  14.681  0.1331 -0.2806 -0.0790
21684W        W25984  17.832   4.102   2.971 -0.0008 -0.0138 -0.0066
21685W        W25985  16.817   1.566  13.521  0.2409  0.0062  0.0677
21686W        W25986   2.991   5.168  38.354  0.2677 -0.1726  0.1553
21687W        W25987   7.356   5.182  33.163 -0.2725 -0.0527  0.2560
21688W        W25988  13.852   2.177  11.844  0.0446  0.1593 -0.0085
21689W        W25989   4.560   3.495  32.604 -0.0034  0.1139 -0.1981
21690W        W25990  10.057   0.347   9.685  0.1768  0.2000 -0.0995
21691W        W25991  16.403   6.589  24.827  0.1444  0.0493 -0.0581
21692W        W25992  12.970   1.561   6.164  0.3052  0.0659 -0.0017
21693W        W25993   4.889   5.589  38.812  0.2008  0.0508  0.1111
21694W        W25994  14.140   6.158   2.251 -0.2091 -0.1674 -0.1756
21695W        W25995   5.501   6.587   6.175 -0.1084  0.0399 -0.1026
21696W        W25996   4.969   4.448   8.871  0.0559  0.0814  0.0231
21697W        W25997  10.271   2.691  17.901  0.1119  0.2300 -0.1808
21698W        W25998   3.953   0.603  24.141  0.1298 -0.0693 -0.0533
21699W        W25999   3.894   5.611  25.235  0.1379 -0.1704 -0.0963
21700W        W26000   6.122   1.846  27.580 -0.1550 -0.1124  0.3066
21701W        W26001  19.630   5.954  32.094  0.1976 -0.1955 -0.1151
21702W        W26002  18.602   6.039  35.745 -0.2037 -0.0578 -0.3819
21703W        W26003  11.972   4.777  37.683  0.1191 -0.2015 -0.1455
21704W        W26004  13.397   3.206  44.058 -0.2043  0.1831  0.2336
21705W        W26005   1.436   4.193  32.478 -0.1339  0.0239 -0.2474
21706W        W26006   9.209   3.468  11.054 -0.0075  0.2792  0.1898
21707W        W26007   0.293   3.800  42.272 -0.0294 -0.2132  0.0941
21708W        W26008  12.297   0.629   2.793 -0.0283 -0.0245  0.0357
21709W        W26009   1.287   4.874  26.226 -0.3675  0.0773  0.5167
21710W        W26010   6.597   1.661  11.590  0.2179  0.2596  0.0984
21711W        W26011  17.639   2.505  11.881 -0.1117 -0.0919 -0.0527
21712W        W26012  20.569   5.042   9.624 -0.0381  0.2463  0.1243
21713W        W26013  17.014   0.160   4.812  0.1547 -0.0124 -0.0301
21714W        W26014   7.390   2.344  24.090  0.1511  0.2529  0.0490
21715W        W26015  13.178   1.650   5.117  0.0222 -0.0638 -0.1748
21716W        W26016   1.582   2.911   2.417  0.0930  0.2390  0.1327
21717W        W26017   4.420   2.864   7.817  0.2442  0.0382  0.0818
21718W        W26018  20.811   0.813  26.988 -0.2266 -0.0310  0.0105
21719W        W26019  16.685   2.668  16.154  0.2110 -0.0155 -0.0311
21720W        W26020  20.264   1.991  33.546  0.2447  0.1092 -0.2357
21721W        W26021   2.107   4.105  38.928  0.1551  0.0802  0.0165
21722W        W26022   9.834   4.080  27.987  0.5176 -0.5657  0.1247
21723W        W26023  12.958   0.547  28.499  0.3123 -0.2467 -0.0900
21724W        W26024   6.485   5.635  37.849  0.1760  0.0026  0.1270
21725W        W26025   3.343   0.387  21.879 -0.0549 -0.1733  0.1859
21726W        W26026   8.000   1.605  25.154  0.1077 -0.2420 -0.1656
21727W        W26027   4.535   1.179  15.603  0.1800 -0.0660 -0.3003
21728W        W26028  16.219   3.775  42.023 -0.0301 -0.0036  0.0864
21729W        W26029  13.521   3.726   1.452 -0.0713  0.0900  0.2236
21730W        W26030   3.680   5.788  34.874  0.1495  0.0142 -0.1649
21731W        W26031   6.506   2.664  43.568  0.1363 -0.1035  0.2917
21732W        W26032   9.485   0.569   8.689  0.1898 -0.0739  0.1320
21733W        W26033   4.214   2.093   5.365 -0.3135 -0.0825 -0.2613
21734W        W26034   2.536   0.337   3.812 -0.3910  0.1037  0.3662
21735W        W26035   2.598   1.824  25.438  0.3568  0.1575 -0.2659
21736W        W26036  13.217   2.860  12.453 -0.1526 -0.1196  0.3359
21737W        W26037  17.704   1.791   2.832 -0.1748 -0.0971 -0.1919
21738W        W26038   1.265   3.337   0.906  0.3171  0.0964  0.1884
21739W        W26039  14.133   6.060  28.958  0.1679  0.0610  0.2256
21740W        W26040  10.281   2.480  16.339 -0.2791 -0.0957 -0.0985
21741W        W26041  12.755   4.866  30.265  0.0216 -0.1290 -0.1265
21742W        W26042   2.646   3.019   5.900  0.0609  0.1834  0.1782
21743W        W26043   3.776   1.663  33.844 -0.2183 -0.0285  0.0766
21744W        W26044   9.358   2.358  14.996 -0.1494 -0.4293  0.1217
21745W        W26045  12.881   4.764  31.740 -0.0482  0.0280 -0.1224
21746W        W26046   0.830   4.167  37.888  0.4663 -0.3592 -0.1109
21747W        W26047  13.442   5.983   4.079  0.1086  0.2507  0.4043
21748W        W26048  14.739   1.643  39.618  0.0747 -0.1210 -0.1733
21749W        W26049   7.324   2.437  33.922  0.4490 -0.5421 -0.1613
21750W        W26050  10.281   2.004   3.789 -0.2582  0.0405  0.0063
21751W        W26051   1.685   1.283  36.142 -0.0903 -0.0635  0.1651
21752W        W26052  11.239   6.208  15.387  0.0211 -0.4667  0.0762
21753W        W26053   5.134   2.789   8.248 -0.0002  0.0567  0.0092
21754W        W26054  20.467   3.666  36.281 -0.3731  0.0576  0.2104
21755W        W26055  16.116   2.392   7.117 -0.0739 -0.2678  0.1400
21756W        W26056  15.766   2.904  19.333 -0.1585 -0.4150 -0.2956
21757W        W26057  19.476   4.325  36.777 -0.0494 -0.0264  0.6113
21758W        W26058   3.634   0.800   7.021  0.2043 -0.1547  0.1314
21759W        W26059   8.327   5.290  12.028  0.1774  0.1066 -0.0579
21760W        W26060   0.331   5.167  27.517 -0.0633  0.1414 -0.2112
21761W        W26061  19.076   3.711  20.241 -0.2671  0.2549  0.2878
21762W        W26062   3.679   0.851  30.112 -0.1616  0.2945 -0.3737
21763W        W26063   5.419   3.645   0.897 -0.0512 -0.0937  0.0276
21764W        W26064  18.398   1.051  29.850  0.0958  0.0365 -0.2594
21765W        W26065  18.092   1.687  44.200  0.0626 -0.0977  0.0673
21766W        W26066   7.172   5.603  39.889  0.2652  0.2694  0.2851
21767W        W26067  10.746   5.485  34.908 -0.0442 -0.2101 -0.0150
21768W        W26068   1.429   0.640  15.089 -0.1556 -0.0269  0.0170
21769W        W26069   5.735   4.511  40.430 -0.3283  0.1461  0.0373
21770W        W26070   2.226   2.393  10.233  0.0311 -0.0902 -0.0482
21771W        W26071   3.987   2.979  34.421 -0.2696  0.0479 -0.2223
21772W        W26072   5.953   4.284  36.161 -0.0457  0.0142 -0.2117
21773W        W26073   9.978   2.294  30.573  0.2106  0.0397 -0.0406
21774W        W26074   9.945   0.314  34.773  0.0541 -0.1821 -0.1532
21775W        W26075  15.324   4.200  34.042  0.2868  0.2133  0.0015
21776W        W26076   2.253   1.992   6.593  0.0409 -0.1447  0.1218
21777W        W26077   1.283   6.441   9.693 -0.1039 -0.1923  0.0549
21778W        W26078   2.908   6.110  11.457 -0.2121 -0.0331 -0.2304
21779W        W26079   2.608   0.471   8.096  0.0608 -0.0432  0.2792
21780W        W26080   5.469   0.684  35.269 -0.3024  0.1911  0.3035
21781W        W26081  18.849   4.861  38.564 -0.0368  0.3065  0.0718
21782W        W26082   7.605   5.386   7.899 -0.1036  0.1110 -0.0451
21783W        W26083  10.031   4.850  35.979 -0.2444  0.3731  0.2662
21784W        W26084   8.151   0.819   6.532  0.0936 -0.3403  0.1495
21785W        W26085  12.786   1.134  32.999 -0.1392  0.2579  0.1160
21786W        W26086   5.131   2.689  13.368  0.1164 -0.1806 -0.1531
21787W        W26087   4.103   4.482  40.999 -0.0717 -0.2483 -0.1023
21788W        W26088  14.973   5.860  34.732  0.0563  0.1406  0.1452
21789W        W26089  19.486   1.377  36.464 -0.1195 -0.2844  0.0641
21790W        W26090  12.855   2.231  11.432 -0.0154  0.0427 -0.0163
21791W        W26091   8.912   5.783   7.656  0.0947  0.0691 -0.1962
21792W        W26092  16.868   0.459  23.171 -0.0271  0.1132 -0.2340
21793W        W26093   9.557   4.899  36.171 -0.2024 -0.1650 -0.1972
21794W        W26094  18.236   0.141   2.035 -0.1354 -0.0556  0.1151
21795W        W26095  15.311   5.518  33.773 -0.3920  0.1215  0.2775
21796W        W26096  16.849   3.284   4.301 -0.1952  0.1137 -0.0977
21797W        W26097  17.419   1.579  28.962  0.3053 -0.0813  0.0488
21798W        W26098  20.395   4.887   4.694  0.0588  0.0050 -0.2661
21799W        W26099  10.719   6.295   8.617 -0.0227 -0.0960 -0.0938
21800W        W26100  21.032   4.762   7.124  0.0742  0.2855 -0.1202
21801W        W26101   6.982   6.459   9.463  0.1331  0.2950 -0.0314
21802W        W26102  10.402   2.840   4.966 -0.0799 -0.1778  0.1076
21803W        W26103  18.162   0.167  34.331  0.0429  0.1428 -0.1847
21804W        W26104  10.749   5.789   1.217  0.1770 -0.0817 -0.1878
21805W        W26105  19.719   2.784   9.185 -0.0859  0.0534  0.1935
21806W        W26106   2.978   2.259  24.872  0.2416 -0.0219  0.0420
21807W        W26107  17.842   5.368  41.972  0.1017  0.1581 -0.1488
21808W        W26108   1.938   6.032  36.456 -0.1956 -0.0849  0.0307
21809W        W26109  20.195   2.414   3.166 -0.0340 -0.0502 -0.1303
21810W        W26110  12.431   1.861  10.085 -0.2926  0.2782  0.0477
21811W        W26111   4.997   1.863  38.891  0.0575 -0.1564 -0.1657
21812W        W26112  11.852   2.346   5.956 -0.2033  0.3665  0.3381
21813W        W26113  13.400   6.512  11.403 -0.0266 -0.3702  0.1763
21814W        W26114  18.025   1.558  37.504  0.1193  0.0254 -0.2399
21815W        W26115  17.002   3.701   4.545  0.2190 -0.0899  0.1628
21816W        W26116   0.017   4.940  39.936 -0.2658  0.0144  0.0606
21817W        W26117   0.874   3.077  17.134  0.1838  0.1959  0.1141
21818W        W26118   4.804   1.103  32.512 -0.3551 -0.0631  0.0922
21819W        W26119  12.884   5.780  41.120 -0.0411 -0.0437 -0.2803
21820W        W26120  20.086   4.777  29.294  0.0075  0.2578  0.0588
21821W        W26121   2.720   1.995  39.085 -0.2612 -0.2753 -0.2224
21822W        W26122  17.391   5.641  16.631 -0.1807  0.4218  0.1598
21823W        W26123  17.273   3.247  21.620  0.0100 -0.1543  0.0169
21824W        W26124  14.011   1.756   6.440  0.2090  0.0645 -0.0450
21825W        W26125   3.705   2.142   5.424 -0.2972  0.1812 -0.2879
21826W        W26126   3.899   4.498   7.078  0.1111  0.3453 -0.0586
21827W        W26127   0.078   4.783  10.429  0.3197 -0.0442 -0.1306
21828W        W26128  10.691   3.579   0.568 -0.2901 -0.4176  0.1066
21829W        W26129   3.868   6.528  43.650 -0.0153 -0.0831 -0.3230
21830W        W26130   8.858   6.182  24.455 -0.1223  0.0758  0.2098
21831W        W26131   9.366   6.368  27.001 -0.3766 -0.0889 -0.1551
21832W        W26132  11.138   6.349  36.751  0.2949  0.2542 -0.4646
21833W        W26133  10.288   3.680  13.814 -0.1103 -0.1896 -0.4105
21834W        W26134   1.885   1.655   5.483  0.0162  0.0738  0.0410
21835W        W26135   7.998   1.900   2.610 -0.2057  0.0561 -0.0730
21836W        W26136   5.917   1.005  40.936  0.1467 -0.0956 -0.0220
21837W        W26137  13.391   6.156  13.697  0.1307 -0.0012 -0.3516
21838W        W26138   6.270   0.605  23.466 -0.2630 -0.0941 -0.0239
21839W        W26139  11.775   0.900  29.528  0.1206 -0.0286 -0.1663
21840W        W26140  10.215   1.223   1.278  0.1572 -0.0166 -0.1898
21841W        W26141   2.568   4.026  37.704 -0.2099  0.2621 -0.1200
21842W        W26142   6.307   5.085   6.051  0.1851 -0.0551 -0.2511
21843W        W26143  16.520   0.701  18.447 -0.0976  0.1481 -0.2205
21844W        W26144  16.039   0.920  43.735 -0.0658  0.0008  0.2965
21845W        W26145   0.553   1.767  37.560 -0.0050 -0.0097 -0.0083
21846W        W26146  16.621   4.066  15.195 -0.0862 -0.0540  0.1148
21847W        W26147  20.035   2.145  37.376  0.2177  0.0152  0.1584
21848W        W26148  13.742   1.455  38.367  0.1473  0.1650 -0.0604
21849W        W26149   9.812   2.449  40.928  0.1451 -0.0797  0.0868
21850W        W26150  14.764   2.870   4.252 -0.0407  0.0369 -0.2903
21851W        W26151  19.399   3.319  39.458 -0.3243  0.2334  0.1456
21852W        W26152   4.104   4.782  33.912  0.2575  0.1514  0.1620
21853W        W26153   9.472   6.518  40.849 -0.2716  0.1309 -0.1456
21854W        W26154   2.935   2.080   4.063  0.0217  0.0777 -0.0489
21855W        W26155   2.004   3.234  31.282 -0.0364  0.2511  0.0167
21856W        W26156   0.691   3.592  30.019  0.1165  0.4555  0.2903
21857W        W26157  18.444   6.254  16.293 -0.0546 -0.0282 -0.1747
21858W        W26158  15.518   3.270  11.886 -0.0053 -0.1875 -0.0552
21859W        W26159  12.391   4.581  43.836  0.0739 -0.0389  0.0031
21860W        W26160   2.336   0.546   0.179  0.3809 -0.0377  0.0414
21861W        W26161  10.417   0.680  41.429 -0.1364 -0.0690  0.0129
21862W        W26162   6.110   0.912   9.594  0.1658 -0.2709 -0.1150
21863W        W26163   4.564   0.856  45.013  0.1337  0.3039  0.0228
21864W        W26164   4.691   3.660  26.697  0.0024  0.0313 -0.1839
21865W        W26165   8.505   0.423   1.165 -0.0102  0.0191  0.0179
21866W        W26166   3.068   6.485  11.167  0.0894  0.1679 -0.3332
21867W        W26167   6.898   5.788  37.197  0.1737  0.2517  0.0034
21868W        W26168   0.141   5.013  34.964 -0.1213 -0.0276  0.2116
21869W        W26169  11.763   3.678  31.685 -0.2614 -0.0148  0.0260
21870W        W26170  15.756   4.050  37.013  0.3178  0.0932  0.1263
21871W        W26171  19.684   3.660  30.369  0.1874  0.2958  0.0082
21872W        W26172  12.250   4.328   3.484 -0.0346 -0.0569  0.0213
21873W        W26173   4.812   2.723  26.713  0.3065  0.1996 -0.3651
21874W        W26174   0.361   1.711  36.466 -0.0574 -0.0431 -0.0906
21875W        W26175  11.866   1.282  10.621 -0.1300  0.2295 -0.2385
21876W        W26176   1.881   2.778  13.520 -0.1126  0.0552  0.0827
21877W        W26177   9.509   4.721  25.819 -0.1636 -0.2359  0.2473
21878W        W26178   2.539   3.118   8.379  0.0061 -0.1475  0.0273
21879W        W26179  20.357   4.737   0.975 -0.2719 -0.3271  0.2020
21880W        W26180  12.920   2.752  34.729  0.1578  0.5225  0.0565
21881W        W26181   6.536   1.842   4.853 -0.1702 -0.0587  0.1716
21882W        W26182   9.837   5.774  44.034  0.0717  0.1002 -0.0241
21883W        W26183  12.342   3.986  30.577  0.3318 -0.0793  0.0425
21884W        W26184  17.647   1.577  40.750 -0.0730  0.0292  0.0254
21885W        W26185  14.039   0.597  20.459 -0.0120 -0.0210  0.3100
21886W        W26186   2.686   5.816  29.740 -0.0541  0.0924 -0.1392
21887W        W26187   8.049   5.719   8.014  0.1473 -0.1300  0.2685
21888W        W26188  16.002   3.016   2.383  0.2806 -0.0755  0.3161
21889W        W26189  11.861   0.361  13.273 -0.2252  0.2613 -0.0443
21890W        W26190   5.578   0.259  13.524 -0.3469  0.0449  0.3735
21891W        W26191  20.525   1.552  18.097  0.1796  0.1876  0.0868
21892W        W26192  11.297   6.491  11.776 -0.1589 -0.1813 -0.0468
21893W        W26193   8.925   6.109   6.581  0.0061  0.1538  0.1774
21894W        W26194  16.298   5.513   5.106  0.2148 -0.1169  0.0021
21895W        W26195   0.363   0.752   6.047 -0.1275 -0.0201 -0.0556
21896W        W26196  19.189   2.476  10.065 -0.1445 -0.0039  0.1365
21897W        W26197  19.624   2.454  15.767  0.0978  0.3415 -0.0247
21898W        W26198  17.747   5.088   7.205  0.5043 -0.2033  0.3391
21899W        W26199  14.086   2.128  41.757  0.3249 -0.1329 -0.2437
21900W        W26200  19.875   0.414   2.681  0.0100  0.0494 -0.0587
21901W        W26201  17.859   3.901  31.311  0.1338 -0.0688 -0.0354
21902W        W26202  15.984   4.445  18.900  0.0025 -0.1145  0.0568
21903W        W26203   6.551   3.141   1.864 -0.1212 -0.0264 -0.3032
21904W        W26204  15.102   0.633  11.300  0.1102 -0.2217 -0.0652
21905W        W26205  12.719   5.275  44.979 -0.0885 -0.1352 -0.0592
21906W        W26206   4.055   2.954   0.729 -0.0151  0.0381 -0.0247
21907W        W26207   6.959   3.459  12.443  0.2551  0.0351 -0.0831
21908W        W26208  16.471   3.493  15.830 -0.0370  0.1073  0.0191
21909W        W26209  16.481   0.495   7.519 -0.1745  0.1769  0.0193
21910W        W26210   3.242   0.515  44.757 -0.2303 -0.2397 -0.0311
21911W        W26211  17.531   0.473  39.274 -0.0076  0.2643  0.1677
21912W        W26212   1.630   5.928   2.388  0.0003  0.0310 -0.0879
21913W        W26213   7.374   3.489   7.442  0.0523 -0.1831  0.0635
21914W        W26214  14.317   4.836  38.700 -0.2292  0.3773 -0.0500
21915W        W26215  10.233   2.232  36.642  0.1657 -0.1388 -0.1112
21916W        W26216  15.486   4.151  22.342 -0.0939  0.0386  0.0281
21917W        W26217   9.981   6.563  36.639  0.2722 -0.0632 -0.3148
21918W        W26218  18.668   0.505  33.193  0.1922  0.1486  0.0240
21919W        W26219   4.537   6.348  28.304  0.2565 -0.0370  0.2251
21920W        W26220  20.582   5.643  29.612  0.1795 -0.0857  0.2334
21921W        W26221  20.342   2.240  12.658  0.0092 -0.0430  0.0812
21922W        W26222  17.218   4.860  19.775 -0.0631  0.0915 -0.1279
21923W        W26223   8.606   6.043  37.593  0.1897  0.1392 -0.1758
21924W        W26224  17.362   6.223  13.242  0.2495 -0.2136 -0.0156
21925W        W26225  17.568   2.668  14.044  0.1985  0.0607 -0.0094
21926W        W26226  18.578   2.975  14.540 -0.3848 -0.0814  0.1151
21927W        W26227   6.736   5.375  26.801 -0.1186 -0.1585 -0.1056
21928W        W26228  11.477   3.377   6.895 -0.0685 -0.2908 -0.3009
21929W        W26229   7.682   2.133   4.540 -0.0929 -0.1924  0.3272
21930W        W26230   9.127   3.258  15.784 -0.0898 -0.0545 -0.1792
21931W        W26231   6.841   0.219  44.097 -0.1964  0.0351 -0.1347
21932W        W26232   4.209   6.472  21.892 -0.3191 -0.0759 -0.0858
21933W        W26233  11.833   1.928  31.292  0.1723  0.3098  0.0934
21934W        W26234  20.177   0.988  40.810  0.2449  0.0737  0.0592
21935W        W26235  17.156   1.769  30.443  0.2138 -0.3925 -0.2583
21936W        W26236  20.319   4.083  32.599  0.0733 -0.1920  0.2032
21937W        W26237   6.372   2.974   7.260  0.0686 -0.2247 -0.2283
21938W        W26238  18.065   5.984  38.565 -0.1835  0.1420  0.1131
21939W        W26239   6.524   5.934  24.551 -0.0697 -0.0903  0.0303
21940W        W26240  15.846   0.167  31.043 -0.0696  0.0905 -0.1313
21941W        W26241   7.704   2.721  38.516  0.1144 -0.1860  0.1258
21942W        W26242   9.083   5.145  14.684 -0.1885 -0.1864  0.2770
21943W        W26243   4.776   0.191   2.112  0.0764  0.4051 -0.1383
21944W        W26244  18.801   4.538  29.208  0.0119  0.0623  0.1038
21945W        W26245  14.135   6.451   5.876 -0.1191  0.2016  0.2113
21946W        W26246   4.345   3.506  14.120  0.1136  0.1447 -0.1440
21947W        W26247   4.996   5.857  34.408 -0.0592  0.1595  0.1939
21948W        W26248   6.964   3.390   1.852  0.0545  0.3158  0.2188
21949W        W26249  13.014   0.014  36.943 -0.2815  0.1077 -0.1495
21950W        W26250   9.164   1.621  27.473 -0.0831  0.2612 -0.1875
21951W        W26251   5.175   1.611  30.197 -0.1768 -0.0339  0.3771
21952W        W26252   2.142   3.562   3.798 -0.1062 -0.3001  0.2916
21953W        W26253  11.647   6.067  34.543  0.1098  0.1233 -0.1157
21954W        W26254   3.847   3.482  29.236  0.1588 -0.2183  0.2428
21955W        W26255   0.837   5.014  44.257  0.2245 -0.1979 -0.1451
21956W        W26256  18.899   1.671  16.697 -0.1761  0.0788 -0.1886
21957W        W26257   3.274   6.418   9.973 -0.2465  0.1283  0.1120
21958W        W26258  18.071   4.477  41.795  0.0954 -0.3437 -0.0752
21959W        W26259  15.782   6.317  34.282  0.2268 -0.1880  0.3743
21960W        W26260  13.407   4.007   3.289 -0.0913 -0.2360  0.0349
21961W        W26261  10.566   1.902  10.427 -0.1638  0.0356 -0.0173
21962W        W26262   1.808   0.517  25.274 -0.0425 -0.0264  0.0773
21963W        W26263   6.886   0.281   1.578 -0.1953  0.1801  0.0408
21964W        W26264  11.928   2.448  31.886 -0.1639 -0.1277 -0.0386
21965W        W26265   6.080   3.967  21.096  0.1105  0.6447 -0.1284
21966W        W26266   2.517   2.688  29.501  0.4146  0.2692 -0.0251
21967W        W26267   5.146   4.781  37.801 -0.0976 -0.0276  0.3142
21968W        W26268  12.455   5.636  33.642 -0.0498 -0.0384 -0.0550
21969W        W26269   3.930   0.681  37.868  0.3343 -0.1558  0.0268
21970W        W26270  19.153   5.895   9.690 -0.0014  0.0429  0.2404
21971W        W26271   1.462   3.794  36.215  0.0100 -0.2362 -0.1255
21972W        W26272  10.026   5.208  17.465 -0.0712  0.1051  0.2708
21973W        W26273   9.269   5.171  40.739  0.4695 -0.1602  0.0035
21974W        W26274  15.451   2.825  37.359 -0.1163 -0.2173  0.1673
21975W        W26275  19.202   4.207  15.123  0.2123 -0.1136  0.0436
21976W        W26276   9.333   1.990  32.551 -0.1961 -0.1129 -0.0306
21977W        W26277   3.490   3.055  43.784  0.0246  0.1113 -0.1190
21978W        W26278  17.663   6.388  15.484 -0.0921  0.3675  0.0869
21979W        W26279  15.264   3.947  45.118 -0.1291  0.1503 -0.2567
21980W        W26280   5.738   5.541  41.472 -0.1468  0.0619 -0.4725
21981W        W26281   6.240   6.589   2.069  0.0718 -0.0414  0.2284
21982W        W26282   5.888   6.537  16.351  0.0236 -0.1014  0.2151
21983W        W26283   1.105   6.424  40.266  0.0568  0.2053  0.0234
21984W        W26284  13.818   3.856   7.411 -0.2036 -0.2566  0.1878
21985W        W26285  15.154   2.075   6.435 -0.1188  0.3044 -0.3365
21986W        W26286   9.642   4.057   6.155 -0.0001 -0.2405  0.0513
21987W        W26287  14.019   2.248  13.200  0.0364 -0.0594 -0.2157
21988W        W26288  18.651   2.017  36.222  0.3960 -0.1445  0.1361
21989W        W26289  19.819   2.699   3.364  0.1698 -0.0770 -0.0197
21990W        W26290   5.683   1.260  25.124 -0.3612 -0.0738  0.0483
21991W        W26291  14.456   4.418  19.770 -0.0838  0.0979 -0.2091
21992W        W26292  18.188   1.067  35.264  0.1446  0.2039 -0.2664
21993W        W26293   9.899   1.157  16.475  0.0332 -0.0661  0.0202
21994W        W26294   3.106   4.413  12.658 -0.3718 -0.2152 -0.2481
21995W        W26295  17.217   0.675  20.106  0.3295 -0.0237 -0.1617
21996W        W26296  13.837   5.293  11.998  0.2062  0.1613 -0.0336
21997W        W26297  19.979   6.510  37.594 -0.0183  0.1763 -0.0543
21998W        W26298  15.472   3.776  10.450 -0.6300  0.1103 -0.1885
21999W        W26299   8.338   2.998   2.946 -0.0245 -0.0875  0.2194
22000W        W26300   6.814   2.076  32.600 -0.0056  0.0399 -0.0724
22001W        W26301  12.696   1.393   3.709 -0.0848  0.0464 -0.4970
22002W        W26302   1.689   5.070  38.629  0.1282  0.0218 -0.0604
22003W        W26303   8.728   1.451   4.471 -0.0155 -0.4096 -0.1135
22004W        W26304  12.998   1.440  30.977 -0.1655 -0.1411  0.0116
22005W        W26305  17.753   6.596  23.414 -0.0737  0.1098  0.0392
22006W        W26306  13.308   0.304  11.852  0.0560  0.0841  0.0876
22007W        W26307   6.064   6.126  24.437 -0.2495 -0.0599  0.0079
22008W        W26308  10.895   4.750   3.888  0.0920 -0.0139  0.2304
22009W        W26309  13.936   5.870  31.467 -0.0846 -0.1050 -0.1260
22010W        W26310   9.139   5.574  30.490  0.0774 -0.0310 -0.0998
22011W        W26311   1.251   3.598  42.745  0.0995  0.1655  0.0719
22012W        W26312   8.187   4.130  25.343 -0.0909  0.0944 -0.0435
22013W        W26313   3.352   2.697  23.554 -0.2270  0.2201 -0.0796
22014W        W26314  18.989   5.394   2.312  0.0286  0.1839 -0.1902
22015W        W26315  10.424   6.369   9.206  0.0150 -0.2519  0.0324
22016W        W26316  13.169   0.271   6.785  0.0561  0.2557 -0.0007
22017W        W26317  14.397   5.171   0.295 -0.1310  0.1316  0.3242
22018W        W26318  11.474   0.660  43.538  0.1109 -0.1706 -0.0445
22019W        W26319   3.290   2.803  40.748 -0.3055 -0.0216 -0.1684
22020W        W26320  10.569   3.027   0.357  0.3090 -0.2566 -0.0585
22021W        W26321   5.181   1.817   8.361  0.1166 -0.0539 -0.2948
22022W        W26322   6.798   0.143  35.857  0.0795  0.0648 -0.0010
22023W        W26323  21.139   0.992  44.004  0.1081  0.2060 -0.2498
22024W        W26324  16.125   6.243   5.661 -0.1873 -0.1033  0.0004
22025W        W26325  15.309   4.778  42.529  0.3100 -0.0999 -0.2170
22026W        W26326   0.311   2.518  35.023 -0.0926 -0.0933  0.0896
22027W        W26327   8.572   5.619  33.520  0.3194 -0.1571  0.0903
22028W        W26328  15.254   3.537  18.145 -0.2433  0.1540  0.1531
22029W        W26329  19.265   1.704  10.853 -0.0473 -0.1148 -0.1608
22030W        W26330  16.868   2.256  38.774 -0.0656  0.1678  0.0985
22031W        W26331   0.371   5.966  29.665 -0.3489  0.2074 -0.2337
22032W        W26332  11.230   1.731  35.606 -0.0145 -0.1238  0.0182
22033W        W26333   4.566   2.267  10.795  0.2110  0.0972 -0.2541
22034W        W26334  16.593   5.577  19.919 -0.0578  0.2213 -0.0539
22035W        W26335   3.049   1.868   4.861  0.0969  0.1451 -0.3106
22036W        W26336   1.787   2.159  24.448  0.2048 -0.1793 -0.3155
22037W        W26337   2.660   3.908  34.076  0.1872  0.2724  0.3040
22038W        W26338   0.845   1.816   9.744 -0.1230 -0.0443  0.1537
22039W        W26339  17.816   6.052   8.821  0.2788 -0.1316  0.3905
22040W        W26340  18.954   5.931  44.228 -0.0875 -0.1800 -0.0883
22041W        W26341   2.733   0.218  33.525 -0.0102 -0.0483 -0.0465
22042W        W26342  20.221   3.053   0.977  0.1836  0.1799  0.0645
22043W        W26343  15.748   4.335  21.982  0.1200  0.1101  0.1261
22044W        W26344  10.704   1.417  35.483  0.0467  0.0038 -0.1008
22045W        W26345   3.545   0.506  33.237  0.0532  0.0986 -0.2151
22046W        W26346   9.342   5.503   7.787 -0.2367  0.0115  0.1226
22047W        W26347   4.778   1.115   5.720 -0.0369 -0.1076 -0.1136
22048W        W26348  11.646   4.578  43.335  0.1703  0.2071  0.0611
22049W        W26349  16.492   3.681   3.308  0.2987  0.2773 -0.2516
22050W        W26350  19.961   6.330  40.930  0.3228  0.3168 -0.0645
22051W        W26351   6.748   0.280  10.242 -0.1158 -0.0117 -0.0015
22052W        W26352   9.481   1.768  12.309  0.1681 -0.0595 -0.1127
22053W        W26353   8.038   3.266  16.938  0.0732 -0.1189 -0.0748
22054W        W26354  17.870   1.306  17.474  0.2169  0.1066 -0.2511
22055W        W26355  16.753   1.748  36.216  0.0483  0.1011 -0.3341
22056W        W26356  15.118   5.189  10.228 -0.1656  0.0441 -0.0537
22057W        W26357  17.845   5.078   9.208 -0.2560  0.0170 -0.0319
22058W        W26358  20.726   3.501  30.716 -0.0665  0.1637 -0.2623
22059W        W26359  13.674   4.476  29.399 -0.0855  0.0279 -0.0774
22060W        W26360  17.042   6.599  33.386  0.0199  0.0449  0.1861
22061W        W26361  11.873   3.329  16.692 -0.0934 -0.1312 -0.0654
22062W        W26362   1.249   3.214  30.352 -0.0402  0.0178  0.1451
22063W        W26363   5.028   3.918  24.518 -0.0071  0.1606 -0.0714
22064W        W26364   7.101   5.212  10.784 -0.1580  0.1153  0.2312
22065W        W26365   4.221   1.762  30.506 -0.2591  0.3623 -0.3457
22066W        W26366  10.438   6.319  11.157 -0.1891 -0.2918 -0.1168
22067W        W26367   5.093   2.137  33.427  0.1360  0.0239 -0.1717
22068W        W26368  16.557   3.987   0.562 -0.0887  0.2373  0.1554
22069W        W26369  15.212   1.536  42.480 -0.1573  0.0990  0.2455
22070W        W26370   4.102   3.999  22.477  0.0826 -0.0806 -0.0052
22071W        W26371   8.032   2.502  26.469  0.1522  0.0356  0.0432
22072W        W26372  20.266   5.640  32.950  0.0740  0.2555  0.1915
22073W        W26373   6.927   5.379   2.287 -0.0620  0.0625 -0.2195
22074W        W26374  14.163   0.179  42.744  0.0400 -0.2262 -0.4089
22075W        W26375   9.829   1.287  42.713 -0.0915  0.3813  0.1082
22076W        W26376   3.044   5.023  10.181  0.1160 -0.2212 -0.1428
22077W        W26377   3.368   5.222  33.964  0.0297  0.1934 -0.0243
22078W        W26378  20.170   3.973  34.568  0.1454  0.1069  0.1370
22079W        W26379  17.336   6.183  40.128 -0.4450 -0.1306  0.0996
22080W        W26380   1.436   4.714  41.886 -0.3809 -0.0763 -0.0614
22081W        W26381  16.545   3.777  10.851 -0.1002 -0.0713 -0.1164
22082W        W26382  15.904   0.273  23.319  0.0735 -0.2657 -0.4714
22083W        W26383   5.410   3.050  39.745 -0.4997 -0.1129 -0.0751
22084W        W26384   1.166   0.343  40.320 -0.0900  0.2194 -0.1938
22085W        W26385  14.674   4.969  18.066 -0.0313 -0.0962 -0.3659
22086W        W26386   8.962   5.155  44.443  0.1466 -0.1974  0.1823
22087W        W26387  11.289   5.882  43.707  0.1010  0.1937 -0.0153
22088W        W26388   2.183   0.373   9.655  0.2343  0.0399  0.0665
22089W        W26389   7.581   5.612  29.447 -0.5863 -0.1905 -0.1018
22090W        W26390   8.310   3.841   1.721  0.0541 -0.2707 -0.0853
22091W        W26391   5.925   3.335  23.926 -0.2977  0.1639 -0.0638
22092W        W26392  14.449   4.942  40.133 -0.0363  0.2544  0.0945
22093W        W26393  11.811   5.824  12.126  0.0868 -0.1135 -0.1493
22094W        W26394  16.843   0.349  15.941  0.1075  0.0384 -0.2826
22095W        W26395  16.977   1.280  40.579 -0.0118  0.0456  0.5009
22096W        W26396  18.235   3.086   4.681  0.0544 -0.0362  0.2904
22097W        W26397   0.941   4.457  26.594 -0.3886 -0.0401 -0.0524
22098W        W26398  19.488   4.657  43.356  0.1524  0.0023 -0.3085
22099W        W26399  16.293   5.532  15.401 -0.0674  0.1274 -0.1127
22100W        W26400  11.976   6.170  32.702  0.0283 -0.1275  0.0680
22101W        W26401   6.393   2.889  35.201 -0.0530 -0.2396  0.2721
22102W        W26402   6.115   5.751   8.731 -0.0782 -0.1992 -0.3802
22103W        W26403  12.593   5.497   4.646 -0.3105 -0.0321 -0.0970
22104W        W26404  13.699   5.754  32.904 -0.2510  0.1197  0.2430
22105W        W26405  12.874   4.653  15.220  0.2463  0.3347 -0.1294
22106W        W26406  17.879   5.830  10.014  0.1949 -0.2370  0.1171
22107W        W26407  10.262   0.910   9.768  0.2375  0.2828 -0.1745
22108W        W26408   4.872   1.692  42.659  0.2576  0.0670 -0.0522
22109W        W26409  14.477   1.175  43.511  0.0778 -0.2135  0.1030
22110W        W26410   0.312   4.926   9.926 -0.0352  0.0330  0.1174
22111W        W26411  10.396   6.269  11.724  0.0967 -0.0198  0.1259
22112W        W26412  16.868   4.494  19.120 -0.0667  0.1721 -0.0365
22113W        W26413  18.706   3.511  13.009 -0.0709  0.1404  0.2605
22114W        W26414  10.917   0.332  37.676 -0.2271  0.2602  0.2876
22115W        W26415  18.418   5.782   1.190  0.2144  0.0037  0.4504
22116W        W26416  12.982   1.968  32.837  0.1584 -0.1699 -0.1982
22117W        W26417   3.511   2.579  31.027 -0.1110  0.0909  0.3753
22118W        W26418  18.206   2.118  41.225  0.0417  0.0182  0.1589
22119W        W26419   7.260   5.323  42.397  0.0643  0.0332  0.0835
22120W        W26420   2.274   3.537  25.932 -0.1901 -0.1063  0.1942
22121W        W26421  20.467   4.742  19.420 -0.0458  0.3295  0.1021
22122W        W26422   7.113   6.584  42.290  0.3258  0.0478 -0.1669
22123W        W26423  20.526   4.913  30.927  0.1194  0.1687  0.1257
22124W        W26424  13.902   6.549  44.453  0.0674  0.2294  0.1925
22125W        W26425   9.397   5.370  34.724 -0.0125  0.2480 -0.0227
22126W        W26426  11.499   2.777  12.028  0.0842  0.0489  0.3663
22127W        W26427  13.719   0.859  44.836 -0.1741 -0.4445 -0.1045
22128W        W26428  19.832   3.802  29.858  0.0404  0.1139 -0.2201
22129W        W26429   2.937   6.329  23.560 -0.0340 -0.0750  0.1603
22130W        W26430   1.467   3.044  32.701  0.0239 -0.0888 -0.0251
22131W        W26431   0.689   1.430  39.696  0.1953  0.1152  0.0291
22132W        W26432  15.429   0.784   4.353  0.0053  0.0947  0.2238
22133W        W26433   8.155   4.221   3.373 -0.2337  0.0583 -0.1254
22134W        W26434  16.529   2.086  36.707  0.0711  0.0445  0.1294
22135W        W26435   3.214   0.025  43.151 -0.0616  0.0794  0.0302
22136W        W26436   5.500   4.609  25.499 -0.1229 -0.1717 -0.0360
22137W        W26437   8.603   5.113  41.622 -0.0354  0.1656  0.1297
22138W        W26438   2.547   4.936  29.776  0.0717 -0.1487  0.0719
22139W        W26439   2.667   1.974  37.507 -0.1436  0.2805  0.1272
22140W        W26440  20.529   0.854   9.085 -0.0518 -0.1382 -0.1799
22141W        W26441  17.037   3.324  41.920  0.1389  0.0999 -0.1016
22142W        W26442   8.900   6.556  26.636  0.1763 -0.2013  0.1465
22143W        W26443   1.379   5.290  40.444  0.0222 -0.0724  0.0192
22144W        W26444   3.459   0.357  29.414  0.0845 -0.1709 -0.1565
22145W        W26445  20.884   5.176  18.789  0.0455 -0.1762 -0.0550
22146W        W26446  13.345   5.751  41.718 -0.2195  0.0192  0.0223
22147W        W26447  10.749   0.054   1.675 -0.1025 -0.0977  0.1749
22148W        W26448  13.870   1.117  31.060 -0.0823 -0.1343 -0.0186
22149W        W26449   0.610   5.373  30.489  0.0830  0.0583 -0.2772
22150W        W26450  20.594   5.885   6.769  0.0159  0.2962  0.3861
22151W        W26451   2.408   0.339  42.105 -0.0096 -0.4684  0.2362
22152W        W26452  14.035   5.940   2.695  0.0014  0.2065 -0.0057
22153W        W26453  13.778   3.637  37.399  0.4146  0.1144  0.1175
22154W        W26454  11.090   3.434   5.936  0.1081 -0.3070  0.1873
22155W        W26455   9.977   5.707  36.016 -0.0846 -0.0914  0.2017
22156W        W26456  10.833   0.842   3.940 -0.0420  0.0628 -0.1807
22157W        W26457  19.459   2.732   6.106  0.0671  0.3110  0.3185
22158W        W26458  11.466   2.597  35.361 -0.1556 -0.1322 -0.2086
22159W        W26459  12.155   3.492  30.540  0.0623  0.0992  0.2350
22160W        W26460  12.710   0.356  36.117 -0.3022 -0.2503  0.2796
22161W        W26461  19.152   6.050   8.290  0.0170 -0.1999 -0.1455
22162W        W26462  16.889   1.839  43.899  0.3754  0.1360 -0.2224
22163W        W26463  15.434   3.345  44.083 -0.1034  0.0483  0.0659
22164W        W26464  14.627   5.389   1.728 -0.0514  0.1602  0.3286
22165W        W26465  16.928   2.342  22.261 -0.0718 -0.2118  0.2448
22166W        W26466  19.443   6.354   9.790  0.0866  0.0490  0.0004
22167W        W26467   6.991   2.702  26.418  0.1936 -0.0335 -0.1064
22168W        W26468  15.033   2.110  44.521 -0.0723  0.1235  0.1845
22169W        W26469  15.111   6.355   5.678  0.1873 -0.1118  0.1463
22170W        W26470  19.401   1.081  28.480 -0.0585 -0.1247 -0.0460
22171W        W26471   1.033   2.445   6.509  0.0346  0.0872  0.1621
22172W        W26472  18.652   2.445  35.983 -0.1140 -0.1893  0.4217
22173W        W26473   5.920   5.520  34.217  0.1912 -0.0759 -0.1603
22174W        W26474   2.521   1.049  13.639 -0.0001 -0.1635 -0.1975
22175W        W26475   5.330   4.650  15.541  0.1916 -0.1100  0.1299
22176W        W26476   6.921   4.254  26.875 -0.0489  0.0458  0.0452
22177W        W26477  11.551   3.044   4.714  0.0101 -0.0012 -0.2355
22178W        W26478   2.570   6.341  26.476 -0.3920  0.1139  0.2454
22179W        W26479  20.297   0.330  38.418 -0.0386  0.0376  0.0366
22180W        W26480  11.982   5.641  13.438 -0.0465 -0.2557 -0.0275
22181W        W26481  14.203   3.870  20.627  0.0075 -0.1062 -0.3709
22182W        W26482   3.107   2.618  12.929  0.1313  0.1205  0.2293
22183W        W26483  17.776   1.938   4.428 -0.1586 -0.3881  0.0957
22184W        W26484   6.516   5.256  28.279  0.1579  0.1657 -0.0185
22185W        W26485  18.581   0.562  31.911  0.1320 -0.1729 -0.3249
22186W        W26486  15.821   3.534  38.724 -0.0723 -0.1540 -0.0336
22187W        W26487  18.205   0.966  21.312 -0.1471  0.2765  0.0502
22188W        W26488  15.892   2.952  41.885  0.4990  0.1691 -0.1105
22189W        W26489   9.850   2.330   5.991 -0.0535  0.0023 -0.2148
22190W        W26490  17.563   1.002  39.951 -0.2048  0.1146 -0.4370
22191W        W26491  16.000   6.322   0.302  0.0280  0.1609 -0.1313
22192W        W26492   4.966   0.925  12.980 -0.2483  0.0616  0.0940
22193W        W26493   4.448   1.109  11.506 -0.3362  0.2058  0.1653
22194W        W26494   4.331   0.021  10.597  0.2059 -0.0315  0.0152
22195W        W26495   9.217   1.168  15.558 -0.0819  0.2038 -0.0723
22196W        W26496   1.216   0.822   5.323  0.0537 -0.0135  0.0084
22197W        W26497   3.115   2.081  15.150 -0.1429 -0.0810  0.0260
22198W        W26498   6.530   4.445   9.226 -0.1594  0.1242 -0.2175
22199W        W26499  18.870   1.539  40.603  0.0120 -0.2129 -0.0187
22200W        W26500  19.592   4.857  13.621  0.1665  0.4810 -0.0235
22201W        W26501  12.736   2.080  13.885 -0.0797 -0.0425 -0.0768
22202W        W26502  13.036   0.248  39.049 -0.2501  0.0079  0.2050
22203W        W26503  10.371   5.086  37.574  0.1863 -0.1994 -0.0111
22204W        W26504  16.371   2.786  31.128  0.1161  0.0042 -0.2266
22205W        W26505  18.997   5.086   3.329 -0.0370 -0.2493  0.0739
22206W        W26506  20.652   3.759  37.038 -0.0266  0.0750  0.0299
22207W        W26507   0.433   0.871  44.169 -0.0487  0.1381  0.1740
22208W        W26508   6.229   6.164  14.331 -0.1994 -0.1176 -0.0210
22209W        W26509  14.760   0.219  38.073  0.1175 -0.0129 -0.1185
22210W        W26510  18.535   4.529  40.434  0.1698  0.4319 -0.0786
22211W        W26511  18.553   6.373  20.261  0.1032 -0.1015  0.0713
22212W        W26512  14.277   2.057  33.786  0.0564 -0.2249 -0.1433
22213W        W26513   9.107   1.658   7.400  0.1065 -0.3291  0.1911
22214W        W26514  20.684   0.576   2.593  0.0961  0.0488 -0.0760
22215W        W26515  15.454   5.080  11.458  0.1217 -0.0443 -0.1628
22216W        W26516   2.012   6.269  33.253  0.0103  0.2201 -0.0910
22217W        W26517  15.507   4.297  33.205 -0.0112  0.0323 -0.1162
22218W        W26518  17.381   4.468  37.279  0.1964  0.1496 -0.0516
22219W        W26519   2.178   2.124  39.183 -0.0520  0.0335  0.0382
22220W        W26520  16.429   3.685   6.667 -0.0635 -0.1241 -0.0562
22221W        W26521  15.813   0.623  12.986 -0.0495  0.2223 -0.0462
22222W        W26522   5.901   4.264  14.920 -0.1102  0.0854  0.2898
22223W        W26523   6.506   4.660  41.828  0.1971 -0.0016  0.2474
22224W        W26524  13.247   0.167  32.358 -0.0704 -0.1802 -0.1672
22225W        W26525   4.132   3.759  16.003  0.1478  0.1459 -0.0513
22226W        W26526  10.435   5.251  39.245  0.2963  0.2354 -0.2993
22227W        W26527  17.610   0.090   1.102  0.1780  0.3477 -0.0012
22228W        W26528  14.312   0.980  15.251  0.1504  0.3144 -0.1367
22229W        W26529  19.596   0.903  35.554 -0.1090 -0.1959  0.3223
22230W        W26530  19.116   3.373  21.155  0.1870 -0.0942  0.0806
22231W        W26531  10.951   4.725   8.299  0.0930 -0.1831  0.2874
22232W        W26532   7.141   3.475  38.279 -0.0721  0.2109 -0.0229
22233W        W26533  13.319   1.919   9.285  0.1599  0.0679  0.0135
22234W        W26534  13.021   6.171  18.933  0.0966  0.2147 -0.0302
22235W        W26535  11.202   3.867  43.606  0.0949  0.1343 -0.1116
22236W        W26536  10.368   5.254  44.538 -0.1439  0.0577 -0.1185
22237W        W26537  18.090   6.555  15.666 -0.2376  0.0337  0.0023
22238W        W26538  15.764   3.778  32.470 -0.1953  0.0934 -0.1943
22239W        W26539   5.328   4.656  14.679 -0.0591 -0.1493  0.0653
22240W        W26540  14.981   1.239   7.068  0.1743 -0.2418  0.0105
22241W        W26541   1.937   4.905  30.391  0.1849  0.1724  0.0405
22242W        W26542  11.637   0.540  38.960  0.0117  0.0866 -0.0832
22243W        W26543   8.067   5.814   7.481  0.2042 -0.1136 -0.1431
22244W        W26544  13.020   2.810   1.506  0.1186  0.0681 -0.3986
22245W        W26545   6.910   2.551  33.248  0.3917  0.0081  0.0907
22246W        W26546  18.489   5.460  20.078 -0.0007  0.2390  0.1255
22247W        W26547   9.308   4.457   5.926  0.0297 -0.1830 -0.1414
22248W        W26548   7.314   0.917  41.074  0.0157  0.1476 -0.1388
22249W        W26549   1.934   5.605  13.741 -0.0778  0.1674 -0.2121
22250W        W26550   4.772   1.175  43.564 -0.1769 -0.1124  0.0225
22251W        W26551   3.777   2.562  23.877  0.3273 -0.0747  0.1908
22252W        W26552  10.532   3.047   2.456 -0.0650  0.0455 -0.1356
22253W        W26553  12.915   5.812  34.981 -0.0804 -0.1865 -0.0932
22254W        W26554   1.980   6.136   7.062 -0.1977  0.0880  0.0585
22255W        W26555  15.495   3.135   8.152  0.0914 -0.0339  0.0831
22256W        W26556  14.589   4.683  20.420 -0.1805  0.1234  0.2318
22257W        W26557  18.039   5.197  38.145 -0.1435 -0.1329 -0.2477
22258W        W26558  13.085   3.877  12.359 -0.1092  0.0600  0.1408
22259W        W26559  17.522   0.025   7.185  0.0401 -0.0332  0.1544
22260W        W26560   3.217   3.610  39.247  0.2173 -0.2810  0.2320
22261W        W26561  18.912   4.464   2.260 -0.3582  0.1489 -0.1875
22262W        W26562   8.583   0.249  37.906  0.2140 -0.2623 -0.0284
22263W        W26563  14.294   4.574  17.417 -0.0290  0.3085 -0.1760
22264W        W26564  12.797   4.530  19.049 -0.4004 -0.0807 -0.0617
22265W        W26565   0.296   4.152  37.010 -0.1572  0.0452  0.0138
22266W        W26566   4.759   5.466  33.996 -0.0555 -0.1858 -0.1021
22267W        W26567  20.264   5.982  42.317 -0.0046  0.3617 -0.1042
22268W        W26568  13.773   2.622  34.207 -0.2387  0.1169 -0.1799
22269W        W26569  17.582   2.465  40.425 -0.1694 -0.0819 -0.0476
22270W        W26570  19.898   5.531  20.258  0.0105 -0.3445  0.0791
22271W        W26571  13.269   0.688   6.585  0.3041  0.1196  0.0484
22272W        W26572  15.984   4.201  14.479  0.0750 -0.1358 -0.0893
22273W        W26573  18.101   0.311   6.536 -0.0042  0.2260  0.6408
22274W        W26574  19.285   2.337  30.801  0.1574  0.0187 -0.0583
22275W        W26575   2.054   5.077  43.612  0.2222 -0.1969 -0.0142
22276W        W26576  17.834   3.660   6.540 -0.0297 -0.0236  0.1763
22277W        W26577   8.062   3.116  11.084  0.1335  0.0576  0.1251
22278W        W26578   1.452   0.005  38.082 -0.1883  0.0645  0.2710
22279W        W26579  12.929   4.233  31.723  0.3091  0.0030  0.1970
22280W        W26580  14.289   0.309  41.458  0.0470  0.0040  0.1059
22281W        W26581  16.199   4.698  19.791 -0.0879 -0.0645 -0.1352
22282W        W26582  16.359   4.316   9.492  0.3522  0.1015 -0.1132
22283W        W26583  16.631   3.604  21.131  0.0873  0.1406 -0.2110
22284W        W26584  12.773   4.045  33.516  0.2132  0.3634 -0.1128
22285W        W26585   1.002   2.233  40.922 -0.1853  0.0562  0.0718
22286W        W26586  10.542   4.172  16.480  0.2538 -0.2422 -0.1572
22287W        W26587   8.481   6.539  39.274  0.1667 -0.0370 -0.0031
22288W        W26588  20.719   1.047   2.795  0.3358 -0.0601  0.1589
22289W        W26589  10.065   5.664  30.694  0.0522  0.1528  0.2694
22290W        W26590  16.429   3.041  22.042 -0.0604  0.0698  0.4140
22291W        W26591  19.773   2.838   1.572  0.0823  0.2971  0.0730
22292W        W26592  11.447   0.548   0.966 -0.1142  0.2252  0.0176
22293W        W26593  16.879   5.166  19.604  0.2581 -0.0369  0.2217
22294W        W26594  14.088   4.251   7.228 -0.2777  0.1388 -0.2478
22295W        W26595   4.164   5.755  24.869 -0.2308 -0.2029 -0.0311
22296W        W26596  14.718   0.378   9.869  0.1247  0.1833  0.0429
22297W        W26597   2.274   5.161  35.135  0.4085 -0.0246 -0.2154
22298W        W26598  15.426   5.340   8.736  0.0564 -0.0863 -0.0182
22299W        W26599  15.263   4.083  10.134 -0.2017  0.1487 -0.0287
22300W        W26600  18.654   6.217  43.973  0.2113 -0.1202 -0.0018
22301W        W26601  15.713   5.914  19.700 -0.2047  0.2172 -0.1812
22302W        W26602  17.701   2.349   8.763  0.0469 -0.0065  0.3250
22303W        W26603   7.127   1.776  22.675  0.0924 -0.0602 -0.1565
22304W        W26604  13.508   5.573  10.871  0.0828  0.0911 -0.0294
22305W        W26605   8.055   5.365  13.910 -0.1494 -0.1519  0.1427
22306W        W26606   4.705   4.383   6.406 -0.0171 -0.0588 -0.3124
22307W        W26607   2.910   2.657   1.562 -0.1948 -0.3293 -0.0148
22308W        W26608  15.603   3.621   4.981 -0.1167 -0.1954  0.1776
22309W        W26609  12.337   5.453  29.712  0.1909 -0.2499 -0.0581
22310W        W26610  11.749   4.882  17.213  0.1758 -0.1187 -0.1123
22311W        W26611   0.800   3.885  11.947  0.0990 -0.2390 -0.4820
22312W        W26612  12.566   3.352  11.924 -0.0271  0.2842  0.0403
22313W        W26613  11.945   1.615   8.768 -0.0593 -0.3078  0.1730
22314W        W26614   3.319   1.421   8.696 -0.0636  0.1051  0.1691
22315W        W26615  16.959   3.052   5.606 -0.2986  0.0258 -0.1525
22316W        W26616  10.650   4.161  10.032 -0.1356 -0.1604 -0.0696
22317W        W26617   3.786   5.904  37.558  0.0430  0.4034  0.0590
22318W        W26618  13.949   1.525  31.518  0.0996  0.1883 -0.0101
22319W        W26619  16.691   3.609  15.038  0.2980 -0.0059  0.0360
22320W        W26620  17.878   5.216  36.725  0.0316  0.0495 -0.1940
22321W        W26621   2.214   1.978  28.901 -0.0096 -0.0201 -0.4775
22322W        W26622  18.828   6.574   1.009 -0.0467  0.0183 -0.0948
22323W        W26623  16.000   1.581  11.427 -0.2415 -0.0653  0.3076
22324W        W26624   4.107   4.551  34.405  0.3241  0.0857 -0.0698
22325W        W26625  10.155   0.872  34.691  0.2304  0.0272  0.1448
22326W        W26626  10.743   5.933   4.709  0.3862 -0.5087 -0.0208
22327W        W26627  16.058   2.558  22.727 -0.1944 -0.0197  0.1563
22328W        W26628   2.976   4.567  36.312 -0.2990  0.3073  0.1535
22329W        W26629  16.250   4.407  44.183  0.2113 -0.1528 -0.0762
22330W        W26630   2.426   4.031  10.998 -0.1288 -0.1560 -0.4292
22331W        W26631  20.137   1.830  43.824  0.0429  0.1445 -0.1698
22332W        W26632  19.539   6.061  11.544  0.3674 -0.1137 -0.0455
22333W        W26633   2.833   5.739  43.328  0.1959 -0.0620 -0.1971
22334W        W26634   6.063   5.371   2.834 -0.2655 -0.4186  0.0460
22335W        W26635  16.769   2.000  37.106  0.0832 -0.3397  0.1318
22336W        W26636  14.861   5.168  18.986 -0.2050  0.3246  0.1244
22337W        W26637  16.191   5.401  36.590  0.1949  0.2784  0.1387
22338W        W26638   9.969   1.218   7.282  0.2179 -0.5708  0.0952
22339W        W26639   0.696   3.556   1.478  0.2797  0.1961 -0.1074
22340W        W26640  10.979   3.583   6.489 -0.0084  0.2175  0.1382
22341W        W26641   0.028   3.202  17.436 -0.1654 -0.0633 -0.0727
22342W        W26642   6.770   5.893  26.181 -0.1139 -0.2765  0.1578
22343W        W26643  13.925   2.742   0.677 -0.3606  0.0570  0.1168
22344W        W26644   2.732   2.834  30.918 -0.1372  0.2135  0.1147
22345W        W26645  13.912   0.865  16.142  0.1198 -0.3643 -0.1474
22346W        W26646  20.666   0.278   3.490 -0.1565 -0.2747  0.1767
22347W        W26647   4.820   5.060  23.845 -0.1550 -0.2305  0.0382
22348W        W26648  14.196   0.494  30.879 -0.1114 -0.0418  0.1297
22349W        W26649  15.865   6.461  22.454  0.0800 -0.1025 -0.0237
22350W        W26650  21.129   2.506  40.590  0.0774  0.0289 -0.1628
22351W        W26651  11.391   5.494   9.427 -0.1121  0.1232  0.0811
22352W        W26652  16.260   4.064  11.172  0.5357 -0.0204 -0.2499
22353W        W26653  13.139   2.075  19.848 -0.0525 -0.1238 -0.0398
22354W        W26654   6.563   0.489  29.137 -0.0306 -0.0507 -0.0687
22355W        W26655  12.940   0.459  14.017 -0.2367  0.0479 -0.1189
22356W        W26656   0.076   1.245  36.226  0.2931  0.0461 -0.1721
22357W        W26657   0.710   0.643  33.109 -0.1159 -0.0191  0.2384
22358W        W26658  18.616   5.629   6.532  0.0560 -0.1513  0.2183
22359W        W26659  20.630   6.321  30.383  0.3015 -0.3140  0.0854
22360W        W26660  14.846   3.865   9.803  0.0838 -0.1414 -0.0493
22361W        W26661  16.062   4.500  16.909  0.0242  0.0636  0.0301
22362W        W26662   5.063   4.468  20.986 -0.0635 -0.2437  0.1200
22363W        W26663   5.383   1.382  12.107  0.0265 -0.2116 -0.0378
22364W        W26664  14.063   1.334  39.804 -0.2348  0.1235 -0.3286
22365W        W26665  11.775   2.804  32.288  0.0536 -0.1959  0.2607
22366W        W26666   4.456   0.838   1.233  0.0522  0.1678 -0.3190
22367W        W26667  10.815   2.156  33.200 -0.1258  0.1022 -0.1268
22368W        W26668   1.499   3.951  11.028 -0.1055 -0.2805  0.0663
22369W        W26669  17.639   6.104   7.048  0.1289  0.0224 -0.0665
22370W        W26670  12.344   0.524  29.896 -0.2188  0.1257 -0.1115
22371W        W26671   6.371   2.378   3.961  0.0135 -0.0722  0.1360
22372W        W26672  20.908   6.045  37.636  0.0508  0.2905  0.0514
22373W        W26673  15.516   2.803  18.448 -0.2823 -0.0157 -0.0527
22374W        W26674  16.653   1.379  21.321 -0.0603 -0.2444  0.1072
22375W        W26675   0.815   2.650  39.169 -0.0880  0.0998 -0.1402
22376W        W26676   5.508   5.082  35.099  0.0777  0.0369 -0.0739
22377W        W26677  20.903   6.282   2.397 -0.2274 -0.3319  0.0246
22378W        W26678  19.900   0.538  38.280 -0.3066  0.1979 -0.1445
22379W        W26679   3.536   2.785  41.309 -0.3387  0.2180  0.2462
22380W        W26680   7.947   2.087  41.263 -0.2387  0.2243 -0.1128
22381W        W26681  18.653   3.858   6.519  0.3470 -0.1369  0.0644
22382W        W26682  11.604   6.335   3.701 -0.1559  0.2170 -0.2966
22383W        W26683   0.371   1.760   6.665  0.3419  0.1298  0.1448
22384W        W26684   8.940   5.149   4.245  0.0707  0.1855 -0.0795
22385W        W26685   1.647   0.264  27.210 -0.2052 -0.0113 -0.0402
22386W        W26686  12.959   4.537  13.562  0.0644  0.1346 -0.1677
22387W        W26687   2.146   1.169  34.466 -0.3840 -0.1653  0.0796
22388W        W26688  16.001   3.360  18.721 -0.4219 -0.0449 -0.0907
22389W        W26689   2.695   5.011  35.674  0.3267 -0.1277  0.0849
22390W        W26690   9.306   3.902  26.236  0.1315 -0.0965 -0.0865
22391W        W26691   7.623   0.601  33.217  0.0431  0.2967 -0.5434
22392W        W26692  12.431   4.806  35.698  0.0532 -0.0430 -0.1564
22393W        W26693  13.344   2.489  10.968 -0.1547  0.1838 -0.0905
22394W        W26694  12.073   3.664  10.442 -0.0080  0.0505 -0.1138
22395W        W26695  13.187   1.851  15.040  0.2232 -0.0672  0.1713
22396W        W26696   0.207   4.465  27.649 -0.2310  0.1239 -0.0397
22397W        W26697   2.147   5.335  38.556  0.1712 -0.1292  0.4598
22398W        W26698  19.483   5.441  18.166  0.0163 -0.0047  0.1033
22399W        W26699  18.936   4.313  28.767  0.1378 -0.0978 -0.0963
22400W        W26700   9.400   0.418  25.083 -0.0841 -0.3045  0.0947
22401W        W26701   4.396   0.703  42.951  0.3887  0.0320 -0.1283
22402W        W26702   2.016   0.160  42.483 -0.3912  0.1369 -0.1573
22403W        W26703   6.663   3.655  16.160  0.2602 -0.2619  0.4238
22404W        W26704  16.157   5.717   9.779 -0.4063 -0.3319  0.0554
22405W        W26705   5.722   5.221  11.810  0.1666 -0.1904 -0.0836
22406W        W26706   1.179   2.548  42.459  0.1511 -0.2982  0.0403
22407W        W26707  19.744   1.545  35.446  0.0852  0.0172  0.0314
22408W        W26708   0.608   6.606  35.882 -0.1472 -0.1843  0.0801
22409W        W26709   5.161   2.958  40.976  0.0892 -0.1269  0.1965
22410W        W26710  13.826   4.210   5.178 -0.0993 -0.0227 -0.2982
22411W        W26711   2.861   0.221  28.290 -0.2166  0.0799 -0.0449
22412W        W26712  13.902   4.825  38.435  0.2657  0.2451  0.0329
22413W        W26713   4.309   4.473  42.113  0.1073 -0.4324 -0.1278
22414W        W26714   6.612   5.409  44.573 -0.2445  0.1773 -0.1345
22415W        W26715  18.808   4.111  42.490 -0.0202  0.0948  0.0092
22416W        W26716   7.026   2.257  29.131  0.0546  0.2214  0.0225
22417W        W26717  16.510   3.294  14.335 -0.1921  0.0629  0.0011
22418W        W26718  17.256   5.107  40.065 -0.0929  0.0040 -0.0606
22419W        W26719  16.148   6.334  38.947 -0.2650 -0.2950  0.1677
22420W        W26720   6.877   1.632  30.317 -0.0503  0.0634 -0.1178
22421W        W26721   2.498   6.427  10.676  0.0857  0.1029  0.1565
22422W        W26722  12.700   6.148   9.153  0.2352  0.0005  0.0273
22423W        W26723   7.462   3.647  40.383  0.0758 -0.1677  0.3053
22424W        W26724  10.976   6.127  43.293  0.0688 -0.2143 -0.2490
22425W        W26725  20.771   0.660  44.059  0.2666 -0.0226 -0.2482
22426W        W26726   4.610   5.777  22.184  0.1059  0.2941  0.0571
22427W        W26727  17.091   6.234  28.674 -0.0083 -0.1433  0.1087
22428W        W26728   8.656   1.588  24.572 -0.1307 -0.3095  0.0712
22429W        W26729  20.266   2.821   3.463 -0.0427 -0.0743  0.2081
22430W        W26730   7.818   2.369  38.937 -0.2665  0.2883 -0.1122
22431W        W26731  15.285   3.559  31.572  0.1164 -0.3008  0.2635
22432W        W26732   6.299   5.317  11.783 -0.1119  0.1682 -0.0375
22433W        W26733  19.785   3.488   3.971  0.1205 -0.0007  0.1265
22434W        W26734  10.389   2.362  39.809 -0.3188 -0.0881  0.1247
22435W        W26735   4.947   5.390   6.583 -0.2788 -0.0888  0.0698
22436W        W26736  12.015   1.223   8.335  0.3471 -0.0367 -0.1189
22437W        W26737   4.348   2.868  34.992 -0.2225  0.1664 -0.2932
22438W        W26738   3.831   5.349  41.004 -0.2553 -0.1656  0.0515
22439W        W26739  12.242   2.985  17.019  0.0416 -0.0951  0.0382
22440W        W26740  18.922   4.098  17.271 -0.0100  0.1427 -0.2821
22441W        W26741  20.376   3.703  29.792  0.0497  0.0189 -0.1314
22442W        W26742   6.616   6.589  26.473 -0.1243 -0.0907 -0.1068
22443W        W26743  13.926   3.185   2.410  0.4391 -0.1558 -0.1397
22444W        W26744   8.403   4.274   8.551 -0.2036  0.1668  0.1714
22445W        W26745  11.036   3.024  12.631 -0.1686  0.1278  0.2186
22446W        W26746  11.851   4.797  38.193  0.2249 -0.2972  0.0694
22447W        W26747  14.301   0.859  19.946  0.1005  0.1791 -0.0836
22448W        W26748   3.977   0.385  11.424 -0.4186 -0.1573  0.1856
22449W        W26749   2.032   4.771   6.729  0.0483 -0.0228  0.0419
22450W        W26750   4.899   6.368   5.839 -0.0502 -0.1284  0.1056
22451W        W26751  11.061   5.227  30.597 -0.0832  0.0407  0.2827
22452W        W26752  20.631   0.199  44.242 -0.2516 -0.3877  0.0674
22453W        W26753   4.551   6.392  43.814  0.0890 -0.0141  0.1116
22454W        W26754   9.959   0.704  29.000  0.0696  0.0565 -0.3993
22455W        W26755   5.577   0.807  29.619  0.0884  0.0059 -0.0478
22456W        W26756  16.869   0.367  34.674  0.0923 -0.3285 -0.2884
22457W        W26757  15.747   2.221  16.961 -0.0420  0.0902 -0.0119
22458W        W26758  18.951   6.553  30.958 -0.1446  0.0493 -0.1035
22459W        W26759  16.723   0.832  33.588  0.2305 -0.1945 -0.0487
22460W        W26760  12.455   3.923  32.545  0.2537  0.0210 -0.0983
22461W        W26761   1.171   5.891  44.767 -0.2355 -0.1348  0.0073
22462W        W26762   9.935   6.473  17.778  0.4736 -0.0566  0.1849
22463W        W26763  16.337   1.561  11.972  0.0224  0.1371  0.0217
22464W        W26764  17.455   2.337  20.570  0.1003 -0.0075  0.1037
22465W        W26765  19.725   6.021  28.215 -0.1406  0.2173 -0.1968
22466W        W26766   9.383   0.560  12.078  0.4203 -0.2395  0.1227
22467W        W26767   8.190   3.058  32.521  0.0022 -0.1437  0.0624
22468W        W26768  18.329   3.703  15.839 -0.1228 -0.0549  0.1015
22469W        W26769  11.640   6.405   8.639 -0.2846  0.3738 -0.2359
22470W        W26770  16.824   5.850  30.175 -0.0059 -0.0433  0.1232
22471W        W26771  13.625   4.655  32.976  0.3222  0.1900 -0.1411
22472W        W26772  16.250   3.303  38.469 -0.1640  0.1884 -0.0603
22473W        W26773  14.546   0.115   0.608 -0.0615  0.1809  0.1526
22474W        W26774   1.404   0.260   0.264 -0.1320  0.1264  0.1688
22475W        W26775  14.028   3.181  42.141 -0.0273 -0.1890  0.1804
22476W        W26776  13.730   2.355  11.256 -0.2476 -0.4072  0.2431
22477W        W26777  19.091   1.376  43.391 -0.2008 -0.2603  0.2531
22478W        W26778   5.504   2.514   9.587  0.0490  0.2520  0.1077
22479W        W26779  17.117   5.360  19.958 -0.2670 -0.1925 -0.0204
22480W        W26780   8.391   2.853  23.190  0.0023  0.4287 -0.0527
22481W        W26781  17.914   6.365   9.967 -0.2487  0.1971  0.0266
22482W        W26782  12.120   6.043  14.160  0.1095 -0.0447 -0.1610
22483W        W26783  12.242   5.234  39.038  0.1226 -0.1417  0.2650
22484W        W26784   8.750   4.822  44.732  0.1605  0.0551  0.1187
22485W        W26785  15.123   4.328   1.000  0.1259  0.0290 -0.0855
22486W        W26786  10.475   0.959   5.145  0.2397 -0.2751  0.1485
22487W        W26787   6.375   4.855  43.294 -0.2524 -0.3515  0.0844
22488W        W26788   9.221   0.943  33.708 -0.0251  0.1092  0.1174
22489W        W26789  17.088   4.845  44.205 -0.1571 -0.1613 -0.0622
22490W        W26790   5.396   4.896  33.402 -0.0680 -0.3395  0.2923
22491W        W26791  14.210   3.259  43.997  0.0005 -0.0614  0.2206
22492W        W26792   9.198   3.827  27.328 -0.0516  0.1689  0.0306
22493W        W26793  13.767   5.041   5.912 -0.1197  0.1551  0.1306
22494W        W26794   7.544   5.770  42.241  0.3090  0.3153 -0.1434
22495W        W26795   4.221   4.899  22.538  0.0949  0.1626 -0.5060
22496W        W26796  14.806   5.012   4.841  0.2480 -0.1992 -0.5124
22497W        W26797  10.156   1.311  10.273 -0.0222  0.2702  0.1043
22498W        W26798   4.697   3.838  25.507 -0.1666  0.2885 -0.0446
22499W        W26799   1.346   3.310  26.649 -0.0258 -0.2371 -0.1276
22500W        W26800  19.596   6.253  34.455  0.1718  0.4567 -0.0656
22501W        W26801  19.387   3.119  42.357 -0.2579  0.4186  0.1648
22502W        W26802  13.263   4.776  10.254 -0.2226 -0.1558 -0.1363
22503W        W26803  17.634   5.039  30.550 -0.0920 -0.2297 -0.4018
22504W        W26804   4.201   2.492   1.025  0.0337 -0.2397 -0.2378
22505W        W26805   5.999   5.851  28.925 -0.1364  0.0550  0.1759
22506W        W26806  16.496   6.010  33.194 -0.1895 -0.0609 -0.3013
22507W        W26807   6.062   1.051  27.033 -0.3223 -0.1943  0.1202
22508W        W26808   9.297   6.566  24.837  0.3028 -0.1477  0.0642
22509W        W26809  18.959   1.288   9.228 -0.1506  0.0466 -0.1622
22510W        W26810  17.580   5.544  20.205  0.2021  0.0711  0.2829
22511W        W26811   8.724   3.834  43.378  0.1491 -0.2873 -0.0515
22512W        W26812  11.628   0.284  32.270  0.2138 -0.0362 -0.1477
22513W        W26813  17.405   2.123  43.464 -0.0366  0.2011 -0.1301
22514W        W26814  10.776   5.218  32.275  0.0782  0.0098  0.1575
22515W        W26815   9.750   3.099  25.458  0.0519 -0.1848  0.3954
22516W        W26816   3.816   6.045   9.683  0.1292  0.0091 -0.1789
22517W        W26817   6.666   1.262   3.613 -0.4420  0.1608 -0.0277
22518W        W26818   6.432   3.304   6.887  0.1414 -0.1732 -0.0883
22519W        W26819   7.353   0.294  12.265 -0.0047  0.0230 -0.3343
22520W        W26820  20.653   2.759  15.695 -0.1069  0.1450 -0.0006
22521W        W26821  18.790   4.293  35.596  0.2864  0.1260  0.0126
22522W        W26822  16.463   0.021   5.569 -0.1961 -0.1556 -0.1466
22523W        W26823   4.346   5.877   0.513 -0.4670 -0.0122 -0.1901
22524W        W26824   8.180   5.823  37.875 -0.0929 -0.0791 -0.0904
22525W        W26825   6.291   1.371  27.737  0.0345 -0.0089  0.2864
22526W        W26826   0.813   6.543  14.476 -0.0429 -0.0681 -0.1654
22527W        W26827   2.418   3.354  13.865 -0.0250  0.0863 -0.0201
22528W        W26828   3.696   1.774  33.259  0.3374 -0.1136  0.0609
22529W        W26829   8.198   0.379   4.955 -0.0430 -0.0972 -0.1424
22530W        W26830   2.378   5.711  16.147  0.1315  0.1543  0.2692
22531W        W26831  15.838   2.543   6.152 -0.3513  0.0489 -0.0155
22532W        W26832  11.017   2.024  33.712  0.1477 -0.0853  0.1203
22533W        W26833  14.846   5.894  37.339  0.1550 -0.2478  0.1860
22534W        W26834   7.113   4.683  15.638 -0.0566  0.1081 -0.0763
22535W        W26835   1.250   4.806  14.306 -0.0098 -0.1446  0.0496
22536W        W26836   7.634   3.117  44.021 -0.1443 -0.0425  0.2827
22537W        W26837  10.484   3.219   3.756 -0.1175  0.2987  0.2103
22538W        W26838  12.225   3.009  37.831  0.1432 -0.1276  0.0946
22539W        W26839   3.292   2.218  35.821  0.3759 -0.1287 -0.1394
22540W        W26840   4.865   1.270  22.630  0.1824  0.1027 -0.1958
22541W        W26841   6.195   1.053  23.973  0.0079 -0.0444 -0.1193
22542W        W26842   7.408   3.726   2.514 -0.0510  0.1755 -0.1341
22543W        W26843   0.407   5.268  43.906  0.0600  0.0425  0.1974
22544W        W26844   9.005   0.953   6.891  0.0423  0.0103  0.3243
22545W        W26845  13.556   1.920   4.944  0.0808 -0.1795 -0.0391
22546W        W26846   4.050   0.950   0.750 -0.1102  0.2983 -0.0722
22547W        W26847  14.215   3.062  37.642 -0.1207  0.0673 -0.2129
22548W        W26848  14.955   0.364  43.326 -0.1557 -0.0737 -0.0527
22549W        W26849   2.445   0.860  38.979  0.1259  0.2591  0.0108
22550W        W26850  17.257   2.800  23.978  0.1641  0.2392 -0.3764
22551W        W26851  10.916   2.638  38.046  0.1984  0.0900 -0.0226
22552W        W26852  18.164   5.533  43.346 -0.0638  0.0842  0.1320
22553W        W26853  17.196   4.986   4.305 -0.1989  0.0530 -0.0220
22554W        W26854  20.524   1.501  42.888  0.0938  0.0990  0.1821
22555W        W26855  14.431   5.619  12.165  0.0228 -0.0696 -0.0159
22556W        W26856   5.163   5.223  13.088  0.1854  0.0553 -0.0555
22557W        W26857   4.349   1.651  10.157  0.0274  0.1453 -0.0824
22558W        W26858   0.559   3.161   7.180  0.0179  0.2715  0.0419
22559W        W26859   3.579   3.837  31.580  0.2085  0.0607 -0.0474
22560W        W26860   8.982   4.692  36.127 -0.0057 -0.3600 -0.0255
22561W        W26861  18.149   0.481   0.048  0.4634 -0.0475 -0.1148
22562W        W26862   3.263   0.201  33.506  0.2221 -0.1207  0.0431
22563W        W26863  19.368   4.367  32.098  0.1567 -0.1334 -0.2318
22564W        W26864  14.535   3.345   6.860  0.0514  0.1766  0.1575
22565W        W26865  15.711   5.127  15.736 -0.3143  0.4573  0.0385
22566W        W26866  10.020   1.992  13.781  0.2973 -0.0179  0.1873
22567W        W26867   0.302   4.985  15.768  0.1890 -0.0334 -0.3163
22568W        W26868  17.308   0.240  35.528  0.2096 -0.2855  0.1359
22569W        W26869   1.620   4.508  41.424  0.1730  0.2743  0.0512
22570W        W26870   1.386   4.687   6.263  0.2247 -0.2402 -0.0710
22571W        W26871   5.121   4.923  20.807 -0.0695 -0.3038 -0.0217
22572W        W26872  13.258   0.956  20.892  0.0998  0.0319  0.3677
22573W        W26873  11.370   4.190  29.519  0.2235 -0.0676 -0.3073
22574W        W26874  15.621   4.644  35.143 -0.0640 -0.0313  0.0155
22575W        W26875  11.434   2.340  26.928 -0.2177  0.0099  0.0050
22576W        W26876  11.672   4.655  11.854 -0.4469  0.1216 -0.1921
22577W        W26877   8.240   3.527  32.228 -0.0244  0.2493 -0.0878
22578W        W26878  18.165   1.154  36.152  0.0471  0.1041 -0.3757
22579W        W26879  18.772   1.743   5.566 -0.0041 -0.4125  0.0982
22580W        W26880  16.580   1.729   1.437  0.1081 -0.1179  0.0027
22581W        W26881  14.784   1.395   0.487  0.1551  0.0808 -0.0013
22582W        W26882  12.777   3.629  28.793 -0.0983 -0.0752 -0.1109
22583W        W26883  20.852   5.970  39.164  0.0482  0.1370  0.0839
22584W        W26884   7.138   5.827  42.555 -0.1154 -0.0106 -0.0903
22585W        W26885   7.937   2.009  40.475 -0.0889 -0.1210  0.2643
22586W        W26886  11.825   3.903  12.246  0.1524  0.0361  0.0949
22587W        W26887  19.963   2.133   6.111 -0.1841 -0.1226  0.1661
22588W        W26888   2.486   4.450  11.383 -0.0572  0.0858  0.1949
22589W        W26889  18.961   2.600  32.326 -0.1575  0.2452  0.1352
22590W        W26890   0.518   4.610   3.949  0.0687 -0.0717 -0.1121
22591W        W26891   3.105   1.173   7.765 -0.0218  0.1878  0.1709
22592W        W26892   7.530   1.369  23.822 -0.1657 -0.2196  0.3680
22593W        W26893  10.903   3.733   3.598 -0.0929 -0.2264  0.1084
22594W        W26894   7.835   5.372  43.234 -0.0280  0.0185  0.2156
22595W        W26895  11.133   5.018  37.055 -0.2073 -0.0211 -0.1472
22596W        W26896  20.606   3.771  14.467  0.0512  0.2694 -0.0982
22597W        W26897   6.458   2.567   6.090 -0.1160 -0.0149  0.1903
22598W        W26898   4.383   5.047  29.794  0.0563 -0.0541  0.0416
22599W        W26899  11.005   4.376  37.261  0.1441 -0.1190  0.0673
22600W        W26900  19.520   6.294  40.156 -0.1520  0.1775 -0.0590
22601W        W26901  20.442   4.853  37.238  0.2480  0.1612  0.0289
22602W        W26902   6.331   6.148   3.185 -0.0684 -0.1365 -0.0063
22603W        W26903   9.357   2.786   6.854 -0.4832  0.0143 -0.0614
22604W        W26904   7.103   1.767  13.460  0.1484  0.1007  0.3397
22605W        W26905   5.853   4.274  37.882  0.3327 -0.0920 -0.0485
22606W        W26906   3.773   3.910  26.036  0.2011  0.0461  0.0755
22607W        W26907   8.730   0.474  44.771  0.0301 -0.0273  0.0397
22608W        W26908  15.743   5.324  15.280  0.0827  0.0175 -0.3982
22609W        W26909  12.946   1.149  19.317 -0.0646 -0.0541  0.1699
22610W        W26910  16.757   6.279  45.042 -0.1230  0.0346  0.0930
22611W        W26911  11.754   2.794   0.761  0.2696 -0.1283 -0.2255
22612W        W26912   6.443   5.505  36.179 -0.0420  0.2713 -0.1645
22613W        W26913   5.393   2.032  29.973 -0.5617  0.0623  0.1826
22614W        W26914  14.196   2.463  22.156 -0.2131 -0.3330  0.1850
22615W        W26915  10.473   3.879  43.988 -0.0299  0.2006  0.0448
22616W        W26916  21.095   1.381  39.833 -0.3679  0.2704 -0.0118
22617W        W26917   6.914   0.040   6.205 -0.1680  0.0042 -0.0078
22618W        W26918  13.943   1.324   3.463  0.0175  0.2338 -0.1217
22619W        W26919   2.918   4.923   5.494  0.2007  0.1055 -0.0581
22620W        W26920   9.769   5.561  31.120  0.0566 -0.0731  0.0287
22621W        W26921  11.690   1.179  38.326 -0.1456  0.1576  0.1084
22622W        W26922   3.943   6.173  38.000 -0.1719  0.1303  0.2902
22623W        W26923  11.441   4.337   2.547 -0.4253  0.0220  0.1379
22624W        W26924  13.709   0.474  37.576 -0.2262 -0.0460  0.0051
22625W        W26925  19.739   2.061  21.100 -0.1625 -0.0677 -0.0396
22626W        W26926  10.121   6.141  10.800  0.0473 -0.0139  0.0280
22627W        W26927  15.016   3.402  36.604 -0.1055  0.3243  0.2356
22628W        W26928   1.594   6.170  14.281  0.1691 -0.1274 -0.0885
22629W        W26929  16.897   1.998  18.948  0.1564 -0.1126  0.1027
22630W        W26930   4.155   2.817  43.154  0.2603  0.0251  0.2924
22631W        W26931  10.737   2.770   6.667  0.0361  0.0036 -0.2694
22632W        W26932   9.310   1.098  11.211  0.1184  0.2743 -0.1425
22633W        W26933   5.035   2.683  30.762 -0.0992  0.0135 -0.0293
22634W        W26934   3.098   3.888  37.804  0.0015  0.0449 -0.0676
22635W        W26935  14.043   5.951   9.273  0.1190 -0.0937 -0.1236
22636W        W26936  19.530   2.226  19.981 -0.0610  0.0488  0.0235
22637W        W26937  18.960   5.192  43.422  0.0696 -0.2805  0.0759
22638W        W26938  19.937   0.508   4.603 -0.2133  0.0677 -0.4065
22639W        W26939  18.993   6.143  44.696  0.2231  0.0534  0.0259
22640W        W26940  15.105   1.786  32.237  0.0843 -0.1750 -0.3123
22641W        W26941   4.219   4.539  29.599  0.1996  0.0479  0.2549
22642W        W26942  17.243   3.510  19.331  0.0366 -0.1546 -0.2364
22643W        W26943   4.995   1.054   1.935  0.0293 -0.3552 -0.1167
22644W        W26944   9.962   6.456  32.995 -0.1115  0.2036 -0.2059
22645W        W26945  10.720   2.140  29.891 -0.1095  0.1920  0.1943
22646W        W26946   0.364   1.669  33.351  0.0274  0.0017 -0.3795
22647W        W26947  16.066   1.925  25.082 -0.1345  0.0104 -0.1245
22648W        W26948  10.415   5.291   2.037 -0.1466 -0.2126 -0.2156
22649W        W26949   6.664   6.124  11.959  0.0112 -0.0710  0.3558
22650W        W26950  19.480   5.866  36.403  0.0025 -0.0383 -0.0075
22651W        W26951  18.211   1.021  16.981 -0.1971 -0.3092  0.1763
22652W        W26952  16.306   0.462  40.609 -0.1052 -0.3215 -0.0575
22653W        W26953   9.811   3.021  16.970  0.2411 -0.0205  0.1069
22654W        W26954  14.176   3.255  44.523 -0.0380  0.0771 -0.1853
22655W        W26955  19.980   3.443   6.078 -0.1517  0.0617  0.3061
22656W        W26956  10.936   1.742  43.097 -0.0178 -0.1085  0.0276
22657W        W26957  15.217   1.710   4.741  0.1762 -0.2665  0.0135
22658W        W26958  17.795   2.295  21.092  0.4943 -0.0331 -0.0947
22659W        W26959   4.423   2.409  44.075 -0.2706  0.0129  0.1720
22660W        W26960   8.800   6.199  34.951  0.1247  0.3214  0.3041
22661W        W26961   5.468   0.978  22.061 -0.2933 -0.0767  0.0411
22662W        W26962   3.656   3.306  27.345 -0.0199 -0.1105  0.0723
22663W        W26963   4.901   2.645   5.685  0.1009  0.1090  0.0263
22664W        W26964  16.621   6.495  42.863  0.1829 -0.1151 -0.1399
22665W        W26965   0.210   2.119   9.748 -0.0530  0.1243 -0.3158
22666W        W26966  17.911   5.493  11.786  0.0634 -0.5153 -0.2592
22667W        W26967   1.696   2.589   8.279 -0.1618 -0.0657 -0.0944
22668W        W26968  16.790   5.220  26.555 -0.0421 -0.1607  0.2270
22669W        W26969  17.203   2.572  20.935  0.1047 -0.2330  0.1326
22670W        W26970   9.530   1.014   6.145  0.0216 -0.1096  0.2046
22671W        W26971  17.286   4.623  40.193  0.1841 -0.1068 -0.1103
22672W        W26972  19.358   5.968   5.344 -0.1020  0.2033 -0.0760
22673W        W26973   1.636   6.406  32.929 -0.0329 -0.1941  0.0018
22674W        W26974  12.596   5.984  38.246 -0.1454 -0.0111  0.0170
22675W        W26975  11.028   2.344  44.878  0.3037 -0.0963 -0.1290
22676W        W26976  14.779   3.243  21.751 -0.0324  0.4233  0.2404
22677W        W26977   6.979   2.510  38.969 -0.0482  0.0241 -0.0643
22678W        W26978  17.526   6.188   0.308  0.1274  0.1436  0.1378
22679W        W26979  15.820   5.953   3.993  0.1771 -0.4717  0.0839
22680W        W26980  17.037   5.627  21.575 -0.1665  0.2187 -0.3576
22681W        W26981   0.781   4.421   1.381 -0.1172  0.0662 -0.0085
22682W        W26982  16.041   4.572  39.576 -0.1184 -0.3433  0.0924
22683W        W26983  19.498   1.113  20.804 -0.1173  0.1217 -0.3446
22684W        W26984  15.617   2.508  42.113 -0.0844  0.0926 -0.2539
22685W        W26985  20.821   6.244   5.028  0.0095 -0.3005  0.1068
22686W        W26986  10.003   2.496  36.984  0.1617 -0.0850 -0.1654
22687W        W26987   3.864   4.182   4.341 -0.2776  0.0369 -0.0774
22688W        W26988   0.760   5.343  34.164 -0.0133  0.2364  0.0739
22689W        W26989  11.615   5.555  17.916  0.1273  0.0837  0.0258
22690W        W26990  18.325   1.993  42.724  0.3316 -0.1125  0.1033
22691W        W26991   6.250   6.306  28.809  0.1379  0.1110  0.2031
22692W        W26992  12.465   4.373  42.955  0.2299  0.0529  0.2256
22693W        W26993  10.371   0.005   4.241  0.2720  0.1864  0.1335
22694W        W26994   3.115   5.957   3.585  0.1424 -0.0388 -0.1374
22695W        W26995  10.348   6.403  38.774  0.5525  0.1478  0.0882
22696W        W26996  18.919   3.282  35.854  0.1182 -0.0663 -0.0957
22697W        W26997   0.706   5.804  43.218 -0.1350 -0.0938 -0.0276
22698W        W26998  16.211   5.822  16.352  0.0195 -0.1231  0.1336
22699W        W26999  19.043   2.570  21.691 -0.1188 -0.0691  0.3817
22700W        W27000   7.955   2.269  15.072 -0.0330 -0.1602  0.4664
22701W        W27001   9.394   5.074  29.631  0.1782 -0.0947 -0.1561
22702W        W27002  11.500   5.976  10.500  0.1826  0.0241 -0.0833
22703W        W27003   7.663   5.563   1.183 -0.1013  0.0564  0.1424
22704W        W27004  20.125   5.586   6.494 -0.2766 -0.0246  0.0244
22705W        W27005  15.455   6.459   0.914  0.1375 -0.0097 -0.2478
22706W        W27006  19.834   5.699  43.781 -0.3610 -0.0784 -0.0764
22707W        W27007  14.054   4.013   4.052 -0.0199  0.2729  0.0324
22708W        W27008  17.435   2.461  32.150  0.3768  0.0517  0.0146
22709W        W27009   3.005   1.103  24.163  0.2880  0.0076  0.1299
22710W        W27010   4.760   3.422   8.805 -0.0068 -0.0846 -0.2749
22711W        W27011  20.960   2.498  30.550 -0.0391  0.0859  0.1684
22712W        W27012   0.718   1.517  18.517  0.4609 -0.0420  0.1250
22713W        W27013  15.168   5.653  40.204  0.2167  0.4397  0.0029
22714W        W27014   8.398   1.087  26.313 -0.1314  0.0155  0.0369
22715W        W27015  10.729   4.539  33.560 -0.0296  0.1880  0.3543
22716W        W27016  14.600   1.367  18.980  0.0329  0.2574 -0.0310
22717W        W27017  11.496   4.116  39.337  0.0306 -0.0240 -0.2300
22718W        W27018  15.796   6.471   9.469  0.0970 -0.0383 -0.0169
22719W        W27019   9.243   5.820   6.425  0.0045  0.1702 -0.0730
22720W        W27020   9.534   1.303  40.890  0.2485  0.0916 -0.1269
22721W        W27021  12.229   5.282  28.269 -0.0752  0.1952  0.0977
22722W        W27022  10.131   6.482  13.568 -0.0673 -0.2704 -0.0577
22723W        W27023  11.214   2.264  14.382 -0.1140 -0.0931  0.0100
22724W        W27024  15.743   5.882   9.950  0.1442  0.0690  0.4074
22725W        W27025  12.138   6.035  14.677  0.1782  0.0018 -0.2371
22726W        W27026  19.260   0.398  44.988  0.2764 -0.0709 -0.0680
22727W        W27027   9.595   0.152   6.576 -0.3231 -0.0602  0.0432
22728W        W27028   4.875   3.558  37.968 -0.2866  0.1967 -0.0810
22729W        W27029   2.492   3.349  10.085 -0.1154 -0.1240  0.0958
22730W        W27030   6.031   4.277  13.767 -0.4021 -0.0908  0.1760
22731W        W27031  20.483   1.591  28.439 -0.3350  0.0744  0.0146
22732W        W27032   9.817   3.895   2.284 -0.0254 -0.1318 -0.0876
22733W        W27033   6.252   3.322  44.722  0.2224  0.4068  0.0751
22734W        W27034  11.110   6.426   0.205 -0.2745 -0.2705  0.0329
22735W        W27035  18.936   2.502   6.738 -0.1871 -0.3128 -0.2839
22736W        W27036   2.922   1.403   6.311  0.3257 -0.0215  0.0544
22737W        W27037   2.548   5.791  11.134 -0.1618 -0.2925  0.2554
22738W        W27038  17.754   5.158  12.544  0.3233 -0.0959 -0.0415
22739W        W27039  20.090   0.188  17.750  0.0723  0.0587  0.0788
22740W        W27040  19.791   4.083  32.071  0.1704  0.0228  0.0628
22741W        W27041  16.281   6.136  42.093  0.0285  0.0061  0.0044
22742W        W27042   8.970   5.380  26.045 -0.0124  0.0366  0.0914
22743W        W27043  10.981   3.027  10.781  0.0653 -0.0779 -0.0322
22744W        W27044  11.335   3.688   8.093  0.2538  0.0907  0.0103
22745W        W27045   2.533   1.575  10.972  0.2282  0.1130  0.0577
22746W        W27046   6.120   0.391   4.781  0.2826 -0.3512  0.1645
22747W        W27047   3.566   0.830  12.571  0.0097 -0.0858  0.1804
22748W        W27048   7.982   3.682  27.790 -0.2513 -0.2112  0.0907
22749W        W27049  19.723   4.176  41.570  0.0808  0.0565 -0.0162
22750W        W27050  20.163   0.473   5.618 -0.3051 -0.0354  0.1248
22751W        W27051  15.267   5.697  21.058 -0.3409  0.2029 -0.0750
22752W        W27052  15.400   1.254  31.743 -0.0001 -0.1225 -0.0321
22753W        W27053  16.479   2.975   2.767 -0.0123  0.0344 -0.1374
22754W        W27054   2.066   2.481  23.127 -0.4298  0.0980  0.0386
22755W        W27055   3.405   4.758  29.637  0.3753  0.0221  0.1017
22756W        W27056   5.515   4.338   1.454 -0.2550 -0.1873  0.0949
22757W        W27057  20.719   5.462  39.288  0.0461 -0.1685  0.0264
22758W        W27058   5.297   2.239   8.140  0.1624 -0.0604 -0.1764
22759W        W27059  15.288   0.847  36.893 -0.0040 -0.0048 -0.1444
22760W        W27060   4.010   5.851   0.129  0.0404  0.3345  0.0251
22761W        W27061  20.696   0.768  35.366 -0.1974  0.3162 -0.1799
22762W        W27062   8.170   2.824  41.233 -0.0746 -0.3967 -0.1092
22763W        W27063   3.962   6.580  37.739  0.3482  0.1781 -0.0083
22764W        W27064  13.514   2.871  14.237  0.0039 -0.0452  0.2122
22765W        W27065  11.910   0.561   7.330  0.1995  0.4466 -0.0054
22766W        W27066  20.035   6.059  30.242 -0.0631 -0.1795  0.0193
22767W        W27067   9.145   5.229  13.308  0.1415  0.1289 -0.1036
22768W        W27068   2.625   3.444   5.648 -0.5524  0.2681 -0.1387
22769W        W27069   0.454   5.881  16.662 -0.1339 -0.1793 -0.0452
22770W        W27070   1.325   2.412   9.219 -0.2868  0.1213  0.1490
22771W        W27071  13.536   5.970  36.171 -0.2595 -0.0195  0.0478
22772W        W27072  13.918   5.132  33.710  0.0023  0.0221  0.1635
22773W        W27073   8.831   2.756   1.139  0.0428  0.0975 -0.0999
22774W        W27074   1.685   3.922  43.496  0.0042  0.1930  0.2653
22775W        W27075  14.138   1.200  44.901 -0.1732 -0.1955 -0.1052
22776W        W27076  10.601   0.259  14.840  0.2891 -0.3843  0.0881
22777W        W27077  17.891   5.771  38.127 -0.2621  0.1792 -0.1721
22778W        W27078  17.775   0.274   8.194  0.1891  0.0050  0.3444
22779W        W27079   0.329   0.128   4.393 -0.1054  0.0975 -0.1874
22780W        W27080   1.031   5.250   6.366  0.1231 -0.1045  0.2554
22781W        W27081   4.195   6.333   0.428 -0.2260  0.0534 -0.1242
22782W        W27082  15.438   5.011   7.105  0.0802 -0.1527  0.1019
22783W        W27083   2.730   6.368   7.252  0.0684 -0.0797  0.2033
22784W        W27084   9.556   4.807  42.996 -0.0262 -0.0558 -0.0714
22785W        W27085   3.750   5.091  35.884 -0.0405 -0.0489  0.3756
22786W        W27086  18.162   1.181  38.867  0.0236 -0.2713  0.1795
22787W        W27087   6.365   4.027   8.053  0.3137 -0.1633  0.1488
22788W        W27088  20.379   5.887  11.525  0.0256  0.1104  0.1590
22789W        W27089  13.506   0.548  12.526  0.0886 -0.0355 -0.0264
22790W        W27090  12.492   6.102   8.133 -0.0634 -0.3377 -0.3121
22791W        W27091  11.313   2.560  40.725 -0.1857 -0.0509 -0.1622
22792W        W27092   0.784   0.957  37.004 -0.0378 -0.1026 -0.1048
22793W        W27093  20.445   3.765  13.002  0.0503 -0.0065  0.1557
22794W        W27094  16.041   4.304   2.765  0.1152  0.3525 -0.1400
22795W        W27095   5.663   3.520   2.705  0.3015 -0.0495 -0.0836
22796W        W27096  17.847   1.704  31.950 -0.2434 -0.1414  0.1150
22797W        W27097  14.807   4.906   1.934 -0.1383 -0.3937 -0.2926
22798W        W27098   2.709   0.255  25.103  0.1601  0.1470 -0.0268
22799W        W27099   5.419   3.344  23.914 -0.0161  0.0837 -0.3096
22800W        W27100   8.771   6.436   1.904  0.0121 -0.0946  0.1562
22801W        W27101  12.661   1.201  42.639  0.0004  0.2613 -0.3665
22802W        W27102   5.724   4.010  30.137 -0.1283  0.0288 -0.1827
22803W        W27103  20.219   3.638  33.200  0.0257  0.1420 -0.6215
22804W        W27104  14.695   0.206   4.219 -0.1203  0.0794  0.1534
22805W        W27105   9.629   1.631  36.538  0.2467  0.2135 -0.0024
22806W        W27106   4.728   4.801  33.463  0.1728  0.0847 -0.0178
22807W        W27107  13.218   2.132  13.022 -0.0016  0.2635  0.1596
22808W        W27108  20.315   6.571  41.933 -0.1127  0.1669 -0.1699
22809W        W27109  16.629   0.245  11.500 -0.0815  0.2956 -0.1421
22810W        W27110  10.638   4.944   9.864 -0.0316  0.0865  0.0673
22811W        W27111  18.348   1.440  33.933  0.2378  0.2654 -0.0731
22812W        W27112  16.223   3.765   1.086  0.1845 -0.0353 -0.3337
22813W        W27113   0.165   6.377  16.781  0.0506  0.1576 -0.1213
22814W        W27114   3.289   0.552  32.788 -0.1198  0.1514  0.2176
22815W        W27115  14.158   4.055  41.526  0.1177 -0.1570 -0.3767
22816W        W27116   5.844   0.162   5.551 -0.0287  0.1640 -0.0097
22817W        W27117   7.624   3.545  31.491  0.0976 -0.1567 -0.4281
22818W        W27118   1.737   3.242  11.597 -0.1244 -0.0505 -0.1277
22819W        W27119  10.584   6.274  41.528 -0.4087 -0.2009  0.2730
22820W        W27120   2.237   5.302  15.356 -0.0860 -0.0674  0.0207
22821W        W27121  18.984   4.468   8.091 -0.0429  0.0867 -0.2029
22822W        W27122   2.641   2.719  32.332  0.3214 -0.1917  0.1399
22823W        W27123  13.621   0.497  10.286 -0.0802  0.1151 -0.0626
22824W        W27124   6.109   0.916  33.166 -0.1820 -0.2736  0.1713
22825W        W27125   4.380   1.941  14.341  0.0183 -0.0411  0.3234
22826W        W27126  15.484   5.817   4.310 -0.3091  0.0221 -0.2390
22827W        W27127  18.217   6.057  40.116  0.0029 -0.1142  0.2523
22828W        W27128   4.897   0.953  40.887 -0.1152 -0.1064 -0.0397
22829W        W27129   9.268   0.894  30.018 -0.0150  0.1295  0.0045
22830W        W27130   0.205   4.526   9.433  0.1200 -0.1641 -0.0442
22831W        W27131  18.147   1.623  15.600  0.2076  0.1073 -0.0340
22832W        W27132  15.031   0.312  18.993 -0.0787  0.1760 -0.1829
22833W        W27133  17.734   2.415  10.927  0.0151  0.2271  0.2212
22834W        W27134   7.607   6.186  41.493 -0.4347  0.3660 -0.0172
22835W        W27135   6.838   6.209  31.183  0.1825  0.1200  0.2988
22836W        W27136  20.931   5.792  41.842  0.1397 -0.2694 -0.0387
22837W        W27137   1.142   2.955  33.059  0.0742  0.1696  0.1582
22838W        W27138   6.987   5.103  38.533  0.2370  0.0025 -0.1019
22839W        W27139  12.900   1.013   6.430  0.0210 -0.1002 -0.0834
22840W        W27140  13.376   0.427  28.160 -0.1664 -0.1376 -0.3563
22841W        W27141   1.389   0.858  36.191  0.0240  0.0910 -0.1401
22842W        W27142   2.242   5.542  39.932  0.1802  0.0972 -0.0521
22843W        W27143   7.850   3.842  26.899  0.3477  0.0392  0.2174
22844W        W27144   5.149   6.280  31.734  0.0696 -0.1975 -0.2493
22845W        W27145  13.996   0.583  36.597  0.1156 -0.1495 -0.0869
22846W        W27146  12.714   6.286  16.226  0.2787  0.0889 -0.0298
22847W        W27147   0.093   1.318  15.864 -0.2414  0.2366  0.0486
22848W        W27148  14.064   2.723  17.533 -0.2704 -0.1467 -0.2870
22849W        W27149  12.344   1.822   6.987  0.0186 -0.3360  0.1591
22850W        W27150  20.269   2.656   1.312 -0.2391  0.2050  0.0622
22851W        W27151   6.204   2.638  21.147 -0.0758  0.1324 -0.0123
22852W        W27152  14.288   2.567  11.826 -0.6235  0.0883 -0.3982
22853W        W27153   6.117   2.570  38.692 -0.0357  0.1235  0.2144
22854W        W27154  16.565   3.750  40.816  0.1418 -0.2016 -0.0982
22855W        W27155   1.156   6.213  30.352 -0.1183 -0.1776  0.2470
22856W        W27156  11.431   1.963  38.386  0.1165  0.1077  0.2367
22857W        W27157  12.800   4.100  11.536 -0.0236 -0.3114 -0.0714
22858W        W27158  14.678   2.177   6.292  0.1038 -0.2201  0.1348
22859W        W27159   5.370   2.593  37.858 -0.1561  0.1354 -0.1263
22860W        W27160  16.860   4.016   3.311 -0.0623  0.0508  0.1599
22861W        W27161  13.783   2.600   3.116  0.0383 -0.1953 -0.0308
22862W        W27162  13.297   5.513  41.303 -0.3028  0.0858 -0.0716
22863W        W27163  13.899   4.515  43.260 -0.1374 -0.1263  0.4035
22864W        W27164  18.005   6.441  22.981  0.1592 -0.1368 -0.1988
22865W        W27165  18.214   6.022  40.596  0.1764  0.1306 -0.1785
22866W        W27166  13.630   6.540  28.900 -0.0256  0.1242  0.1658
22867W        W27167  17.136   3.631  16.597 -0.0689 -0.0501 -0.1254
22868W        W27168   8.220   5.389  33.215 -0.0219 -0.0641 -0.1484
22869W        W27169   5.843   6.488  24.759  0.1608 -0.0967  0.0167
22870W        W27170  16.792   2.866  30.347  0.1513 -0.1576 -0.3392
22871W        W27171  20.869   0.107   9.444 -0.0087  0.0206 -0.0606
22872W        W27172  10.798   6.174  15.617  0.0183  0.0033  0.1478
22873W        W27173   9.494   1.323  29.957  0.3843  0.1538  0.1483
22874W        W27174   7.789   1.992  11.964 -0.0744 -0.0692  0.1070
22875W        W27175   2.985   3.442  23.422  0.1282 -0.0742  0.0352
22876W        W27176   1.138   5.203   1.397  0.0493  0.1811 -0.0010
22877W        W27177  20.663   5.639  15.623 -0.1592  0.1115  0.0226
22878W        W27178  20.989   2.125  11.228  0.2927  0.0466 -0.0193
22879W        W27179  21.136   0.333  10.142  0.0828 -0.0746 -0.1572
22880W        W27180   3.304   3.398   5.165  0.1269 -0.1658 -0.2037
22881W        W27181   0.561   0.780  32.316 -0.2558 -0.0612  0.1939
22882W        W27182  18.412   5.811   0.456  0.2637 -0.1327 -0.2416
22883W        W27183  18.405   1.279   5.663  0.1236 -0.0177 -0.0708
22884W        W27184  17.084   5.132   8.146 -0.0991 -0.2802  0.0286
22885W        W27185   2.917   4.581  35.125 -0.1774  0.0025 -0.0614
22886W        W27186   3.333   0.108   0.106 -0.1290 -0.0819 -0.0792
22887W        W27187   5.275   0.771  36.943  0.0440 -0.0319  0.1246
22888W        W27188  13.784   0.784  35.115  0.1376  0.2587 -0.0904
22889W        W27189  17.393   4.093  34.350  0.2762  0.1480  0.4427
22890W        W27190  18.921   6.370   9.945 -0.2981 -0.0699 -0.2620
22891W        W27191  10.896   1.847  36.504 -0.1638  0.2834 -0.2673
22892W        W27192   0.195   3.552  41.840  0.0047  0.0817 -0.0842
22893W        W27193  15.372   2.509  17.760 -0.1769 -0.0887 -0.0900
22894W        W27194  11.557   4.187   1.624  0.1208  0.2499 -0.1791
22895W        W27195  16.028   3.929  42.960 -0.3065  0.2614  0.1004
22896W        W27196  17.494   4.162  43.451 -0.0302  0.1875  0.1965
22897W        W27197  17.848   1.437   6.934 -0.0855 -0.2051 -0.0918
22898W        W27198   1.998   0.349   3.975 -0.1153 -0.1158 -0.1141
22899W        W27199  17.459   4.698  18.930 -0.0897  0.1568  0.2169
22900W        W27200  13.585   2.127  29.744  0.0173 -0.3158  0.0213
22901W        W27201   1.129   2.893  14.872  0.1609 -0.1433 -0.0263
22902W        W27202   5.333   1.740  24.261 -0.2515 -0.0661 -0.0140
22903W        W27203  20.018   0.245  37.216  0.1705  0.1984 -0.0236
22904W        W27204  13.219   0.811  43.291 -0.1102 -0.0421  0.1040
22905W        W27205   9.664   2.228  32.270  0.0282  0.0621  0.1753
22906W        W27206  18.884   5.811  43.508 -0.0833  0.0401  0.1638
22907W        W27207  20.028   4.034  35.112 -0.0030  0.3035  0.0083
22908W        W27208  18.017   1.887  35.760  0.0845 -0.3869  0.0055
22909W        W27209  15.803   4.976  38.341 -0.0548  0.0884  0.0077
22910W        W27210  10.542   2.142  18.803 -0.1515 -0.0754 -0.1609
22911W        W27211  19.501   5.370  10.388  0.1177  0.0981  0.1316
22912W        W27212   7.162   5.851  38.135  0.2686  0.0332 -0.2982
22913W        W27213  21.012   3.701   9.627  0.1560  0.1279 -0.1363
22914W        W27214   7.755   2.665   2.052 -0.3111 -0.2565  0.2022
22915W        W27215  12.127   4.816  41.189  0.4146 -0.0225  0.1136
22916W        W27216  12.097   6.085  40.071 -0.0583 -0.2156  0.1337
22917W        W27217   3.185   2.384   6.280 -0.1587  0.0863 -0.1464
22918W        W27218   5.432   0.370  32.198  0.0254  0.1353  0.1881
22919W        W27219   0.669   6.573  27.145 -0.0072 -0.1710  0.0396
22920W        W27220   7.018   0.459   5.627  0.1233 -0.0945 -0.0079
22921W        W27221  11.670   1.574   6.747  0.0256 -0.1655  0.1494
22922W        W27222   6.048   3.303  10.119 -0.0672 -0.0368 -0.0546
22923W        W27223   6.188   0.120  30.054  0.2609  0.0154  0.2160
22924W        W27224  15.913   6.016  13.255  0.1538  0.2578  0.2658
22925W        W27225   5.019   0.544  45.124  0.2037 -0.3326 -0.2128
22926W        W27226  15.074   1.060  22.941 -0.1083 -0.0582 -0.1510
22927W        W27227   5.911   2.565  38.240 -0.0073 -0.2967 -0.1846
22928W        W27228  19.773   2.008  15.422 -0.1363 -0.1796 -0.0132
22929W        W27229  10.454   5.199  33.260  0.1508 -0.0893  0.1064
22930W        W27230   1.091   4.372  14.570 -0.1937  0.0663  0.0640
22931W        W27231  20.912   0.906  10.538  0.1370  0.1912  0.0131
22932W        W27232   5.273   0.390  36.574  0.2514  0.1859  0.1565
22933W        W27233   7.029   3.201   5.103 -0.3284  0.0548 -0.2414
22934W        W27234  18.100   0.829   4.350  0.0413 -0.3924  0.0760
22935W        W27235   7.737   3.856  25.299 -0.2156 -0.2083  0.1835
22936W        W27236   6.206   4.821  44.724  0.0883 -0.1322  0.2284
22937W        W27237  19.010   5.929  19.678 -0.1804  0.1663  0.0164
22938W        W27238   6.187   1.171  15.193 -0.0600  0.2436 -0.1015
22939W        W27239  17.763   4.875  21.581  0.2361 -0.0761  0.0079
22940W        W27240  14.497   5.602  31.273 -0.4393 -0.1711  0.0138
22941W        W27241  12.410   2.465  11.490 -0.1359 -0.1672 -0.2577
22942W        W27242   6.895   5.337   6.970  0.1855  0.1820 -0.0184
22943W        W27243  15.762   2.856  12.137 -0.0076  0.0379  0.1172
22944W        W27244  17.386   0.717  36.669  0.1736  0.0889  0.0823
22945W        W27245  13.036   0.760  40.526  0.2914 -0.3152  0.3096
22946W        W27246  15.918   4.470  36.516 -0.1181 -0.2431 -0.0046
22947W        W27247  21.055   0.901  14.642 -0.3712  0.0760  0.1471
22948W        W27248  14.192   5.238  32.129  0.0466  0.0644 -0.2510
22949W        W27249   9.862   0.009   4.582  0.1581  0.1117 -0.1228
22950W        W27250   5.340   3.323  22.298  0.2575  0.2190 -0.0166
22951W        W27251  20.147   2.012  29.605 -0.2348  0.1552 -0.1355
22952W        W27252  11.694   5.186   7.538 -0.1823 -0.0274 -0.1538
22953W        W27253   9.394   1.895  40.950 -0.2619 -0.1864 -0.0822
22954W        W27254  20.685   2.597  15.213 -0.3304  0.3353  0.2721
22955W        W27255  20.529   4.487   8.752 -0.1748  0.1690 -0.1236
22956W        W27256  18.867   0.316  10.347 -0.1418  0.1899  0.1003
22957W        W27257  14.102   0.958   7.237  0.3750 -0.2723 -0.1414
22958W        W27258   2.578   1.317  31.961  0.1690  0.1445  0.0018
22959W        W27259   8.505   1.444   1.713  0.4038  0.0758  0.2894
22960W        W27260   3.780   5.289  31.623  0.1435  0.0126 -0.3349
22961W        W27261  17.765   3.785  20.796 -0.0423 -0.0960 -0.0964
22962W        W27262  18.083   2.745  22.486  0.3197 -0.1966 -0.3546
22963W        W27263  19.799   4.725   6.511  0.2883 -0.1801 -0.0326
22964W        W27264  18.168   2.889  37.713  0.1897  0.0458  0.0041
22965W        W27265   4.431   3.435  22.421  0.0169  0.1453  0.0144
22966W        W27266   6.159   5.262  16.370  0.0882 -0.1208  0.1872
22967W        W27267   4.374   0.734  30.702 -0.2640  0.1518 -0.0650
22968W        W27268   8.249   2.966  35.381 -0.0474  0.0643  0.1043
22969W        W27269  19.847   3.269  11.836 -0.2082 -0.2732 -0.1335
22970W        W27270  15.575   3.351  36.961  0.0725  0.0516  0.0090
22971W        W27271   6.500   2.807  15.960 -0.0423  0.1172 -0.1643
22972W        W27272   3.221   1.133  44.115 -0.3436 -0.2025 -0.1808
22973W        W27273   7.451   1.596  31.470  0.0001  0.0002  0.2182
22974W        W27274  14.399   5.027  33.811 -0.1367 -0.0761 -0.2439
22975W        W27275  20.505   0.758  40.282 -0.1622  0.0581 -0.2423
22976W        W27276   1.150   2.602   8.319 -0.1634 -0.0394 -0.1883
22977W        W27277  18.835   4.648  21.718  0.1805 -0.0427 -0.1290
22978W        W27278   9.120   3.909  33.599  0.2402  0.2655 -0.0356
22979W        W27279  19.971   3.083  18.307 -0.0246  0.2097  0.3973
22980W        W27280   5.039   6.398   7.226 -0.2012  0.0605 -0.2170
22981W        W27281   7.237   1.833  43.138 -0.2017 -0.0630 -0.1049
22982W        W27282   5.163   2.674   5.129 -0.0598 -0.0665 -0.4518
22983W        W27283   5.536   1.359  29.311  0.1185  0.1238 -0.2422
22984W        W27284  12.947   1.588   7.978  0.1750 -0.2117 -0.1847
22985W        W27285   6.669   3.794   5.105  0.0107  0.1052 -0.0844
22986W        W27286  11.024   1.379  30.156  0.1551 -0.0009  0.0729
22987W        W27287   2.647   2.254  44.845  0.1923  0.0842 -0.1618
22988W        W27288  10.063   1.080  25.668 -0.0711 -0.0250 -0.1123
22989W        W27289  12.258   5.470   4.264 -0.0240 -0.2691  0.0075
22990W        W27290  17.981   4.310  40.137  0.0400 -0.3300 -0.0014
22991W        W27291  18.534   5.034  30.105 -0.0620  0.1148  0.2886
22992W        W27292  17.913   3.761   8.702 -0.0388  0.0848 -0.1299
22993W        W27293   6.672   0.722  44.569 -0.1844 -0.1973  0.0624
22994W        W27294   3.097   3.745  31.622  0.0321 -0.0510  0.0366
22995W        W27295   7.482   3.755  38.798  0.1081  0.0869  0.1574
22996W        W27296  14.361   3.864  42.022 -0.3455  0.0021  0.0686
22997W        W27297  15.643   2.193  14.837 -0.1467 -0.0704 -0.0201
22998W        W27298   1.193   0.498  35.192 -0.0332 -0.1616  0.1537
22999W        W27299  17.712   2.795  35.422 -0.4490  0.1082  0.0173
23000W        W27300   1.393   0.506  32.063 -0.1542  0.1393 -0.1311
23001W        W27301   2.044   5.783   5.800 -0.4521 -0.1618  0.6673
23002W        W27302   3.471   5.809  23.522  0.1258  0.1139 -0.1211
23003W        W27303  16.133   5.607  43.740 -0.1243 -0.1712 -0.1210
23004W        W27304  16.568   2.440  22.681 -0.3236  0.1996  0.2332
23005W        W27305  16.663   3.545  44.115 -0.0537  0.0669 -0.2016
23006W        W27306  13.567   6.355  34.508 -0.4932  0.2040  0.0258
23007W        W27307  13.060   5.990  13.281  0.0308  0.0933  0.1693
23008W        W27308  14.517   1.529  34.659 -0.0166  0.2401 -0.1023
23009W        W27309   6.171   4.591  27.109 -0.2201 -0.0031 -0.0882
23010W        W27310  20.081   3.501  19.491 -0.0353 -0.1912  0.0618
23011W        W27311  19.293   2.974  33.853 -0.1860 -0.0842 -0.1695
23012W        W27312  14.365   1.100  11.843  0.3153  0.1005  0.0351
23013W        W27313  16.613   1.983  26.780 -0.0060 -0.0897  0.1209
23014W        W27314   8.473   3.804   5.923 -0.0243 -0.0749 -0.3066
23015W        W27315  19.214   4.389  18.765  0.1734  0.0555 -0.1322
23016W        W27316  21.050   4.086  37.757  0.0189  0.2485  0.0698
23017W        W27317  15.586   5.333   7.835 -0.1107  0.0727 -0.2028
23018W        W27318   8.856   0.915  14.633 -0.0244  0.0578  0.1930
23019W        W27319   7.348   5.346   7.129 -0.1080  0.2196  0.2028
23020W        W27320   5.385   1.883  42.464 -0.1831  0.2238 -0.1287
23021W        W27321  17.507   5.666  34.381 -0.2174  0.2821 -0.1213
23022W        W27322  14.012   1.872  14.554 -0.1459  0.1851 -0.3047
23023W        W27323  16.135   5.320   1.913  0.0251 -0.0775  0.0585
23024W        W27324   2.523   2.009   8.309  0.0823  0.2025  0.2114
23025W        W27325  20.182   2.710   3.958 -0.1968 -0.1589  0.3167
23026W        W27326   6.221   0.951   3.183 -0.1342  0.1134 -0.0811
23027W        W27327  14.296   3.704  34.092  0.0683  0.0195 -0.1108
23028W        W27328  12.481   4.264   1.413  0.0123 -0.0735 -0.0978
23029W        W27329  19.259   0.375  10.683 -0.0637  0.1320 -0.1736
23030W        W27330  18.258   3.069  14.224  0.0670 -0.0339  0.2342
23031W        W27331  11.655   5.402  16.154 -0.0385 -0.0590  0.1070
23032W        W27332  17.787   1.831  18.418 -0.2632  0.2259 -0.0474
23033W        W27333  12.273   4.123  38.235  0.2959 -0.1384 -0.1945
23034W        W27334  20.388   4.443  42.915  0.1432 -0.1283  0.1483
23035W        W27335   2.170   1.511   9.036  0.0150  0.2436  0.0997
23036W        W27336   9.270   5.857  41.415 -0.1027  0.0712 -0.0471
23037W        W27337  12.450   5.676   3.439  0.1282  0.0864  0.1192
23038W        W27338   9.381   4.894  15.078 -0.0352  0.0285  0.0480
23039W        W27339  10.957   1.788  31.965 -0.2605  0.2885  0.0352
23040W        W27340  21.105   3.132  44.910 -0.0541  0.2425  0.2872
23041W        W27341  11.559   3.225  41.314  0.0411 -0.0242  0.3870
23042W        W27342  18.885   4.647  39.093 -0.5271  0.1046 -0.0852
23043W        W27343   8.987   4.178   6.149  0.2295 -0.0066 -0.1746
23044W        W27344   5.397   2.198   1.272  0.0080 -0.0948  0.0214
23045W        W27345   6.923   5.368  35.917  0.2330 -0.1189  0.1241
23046W        W27346   3.531   1.160  29.336 -0.1502 -0.2335  0.3584
23047W        W27347  20.554   4.225   0.239 -0.1376 -0.1893 -0.1721
23048W        W27348   8.643   5.518   4.546  0.1609  0.2422  0.0328
23049W        W27349   0.825   3.003   7.946 -0.1461  0.2305  0.2513
23050W        W27350   7.040   6.311   3.857  0.2559  0.0433 -0.2000
23051W        W27351   5.417   1.745  34.230 -0.1372 -0.1353 -0.1022
23052W        W27352  12.914   5.976  44.419  0.1446 -0.1812 -0.0179
23053W        W27353   5.832   1.406   1.423  0.0465  0.3981  0.2520
23054W        W27354  11.061   0.127  37.096 -0.1570  0.2312 -0.1757
23055W        W27355   5.951   2.674  40.755  0.2728 -0.1647 -0.2648
23056W        W27356  13.200   1.175  34.545  0.0600  0.1527 -0.0252
23057W        W27357   9.386   6.298   9.751  0.1633  0.1332  0.1733
23058W        W27358   2.112   6.089  15.928 -0.0721  0.2472 -0.4073
23059W        W27359   4.187   1.516  36.739 -0.0749 -0.0503 -0.0511
23060W        W27360  19.660   1.812  29.626 -0.1426 -0.1062  0.2886
23061W        W27361  18.000   6.564  44.311  0.2399  0.2717 -0.1360
23062W        W27362  13.793   3.039   8.403  0.1567 -0.0963 -0.1877
23063W        W27363  18.510   4.969  12.004 -0.3631  0.2349  0.4457
23064W        W27364   2.596   3.266  32.898 -0.0551 -0.1433 -0.0343
23065W        W27365  10.725   5.409   7.355 -0.0993  0.0176 -0.0057
23066W        W27366   6.749   3.720   1.000 -0.1207 -0.2685 -0.1757
23067W        W27367  19.409   3.449   4.752 -0.0750  0.1069 -0.2192
23068W        W27368   1.738   3.503  41.981 -0.0781  0.0524 -0.2881
23069W        W27369   3.891   1.942  36.552 -0.2369 -0.0846  0.1377
23070W        W27370   3.939   3.473  37.371  0.1809  0.1186 -0.3328
23071W        W27371   1.197   4.373  43.186 -0.1062 -0.2412  0.0489
23072W        W27372  16.525   3.262  11.828  0.0973 -0.0556 -0.0036
23073W        W27373   1.924   4.434   8.159  0.1349 -0.2989 -0.0106
23074W        W27374  15.033   6.242  31.143  0.1035 -0.4899  0.4515
23075W        W27375   0.204   0.177  34.908 -0.3510 -0.3441 -0.1500
23076W        W27376  11.178   1.504   4.420  0.0859  0.0743  0.1774
23077W        W27377  16.357   5.079  31.140  0.1175  0.0549  0.1875
23078W        W27378  19.756   5.716  20.702  0.1365 -0.2423  0.3426
23079W        W27379   4.786   3.970   1.923 -0.1751 -0.1591 -0.1978
23080W        W27380  13.438   1.758  28.867  0.1318 -0.1152  0.1769
23081W        W27381   1.557   3.141   2.843 -0.0715  0.1705  0.1934
23082W        W27382  16.595   0.315  21.391  0.1383 -0.0480 -0.1580
23083W        W27383  20.360   0.626  41.183 -0.0724  0.0522 -0.2047
23084W        W27384   2.138   3.088  38.072  0.1768  0.3046  0.1519
23085W        W27385   2.702   2.956   2.624  0.0845  0.0875  0.0088
23086W        W27386   0.623   4.701  38.168  0.1497  0.1702  0.3142
23087W        W27387   1.066   0.493   8.847 -0.1484 -0.1457  0.1027
23088W        W27388  12.758   2.294  34.886  0.1236  0.1651 -0.3080
23089W        W27389  18.302   1.371  18.841  0.0282  0.0399 -0.1313
23090W        W27390  13.881   6.464  34.069  0.0251 -0.0938 -0.1529
23091W        W27391  18.298   4.388  11.666 -0.2812 -0.0842 -0.0444
23092W        W27392  12.230   2.723  20.602  0.0650 -0.0004 -0.1794
23093W        W27393   0.895   4.238  33.311  0.0663 -0.1022  0.0785
23094W        W27394  18.056   4.680  34.261  0.2314 -0.0637 -0.0445
23095W        W27395  10.593   5.518  38.304 -0.5203 -0.2467  0.0522
23096W        W27396  18.180   4.657  22.101 -0.0180  0.1174  0.2125
23097W        W27397  12.000   3.787  36.340 -0.1030 -0.4435 -0.3682
23098W        W27398   4.744   0.439  24.160 -0.1345 -0.0926 -0.0676
23099W        W27399   9.439   3.129  31.448  0.0185 -0.0536  0.1998
23100W        W27400  20.661   3.737   9.242 -0.2381  0.1904 -0.0316
23101W        W27401  11.242   6.505  35.314  0.2053  0.0758 -0.2656
23102W        W27402   0.308   6.029  39.447 -0.0565 -0.1520  0.1528
23103W        W27403   8.812   4.219  26.077  0.1358 -0.2214 -0.3095
23104W        W27404  10.511   6.173  25.767  0.2389 -0.0299  0.1375
23105W        W27405  13.529   0.983  42.512 -0.1767  0.3362 -0.2869
23106W        W27406   2.128   3.131  40.540 -0.1517  0.3150  0.1240
23107W        W27407   5.956   1.866  26.733 -0.0698 -0.2096  0.2890
23108W        W27408  12.172   4.478  16.458 -0.0056  0.2739 -0.0262
23109W        W27409  10.714   6.439  44.008 -0.1161  0.1494  0.1603
23110W        W27410   8.248   2.898  34.055 -0.0186 -0.2867 -0.1048
23111W        W27411  16.788   2.683  42.506  0.0289  0.0390 -0.2383
23112W        W27412  14.119   1.700  17.337  0.1865  0.3364  0.2111
23113W        W27413   7.341   4.476  37.123 -0.1142  0.2754  0.0333
23114W        W27414   6.849   0.237  11.901 -0.0528  0.0331  0.0348
23115W        W27415   9.435   5.355   6.261  0.0051 -0.0801  0.0028
23116W        W27416  19.381   2.392  29.300  0.2415 -0.1390  0.2910
23117W        W27417  17.989   0.242  32.332  0.1594 -0.0952  0.1810
23118W        W27418  13.387   1.368  20.636  0.1193  0.0445  0.3405
23119W        W27419  19.067   0.790  21.560 -0.2972 -0.0407  0.2818
23120W        W27420  13.820   5.432   3.771  0.2693 -0.2122  0.1046
23121W        W27421   3.526   1.669  42.543 -0.0659 -0.0455  0.1086
23122W        W27422  17.642   4.672  45.004  0.0473  0.0508 -0.1705
23123W        W27423   0.519   0.466  41.994  0.0468 -0.1769 -0.2364
23124W        W27424   7.339   5.475   3.387  0.3177  0.0526  0.0229
23125W        W27425  11.132   4.633  29.833 -0.0633  0.2214 -0.0645
23126W        W27426  12.558   4.167   3.075 -0.0569 -0.0066  0.0281
23127W        W27427  13.339   3.655  10.180  0.1141 -0.1016  0.1429
23128W        W27428   1.084   2.807  32.495 -0.1629 -0.0884 -0.3611
23129W        W27429  20.010   1.666   0.106 -0.1835 -0.2774  0.1910
23130W        W27430  15.923   1.929   8.814 -0.0931 -0.0497  0.1201
23131W        W27431   6.645   4.755  40.807  0.1410  0.1857 -0.1121
23132W        W27432   5.123   5.396  25.869 -0.1483 -0.0817 -0.2444
23133W        W27433  17.858   1.613  11.446  0.1827 -0.0708 -0.2223
23134W        W27434   6.959   4.247  43.294  0.0283 -0.2610 -0.3615
23135W        W27435   7.828   3.518  29.839 -0.1413  0.1034 -0.0622
23136W        W27436   2.426   2.366  34.021 -0.1021  0.1989  0.2523
23137W        W27437   5.977   2.745  43.052 -0.1897 -0.0576  0.1766
23138W        W27438  15.020   5.826  14.263  0.2351  0.1831  0.1625
23139W        W27439  14.369   2.940  20.152  0.1779  0.1009 -0.3001
23140W        W27440  16.098   0.173  18.276  0.0196  0.1009  0.0208
23141W        W27441  18.168   2.438  43.437  0.1197  0.1389 -0.0322
23142W        W27442  18.739   2.816  15.397  0.1689  0.2099  0.2715
23143W        W27443  16.235   3.174   9.488  0.0898 -0.2227 -0.0978
23144W        W27444  19.949   5.602  34.760  0.0863 -0.0251 -0.2255
23145W        W27445   8.041   2.623  32.392 -0.1425 -0.0151 -0.5411
23146W        W27446   8.076   5.884   4.097 -0.2182  0.0536 -0.0717
23147W        W27447  10.776   2.925  31.619 -0.0650 -0.1257 -0.1246
23148W        W27448  15.430   3.311  38.967  0.1321 -0.2127  0.0439
23149W        W27449   2.352   4.291  13.889  0.1634 -0.0790 -0.2742
23150W        W27450  16.314   0.331   3.682  0.1532 -0.1407  0.3569
23151W        W27451  16.420   5.140  28.494  0.0155 -0.0874 -0.1238
23152W        W27452   1.097   1.892  27.920 -0.0304 -0.1876 -0.2157
23153W        W27453  10.111   4.645  30.095 -0.1492  0.3324 -0.2702
23154W        W27454  18.985   4.776  30.153  0.1453  0.2753 -0.5214
23155W        W27455   2.651   5.165  44.474  0.0590  0.0274 -0.0520
23156W        W27456   2.854   6.248  26.906 -0.2646 -0.4089 -0.3098
23157W        W27457  16.998   1.703   0.554 -0.0536  0.3559  0.0793
23158W        W27458   8.692   6.331  36.164  0.0529 -0.2165 -0.1948
23159W        W27459   4.603   0.076  44.203  0.2048  0.1040 -0.1815
23160W        W27460   3.459   3.866  29.179 -0.0798 -0.0056 -0.0949
23161W        W27461  15.927   5.044  36.889  0.0865  0.3457 -0.1133
23162W        W27462   0.012   5.662  39.393  0.1507  0.0926 -0.3395
23163W        W27463   8.523   2.559  14.372  0.0657 -0.1814 -0.0304
23164W        W27464   5.815   0.046   9.598 -0.0698 -0.0314  0.1532
23165W        W27465  16.284   4.326  22.774 -0.1905 -0.2110 -0.0690
23166W        W27466   2.120   3.950   7.099  0.1684 -0.0366  0.2557
23167W        W27467   2.989   3.881  32.110  0.1317 -0.0010  0.1533
23168W        W27468  20.750   2.932  42.183  0.2890 -0.2025  0.0360
23169W        W27469  10.219   5.820  29.695  0.0077 -0.3807  0.0024
23170W        W27470   6.497   1.052  25.723 -0.1227  0.2992  0.1551
23171W        W27471   6.478   4.863   3.473  0.1208  0.1651  0.1010
23172W        W27472  13.986   2.577  37.671 -0.1646  0.0387 -0.2065
23173W        W27473   8.856   4.601  10.924  0.2450  0.3859 -0.1171
23174W        W27474  12.094   3.565  19.663  0.1038  0.0356 -0.0486
23175W        W27475  13.889   0.965  17.905  0.1624 -0.2650  0.0153
23176W        W27476   1.368   0.399   2.053 -0.2562  0.0912  0.3735
23177W        W27477  13.253   1.594  20.175 -0.1456  0.1111  0.1122
23178W        W27478  17.039   2.877  41.227 -0.1024  0.1550 -0.0196
23179W        W27479  10.287   4.773  42.402 -0.3860  0.0495 -0.0308
23180W        W27480   0.215   1.197  31.307 -0.1066  0.1592  0.0219
23181W        W27481   7.905   2.796  44.405 -0.2767  0.1920 -0.2626
23182W        W27482  17.852   2.308  31.384  0.0452 -0.0938  0.1701
23183W        W27483  15.442   6.085  34.666  0.1022 -0.0385 -0.2378
23184W        W27484   4.999   3.584  22.586 -0.3166  0.2750  0.0969
23185W        W27485  14.323   6.412   8.333  0.0975  0.0085  0.1831
23186W        W27486  11.054   3.152   5.512  0.3592  0.0841 -0.2062
23187W        W27487   0.052   0.380  36.675 -0.0428  0.1305 -0.2711
23188W        W27488  11.782   5.243  42.942  0.1457  0.0705 -0.1375
23189W        W27489  13.198   1.370  10.810 -0.2997  0.0671  0.0393
23190W        W27490   1.982   5.929   1.618 -0.0608 -0.3543  0.1299
23191W        W27491  13.992   2.514  35.437  0.0556 -0.1909 -0.2521
23192W        W27492   6.211   0.735  32.658  0.0309  0.1212  0.2511
23193W        W27493   6.556   5.149  10.144  0.1154 -0.1783 -0.0206
23194W        W27494   2.025   1.348  11.971 -0.0534  0.2792 -0.2756
23195W        W27495   2.616   1.550  13.984  0.0396  0.1255  0.3761
23196W        W27496  14.622   2.539   3.471 -0.1945 -0.0283 -0.1267
23197W        W27497   9.814   3.423   7.482  0.1575 -0.0181  0.0600
23198W        W27498   0.136   3.334  15.054 -0.0654  0.0473  0.2168
23199W        W27499   1.572   1.244   5.344 -0.2929 -0.0273 -0.1365
23200W        W27500   3.072   0.079   7.561  0.0040 -0.1497  0.0651
23201W        W27501  17.018   3.756  34.557 -0.2653 -0.4284  0.1176
23202W        W27502   7.759   1.542  11.023  0.1436  0.1740  0.0463
23203W        W27503  14.851   3.392  19.036 -0.0205 -0.1709  0.3563
23204W        W27504  11.065   3.217  33.325 -0.0586 -0.2685 -0.2710
23205W        W27505  11.287   2.533  43.221  0.1447  0.0002  0.0284
23206W        W27506  14.489   0.008  12.525  0.0062  0.1380 -0.3120
23207W        W27507  15.426   5.306  21.555  0.2280  0.3152 -0.1547
23208W        W27508  10.103   5.222  42.248 -0.0723 -0.0168  0.1578
23209W        W27509   9.050   3.976   9.313 -0.0193  0.0607 -0.1397
23210W        W27510  10.016   5.394   5.051 -0.0007 -0.0201 -0.0914
23211W        W27511   7.335   1.357  10.675  0.1662 -0.1366  0.1039
23212W        W27512   3.147   2.370  11.383 -0.2814 -0.0209  0.2280
23213W        W27513   3.276   5.165  37.159  0.3179  0.0757  0.1742
23214W        W27514  18.709   5.132  42.194 -0.0458 -0.0178  0.1820
23215W        W27515  13.646   2.254  19.864  0.1157  0.0386  0.1897
23216W        W27516  12.821   0.248  43.498 -0.0323 -0.0558 -0.0812
23217W        W27517  20.331   5.348  35.746 -0.1020  0.0752  0.0536
23218W        W27518  16.928   6.469  41.025  0.3400 -0.0339  0.2309
23219W        W27519   0.684   3.717  42.626 -0.3739  0.3973  0.1500
23220W        W27520   4.942   4.709   5.022 -0.0587 -0.0165  0.0680
23221W        W27521   9.851   5.153  33.527  0.2703 -0.1616  0.2299
23222W        W27522  18.202   5.221   3.000  0.1325 -0.2232  0.1478
23223W        W27523   8.189   1.896  11.291  0.0239 -0.1149  0.2046
23224W        W27524  10.676   5.550   1.660  0.0930 -0.1608 -0.0631
23225W        W27525  12.061   5.601   1.130  0.0975 -0.0494  0.1192
23226W        W27526  18.086   3.315   3.039  0.2614 -0.2855 -0.4110
23227W        W27527  16.735   6.470  34.970  0.1978 -0.0865  0.2934
23228W        W27528  15.417   1.390   1.462  0.0467  0.0309  0.1552
23229W        W27529   1.451   5.487  13.527 -0.1190 -0.1585  0.0424
23230W        W27530  14.919   3.768  21.000  0.1040 -0.0928 -0.2416
23231W        W27531  17.854   3.095   2.679 -0.0117 -0.1498 -0.2782
23232W        W27532  14.960   2.215  29.749 -0.2495  0.2304  0.1966
23233W        W27533  20.317   1.328  10.320  0.0526  0.0355 -0.2628
23234W        W27534   4.210   4.127   7.160 -0.2083 -0.1907 -0.1701
23235W        W27535   8.392   3.423  23.200 -0.2443  0.0984  0.0069
23236W        W27536   5.574   0.412  37.836 -0.1857 -0.0200  0.1227
23237W        W27537   7.154   5.886  15.239  0.0113 -0.1172 -0.1325
23238W        W27538   8.966   4.627  14.748  0.2456  0.0881 -0.1865
23239W        W27539  16.689   6.131  42.557 -0.1183 -0.1454 -0.0375
23240W        W27540  10.639   1.413   1.021 -0.0187 -0.1107  0.0276
23241W        W27541  10.423   2.154  32.887  0.0578 -0.0012 -0.0341
23242W        W27542  20.060   4.673  18.409  0.0635  0.1827 -0.2002
23243W        W27543  12.055   3.116   4.229  0.0321 -0.0992 -0.0933
23244W        W27544   9.903   6.391  17.205  0.3784  0.2726  0.2252
23245W        W27545   3.231   5.886  11.140  0.1664 -0.2924  0.3023
23246W        W27546  15.072   6.196  44.691 -0.0176 -0.0070  0.0532
23247W        W27547  10.019   2.248  35.440  0.0122  0.2183 -0.2738
23248W        W27548  14.478   0.089  44.148  0.0031  0.1649 -0.2091
23249W        W27549  20.548   5.215  19.520  0.2424  0.1567  0.0509
23250W        W27550   6.018   3.059   8.386 -0.0378  0.2439  0.1518
23251W        W27551   6.304   4.299   8.769 -0.4424 -0.1489 -0.0328
23252W        W27552  17.867   3.398  33.739  0.1827 -0.0408  0.2349
23253W        W27553   0.539   1.616  13.807 -0.0441  0.0705  0.1514
23254W        W27554   9.851   1.564  11.879 -0.0523 -0.1017 -0.2828
23255W        W27555   9.555   2.560  12.081  0.4205  0.0806  0.1831
23256W        W27556  18.799   2.459   8.777 -0.1770  0.1287  0.2283
23257W        W27557  11.307   1.515   4.909  0.1410 -0.0025 -0.1949
23258W        W27558  18.709   1.572  13.099 -0.0256 -0.2640 -0.1115
23259W        W27559  20.442   3.814  13.927 -0.1723  0.0045  0.1059
23260W        W27560  16.530   4.039  41.649 -0.2393  0.0294 -0.2430
23261W        W27561   2.498   5.153  29.357 -0.3111  0.1305  0.0914
23262W        W27562   3.744   6.572  12.730 -0.0218 -0.1264  0.1983
23263W        W27563  21.112   5.582   4.376 -0.1513  0.2406 -0.0457
23264W        W27564  16.396   4.090  16.930  0.1132  0.0497 -0.1190
23265W        W27565  19.560   2.553  38.501 -0.0566 -0.1695 -0.1749
23266W        W27566   5.029   4.255  44.974  0.0768  0.3182 -0.0135
23267W        W27567   0.032   1.868  34.561  0.1746  0.3771 -0.0905
23268W        W27568   1.293   3.325  29.854  0.2657  0.0499  0.3490
23269W        W27569   7.371   1.629   3.719 -0.2386 -0.2505 -0.2212
23270W        W27570  13.030   3.548  18.241 -0.0454  0.0925 -0.1918
23271W        W27571  13.008   5.528  28.993  0.1824  0.0070  0.1777
23272W        W27572   6.456   0.691  29.690  0.1047  0.3010  0.0748
23273W        W27573  13.180   4.992  30.607  0.1346  0.2419 -0.2087
23274W        W27574   7.574   4.523   4.434  0.0777 -0.0140 -0.1971
23275W        W27575   5.033   4.719  10.560  0.3575  0.0065  0.2483
23276W        W27576  12.898   2.180  33.810 -0.2316  0.2510  0.1172
23277W        W27577   2.393   6.273  12.178 -0.2137 -0.1472 -0.3620
23278W        W27578   6.260   1.338  42.651 -0.1440 -0.3054 -0.2213
23279W        W27579  20.806   4.519  12.575  0.1439  0.1989  0.0298
23280W        W27580   3.050   4.020   6.818  0.2115 -0.0979 -0.2206
23281W        W27581  16.035   3.149  34.778 -0.2088 -0.0989 -0.0917
23282W        W27582   6.795   5.773  28.191 -0.0232 -0.0107  0.1575
23283W        W27583  13.819   3.336  31.210  0.1536  0.0434 -0.0697
23284W        W27584   8.119   0.128   6.916 -0.0231  0.2167  0.2278
23285W        W27585   7.917   2.663  24.708  0.0428 -0.0419 -0.0059
23286W        W27586   5.376   6.510  20.571 -0.0396 -0.2165  0.0628
23287W        W27587   6.366   0.400  13.043 -0.0209  0.0271  0.0547
23288W        W27588   6.116   3.684  26.934 -0.1622  0.1070 -0.2355
23289W        W27589  18.695   6.369  11.142  0.0237  0.0466 -0.1184
23290W        W27590  10.601   4.139  30.521  0.4925 -0.2954 -0.2908
23291W        W27591   4.378   0.328  39.415  0.0223 -0.0960 -0.0105
23292W        W27592   1.209   2.059  44.675 -0.4008  0.2882  0.0784
23293W        W27593  12.371   5.302  16.064  0.1894 -0.2349 -0.1614
23294W        W27594   0.463   5.620  27.349 -0.2435 -0.1021 -0.0415
23295W        W27595   0.593   4.516   2.519 -0.1141 -0.0370 -0.0482
23296W        W27596  13.651   5.711  38.990 -0.1362 -0.3544  0.0923
23297W        W27597   3.359   2.775   2.297  0.2408  0.0422 -0.1881
23298W        W27598   1.068   6.511  12.534  0.3218  0.2415  0.1639
23299W        W27599   4.268   3.586  38.718  0.0983 -0.2024 -0.0079
23300W        W27600   6.193   1.463  35.513 -0.0769 -0.2623  0.2490
23301W        W27601  11.282   3.444  27.097  0.0417 -0.0703  0.0899
23302W        W27602   9.863   2.928  16.425 -0.2051  0.0486  0.2447
23303W        W27603  17.974   3.184  41.571 -0.2622 -0.2411  0.0856
23304W        W27604   4.483   3.731  41.836  0.3027 -0.0696 -0.3007
23305W        W27605   7.000   5.180  42.782 -0.0982  0.4354 -0.0370
23306W        W27606   3.330   4.847  30.445  0.3631  0.2653 -0.0227
23307W        W27607  12.924   4.359  38.766  0.1127 -0.1121 -0.1382
23308W        W27608  18.392   1.862  14.615 -0.1331 -0.0823 -0.0480
23309W        W27609  19.208   6.075   0.121 -0.0222 -0.1152 -0.2532
23310W        W27610  13.795   2.317  34.704  0.0920 -0.0595 -0.0769
23311W        W27611   4.338   6.602   7.982  0.0945 -0.2526  0.0277
23312W        W27612   6.193   3.849  38.142 -0.1526  0.0274  0.2217
23313W        W27613   6.840   3.656  36.224  0.2888  0.1780 -0.3679
23314W        W27614   0.293   0.777  37.025  0.0079  0.2035 -0.0403
23315W        W27615   8.735   1.611  36.953  0.2101  0.1611  0.0262
23316W        W27616   6.289   0.026   9.315  0.0554 -0.2953  0.2300
23317W        W27617  20.317   3.625   2.985 -0.0945 -0.0505  0.2985
23318W        W27618   3.112   4.664  32.370 -0.0797 -0.0738 -0.0323
23319W        W27619   9.463   4.344   2.259  0.0731 -0.0533 -0.2911
23320W        W27620   7.364   6.054   0.148 -0.1289  0.0069 -0.0486
23321W        W27621  16.624   5.139  38.586  0.1170  0.1799  0.1541
23322W        W27622  16.566   0.796  19.385  0.1283 -0.3380 -0.0455
23323W        W27623   4.088   0.871  12.311  0.1514  0.2199 -0.1809
23324W        W27624   7.212   2.272   6.021  0.2210  0.1350  0.2605
23325W        W27625  18.343   0.055  12.610  0.0876 -0.1142  0.4305
23326W        W27626  16.086   2.169   0.730 -0.1355 -0.0967  0.0946
23327W        W27627   7.972   1.996  13.483  0.3351  0.0020 -0.1886
23328W        W27628  16.876   6.311  43.691  0.0549 -0.0540  0.0543
23329W        W27629   4.536   1.890  26.288 -0.1712  0.0306  0.2391
23330W        W27630   0.885   1.058  11.549  0.0730  0.3124  0.0411
23331W        W27631  19.192   2.702  37.237 -0.1304  0.0896 -0.2557
23332W        W27632  15.418   0.128   4.181 -0.0603 -0.3600 -0.1928
23333W        W27633  11.933   6.007  17.951  0.2991 -0.1109 -0.0375
23334W        W27634  17.946   3.732  38.065  0.1000 -0.3169  0.0558
23335W        W27635   9.083   2.497  28.024  0.0214 -0.1549  0.3909
23336W        W27636   6.012   1.587  28.657  0.1517  0.2843 -0.1952
23337W        W27637  13.272   4.154   1.414 -0.0709  0.1897  0.1368
23338W        W27638   9.419   4.633  27.486 -0.0575  0.3127  0.1247
23339W        W27639   6.662   2.363  26.207  0.0388 -0.0735 -0.4607
23340W        W27640  20.853   5.991  31.375 -0.0269 -0.3800 -0.4016
23341W        W27641  16.279   5.849   4.079 -0.1600  0.2373  0.2676
23342W        W27642  17.882   4.211   2.186 -0.0925  0.3668 -0.0953
23343W        W27643  18.154   2.222  11.679 -0.2056  0.1537  0.0692
23344W        W27644  15.655   4.377  44.304  0.0658 -0.2073 -0.2030
23345W        W27645   5.929   5.684   6.751 -0.2096  0.0268  0.1779
23346W        W27646  16.199   6.466   3.883 -0.0020  0.1189  0.0165
23347W        W27647   8.105   4.750  36.886  0.0446 -0.0043 -0.1714
23348W        W27648  15.843   4.932   6.807 -0.3215  0.1224  0.1456
23349W        W27649   3.826   4.203  44.121  0.1761  0.1590 -0.2136
23350W        W27650   1.696   3.775  27.455 -0.2467 -0.0434 -0.0211
23351W        W27651  14.138   6.347  10.971 -0.0230  0.0450 -0.2043
23352W        W27652   6.584   5.784   6.476  0.0018 -0.1780  0.1279
23353W        W27653   9.998   2.548   6.391  0.0546 -0.2591  0.2422
23354W        W27654  15.420   1.382  16.629 -0.2911  0.1252  0.0103
23355W        W27655   2.874   1.278  33.772 -0.2020 -0.3381 -0.1855
23356W        W27656   0.504   4.914  30.282 -0.1350 -0.2321 -0.0342
23357W        W27657   5.681   2.367   6.366  0.1929  0.2759 -0.3274
23358W        W27658  12.304   2.831  34.690 -0.0055 -0.0327 -0.1139
23359W        W27659   2.945   3.516  41.564  0.0365 -0.2531 -0.0063
23360W        W27660   6.201   2.675   6.895 -0.0331 -0.3092 -0.1448
23361W        W27661   7.788   3.187  32.200  0.1014 -0.4659 -0.0050
23362W        W27662  15.650   1.121  30.774  0.0774  0.1711 -0.0309
23363W        W27663  17.145   6.303  29.548 -0.3080  0.1840 -0.0594
23364W        W27664  12.603   6.008  43.681 -0.0885 -0.0272 -0.0642
23365W        W27665   7.264   5.723   1.479  0.1684  0.1492  0.0010
23366W        W27666  10.036   3.671  37.264  0.0766 -0.0330  0.0849
23367W        W27667  21.109   3.170  14.628 -0.0497 -0.1604 -0.1983
23368W        W27668  15.952   6.527   3.399  0.2628  0.0010  0.0751
23369W        W27669   1.580   3.758  25.413 -0.0692  0.0221  0.4275
23370W        W27670   3.795   4.852  27.052  0.2032  0.0078 -0.1261
23371W        W27671   0.322   1.247  18.517 -0.1548 -0.0088  0.3017
23372W        W27672   8.830   5.850   8.575 -0.1424  0.2843  0.0943
23373W        W27673  14.501   3.746   8.483  0.3119  0.1222 -0.1036
23374W        W27674  18.155   2.391   1.548  0.3694 -0.0722  0.0779
23375W        W27675   9.069   2.001  23.788 -0.0874  0.1931  0.0989
23376W        W27676  12.366   1.727  10.918 -0.0808 -0.0792 -0.1217
23377W        W27677  20.430   3.227  44.712  0.0028 -0.2775  0.0551
23378W        W27678  18.326   2.962  44.627  0.0183 -0.2811  0.1344
23379W        W27679   3.939   4.631   8.921  0.1755 -0.1716 -0.1265
23380W        W27680  14.213   2.406   6.512 -0.2330 -0.1266  0.1227
23381W        W27681   4.654   4.832   4.525 -0.1368 -0.1181 -0.0390
23382W        W27682   8.593   4.287  35.029  0.0046 -0.2220  0.0852
23383W        W27683   3.096   3.804   9.144  0.3171 -0.0267  0.1628
23384W        W27684  18.426   2.950  34.422 -0.1086 -0.3039 -0.1007
23385W        W27685   3.772   5.536  11.844  0.0261 -0.1545  0.1460
23386W        W27686   1.152   3.238   6.993 -0.5008  0.2901  0.2028
23387W        W27687   3.452   5.930  24.786 -0.0766 -0.0160 -0.1738
23388W        W27688  16.516   5.564  11.494  0.0400  0.1526 -0.1914
23389W        W27689   6.986   2.832  34.091  0.1075  0.1758  0.0652
23390W        W27690   7.166   2.399   1.281 -0.3148 -0.1489 -0.0988
23391W        W27691  14.599   5.753  41.028 -0.2562 -0.1012 -0.2110
23392W        W27692  17.265   2.373  14.798 -0.1406 -0.3718 -0.1142
23393W        W27693   2.874   1.884  27.026 -0.0935 -0.0133  0.2161
23394W        W27694  17.271   1.331  20.555  0.1483 -0.3197  0.1457
23395W        W27695   3.984   6.160   7.161  0.3014 -0.0268 -0.0128
23396W        W27696  17.298   0.281   3.730 -0.2807  0.1104  0.2943
23397W        W27697   2.173   0.709  29.891  0.1302  0.1569  0.0814
23398W        W27698   0.239   0.371  42.434 -0.0546 -0.0797  0.0857
23399W        W27699  16.788   5.955   3.570  0.1018 -0.4027  0.1870
23400W        W27700  10.768   1.118   0.485 -0.1101  0.0014  0.2287
23401W        W27701  19.599   4.430  36.261  0.3092  0.0064 -0.0662
23402W        W27702   7.520   0.200  31.708 -0.0756  0.2622  0.3836
23403W        W27703   2.725   0.440  29.278  0.2449  0.0623 -0.0011
23404W        W27704  12.538   1.500  38.089 -0.1322  0.3425  0.0328
23405W        W27705   0.156   4.498  12.402 -0.1983 -0.2764  0.1698
23406W        W27706   7.448   5.722  41.431  0.0362 -0.3580  0.1164
23407W        W27707  18.378   6.572  42.380 -0.1200  0.0173 -0.0618
23408W        W27708  10.487   1.511  26.144 -0.2488 -0.0192 -0.1919
23409W        W27709  13.488   0.027  17.125 -0.1648 -0.1216 -0.0453
23410W        W27710  16.095   2.490  32.059  0.0145 -0.0599  0.1085
23411W        W27711  14.931   1.651  17.793  0.2487 -0.1027  0.0089
23412W        W27712   8.575   2.690  13.825 -0.0410 -0.2970  0.0674
23413W        W27713  15.090   0.804  41.308  0.1153  0.0619 -0.1432
23414W        W27714  12.892   4.654  38.371  0.1540 -0.2293  0.1799
23415W        W27715   1.455   0.195  31.280  0.1165  0.1453 -0.2470
23416W        W27716  19.500   6.401   5.172 -0.0689 -0.2968  0.2960
23417W        W27717   1.822   3.089   3.786  0.0031  0.0820  0.0343
23418W        W27718  17.073   4.255  41.353  0.4037 -0.0936 -0.1717
23419W        W27719   9.792   4.501  11.649  0.3176  0.1662 -0.1035
23420W        W27720   8.326   6.078  23.745  0.1634  0.1139  0.0294
23421W        W27721   5.228   5.745  31.702  0.1651 -0.1673 -0.2364
23422W        W27722  10.269   6.597  44.324  0.1348 -0.0157  0.1263
23423W        W27723  17.771   6.289   9.476 -0.0829  0.0509  0.2725
23424W        W27724  11.600   5.506  43.846 -0.2450 -0.2729  0.2607
23425W        W27725   1.876   3.868  41.718  0.0965  0.1476  0.0875
23426W        W27726  10.101   2.218   1.169  0.1335  0.1037 -0.0016
23427W        W27727   2.235   1.705   0.909 -0.4024 -0.1098 -0.2128
23428W        W27728  16.455   1.072   6.563  0.0291  0.1296 -0.3338
23429W        W27729  13.762   3.902  29.449 -0.3046 -0.1435 -0.1835
23430W        W27730   8.238   3.615  22.755  0.0966 -0.0793 -0.0507
23431W        W27731   0.878   3.483   5.082  0.2353  0.0528  0.5100
23432W        W27732  16.071   4.138  44.707  0.1170  0.0761  0.0328
23433W        W27733  16.689   1.890  23.236 -0.0095  0.0277 -0.0614
23434W        W27734   1.767   5.893  31.112 -0.0761  0.0654 -0.1921
23435W        W27735   7.187   1.718  35.807  0.2208  0.2024  0.0782
23436W        W27736  14.745   1.576  11.221  0.2795  0.0826  0.3432
23437W        W27737  20.188   3.999  16.996 -0.0233  0.0244  0.0026
23438W        W27738   3.311   4.846  41.744  0.4031  0.2478 -0.2582
23439W        W27739   2.913   6.591  13.033  0.3135 -0.0884  0.1372
23440W        W27740  17.828   4.283  17.198  0.3218 -0.1161 -0.2563
23441W        W27741  18.624   1.338  39.176  0.0120  0.2245 -0.1400
23442W        W27742   9.721   1.268  34.620 -0.0019 -0.0894  0.2075
23443W        W27743  15.401   2.816  18.999 -0.1573 -0.0610 -0.1871
23444W        W27744  18.397   5.033  32.658  0.0051  0.1689 -0.3497
23445W        W27745  20.098   6.151  32.102 -0.2173  0.2773 -0.4797
23446W        W27746   8.441   6.149  11.436 -0.1473 -0.4227 -0.0817
23447W        W27747   0.100   5.255  37.547 -0.3381 -0.1895  0.2287
23448W        W27748  16.993   0.389  33.048  0.2795 -0.4598  0.2597
23449W        W27749  13.974   1.341  43.395  0.3199 -0.0411 -0.1417
23450W        W27750   0.026   6.293   5.362 -0.1083  0.1900 -0.2751
23451W        W27751   9.026   2.884  42.190  0.2970 -0.2036  0.4353
23452W        W27752  14.878   2.513   5.579 -0.1881  0.0460  0.1263
23453W        W27753  15.869   1.985  13.637  0.0559 -0.0557 -0.1703
23454W        W27754   5.779   2.373   5.307 -0.0103  0.0841 -0.5322
23455W        W27755  15.742   1.032  20.399  0.1241  0.1321  0.0307
23456W        W27756   3.336   5.256  44.971 -0.0165 -0.2526  0.1541
23457W        W27757  17.037   0.143  29.709 -0.0285 -0.0170  0.0107
23458W        W27758   8.579   2.726   6.020  0.2050  0.1132 -0.1909
23459W        W27759   1.531   2.086  28.059 -0.0169  0.0803  0.1009
23460W        W27760   1.026   5.149  32.013 -0.0181 -0.2512  0.0111
23461W        W27761   2.353   0.217  12.318  0.1701  0.0605  0.0948
23462W        W27762  13.676   5.965  34.199 -0.1656  0.2114  0.1599
23463W        W27763   3.119   0.689  14.230  0.1843 -0.2030 -0.3143
23464W        W27764   3.492   5.709  29.761  0.0403 -0.1498  0.1208
23465W        W27765   1.007   6.150  43.407  0.0443  0.0200 -0.1748
23466W        W27766  20.644   1.581  13.907  0.2389  0.1687  0.0523
23467W        W27767  19.889   5.011  16.974 -0.2815 -0.3000 -0.0907
23468W        W27768  12.857   3.202  12.403 -0.0348  0.0562  0.1092
23469W        W27769   7.835   4.301  14.188  0.0562 -0.0872 -0.1486
23470W        W27770   9.257   2.171  34.424  0.2933 -0.1571 -0.1702
23471W        W27771  20.062   3.319  43.836  0.2629  0.1880 -0.2984
23472W        W27772  11.769   3.886   9.451  0.1167 -0.1423  0.0693
23473W        W27773  16.807   2.197   5.015 -0.1575 -0.0902  0.3540
23474W        W27774  19.156   3.311  13.106 -0.0521  0.4037  0.0857
23475W        W27775   2.135   0.739  38.583  0.2353  0.2852  0.1328
23476W        W27776  14.138   2.154  19.814 -0.0178  0.1390  0.3040
23477W        W27777   4.205   3.118  12.052  0.1999  0.3554 -0.0862
23478W        W27778  11.103   5.614  39.480 -0.0994  0.0362 -0.3335
23479W        W27779  10.885   2.319   6.783  0.0141  0.1343 -0.0046
23480W        W27780  11.958   4.254  17.434 -0.0075  0.2183  0.0788
23481W        W27781  17.162   5.085  24.096 -0.2992 -0.0907  0.1102
23482W        W27782  14.323   2.755  28.867  0.2494  0.0979 -0.1828
23483W        W27783   4.877   4.466  22.361 -0.1848 -0.0541 -0.0156
23484W        W27784  18.742   5.117   0.527 -0.2447  0.1156  0.0399
23485W        W27785   0.661   6.252  10.135 -0.0521  0.1550 -0.0231
23486W        W27786  14.381   5.376  40.721 -0.0089 -0.0237  0.1315
23487W        W27787   5.923   5.998  15.558 -0.0896 -0.1360 -0.1229
23488W        W27788  20.449   5.492  14.136 -0.1310  0.1584  0.1724
23489W        W27789  13.201   5.378  19.439 -0.1703  0.0342 -0.0961
23490W        W27790  14.373   3.859  14.783  0.0788 -0.1405  0.0909
23491W        W27791  19.856   1.317  19.865 -0.0851 -0.0168 -0.0091
23492W        W27792   1.755   2.778  31.173  0.0194 -0.0792 -0.1437
23493W        W27793  17.509   3.632   9.016  0.1818  0.0823  0.0856
23494W        W27794  12.800   6.251  41.276 -0.1350  0.0192  0.0397
23495W        W27795   4.492   5.589  16.375 -0.0491  0.2682 -0.0960
23496W        W27796   7.279   4.473   0.552  0.2173 -0.1541 -0.0660
23497W        W27797   3.726   3.388  12.252  0.1721 -0.4674 -0.2215
23498W        W27798   6.119   1.234   4.912 -0.3170 -0.0942  0.1341
23499W        W27799  10.954   5.685  39.982 -0.1995 -0.0901 -0.2029
23500W        W27800   8.873   4.564  37.479 -0.3346 -0.0586 -0.3055
23501W        W27801  18.433   4.580  37.919 -0.1592  0.1092 -0.1862
23502W        W27802  16.278   3.874  30.523  0.1859  0.0493  0.0889
23503W        W27803  20.728   3.492  43.259  0.2623  0.1758 -0.2389
23504W        W27804   7.670   4.238  24.508 -0.0065 -0.0567 -0.3561
23505W        W27805  17.632   1.314   2.780 -0.2334  0.1117 -0.3225
23506W        W27806   7.665   2.751  35.589  0.1261 -0.0099  0.1629
23507W        W27807  19.227   1.279  18.207  0.4410 -0.0209  0.0126
23508W        W27808  19.065   4.117  41.450 -0.2083 -0.0579  0.1131
23509W        W27809  21.085   0.996  40.195  0.0366 -0.1256 -0.0701
23510W        W27810   6.844   0.528  28.765 -0.0176 -0.1335  0.2513
23511W        W27811  12.161   3.547  14.973 -0.0798  0.0896  0.2427
23512W        W27812  11.565   3.626  43.326  0.1067  0.4473  0.0572
23513W        W27813   2.045   1.563  44.387  0.0121  0.1384 -0.0307
23514W        W27814   4.703   6.206   3.624 -0.0485 -0.3689 -0.0653
23515W        W27815   9.231   3.801  32.786  0.4661  0.0616  0.1479
23516W        W27816  17.514   5.292  12.978 -0.0820 -0.0778 -0.0195
23517W        W27817  18.181   2.185   9.051  0.1306 -0.2056 -0.2845
23518W        W27818  11.327   1.155  11.455  0.1611 -0.0840  0.1742
23519W        W27819  10.453   3.386  32.328 -0.3034  0.0001  0.2914
23520W        W27820   2.653   1.053   2.173  0.1371 -0.1215 -0.0921
23521W        W27821   7.986   0.123  36.767  0.0481 -0.1502 -0.0499
23522W        W27822  17.677   3.430  37.322  0.1871  0.1483  0.1503
23523W        W27823  12.989   4.178  16.913  0.1748  0.0993  0.2242
23524W        W27824   7.061   6.414  28.813 -0.1106  0.1862 -0.0616
23525W        W27825  11.341   5.557   8.900  0.0670 -0.2633 -0.0835
23526W        W27826  18.216   3.188  39.979  0.3532 -0.2635 -0.2273
23527W        W27827   5.000   0.782  27.983 -0.1644  0.1204  0.1001
23528W        W27828   7.994   6.361   7.749  0.3515 -0.3019 -0.2184
23529W        W27829   1.319   6.320  15.315  0.0330  0.2777 -0.1235
23530W        W27830   8.122   3.823  31.151  0.0917 -0.0723 -0.0526
23531W        W27831   6.996   1.452   4.791 -0.0287 -0.0325 -0.2268
23532W        W27832   6.548   5.013  42.400 -0.0281  0.1422  0.0424
23533W        W27833  14.105   1.665   2.768  0.0399  0.2942  0.1052
23534W        W27834  16.274   0.890   2.846  0.2757  0.1765  0.2379
23535W        W27835  11.167   2.962  42.961  0.0212  0.0843  0.2706
23536W        W27836  12.529   5.571  42.321  0.0294  0.0493 -0.0266
23537W        W27837   2.925   0.050  41.330  0.0577 -0.0170  0.0675
23538W        W27838  13.380   5.510   8.248 -0.1195  0.2955 -0.3054
23539W        W27839   9.168   4.959  32.616  0.1637 -0.0621  0.3670
23540W        W27840  16.306   2.209  37.167  0.1331 -0.2709 -0.1802
23541W        W27841  15.109   1.387   5.762  0.0532  0.0846 -0.0581
23542W        W27842  17.224   6.211   1.607 -0.0099  0.0489 -0.0528
23543W        W27843  11.377   2.132  30.715  0.0136 -0.2541 -0.0801
23544W        W27844  15.571   2.202   5.873  0.0313 -0.1151 -0.1267
23545W        W27845   7.907   3.684   5.738 -0.1460 -0.1765 -0.1204
23546W        W27846   4.736   1.562   8.419 -0.0089  0.0315 -0.0487
23547W        W27847  16.423   5.305  44.636 -0.2265 -0.0391 -0.3618
23548W        W27848  13.038   1.349  15.490  0.0434  0.2504 -0.4348
23549W        W27849   0.499   4.551  44.588 -0.0455  0.1546 -0.3305
23550W        W27850   1.673   2.102  30.644  0.0460  0.2550  0.1294
23551W        W27851   2.266   3.780  43.613 -0.0827 -0.3146 -0.0859
23552W        W27852   4.537   3.980  13.268 -0.1348 -0.2142  0.0287
23553W        W27853   1.345   4.319  44.868 -0.1301 -0.1933  0.1226
23554W        W27854   0.691   6.320   0.438 -0.0254 -0.0162 -0.0513
23555W        W27855   0.125   5.913  11.991  0.1849  0.2125 -0.2657
23556W        W27856  14.660   1.172  33.358 -0.1078 -0.1174 -0.2427
23557W        W27857  20.082   1.361   1.620  0.2653  0.0253  0.1741
23558W        W27858   9.205   1.542  12.742 -0.1138 -0.4080 -0.1158
23559W        W27859  18.769   3.914   9.011 -0.0463  0.3026 -0.0203
23560W        W27860   4.789   5.184  31.600  0.4335  0.3458 -0.2376
23561W        W27861  11.767   3.222   1.851  0.0630 -0.0424 -0.0301
23562W        W27862  20.224   3.815  39.085 -0.1389  0.4057  0.2907
23563W        W27863  18.525   6.593   0.494  0.2679  0.1657  0.2433
23564W        W27864  14.206   5.882  18.403 -0.2042 -0.2047  0.0637
23565W        W27865  13.338   2.535  39.202  0.0598  0.1692  0.2746
23566W        W27866  17.327   4.866  18.416  0.1021  0.1403 -0.0314
23567W        W27867  10.103   3.685  34.413  0.2850  0.2257 -0.1380
23568W        W27868  19.052   1.090  40.828  0.1464 -0.0327 -0.2735
23569W        W27869  13.546   1.375  15.397 -0.2182  0.6467 -0.0047
23570W        W27870   7.074   4.921  35.894 -0.1076 -0.0021 -0.1137
23571W        W27871  13.980   5.409  45.027  0.0975 -0.1798  0.0639
23572W        W27872   4.372   2.714  10.365 -0.0907 -0.1860  0.1427
23573W        W27873   5.334   0.883  24.517 -0.0751 -0.0447 -0.0043
23574W        W27874  15.965   5.178  21.553  0.0251  0.2119 -0.0956
23575W        W27875  10.208   0.848  10.258  0.0878  0.2466  0.0615
23576W        W27876  15.787   3.429  35.187 -0.2073  0.0522  0.2038
23577W        W27877   4.443   5.958  14.513 -0.1068 -0.3191  0.1479
23578W        W27878   8.117   0.856  44.793 -0.0691  0.4186  0.0097
23579W        W27879   5.755   1.317  32.282 -0.0284  0.0156 -0.1528
23580W        W27880  15.907   5.650  40.797  0.0220  0.2862  0.0285
23581W        W27881  11.729   1.289  17.402  0.0874  0.0579 -0.1468
23582W        W27882  15.743   0.147  18.610  0.0078 -0.2803  0.3864
23583W        W27883   0.630   1.954  43.926  0.3262  0.2637 -0.1562
23584W        W27884  12.491   4.620  20.064  0.4484 -0.2253 -0.1236
23585W        W27885  16.353   6.592   1.199 -0.0713 -0.1624 -0.0263
23586W        W27886   8.371   2.463  26.850  0.4059 -0.0267  0.1300
23587W        W27887  10.878   0.744  42.037  0.0205 -0.0455 -0.1675
23588W        W27888   6.434   4.918  34.692 -0.1174 -0.0220 -0.0530
23589W        W27889  10.197   1.678  26.737 -0.0680  0.0370  0.1514
23590W        W27890  16.830   2.973   2.440  0.1469 -0.2756  0.1046
23591W        W27891  13.082   0.621  10.016  0.3736 -0.1173  0.2987
23592W        W27892   2.857   5.448   4.375  0.0918  0.0095  0.0366
23593W        W27893  19.543   6.164  44.903 -0.4239 -0.1381  0.1837
23594W        W27894  15.961   1.360  13.744 -0.1751  0.1036  0.0157
23595W        W27895  11.177   0.164  32.841 -0.0070 -0.1109  0.0512
23596W        W27896  11.818   1.104  34.389  0.1771  0.0209  0.1120
23597W        W27897   7.935   1.150  41.603  0.1150  0.2036 -0.3352
23598W        W27898   5.366   2.715  44.693 -0.0232  0.1394  0.2038
23599W        W27899  20.165   3.985  30.431 -0.0384  0.2511 -0.0736
23600W        W27900   3.782   2.774  11.717 -0.0848  0.0612  0.0481
23601W        W27901  17.547   0.583  40.791 -0.0351  0.2113 -0.1158
23602W        W27902   3.811   5.532  23.755  0.0997  0.0744 -0.2115
23603W        W27903   4.244   1.023  44.507  0.1315 -0.2545  0.0584
23604W        W27904  19.371   2.808  34.443  0.1243 -0.0085  0.3336
23605W        W27905  10.035   3.757  10.595  0.0465  0.1129  0.2321
23606W        W27906  18.378   2.895  41.805  0.0759 -0.0171  0.0596
23607W        W27907  21.075   1.278  41.089 -0.3702 -0.3668  0.3082
23608W        W27908  21.141   1.318   7.624 -0.0620 -0.0127 -0.0607
23609W        W27909   1.010   4.303   8.642  0.0494 -0.0618  0.1589
23610W        W27910   2.996   4.746  23.922  0.5126 -0.1039  0.0921
23611W        W27911   2.918   3.950   1.158 -0.0205 -0.1788  0.1085
23612W        W27912  12.890   2.193  31.228  0.1068  0.1840  0.0267
23613W        W27913   5.440   4.045  27.116 -0.2848 -0.0383  0.1583
23614W        W27914  14.259   1.936  22.144  0.0464  0.0533  0.1750
23615W        W27915   5.161   1.619  40.065 -0.3786 -0.1105  0.0698
23616W        W27916  14.889   3.019  10.672  0.2656 -0.1920 -0.2010
23617W        W27917  10.307   3.842   3.117 -0.0272 -0.0024  0.1201
23618W        W27918   4.976   2.180  23.092 -0.2479  0.1885 -0.0960
23619W        W27919  18.756   2.742  39.287  0.0373  0.0106 -0.1749
23620W        W27920   2.208   0.038  26.223  0.0233 -0.0301  0.2258
23621W        W27921  19.940   0.825  40.405  0.0512 -0.3196  0.0643
23622W        W27922   2.059   5.649   7.174  0.0690 -0.3639 -0.2586
23623W        W27923   6.158   1.562  34.569 -0.0009 -0.2195 -0.0650
23624W        W27924  19.181   3.730  33.299  0.0794 -0.1517 -0.1503
23625W        W27925   7.545   0.593  17.216  0.0712  0.0388  0.1308
23626W        W27926  20.791   3.509  44.978  0.3382 -0.0391  0.0676
23627W        W27927   4.511   5.537   3.373 -0.1106  0.0495 -0.1969
23628W        W27928   0.746   4.928   8.496 -0.2331  0.2920  0.2106
23629W        W27929   2.293   5.538  28.863 -0.1167  0.0313 -0.1791
23630W        W27930  20.752   1.856  32.372 -0.1367 -0.0037  0.3351
23631W        W27931   2.052   4.895   7.581  0.0367  0.0982  0.2260
23632W        W27932   5.543   4.601  35.060 -0.2059  0.0881  0.3804
23633W        W27933   8.783   3.934   1.482  0.3348 -0.0681 -0.1146
23634W        W27934   3.731   5.626  12.561 -0.1999 -0.1168  0.1512
23635W        W27935  10.935   5.480  36.251  0.1322 -0.1650  0.0320
23636W        W27936  19.549   1.158  31.234 -0.3136  0.1603  0.1466
23637W        W27937  20.878   2.156   2.080  0.1884 -0.0931  0.1405
23638W        W27938  17.674   5.291   5.755 -0.2020  0.1285 -0.2805
23639W        W27939   2.592   6.319  31.309 -0.0600 -0.1151  0.1788
23640W        W27940  11.463   2.402  11.132  0.0324 -0.0640 -0.0220
23641W        W27941   4.366   0.839  14.607  0.2711  0.0257 -0.0770
23642W        W27942   7.953   5.418  31.078  0.0938 -0.0792 -0.1455
23643W        W27943  16.496   4.878  30.105  0.1833 -0.0818 -0.1406
23644W        W27944   8.531   1.974  29.250 -0.0018 -0.1538  0.0406
23645W        W27945  15.023   2.775  35.559 -0.1747  0.1519  0.1090
23646W        W27946   2.494   4.768  14.094  0.2378 -0.0655 -0.2982
23647W        W27947  18.442   1.466  32.315 -0.0353  0.1254 -0.1653
23648W        W27948  18.464   5.265   7.353  0.0444 -0.0937 -0.1374
23649W        W27949  15.734   1.220  14.148  0.0738  0.3430  0.2367
23650W        W27950   4.230   2.802  39.289  0.0822  0.0764  0.1575
23651W        W27951   4.250   5.245  26.995 -0.1014 -0.1189 -0.0721
23652W        W27952  12.548   4.279  35.591 -0.1063  0.0136  0.1453
23653W        W27953  15.486   2.747  36.285  0.1842  0.0302  0.0979
23654W        W27954   3.470   6.285  11.399  0.2856 -0.1286 -0.1057
23655W        W27955   7.618   3.795   8.405  0.2262  0.1377  0.1624
23656W        W27956   5.838   2.725  31.376 -0.1118 -0.2038  0.2501
23657W        W27957  16.064   1.748  32.776 -0.2225  0.2494  0.0798
23658W        W27958  20.881   2.543  33.233  0.0497  0.0078 -0.0564
23659W        W27959   0.254   3.629   3.209  0.3027 -0.0378 -0.0235
23660W        W27960  16.913   1.462  32.616 -0.1011  0.0723 -0.0244
23661W        W27961   7.911   3.036  38.829 -0.0961  0.0452 -0.2482
23662W        W27962  20.263   1.491  35.447 -0.1203 -0.0613  0.2274
23663W        W27963  18.160   3.642  42.418 -0.0774  0.0268 -0.0250
23664W        W27964  19.462   1.137  35.002 -0.0125  0.1126 -0.0118
23665W        W27965   6.047   2.216   3.217  0.2087 -0.2250  0.1684
23666W        W27966   4.256   1.950  31.280 -0.0412 -0.3776 -0.1449
23667W        W27967  18.907   1.535  19.985 -0.1745 -0.2022  0.3278
23668W        W27968   7.187   1.684  39.455  0.0163  0.1035 -0.2436
23669W        W27969   0.885   4.628  37.749  0.0049 -0.0233 -0.1394
23670W        W27970   4.078   6.362  26.869  0.0153  0.0987 -0.1260
23671W        W27971   8.561   1.270  38.777  0.2017  0.2047  0.3198
23672W        W27972  11.717   5.532   2.300 -0.1894 -0.1018 -0.0151
23673W        W27973  19.714   3.651  33.177  0.0453  0.1864  0.0883
23674W        W27974   5.119   4.556  33.172 -0.1311 -0.0464 -0.0017
23675W        W27975   0.175   6.391  32.145 -0.1055 -0.2696 -0.0420
23676W        W27976  20.437   4.696  15.767  0.2882  0.0475  0.0519
23677W        W27977  20.538   0.131  12.500 -0.2740  0.0554  0.0008
23678W        W27978  12.813   4.158  42.661  0.0246 -0.1772 -0.0942
23679W        W27979  19.048   2.176  16.514 -0.0907  0.3605  0.0135
23680W        W27980  12.849   6.090  42.086 -0.3230 -0.0301  0.0602
23681W        W27981  13.951   1.030  19.084 -0.0924  0.1100 -0.0414
23682W        W27982  18.995   4.175  22.081  0.3751 -0.1122  0.2520
23683W        W27983   7.630   2.707   7.134  0.1744  0.0715 -0.1909
23684W        W27984   3.503   0.279  41.362  0.3278  0.1753 -0.4975
23685W        W27985   8.126   1.685  43.004 -0.1260  0.0923 -0.1167
23686W        W27986  18.691   5.858  10.354  0.0798  0.0177  0.0811
23687W        W27987  20.060   3.560   9.811 -0.2651  0.0954 -0.0587
23688W        W27988  17.680   3.522  18.569  0.2633  0.1633  0.0923
23689W        W27989  13.734   6.085  28.659 -0.2453 -0.1551  0.1608
23690W        W27990   9.618   3.551  13.997  0.0805 -0.1482  0.1984
23691W        W27991  11.623   1.453   2.831  0.1508  0.2462  0.3614
23692W        W27992   2.365   3.607  32.582 -0.3213  0.1936  0.0487
23693W        W27993   2.286   5.008  42.742  0.0024  0.2190  0.1573
23694W        W27994   8.770   6.508  13.238  0.1396  0.1343  0.0214
23695W        W27995  13.871   4.876  13.860 -0.0998 -0.1594 -0.3129
23696W        W27996  16.459   1.068  25.832 -0.2415  0.3068  0.1317
23697W        W27997  13.635   1.240  29.716  0.1730  0.0966 -0.0552
23698W        W27998   9.776   1.463  24.840  0.0773  0.3552 -0.1094
23699W        W27999  11.144   2.918  34.166 -0.2229 -0.1309 -0.0723
23700W        W28000  13.696   2.505  35.831 -0.0747 -0.0674 -0.1780
23701W        W28001   9.926   4.997  26.090 -0.0644 -0.2085  0.1283
23702W        W28002  18.505   0.190  16.951  0.0961  0.0330  0.0464
23703W        W28003  16.761   3.022  33.534  0.2912 -0.0114 -0.2131
23704W        W28004   4.486   2.319  22.867 -0.0035 -0.1616 -0.2057
23705W        W28005   5.730   4.180  11.732 -0.1315 -0.1568 -0.0228
23706W        W28006   5.402   3.518  35.326 -0.1027 -0.0989  0.3610
23707W        W28007   6.874   1.354  10.950  0.1515  0.0290 -0.0818
23708W        W28008   4.675   5.928  12.734  0.0973 -0.1268 -0.1562
23709W        W28009   6.947   1.433  39.921  0.0765 -0.0433  0.3786
23710W        W28010  12.815   3.444   6.312  0.1197  0.1046 -0.0118
23711W        W28011  14.073   6.170  35.044  0.1499  0.0700 -0.3290
23712W        W28012  11.083   5.768  15.724  0.0891 -0.1496  0.2797
23713W        W28013   7.948   3.700  11.046 -0.0263  0.2505 -0.0981
23714W        W28014  13.566   6.078   9.405  0.3065 -0.0245 -0.1188
23715W        W28015  17.309   4.333   0.680 -0.3060 -0.0136 -0.0855
23716W        W28016  14.254   1.861   9.231  0.0436  0.1681 -0.1009
23717W        W28017  20.043   1.888   8.798  0.3636  0.2963 -0.1944
23718W        W28018   4.859   1.296   5.233 -0.0764  0.0312 -0.2113
23719W        W28019  14.729   4.559  14.278  0.0886 -0.0328  0.0238
23720W        W28020  11.374   4.732  34.012 -0.0566 -0.2216  0.1976
23721W        W28021  17.286   6.004  15.453  0.2706 -0.0139  0.0539
23722W        W28022   2.890   5.099  36.231  0.2863  0.1362  0.2493
23723W        W28023  19.891   2.950  34.985 -0.0846  0.0054 -0.5812
23724W        W28024   4.169   5.878  30.284 -0.3698 -0.0615  0.2275
23725W        W28025  14.966   3.946   4.344  0.3611 -0.0449  0.1818
23726W        W28026   5.484   4.905  29.078 -0.1328 -0.2842  0.4765
23727W        W28027  15.492   5.347  29.986  0.1343  0.2855  0.2322
23728W        W28028   4.459   1.423  32.678  0.0840  0.0225 -0.1334
23729W        W28029   5.958   6.366  13.828  0.1358  0.0512 -0.2380
23730W        W28030   5.848   1.922  22.999 -0.0530  0.0426 -0.1331
23731W        W28031  13.629   2.074   8.242 -0.1761  0.1396 -0.3024
23732W        W28032   5.079   1.718  26.169 -0.0272 -0.1464  0.2528
23733W        W28033  15.583   0.770   5.143  0.1907 -0.1479 -0.2103
23734W        W28034   2.838   2.338  35.330  0.0116 -0.0416  0.2051
23735W        W28035   2.913   1.823   9.594 -0.2429  0.2125  0.0068
23736W        W28036  11.994   6.530  10.302 -0.0108 -0.0456  0.2790
23737W        W28037  13.647   0.425  11.423 -0.0055  0.1348  0.2860
23738W        W28038   1.604   3.788  26.444 -0.0712 -0.0681 -0.0623
23739W        W28039   7.059   3.381   3.236 -0.0489  0.1313 -0.0968
23740W        W28040  20.284   4.806  11.345  0.1072 -0.0757 -0.0015
23741W        W28041   9.566   4.903  11.908 -0.1534 -0.0430  0.1820
23742W        W28042   8.101   2.617  14.612 -0.1088 -0.1931  0.2309
23743W        W28043  21.066   0.548  38.863  0.1116  0.4032 -0.0846
23744W        W28044  11.238   2.137  18.045  0.1957 -0.3178  0.0844
23745W        W28045   8.823   1.256  36.605 -0.0313  0.3158 -0.2187
23746W        W28046   4.008   3.619   9.077  0.0306  0.2191  0.0087
23747W        W28047  14.489   1.289   7.281  0.1474 -0.1384 -0.0141
23748W        W28048  21.054   3.639  32.127  0.2760 -0.0363 -0.0142
23749W        W28049  18.791   1.363  37.392 -0.1629 -0.5082 -0.0653
23750W        W28050  11.885   5.262   5.675  0.3476  0.4338 -0.4111
23751W        W28051   3.049   0.772  43.493 -0.2040 -0.1957  0.0449
23752W        W28052   8.721   4.838   2.392 -0.2702  0.2800 -0.0723
23753W        W28053  15.349   6.231  36.143  0.1300 -0.0520  0.2677
23754W        W28054   8.237   3.518   2.283 -0.0754  0.3535  0.1869
23755W        W28055   9.957   4.922   0.663 -0.1448 -0.0264 -0.3271
23756W        W28056  18.035   4.543  35.250 -0.2299  0.1795 -0.0179
23757W        W28057  12.681   6.046  43.073 -0.1654  0.1816  0.0242
23758W        W28058  16.626   0.275  13.402 -0.1172 -0.1886  0.0246
23759W        W28059   9.894   1.114   6.412  0.2451 -0.2133 -0.3221
23760W        W28060  17.014   0.792   9.771 -0.0624  0.1402 -0.2292
23761W        W28061  13.446   1.363  33.514 -0.1768 -0.0338  0.2113
23762W        W28062   3.091   2.957  45.114 -0.2320 -0.2294  0.0762
23763W        W28063  19.867   1.283  30.189 -0.0253 -0.1199  0.0338
23764W        W28064  11.571   0.648   9.176 -0.2438  0.0539  0.1378
23765W        W28065   6.071   6.308   4.496 -0.1543 -0.2118 -0.1288
23766W        W28066   0.698   5.224  34.735 -0.0637  0.2584 -0.0062
23767W        W28067   5.603   5.025  37.792  0.0266 -0.3003 -0.1427
23768W        W28068   1.618   5.211  40.871 -0.0834 -0.0992  0.0974
23769W        W28069  13.408   1.074  19.209 -0.1646  0.0932 -0.1334
23770W        W28070   8.381   1.215  42.439  0.1965 -0.5439 -0.1221
23771W        W28071   4.935   6.292  35.221  0.1032 -0.0412 -0.1803
23772W        W28072  14.549   4.712   5.664 -0.1995  0.0213  0.1335
23773W        W28073  12.988   1.859   6.714 -0.4013  0.5421 -0.0960
23774W        W28074  13.216   2.088  30.430  0.1207  0.1507  0.0901
23775W        W28075  15.333   2.513  35.173  0.1212 -0.1148  0.2977
23776W        W28076  10.460   1.759  33.218 -0.0257 -0.0641 -0.1276
23777W        W28077  17.452   2.537  35.053 -0.1016 -0.0490  0.2636
23778W        W28078   4.742   1.066  33.033  0.0347  0.0757 -0.0494
23779W        W28079  14.111   5.353  13.324 -0.0503 -0.2699 -0.0037
23780W        W28080  15.995   1.515  44.392  0.0410  0.0719  0.1792
23781W        W28081   2.862   2.355   0.249 -0.0624 -0.2393  0.1105
23782W        W28082  11.580   1.004  32.850  0.1059  0.1742  0.0079
23783W        W28083  10.924   4.833   8.796 -0.1874 -0.0864  0.1937
23784W        W28084   9.064   4.487   7.128 -0.0795  0.2404  0.2097
23785W        W28085  14.917   6.424   3.328 -0.2286  0.0545 -0.1473
23786W        W28086  13.550   5.823  14.105  0.4048  0.0593 -0.3050
23787W        W28087  16.205   0.479   4.666 -0.0943 -0.0923  0.1318
23788W        W28088   3.949   1.826   9.289 -0.3852  0.1296  0.1038
23789W        W28089  13.496   3.934  28.443 -0.0303  0.0126 -0.0547
23790W        W28090  11.220   6.458  42.069 -0.0685  0.0799 -0.0629
23791W        W28091   8.834   5.136   0.112  0.2721  0.3798 -0.0586
23792W        W28092   1.591   1.680  12.023  0.1205 -0.0215 -0.0355
23793W        W28093   2.431   5.223  26.084  0.1789 -0.0478 -0.1664
23794W        W28094  17.066   2.011  23.499 -0.0072  0.1975  0.3301
23795W        W28095   1.034   6.527  43.823  0.0135  0.2214 -0.3026
23796W        W28096  15.381   4.724  34.112  0.2709  0.1680  0.1763
23797W        W28097   8.883   0.019  38.938  0.2053 -0.4746  0.2675
23798W        W28098  20.053   6.076  13.132  0.1535 -0.0473 -0.1180
23799W        W28099   9.404   5.517  43.893 -0.1221 -0.1103  0.2962
23800W        W28100  11.018   2.002  10.740 -0.3206 -0.1766 -0.3031
23801W        W28101  15.803   1.669  15.154 -0.0738  0.0251  0.2011
23802W        W28102  18.696   0.584  36.034  0.0935  0.1959  0.0831
23803W        W28103  20.701   1.919   2.522 -0.0129 -0.0173  0.3020
23804W        W28104   4.921   5.152  29.810  0.0964 -0.0103 -0.0095
23805W        W28105  11.055   5.985  29.822 -0.1641  0.1835  0.3619
23806W        W28106   5.975   6.220   2.334  0.4378 -0.1435 -0.0798
23807W        W28107  15.729   2.728  34.872 -0.2603  0.3659 -0.0754
23808W        W28108   6.365   0.744   5.061  0.2497 -0.0571  0.0349
23809W        W28109  15.481   2.340  43.936 -0.0691  0.1870  0.0835
23810W        W28110   3.266   6.197   0.179 -0.1314 -0.0596 -0.1653
23811W        W28111  14.960   5.071  40.949  0.0601  0.0745 -0.0823
23812W        W28112   2.136   0.325  41.136 -0.0005  0.3791  0.0693
23813W        W28113   7.757   0.384  29.867 -0.1422  0.1534 -0.0464
23814W        W28114   9.557   2.631   8.575  0.0671 -0.1539 -0.1081
23815W        W28115  11.135   3.771  42.878  0.1390  0.0318 -0.0419
23816W        W28116   0.289   0.009   9.297 -0.2327 -0.0008 -0.1613
23817W        W28117   4.341   3.237  16.063 -0.3982 -0.1088 -0.0590
23818W        W28118  19.636   4.267  39.531  0.0598  0.0449 -0.0405
23819W        W28119  13.423   5.185  19.001 -0.0402 -0.1074  0.0929
23820W        W28120  16.057   3.997   8.005  0.0468 -0.1590  0.1599
23821W        W28121   7.620   3.652   0.567 -0.1630  0.0361  0.1094
23822W        W28122  19.035   3.701  42.007 -0.1215  0.0825  0.1063
23823W        W28123   2.980   3.840  13.448 -0.2514 -0.0041  0.0667
23824W        W28124  19.052   4.557  34.405  0.4023 -0.0347 -0.2510
23825W        W28125   4.550   6.414  40.319 -0.2807  0.2226 -0.5595
23826W        W28126  10.053   4.122   3.518  0.3311  0.0090 -0.0449
23827ION     NA28127   0.011   6.424   9.061  0.4809 -0.0876 -0.1239
23828ION     NA28128  13.314   4.172  39.542 -0.0546 -0.2008 -0.2204
23829ION     NA28129  16.608   4.651  10.507  0.4621  0.3763 -0.0136
23830ION     NA28130   3.974   6.211  21.638 -0.3693 -0.0619 -0.0948
23831ION     NA28131   4.935   6.201  44.948 -0.1766  0.4733 -0.0627
23832ION     NA28132   2.178   2.005  35.885  0.1198  0.7729 -0.1516
23833ION     NA28133  15.162   4.196  15.022 -0.0707  0.1356 -0.2170
23834ION     NA28134  19.147   3.144  29.172 -0.2656 -0.0094 -0.7090
23835ION     NA28135   7.398   6.599  14.121 -0.1959 -0.2426 -0.0810
23836ION     NA28136  16.809   2.798  35.350  0.2093  0.0661 -0.0479
23837ION     NA28137  13.210   3.505   2.044  0.1509 -0.2155 -0.0019
23838ION     NA28138  14.193   2.643  35.827  0.1968  0.2772  0.3755
23839ION     NA28139   5.056   2.515  33.713 -0.0273 -0.3642 -0.0528
23840ION     NA28140  11.817   3.287  42.660  0.0724  0.2030  0.7504
23841ION     NA28141  20.186   5.979   6.758  0.5181 -0.0283  0.0403
23842ION     NA28142   2.195   4.933  39.234  0.3161 -0.2081 -0.0725
23843ION     NA28143  11.041   4.666  34.356  0.3600  0.1322 -0.3504
23844ION     NA28144   6.926   1.362  26.891 -0.0101  0.0522 -0.1406
23845ION     NA28145   0.744   6.436  42.520  0.1433  0.0823  0.0755
23846ION     NA28146  10.496   2.727  37.875 -0.3429  0.1637  0.2507
23847ION     NA28147   8.725   4.983  16.067  0.9147  0.0990 -0.2808
23848ION     NA28148  11.626   1.583  14.011  0.1326  0.2042  0.3130
23849ION     NA28149  16.352   4.934  33.118  0.0995 -0.0743 -0.0017
23850ION     NA28150  16.550   2.286  45.114 -0.0004  0.0385  0.2298
23851ION     NA28151   8.296   5.815  36.609 -0.5432 -0.1700 -0.0262
23852ION     NA28152  19.028   3.403  40.241  0.0435  0.1452  0.1298
23853ION     NA28153  18.038   4.901   6.463 -0.3648 -0.4328  0.1143
23854ION     NA28154  13.722   1.142  21.567 -0.8012 -0.2214  0.0864
23855ION     NA28155  17.646   1.967   9.681 -0.2213 -0.4042  0.2837
23856ION     NA28156  10.751   2.946  27.242  0.1449 -0.0519 -0.3462
23857ION     NA28157   4.275   6.580  27.233  0.2488  0.4885 -0.3767
23858ION     NA28158   2.842   4.716  12.770  0.2732 -0.0332  0.0904
23859ION     NA28159   1.074   2.653  37.164 -0.3136  0.1556  0.3169
23860ION     NA28160  10.221   1.129  30.313 -0.1491 -0.1018 -0.1264
23861ION     NA28161   3.940   0.865  15.260  0.0575  0.1727  0.0296
23862ION     NA28162  11.205   2.089  34.156 -0.2731 -0.3758  0.1446
23863ION     NA28163  10.565   6.223  16.427 -0.1654 -0.1494 -0.0498
23864ION     NA28164  11.410   3.512  19.151 -0.0072  0.0576  0.3900
23865ION     NA28165  12.205   0.626  38.381  0.1431  0.2926 -0.2510
23866ION     NA28166  11.588   4.073  31.769 -0.1180  0.2324  0.1711
23867ION     NA28167   8.497   0.232   2.353 -0.4900  0.0260 -0.1514
23868ION     NA28168   5.925   3.419   8.536 -0.0023  0.4721 -0.1781
23869ION     NA28169   0.078   5.340   0.756  0.1326 -0.0200 -0.3076
23870ION     NA28170  11.616   2.607  42.307 -0.3070  0.1249  0.2935
23871ION     NA28171  14.441   1.938  11.535  0.1327 -0.1122  0.1404
23872ION     NA28172   2.926   1.292   8.662 -0.0720 -0.3352  0.1107
23873ION     NA28173  20.937   5.230   8.575 -0.1060 -0.3127  0.1488
23874ION     NA28174   8.386   4.543  33.151 -0.0521  0.0265 -0.4508
23875ION     NA28175  18.029   2.459  41.366 -0.0983  0.1988 -0.3212
23876ION     NA28176  16.212   4.702   3.494  0.2589  0.1783 -0.0371
23877ION     NA28177  10.850   3.874  30.812  0.0567  0.0213 -0.1010
23878ION     NA28178  12.276   1.674  32.957  0.7118  0.2385  0.3236
23879ION     NA28179  19.421   1.195  16.484  0.4147  0.1676 -0.2520
23880ION     NA28180   5.302   1.367  33.129 -0.0019 -0.1540  0.0974
23881ION     NA28181   2.861   1.981   7.482  0.1196  0.0496  0.2206
23882ION     NA28182  13.067   4.434   7.677  0.0250  0.1691  0.0937
23883ION     NA28183   8.428   0.945  32.926  0.1260  0.0791 -0.4799
23884ION     NA28184  15.840   5.526  40.002  0.2358 -0.1002 -0.0772
23885ION     NA28185   2.208   6.565  29.843  0.1973 -0.3327 -0.4014
23886ION     NA28186   7.307   1.348  33.409 -0.1766 -0.0414 -0.0561
23887ION     NA28187   5.545   5.626  35.509 -0.0821  0.1083  0.0081
23888ION     NA28188   5.472   0.909   1.429 -0.1225  0.3458  0.6863
23889ION     NA28189  18.275   4.569   4.182 -0.2990 -0.3577  0.2095
23890ION     NA28190  11.769   1.104  33.953  0.2873 -0.0165  0.0272
23891ION     NA28191   9.417   5.754   4.203 -0.4005  0.1561 -0.0316
23892ION     NA28192   6.520   6.306  33.253  0.2368  0.1658 -0.2105
23893ION     NA28193  21.084   3.180  39.909 -0.3382  0.1105 -0.0915
23894ION     NA28194  14.162   4.391   9.447  0.4368  0.0008 -0.0167
23895ION     NA28195  12.396   1.862  38.233 -0.4068 -0.0339 -0.0409
23896ION     NA28196   2.527   1.411  23.556 -0.2077  0.1808  0.3044
23897ION     NA28197  18.030   2.850  42.663 -0.5549 -0.5075 -0.1684
23898ION     NA28198   9.937   2.165  37.819  0.1773 -0.1483  0.1043
23899ION     NA28199  19.202   2.592  38.746 -0.1604 -0.1178 -0.4308
23900ION     NA28200  10.660   3.428  11.488 -0.1281 -0.1021 -0.0657
23901ION     NA28201  13.791   1.897  34.529 -0.0853  0.3779 -0.1504
23902ION     NA28202  20.636   3.405  38.177  0.1323  0.0813 -0.0415
23903ION     NA28203   9.370   5.615  31.393 -0.0444  0.0215  0.1684
23904ION     NA28204  16.338   0.263  17.416  0.2120  0.1915  0.0067
23905ION     NA28205  18.480   0.475   6.257 -0.1112  0.0266 -0.3264
23906ION     NA28206  21.123   3.048  19.203 -0.0862  0.0225  0.0536
23907ION     NA28207   4.999   3.682  42.625 -0.4088  0.2745 -0.4861
23908ION     NA28208  15.423   5.748  18.718 -0.0929  0.4881  0.1681
23909ION     NA28209   8.121   5.336  23.459 -0.1493  0.2541  0.0782
23910ION     NA28210   5.395   6.526  22.914 -0.4331  0.3529  0.1514
23911ION     NA28211  14.515   1.025  14.009 -0.3421 -0.5123  0.3442
23912ION     NA28212   2.444   3.109  36.880  0.0597 -0.6098 -0.4487
23913ION     NA28213  15.098   1.194  30.246 -0.1101 -0.4254  0.0867
23914ION     NA28214  17.406   2.863  40.403 -0.1607  0.0450 -0.4361
23915ION     NA28215   3.762   5.796  33.421 -0.4542  0.1366  0.0361
23916ION     NA28216  14.959   6.420  11.412  0.0971  0.2987  0.6505
23917ION     NA28217   3.740   2.512  41.624 -0.4141  0.1152  0.0609
23918ION     NA28218   9.254   3.876  11.185  0.5984  0.2834 -0.3903
23919ION     NA28219  11.889   2.179  29.742 -0.0739 -0.0691  0.1210
23920ION     NA28220   2.448   5.425  39.583  0.4827 -0.2897 -0.0888
23921ION     NA28221  18.026   6.445   8.234  0.1479  0.0652  0.1231
23922ION     NA28222  18.445   1.232   9.369  0.0866 -0.0137 -0.0039
23923ION     NA28223   9.350   2.008  10.765 -0.3278  0.0571 -0.1981
23924ION     NA28224  18.002   5.404  12.267  0.7591 -0.2868  0.0299
23925ION     NA28225  15.073   2.498  14.948 -0.1374 -0.4365  0.3273
23926ION     NA28226  13.983   1.736  41.006  0.2424 -0.3805  0.0539
23927ION     NA28227  17.705   2.283  39.107  0.4598 -0.0157 -0.3116
23928ION     NA28228  16.387   0.849   4.415  0.0927 -0.0792 -0.3764
23929ION     NA28229  14.181   3.403  37.971  0.3395  0.4438  0.0544
23930ION     NA28230  12.974   2.567  40.649  0.3080 -0.4087 -0.3838
23931ION     NA28231   5.736   3.374  29.364  0.1832  0.3112  0.2243
23932ION     NA28232   9.029   2.226  23.424 -0.0882  0.1931 -0.2342
23933ION     NA28233   2.182   4.230  40.159 -0.2447 -0.3172 -0.5217
23934ION     NA28234  11.438   2.573  12.793 -0.1284 -0.1763 -0.3914
23935ION     NA28235  15.169   5.401   7.843 -0.0611 -0.0250 -0.1788
23936ION     NA28236   8.954   0.047   5.336  0.1412 -0.0493 -0.3695
23937ION     NA28237  10.081   3.165  35.768 -0.0368 -0.2784 -0.3974
23938ION     NA28238   7.762   6.238  38.502  0.0418 -0.5535 -0.0338
23939ION     NA28239  16.001   2.559  16.998 -0.0345  0.4246  0.0932
23940ION     NA28240   9.809   0.302  11.264 -0.4636 -0.6505  0.0284
23941ION     NA28241  13.667   4.448  38.613  0.0275 -0.1616  0.1485
23942ION     NA28242   8.467   3.899  37.053  0.1419 -0.2628  0.1312
23943ION     NA28243   8.379   1.570  44.910  0.1284 -0.1339  0.2565
23944ION     NA28244   7.125   5.325  24.889  0.3063  0.1533 -0.0150
23945ION     NA28245  17.393   5.139   0.715  0.0724 -0.2973  0.1832
23946ION     NA28246  15.622   6.517  15.159 -0.0784 -0.0953  0.1099
23947ION     NA28247  16.220   5.071   7.956  0.4124  0.4790  0.0613
23948ION     NA28248   2.281   5.956   2.355 -0.6247  0.2733  0.4810
23949ION     NA28249  17.461   0.055  19.767  0.3840 -0.4810 -0.0526
23950ION     NA28250  16.314   1.178  12.125  0.3571 -0.1941 -0.0739
23951ION     NA28251   7.056   6.232  42.512 -0.1663 -0.1617 -0.1359
23952ION     NA28252  10.063   5.736  15.682  0.0584 -0.2436  0.2313
23953ION     NA28253  18.281   0.974   1.094  0.1563  0.1293 -0.3929
23954ION     NA28254  20.400   2.480  13.929 -0.0027  0.2459 -0.0029
23955ION     NA28255   8.247   4.290  31.686  0.7738  0.1404 -0.1448
23956ION     NA28256  19.071   2.214  14.185 -0.0659  0.1043 -0.0307
23957ION     NA28257  16.683   2.547  40.541  0.1190 -0.2659 -0.4884
23958ION     NA28258  20.624   3.849  16.959 -0.2801 -0.0194 -0.5106
23959ION     NA28259  20.271   3.195  20.274 -0.1927  0.5904  0.2916
23960ION     NA28260  14.171   4.466  15.458  0.1257  0.1726  0.4316
23961ION     NA28261   3.909   5.016   3.947 -0.1215 -0.2238 -0.0696
23962ION     NA28262  17.427   3.435  35.130  0.4265  0.1710  0.0824
23963ION     NA28263  11.590   6.025  38.998  0.1013  0.1555  0.2061
23964ION     NA28264  19.277   4.292  21.295  0.0461 -0.1578 -0.0993
23965ION     NA28265   2.678   6.067  27.673  0.1119  0.1609 -0.0079
23966ION     NA28266   7.207   4.134  40.901 -0.3393  0.0968 -0.3258
23967ION     NA28267   4.958   3.038  15.540  0.0247 -0.1519  0.0495
23968ION     NA28268   1.888   1.580   3.300 -0.0424 -0.2087  0.3470
23969ION     NA28269  18.011   1.832  42.938 -0.1080 -0.2575  0.1260
23970ION     NA28270  20.932   0.265  39.298 -0.1122  0.4757 -0.1436
23971ION     NA28271  13.602   0.329  16.831  0.5813  0.0782 -0.3631
23972ION     NA28272  19.948   3.364   2.262 -0.1444  0.0646 -0.3505
23973ION     NA28273   4.906   5.600   2.941 -0.2131  0.0293 -0.0165
23974ION     NA28274  19.104   4.302  29.381 -0.0495  0.2028  0.2853
23975ION     NA28275   4.008   3.220  13.204 -0.2058  0.0874 -0.0448
23976ION     NA28276   3.577   3.316  26.004 -0.4400  0.3371 -0.0514
23977ION     NA28277   6.338   4.972  27.043  0.1869 -0.1772 -0.1804
23978ION     NA28278  13.887   3.084  11.474  0.3223  0.2999 -0.2714
23979ION     NA28279  14.177   0.793  38.337 -0.1341 -0.2062 -0.0317
23980ION     NA28280  16.469   2.899  10.091 -0.2331 -0.0302 -0.1953
23981ION     NA28281   1.135   6.467   1.627  0.6153 -0.2398  0.0869
23982ION     NA28282   4.281   5.023  24.286 -0.0476  0.2787 -0.1621
23983ION     NA28283  13.429   4.701  15.114  0.0708  0.0030 -0.1191
23984ION     NA28284   2.541   5.636  33.265 -0.5157  0.1019  0.4107
23985ION     NA28285   2.412   2.330  11.239 -0.0149 -0.2396 -0.1654
23986ION     NA28286  18.686   3.003   5.934  0.3417  0.0644  0.1880
23987ION     NA28287  13.517   3.957  10.412 -0.3173  0.0897  0.2352
23988ION     NA28288  19.980   4.012  15.439 -0.1216 -0.0625 -0.0703
23989ION     NA28289   3.940   5.103   9.003  0.1276  0.0346  0.5060
23990ION     NA28290   6.222   0.482  33.360 -0.1546 -0.0545 -0.4899
23991ION     NA28291  18.988   1.653  40.203 -0.2994 -0.3405  0.1121
23992ION     NA28292  15.449   1.378   3.767  0.1045 -0.2731  0.1963
23993ION     NA28293   7.528   2.332  28.061 -0.1224 -0.1826 -0.1859
23994ION     NA28294  14.447   1.881  21.443 -0.5187  0.2333  0.3102
23995ION     NA28295  11.499   4.741  33.249 -0.0009 -0.1610  0.3268
23996ION     NA28296  14.120   5.098   1.581 -0.0839 -0.0626 -0.1470
23997ION     NA28297  18.050   4.518  37.716 -0.1982  0.2133  0.2492
23998ION     NA28298   8.303   3.972  33.699 -0.0703  0.0627 -0.0020
23999ION     NA28299   4.781   1.824  29.043  0.2011  0.3012 -0.3273
24000ION     NA28300   2.055   3.472  42.301  0.0557  0.1683 -0.3569
24001ION     NA28301   1.170   1.415  38.203 -0.2091  0.0250 -0.2650
24002ION     NA28302  11.224   5.269  42.299  0.2668 -0.1527 -0.0552
24003ION     NA28303   6.642   0.895   2.203  0.0564 -0.0420  0.3004
24004ION     NA28304  16.290   5.524  25.014 -0.6437  0.1299 -0.0708
24005ION     NA28305  17.548   2.521  43.334  0.3194 -0.2682  0.2255
24006ION     NA28306   7.511   5.256  11.460 -0.0056  0.2335 -0.3366
24007ION     NA28307  12.601   3.113  39.527 -0.1631 -0.2861  0.2607
24008ION     NA28308  19.389   5.779  39.343  0.1475  0.2536  0.0871
24009ION     NA28309  17.164   4.274  31.100 -0.4327  0.3554 -0.3048
24010ION     NA28310   6.849   6.404   2.731  0.0806  0.1522  0.3095
24011ION     NA28311   7.700   6.336  12.014  0.3290 -0.1776 -0.0703
24012ION     NA28312  10.093   1.589   3.687 -0.2648  0.0065 -0.2004
24013ION     NA28313   8.869   5.985  34.470  0.0574  0.1225 -0.1942
24014ION     NA28314   5.134   4.926  23.009  0.3167 -0.2302 -0.6844
24015ION     NA28315  16.293   3.787  15.113 -0.2241 -0.0302 -0.2948
24016ION     NA28316   0.301   0.082  30.330 -0.3130 -0.2683 -0.1051
24017ION     NA28317  13.125   1.791  12.285 -0.0506 -0.1754 -0.0417
24018ION     NA28318   4.361   6.160  39.637  0.1212  0.0022 -0.3222
24019ION     NA28319  14.758   0.831  15.846 -0.1415 -0.0839 -0.2766
24020ION     NA28320  11.844   3.310  39.169 -0.0346 -0.0148 -0.4805
24021ION     NA28321   1.788   2.105   2.862 -0.0775 -0.2752  0.0714
24022ION     CL28322  12.186   3.075  29.625 -0.1563  0.2042  0.3218
24023ION     CL28323   2.376   5.083  36.793 -0.2451  0.2266 -0.3118
24024ION     CL28324   3.447   0.637  41.629  0.4288  0.5076  0.2967
24025ION     CL28325   1.368   4.908  28.347 -0.0876 -0.3054  0.4723
24026ION     CL28326  18.096   0.980   4.732 -0.1951 -0.4786  0.2329
24027ION     CL28327  12.263   0.198  17.814  0.4937  0.1519 -0.3437
24028ION     CL28328  17.256   2.039  20.105  0.0841  0.0823 -0.2283
24029ION     CL28329  12.041   1.870  11.680  0.1873 -0.3937  0.1316
24030ION     CL28330   6.487   6.538   0.394 -0.1108 -0.1660 -0.2637
24031ION     CL28331  10.830   3.745  11.571  0.8091  0.2873  0.0797
24032ION     CL28332   9.576   5.324  43.503 -0.1073  0.2056  0.0513
24033ION     CL28333  17.150   2.657  19.206 -0.0468 -0.0248  0.1740
24034ION     CL28334  12.021   0.775  39.069 -0.1733 -0.1268  0.2401
24035ION     CL28335  11.987   3.611  39.379  0.0768 -0.3212 -0.1322
24036ION     CL28336  17.516   2.571  21.245 -0.3220  0.2811 -0.1234
24037ION     CL28337   8.780   3.286  37.243  0.0520  0.1444 -0.0725
24038ION     CL28338  14.513   0.478  44.508  0.1349  0.0500  0.5361
24039ION     CL28339  10.473   6.494  12.458 -0.1651 -0.4060 -0.3875
24040ION     CL28340  13.927   0.126   3.844 -0.3715 -0.1939 -0.1162
24041ION     CL28341   8.490   5.214   0.423  0.0029  0.3455  0.1416
24042ION     CL28342   8.977   5.058  36.802 -0.2874 -0.0344  0.2160
24043ION     CL28343   1.909   2.935   2.707  0.3452  0.0509 -0.2651
24044ION     CL28344   7.991   5.136  29.912 -0.3835  0.3161  0.2682
24045ION     CL28345   4.086   0.129  26.972 -0.4522 -0.4130 -0.5066
24046ION     CL28346  14.385   5.945  35.224  0.2341  0.1675  0.3857
24047ION     CL28347   7.273   0.175   1.407  0.1195 -0.5277  0.2116
24048ION     CL28348   1.741   2.017   4.715  0.1510 -0.0530 -0.1050
24049ION     CL28349   3.557   3.777  35.884 -0.2132 -0.0095 -0.2049
24050ION     CL28350   3.128   1.053   8.511 -0.1598 -0.1943 -0.3376
24051ION     CL28351  15.781   6.303  39.263  0.1092  0.0207 -0.1431
24052ION     CL28352   5.265   0.633  37.565  0.1275  0.0975 -0.8109
24053ION     CL28353  18.981   2.109  21.045 -0.3498  0.2760  0.2563
24054ION     CL28354  19.408   5.785   0.395  0.2188  0.3402 -0.1326
24055ION     CL28355  15.525   0.745  41.754  0.2963  0.3387 -0.1491
24056ION     CL28356  20.489   6.268  12.223  0.1474 -0.1691  0.1163
24057ION     CL28357  12.592   3.537  35.830 -0.4262  0.0319 -0.1233
24058ION     CL28358  19.711   4.320  15.817 -0.0711 -0.4836 -0.1297
24059ION     CL28359  16.602   1.188  13.639 -0.1557  0.3538 -0.0579
24060ION     CL28360  13.999   4.586   2.722 -0.0590  0.0911 -0.0919
24061ION     CL28361  18.145   1.402   9.264  0.1158 -0.0970 -0.2248
24062ION     CL28362   2.262   2.854  42.137  0.3921  0.5010  0.0215
24063ION     CL28363  10.221   5.496  15.448 -0.2557  0.4920 -0.0886
24064ION     CL28364  14.208   4.130  10.768  0.1828 -0.2242  0.1038
24065ION     CL28365   9.554   2.123   9.544  0.0432 -0.0057 -0.6083
24066ION     CL28366   2.767   0.609  36.873 -0.6205  0.1025 -0.0718
24067ION     CL28367  17.849   3.870  19.370 -0.2082  0.0105  0.3358
24068ION     CL28368  13.893   1.634  38.022 -0.0226 -0.4148 -0.0796
24069ION     CL28369  12.488   2.671   5.850 -0.3655 -0.1137 -0.0502
24070ION     CL28370  16.599   3.414  43.338 -0.3363 -0.1486  0.4740
24071ION     CL28371  19.216   3.182   2.430 -0.0036 -0.0592  0.4585
24072ION     CL28372   3.092   3.959  38.238 -0.4300  0.1063  0.1689
24073ION     CL28373  21.036   0.118   1.125  0.3047 -0.0680  0.2341
24074ION     CL28374   9.860   4.050  28.633 -0.0107  0.2394 -0.0157
24075ION     CL28375   6.803   3.991  41.177  0.2266 -0.4234  0.0556
24076ION     CL28376  11.945   0.582  18.410 -0.1613  0.1800  0.4158
24077ION     CL28377   9.324   2.866  44.665  0.1177  0.2201  0.0310
24078ION     CL28378  17.478   1.012   3.014  0.0739 -0.3107 -0.2240
24079ION     CL28379  19.754   1.650  18.160  0.5374  0.2580  0.2899
24080ION     CL28380  18.170   3.172  39.480  0.0727 -0.3835  0.1888
24081ION     CL28381  16.231   0.659  18.151 -0.1011 -0.1341  0.2861
24082ION     CL28382  10.514   0.686  16.752 -0.0628 -0.1561  0.0562
24083ION     CL28383   3.680   6.236  39.467 -0.2914  0.3379  0.0266
24084ION     CL28384  10.510   1.260  11.597 -0.1067  0.1507 -0.0156
24085ION     CL28385   2.824   3.366  24.204 -0.1548  0.4451 -0.0824
24086ION     CL28386   4.127   3.787  13.429 -0.1256  0.0398 -0.2852
24087ION     CL28387  19.612   5.023  19.528  0.1596  0.1467 -0.0206
24088ION     CL28388   3.385   5.097   1.954 -0.0366 -0.2799 -0.2447
24089ION     CL28389   9.307   3.631  11.453  0.3197  0.1235  0.1621
24090ION     CL28390  10.890   0.646   0.383 -0.4237  0.0623  0.1767
24091ION     CL28391   2.198   6.574  37.474  0.1839 -0.1374 -0.1767
24092ION     CL28392  15.125   1.322   7.481  0.2631  0.0148  0.1192
24093ION     CL28393  13.028   3.797   2.149  0.1928  0.0720 -0.3908
24094ION     CL28394  13.679   3.939  31.871 -0.3379 -0.1433 -0.3717
24095ION     CL28395  19.588   6.275  37.448  0.3964 -0.1490  0.2199
24096ION     CL28396   8.347   3.390   3.255  0.3170  0.2130 -0.2365
24097ION     CL28397  11.975   6.078  29.478 -0.1333 -0.1182  0.2395
24098ION     CL28398   3.446   3.117  42.588  0.2443 -0.3240 -0.2721
24099ION     CL28399   0.941   3.440   0.601  0.1273 -0.1605  0.1435
24100ION     CL28400  14.510   5.731  33.994  0.1773 -0.0303 -0.0343
24101ION     CL28401  17.572   4.672   3.718  0.4410  0.0898  0.6814
24102ION     CL28402  11.191   2.174  13.981 -0.2016 -0.0493  0.0138
24103ION     CL28403  19.696   4.021   1.103 -0.3295  0.2789  0.1036
24104ION     CL28404  10.615   1.671  16.563 -0.0630  0.3653  0.4849
24105ION     CL28405  19.096   4.177  13.074 -0.1363 -0.4333  0.2679
24106ION     CL28406   3.103   1.255  29.376 -0.0628 -0.3541 -0.1452
24107ION     CL28407  15.988   6.399  13.149 -0.2465  0.0427  0.2608
24108ION     CL28408   3.935   2.590  41.307 -0.3181 -0.1597  0.0472
24109ION     CL28409  13.264   6.189  34.225 -0.1414 -0.0281  0.5131
24110ION     CL28410  13.804   0.454   7.367 -0.1210  0.2923  0.0531
24111ION     CL28411  18.395   5.009  35.231 -0.2696 -0.1360  0.0986
24112ION     CL28412  18.180   6.560  19.045 -0.1338  0.1659 -0.1826
24113ION     CL28413   3.832   3.262  43.925  0.1113 -0.2851  0.0713
24114ION     CL28414  15.961   6.190  40.503 -0.0646 -0.1018  0.3464
24115ION     CL28415  14.660   6.195   8.223 -0.4431 -0.3841  0.0453
24116ION     CL28416   5.962   3.657   9.085 -0.1278 -0.3452 -0.1814
24117ION     CL28417   6.872   0.912  12.776  0.2789  0.5491  0.4166
24118ION     CL28418  11.793   6.317  16.050 -0.0899 -0.3232  0.1448
24119ION     CL28419   6.365   0.715  14.679 -0.3582  0.0375  0.0430
24120ION     CL28420  15.727   5.857  11.061 -0.3520  0.0099  0.3399
24121ION     CL28421  11.899   3.690  16.426  0.3576  0.0720 -0.1728
24122ION     CL28422  16.435   2.935  42.570  0.0644  0.3384  0.4307
24123ION     CL28423  20.599   0.416  39.090  0.1687 -0.2736 -0.0610
24124ION     CL28424   6.852   0.184   2.814  0.0578 -0.1572 -0.0191
24125ION     CL28425   6.502   4.948  15.542 -0.2944  0.6052  0.1707
24126ION     CL28426   5.396   2.688  12.286  0.0877 -0.2559  0.3117
24127ION     CL28427  17.250   3.598  18.406  0.3800  0.5294  0.3976
24128ION     CL28428  17.788   4.090   6.659  0.1408 -0.2727 -0.1374
24129ION     CL28429   1.906   2.174  37.631  0.1255  0.0543 -0.1521
24130ION     CL28430   8.678   4.859  10.169 -0.0812 -0.1787  0.2952
24131ION     CL28431  19.141   1.512   4.391 -0.3852 -0.3507 -0.5664
24132ION     CL28432   5.566   1.026  23.308 -0.1292  0.1916  0.3075
24133ION     CL28433   3.757   2.944  13.077 -0.0020 -0.2813 -0.1001
24134ION     CL28434   6.837   1.842  14.624  0.3057 -0.3541 -0.1032
24135ION     CL28435   5.233   0.404  28.758  0.1141 -0.3641 -0.2152
24136ION     CL28436   9.369   2.511   3.489  0.2182  0.4080 -0.3839
24137ION     CL28437   6.790   5.935  42.290 -0.5492 -0.4174 -0.1412
24138ION     CL28438   7.663   6.450  15.067 -0.2842  0.0937  0.2550
24139ION     CL28439  14.152   0.992   6.600  0.4325  0.4975 -0.0263
24140ION     CL28440   4.056   2.159   6.681 -0.1729 -0.3321 -0.2479
24141ION     CL28441   5.228   5.777   3.047  0.0873 -0.3952  0.3663
24142ION     CL28442  18.699   2.767   8.501  0.0153  0.0781  0.1844
24143ION     CL28443   6.275   0.719  44.619 -0.0821  0.0144  0.0775
24144ION     CL28444  17.695   1.372   1.006  0.2731  0.1667 -0.0858
24145ION     CL28445  11.051   2.512   7.626 -0.1706 -0.3164 -0.0248
24146ION     CL28446   7.219   4.902  40.379  0.1196 -0.3152  0.1096
24147ION     CL28447  15.845   3.960  11.975 -0.1136  0.2681  0.2230
24148ION     CL28448   9.546   5.528  13.092  0.1149 -0.4715 -0.1748
24149ION     CL28449   4.134   0.578  15.138  0.0058 -0.2810 -0.0974
24150ION     CL28450   7.594   0.986  38.994 -0.0069  0.7201  0.1133
24151ION     CL28451  19.743   4.549   0.277  0.3097  0.1259 -0.1083
24152ION     CL28452   4.627   2.435   0.281 -0.1837 -0.1698  0.1891
24153ION     CL28453   0.592   4.108   2.290  0.1652 -0.1495  0.1242
24154ION     CL28454  16.141   4.064   0.778  0.1626 -0.2205 -0.2548
24155ION     CL28455  10.736   2.389  33.645  0.1276  0.1822 -0.1749
24156ION     CL28456   8.940   5.337  12.836 -0.1460  0.6738 -0.3969
24157ION     CL28457   6.125   3.960   1.175  0.2077 -0.3357  0.3436
24158ION     CL28458  12.280   1.156  40.035 -0.0145 -0.0683 -0.3571
24159ION     CL28459  10.976   4.826  12.791 -0.1408  0.1291 -0.4314
24160ION     CL28460  14.143   1.207  21.609  0.4862  0.0439 -0.5572
24161ION     CL28461  20.946   2.659  44.972  0.4106  0.0180  0.0270
24162ION     CL28462  12.053   2.002   1.685  0.1371  0.1938  0.2312
24163ION     CL28463   6.956   6.029   1.336 -0.1241 -0.0065  0.0313
24164ION     CL28464   8.096   3.235  29.631  0.3384  0.2269 -0.1808
24165ION     CL28465   0.851   3.367  12.400 -0.2714 -0.0938  0.0558
24166ION     CL28466   7.247   5.397  13.795  0.1637 -0.0894  0.1628
24167DPPC   NC328467   8.842   4.915  23.648  0.1576 -0.4477  0.3172
24167DPPC   PO428468   8.885   5.044  23.262 -0.1744 -0.1718  0.4323
24167DPPC   GL128469   9.098   5.029  22.873 -0.0583  0.0847  0.0006
24167DPPC   GL228470   9.037   5.277  22.775 -0.0163  0.1323  0.0165
24167DPPC   C1A28471   9.464   4.935  22.789 -0.0202  0.0259  0.0705
24167DPPC   C2A28472   9.801   4.817  22.540  0.1210  0.0485  0.0174
24167DPPC   C3A28473  10.058   4.821  22.130 -0.3295 -0.0425 -0.0277
24167DPPC   C4A28474  10.410   4.776  21.822  0.2865 -0.1621  0.0227
24167DPPC   C1B28475   9.280   5.253  22.482  0.0953  0.0762 -0.0777
24167DPPC   C2B28476   9.630   5.269  22.210 -0.0193  0.2591  0.1241
24167DPPC   C3B28477   9.927   5.200  21.878 -0.0998  0.2024 -0.0879
24167DPPC   C4B28478  10.256   5.127  21.512  0.0735  0.1172  0.2509
24168DPPC   NC328479   9.447   3.134  24.166  0.0819 -0.2225 -0.1250
24168DPPC   PO428480   9.249   3.059  23.829 -0.1011 -0.1415  0.1266
24168DPPC   GL128481   9.553   2.889  23.580 -0.1232  0.0504 -0.1575
24168DPPC   GL228482   9.745   3.060  23.798 -0.0071 -0.0899 -0.1220
24168DPPC   C1A28483   9.633   2.900  23.225  0.1131  0.2856 -0.0313
24168DPPC   C2A28484   9.777   3.029  22.903  0.0734  0.0495 -0.1666
24168DPPC   C3A28485  10.063   3.041  22.512  0.1079 -0.2053 -0.4595
24168DPPC   C4A28486  10.365   2.940  22.198  0.1879  0.0953  0.0762
24168DPPC   C1B28487  10.001   3.058  23.491 -0.0337 -0.2822  0.0724
24168DPPC   C2B28488  10.248   3.086  23.160  0.0131  0.3178 -0.3087
24168DPPC   C3B28489  10.486   3.129  22.728 -0.1334  0.1489  0.0977
24168DPPC   C4B28490  10.828   3.047  22.358 -0.1386  0.2561  0.3181
24169DPPC   NC328491   9.894   5.089  25.050  0.0545 -0.1377 -0.0678
24169DPPC   PO428492  10.219   4.985  25.248  0.0890 -0.0722 -0.3785
24169DPPC   GL128493  10.451   5.073  24.971  0.0181  0.1002 -0.1548
24169DPPC   GL228494  10.343   5.067  24.769  0.0427  0.2246  0.1024
24169DPPC   C1A28495  10.800   5.149  24.920 -0.1671 -0.2135  0.2436
24169DPPC   C2A28496  11.139   5.075  24.729 -0.2540 -0.1063  0.0766
24169DPPC   C3A28497  11.391   5.086  24.308 -0.0790  0.1839 -0.1195
24169DPPC   C4A28498  11.757   5.144  23.992  0.1804 -0.2600 -0.2452
24169DPPC   C1B28499  10.601   5.055  24.491 -0.0735  0.0220 -0.2760
24169DPPC   C2B28500  10.853   5.053  24.197  0.0853 -0.2051 -0.0268
24169DPPC   C3B28501  11.163   5.036  23.841  0.1676 -0.3453  0.0412
24169DPPC   C4B28502  11.540   5.038  23.510  0.3632  0.1659  0.0067
24170DPPC   NC328503   6.943   0.166  21.312 -0.1502 -0.5366  0.3413
24170DPPC   PO428504   6.647   0.180  21.023 -0.0635  0.3513  0.1035
24170DPPC   GL128505   6.909   0.148  20.815  0.0577  0.2138  0.2053
24170DPPC   GL228506   7.153   0.031  20.918 -0.0814 -0.1045 -0.0627
24170DPPC   C1A28507   7.028   0.088  20.480 -0.0203  0.0080 -0.1053
24170DPPC   C2A28508   7.282   0.031  20.131  0.2417  0.2072 -0.2873
24170DPPC   C3A28509   7.502   0.060  19.741  0.0296  0.1482  0.1892
24170DPPC   C4A28510   7.809  -0.017  19.326  0.2389 -0.3939 -0.0267
24170DPPC   C1B28511   7.414   0.048  20.646 -0.0045 -0.0504 -0.3517
24170DPPC   C2B28512   7.700   0.208  20.368  0.3497 -0.2028  0.0614
24170DPPC   C3B28513   8.031   0.145  19.958 -0.2701 -0.2176 -0.0678
24170DPPC   C4B28514   8.330   0.064  19.511 -0.0813  0.1397  0.0029
24171DPPC   NC328515  10.258   6.508  25.302  0.3576 -0.1143  0.3032
24171DPPC   PO428516  10.268   6.448  24.885  0.2383 -0.4151 -0.3913
24171DPPC   GL128517  10.421   6.340  24.496 -0.4467 -0.1149  0.2806
24171DPPC   GL228518  10.278   6.560  24.370 -0.1619  0.1791  0.3004
24171DPPC   C1A28519  10.538   6.108  24.213 -0.0126 -0.1721 -0.2320
24171DPPC   C2A28520  10.870   5.927  24.121 -0.0973 -0.0467  0.0078
24171DPPC   C3A28521  11.190   5.950  23.744  0.2191  0.1682  0.0099
24171DPPC   C4A28522  11.387   5.883  23.345 -0.3932 -0.2536  0.1884
24171DPPC   C1B28523  10.530   6.793  24.192 -0.2849  0.0703 -0.2610
24171DPPC   C2B28524  10.826   6.787  23.922  0.1309  0.0783  0.1727
24171DPPC   C3B28525  11.125   6.727  23.572  0.1362  0.2558  0.2632
24171DPPC   C4B28526  11.448   6.739  23.203  0.0377  0.3612 -0.1540
24172DPPC   NC328527   7.430   5.942  21.680  0.1672 -0.2420 -0.2081
24172DPPC   PO428528   7.403   5.642  21.425 -0.0013 -0.3337  0.0768
24172DPPC   GL128529   7.559   5.646  21.049 -0.0786  0.0259 -0.1737
24172DPPC   GL228530   7.848   5.663  21.157 -0.2838 -0.0872  0.2755
24172DPPC   C1A28531   7.654   5.696  20.689  0.3242 -0.2981 -0.1405
24172DPPC   C2A28532   7.858   5.832  20.336  0.0238  0.0264 -0.0330
24172DPPC   C3A28533   8.100   5.835  19.938  0.0553 -0.1750 -0.0807
24172DPPC   C4A28534   8.405   5.843  19.530 -0.2767 -0.1516 -0.0269
24172DPPC   C1B28535   8.144   5.496  21.165 -0.0528  0.1143  0.0493
24172DPPC   C2B28536   8.472   5.460  20.874  0.1467  0.3378  0.2209
24172DPPC   C3B28537   8.696   5.466  20.479  0.3224  0.0770  0.3265
24172DPPC   C4B28538   9.000   5.427  20.081  0.1737  0.0888 -0.0634
24173DPPC   NC328539   9.771   3.788  24.757  0.1136 -0.0567 -0.1145
24173DPPC   PO428540  10.046   4.027  24.673 -0.0250  0.1216  0.1596
24173DPPC   GL128541  10.248   4.051  24.312  0.0234  0.0914 -0.1539
24173DPPC   GL228542  10.476   3.885  24.533  0.2187  0.0527 -0.0466
24173DPPC   C1A28543  10.478   4.257  24.105 -0.1689  0.1069  0.2312
24173DPPC   C2A28544  10.734   4.150  23.766 -0.0662  0.0133 -0.0432
24173DPPC   C3A28545  11.063   4.115  23.457  0.3022  0.1634 -0.0606
24173DPPC   C4A28546  11.367   4.135  23.044 -0.2774 -0.0663  0.1690
24173DPPC   C1B28547  10.687   3.747  24.317 -0.1002 -0.2515  0.0311
24173DPPC   C2B28548  10.987   3.764  24.002  0.1648 -0.1611  0.1322
24173DPPC   C3B28549  11.293   3.723  23.656 -0.1165 -0.0643  0.1860
24173DPPC   C4B28550  11.542   3.680  23.244  0.0956  0.0473  0.0638
24174DPPC   NC328551   8.025   2.353  22.385 -0.2310  0.0609  0.1302
24174DPPC   PO428552   8.421   2.270  22.465  0.0926  0.3087  0.0209
24174DPPC   GL128553   8.669   1.915  22.282 -0.1394 -0.0761  0.2795
24174DPPC   GL228554   8.499   1.998  22.020 -0.1032 -0.1416 -0.1370
24174DPPC   C1A28555   9.005   1.809  22.212  0.0900 -0.0568  0.0630
24174DPPC   C2A28556   9.157   1.549  21.947 -0.1602  0.2628 -0.1203
24174DPPC   C3A28557   9.404   1.661  21.606 -0.1751 -0.2029  0.3694
24174DPPC   C4A28558   9.763   1.548  21.189  0.0522 -0.1123 -0.3768
24174DPPC   C1B28559   8.809   2.022  21.821 -0.0699 -0.2355 -0.1536
24174DPPC   C2B28560   9.092   2.071  21.488 -0.0485 -0.0797  0.1075
24174DPPC   C3B28561   9.475   1.988  21.168  0.0790  0.1543  0.2227
24174DPPC   C4B28562   9.694   2.044  20.753  0.1871  0.2218 -0.1833
24175DPPC   NC328563   7.620   4.682  21.495 -0.1496  0.0947  0.0452
24175DPPC   PO428564   7.425   4.343  21.552  0.1079 -0.1389  0.2143
24175DPPC   GL128565   7.683   4.322  21.193  0.2283  0.4038  0.0263
24175DPPC   GL228566   7.564   4.117  21.067 -0.4244  0.4213  0.1663
24175DPPC   C1A28567   7.904   4.502  21.011 -0.1292  0.0041 -0.0186
24175DPPC   C2A28568   8.036   4.537  20.643 -0.0452 -0.2996 -0.1300
24175DPPC   C3A28569   8.292   4.554  20.257 -0.3151  0.3474  0.0652
24175DPPC   C4A28570   8.644   4.553  19.965 -0.4105 -0.0060  0.3311
24175DPPC   C1B28571   7.727   4.151  20.717 -0.2918  0.2883 -0.0742
24175DPPC   C2B28572   7.969   4.131  20.384 -0.1937  0.0767 -0.1697
24175DPPC   C3B28573   8.311   4.116  20.047 -0.1757  0.0448 -0.0191
24175DPPC   C4B28574   8.542   4.042  19.624  0.0459 -0.0476  0.1744
24176DPPC   NC328575   7.888   4.260  22.184 -0.1271  0.1211 -0.2776
24176DPPC   PO428576   7.753   4.528  21.912 -0.3022  0.1738  0.3038
24176DPPC   GL128577   8.072   4.717  21.566  0.2377 -0.0564  0.4456
24176DPPC   GL228578   8.189   4.764  21.845  0.0483  0.0849  0.1235
24176DPPC   C1A28579   8.293   4.660  21.251 -0.0497  0.2238 -0.0932
24176DPPC   C2A28580   8.529   4.586  20.874 -0.1605 -0.0255 -0.0989
24176DPPC   C3A28581   8.842   4.609  20.542 -0.1332  0.0276  0.0039
24176DPPC   C4A28582   9.099   4.503  20.149 -0.1370  0.0171  0.0157
24176DPPC   C1B28583   8.541   4.661  21.808  0.3444  0.3231 -0.2031
24176DPPC   C2B28584   8.761   4.628  21.464  0.2930 -0.0778 -0.1738
24176DPPC   C3B28585   9.012   4.656  21.033 -0.3022  0.1571  0.0729
24176DPPC   C4B28586   9.378   4.567  20.724  0.0316  0.0389  0.0777
24177DPPC   NC328587   8.574   2.434  22.963  0.0493 -0.0183 -0.3427
24177DPPC   PO428588   8.766   2.507  23.269  0.1936 -0.5235 -0.1922
24177DPPC   GL128589   9.089   2.803  23.063  0.1755 -0.2937  0.0469
24177DPPC   GL228590   8.861   2.850  22.833 -0.1118 -0.3315 -0.1718
24177DPPC   C1A28591   9.428   2.630  22.974  0.3629  0.1311  0.2089
24177DPPC   C2A28592   9.724   2.598  22.657  0.3776  0.0230 -0.1021
24177DPPC   C3A28593  10.022   2.575  22.290  0.1632 -0.0827 -0.3626
24177DPPC   C4A28594  10.345   2.565  21.875  0.2800  0.1349 -0.0811
24177DPPC   C1B28595   8.974   2.969  22.510  0.1632 -0.0563 -0.0821
24177DPPC   C2B28596   9.226   2.976  22.155 -0.2404  0.1610 -0.1973
24177DPPC   C3B28597   9.439   2.888  21.740  0.2163  0.0686 -0.0268
24177DPPC   C4B28598   9.743   2.826  21.392 -0.1234  0.0671  0.0827
24178DPPC   NC328599  10.343   2.442  25.324 -0.0325 -0.1053  0.0224
24178DPPC   PO428600  10.081   2.570  25.012 -0.0009 -0.0362  0.0527
24178DPPC   GL128601  10.169   2.466  24.649  0.4011 -0.2622 -0.3471
24178DPPC   GL228602  10.008   2.381  24.468  0.0812  0.0352 -0.3164
24178DPPC   C1A28603  10.460   2.525  24.521  0.1434 -0.1290 -0.0696
24178DPPC   C2A28604  10.708   2.388  24.214 -0.0956  0.0121  0.0654
24178DPPC   C3A28605  10.981   2.346  23.869  0.0267  0.0543 -0.1936
24178DPPC   C4A28606  11.295   2.318  23.508 -0.3218  0.0967  0.2140
24178DPPC   C1B28607  10.212   2.328  24.158 -0.0783  0.2831  0.1319
24178DPPC   C2B28608  10.423   2.269  23.800 -0.2000  0.2243  0.1140
24178DPPC   C3B28609  10.721   2.282  23.401  0.2740 -0.0414  0.1721
24178DPPC   C4B28610  11.098   2.301  23.034  0.1026 -0.0046 -0.2747
24179DPPC   NC328611   8.832   6.084  23.074  0.1973  0.0695  0.1763
24179DPPC   PO428612   9.200   6.011  23.095 -0.1039 -0.0863 -0.2664
24179DPPC   GL128613   9.488   5.728  23.181 -0.0075 -0.3869 -0.1671
24179DPPC   GL228614   9.627   5.872  23.342 -0.5157  0.0712 -0.4425
24179DPPC   C1A28615   9.744   5.744  22.911 -0.0386  0.1446 -0.1718
24179DPPC   C2A28616  10.103   5.770  22.669 -0.2314 -0.0853 -0.1103
24179DPPC   C3A28617  10.406   5.707  22.260 -0.1054  0.3582 -0.1717
24179DPPC   C4A28618  10.706   5.649  21.889 -0.0545 -0.0347 -0.3574
24179DPPC   C1B28619   9.901   6.120  23.196 -0.0608  0.0604  0.2553
24179DPPC   C2B28620  10.166   6.227  22.892  0.3611 -0.0749 -0.0841
24179DPPC   C3B28621  10.395   6.223  22.460 -0.2813 -0.2528 -0.1822
24179DPPC   C4B28622  10.696   6.158  22.141  0.0155 -0.0143 -0.2026
24180DPPC   NC328623   9.373   4.408  24.557  0.0099 -0.0871 -0.1571
24180DPPC   PO428624   9.651   4.180  24.422  0.1192  0.0785  0.2306
24180DPPC   GL128625   9.879   4.256  24.047 -0.1717  0.2122  0.0623
24180DPPC   GL228626   9.754   4.488  24.026  0.2633  0.1518 -0.1099
24180DPPC   C1A28627  10.100   4.033  23.894 -0.0201 -0.0662 -0.3934
24180DPPC   C2A28628  10.289   3.947  23.574 -0.0083  0.2302 -0.3387
24180DPPC   C3A28629  10.589   4.051  23.268  0.1294  0.0706  0.1198
24180DPPC   C4A28630  10.868   4.040  22.942  0.1654  0.0983 -0.2449
24180DPPC   C1B28631   9.944   4.737  23.801 -0.0956 -0.0346 -0.0484
24180DPPC   C2B28632  10.189   4.948  23.513 -0.2217  0.0922  0.2751
24180DPPC   C3B28633  10.527   4.971  23.129  0.0419 -0.1612  0.0260
24180DPPC   C4B28634  10.804   4.947  22.776  0.0410 -0.0910 -0.0489
24181DPPC   NC328635   6.861   1.508  21.269  0.0287  0.1265  0.1676
24181DPPC   PO428636   7.168   1.747  21.340  0.0398  0.0893  0.0194
24181DPPC   GL128637   7.355   1.851  20.987  0.0145  0.1143 -0.0144
24181DPPC   GL228638   7.224   1.600  20.805  0.1890 -0.1113 -0.1846
24181DPPC   C1A28639   7.680   1.840  20.834  0.1047  0.1710  0.1112
24181DPPC   C2A28640   7.998   1.950  20.585  0.2431 -0.0369  0.0797
24181DPPC   C3A28641   8.283   1.969  20.224 -0.0296  0.0008 -0.0306
24181DPPC   C4A28642   8.534   1.937  19.873 -0.0636  0.2508  0.0034
24181DPPC   C1B28643   7.428   1.652  20.507 -0.2759 -0.2003  0.0812
24181DPPC   C2B28644   7.619   1.885  20.213  0.1182  0.2051 -0.1766
24181DPPC   C3B28645   7.936   1.862  19.896  0.2409 -0.3865  0.0569
24181DPPC   C4B28646   8.043   1.889  19.484 -0.3383 -0.3412  0.1120
24182DPPC   NC328647   8.967   4.439  23.840 -0.1254  0.1283 -0.3038
24182DPPC   PO428648   9.275   4.356  24.055 -0.1809  0.2478  0.0279
24182DPPC   GL128649   9.498   4.298  23.771  0.2046 -0.0118  0.3303
24182DPPC   GL228650   9.342   4.277  23.487 -0.0107 -0.4329 -0.1165
24182DPPC   C1A28651   9.850   4.340  23.650 -0.0848  0.0721 -0.3334
24182DPPC   C2A28652  10.104   4.400  23.340  0.0174 -0.0086 -0.0290
24182DPPC   C3A28653  10.370   4.402  22.938  0.2250 -0.0932 -0.1438
24182DPPC   C4A28654  10.704   4.430  22.629 -0.0770  0.4312  0.0777
24182DPPC   C1B28655   9.621   4.315  23.190  0.0062  0.0463  0.0520
24182DPPC   C2B28656   9.868   4.379  22.897 -0.1411  0.1724  0.3320
24182DPPC   C3B28657  10.168   4.312  22.482  0.0011  0.0723 -0.3319
24182DPPC   C4B28658  10.481   4.404  22.146 -0.0405 -0.0011 -0.1975
24183DPPC   NC328659  11.010   2.014  25.862 -0.2474 -0.1804 -0.0276
24183DPPC   PO428660  10.749   2.301  25.759 -0.1872 -0.1205  0.2172
24183DPPC   GL128661  10.754   2.411  25.392 -0.2069 -0.1309  0.3252
24183DPPC   GL228662  11.055   2.287  25.447 -0.0110 -0.4490  0.0033
24183DPPC   C1A28663  10.809   2.639  25.122  0.1555  0.0030  0.2000
24183DPPC   C2A28664  11.104   2.866  24.866  0.2544  0.0367 -0.2433
24183DPPC   C3A28665  11.343   2.949  24.449 -0.1530 -0.1881 -0.0342
24183DPPC   C4A28666  11.633   2.906  24.065  0.0999  0.0468 -0.0612
24183DPPC   C1B28667  11.128   2.265  25.067  0.3317  0.2330  0.2038
24183DPPC   C2B28668  11.339   2.066  24.808  0.0300 -0.0440  0.0081
24183DPPC   C3B28669  11.590   2.003  24.416 -0.2732  0.1046 -0.0631
24183DPPC   C4B28670  11.928   1.993  24.025  0.0540 -0.2379  0.1669
24184DPPC   NC328671   8.865   2.953  23.485 -0.0197  0.1002 -0.0458
24184DPPC   PO428672   8.848   3.192  23.166  0.1150 -0.1354  0.1777
24184DPPC   GL128673   9.046   3.240  22.892  0.0446  0.0324 -0.0727
24184DPPC   GL228674   9.070   3.492  22.737 -0.4070 -0.1496 -0.0271
24184DPPC   C1A28675   9.313   3.038  22.763 -0.2943 -0.1048 -0.0176
24184DPPC   C2A28676   9.581   3.018  22.478 -0.1865  0.0689  0.2841
24184DPPC   C3A28677   9.849   3.003  22.030 -0.3940 -0.3620  0.1197
24184DPPC   C4A28678  10.228   3.040  21.702 -0.0526 -0.0722  0.1342
24184DPPC   C1B28679   9.280   3.341  22.421 -0.1951 -0.2097 -0.2393
24184DPPC   C2B28680   9.414   3.383  22.036 -0.0777  0.0183  0.0719
24184DPPC   C3B28681   9.722   3.342  21.629 -0.0253  0.0990  0.3606
24184DPPC   C4B28682  10.055   3.304  21.306  0.0927 -0.0318  0.3453
24185DPPC   NC328683   7.461   1.460  22.183  0.0437 -0.3192 -0.3187
24185DPPC   PO428684   7.749   1.719  22.059 -0.2234 -0.1695 -0.0642
24185DPPC   GL128685   8.017   1.704  21.770 -0.1194 -0.1265  0.0304
24185DPPC   GL228686   7.909   1.778  21.547  0.5909  0.0887  0.1925
24185DPPC   C1A28687   8.401   1.633  21.708  0.1617 -0.1060  0.0437
24185DPPC   C2A28688   8.801   1.644  21.546  0.0095 -0.0800  0.1688
24185DPPC   C3A28689   9.101   1.607  21.156  0.1289  0.0380 -0.1104
24185DPPC   C4A28690   9.428   1.594  20.833 -0.2367 -0.0995 -0.2031
24185DPPC   C1B28691   8.213   1.758  21.343  0.1830 -0.0955  0.1475
24185DPPC   C2B28692   8.240   1.973  21.005  0.0235  0.1822  0.2977
24185DPPC   C3B28693   8.568   1.983  20.636 -0.1597 -0.1310  0.2433
24185DPPC   C4B28694   8.885   2.016  20.248 -0.0916 -0.0228  0.0180
24186DPPC   NC328695   8.924   5.530  23.235 -0.1529  0.1669 -0.0119
24186DPPC   PO428696   8.662   5.464  22.931  0.2040 -0.1879 -0.0189
24186DPPC   GL128697   8.860   5.591  22.557  0.3240  0.1653 -0.0451
24186DPPC   GL228698   9.051   5.718  22.789 -0.0111 -0.1589 -0.1475
24186DPPC   C1A28699   9.053   5.640  22.249 -0.1709 -0.1902 -0.2379
24186DPPC   C2A28700   9.354   5.646  21.961  0.0831 -0.0394 -0.5054
24186DPPC   C3A28701   9.660   5.574  21.638  0.4079 -0.2267  0.0259
24186DPPC   C4A28702  10.049   5.526  21.290  0.0364 -0.0671  0.1288
24186DPPC   C1B28703   9.321   5.708  22.654  0.0069 -0.1495  0.0144
24186DPPC   C2B28704   9.647   5.665  22.436 -0.0538  0.0106 -0.0754
24186DPPC   C3B28705   9.926   5.679  22.099 -0.1688  0.0475 -0.0415
24186DPPC   C4B28706  10.201   5.634  21.785  0.5152  0.2555  0.0527
24187DPPC   NC328707   5.285   5.482  19.748  0.1857  0.1740  0.1219
24187DPPC   PO428708   5.468   5.177  19.530 -0.1846  0.0424 -0.0461
24187DPPC   GL128709   5.285   5.211  19.121 -0.1109 -0.4095  0.1721
24187DPPC   GL228710   5.218   4.916  19.135 -0.2566  0.1993 -0.2780
24187DPPC   C1A28711   5.061   5.323  18.823 -0.3219  0.2063 -0.4200
24187DPPC   C2A28712   4.842   5.257  18.453  0.1526 -0.2049 -0.0284
24187DPPC   C3A28713   4.667   5.303  18.047 -0.0480  0.1018 -0.0206
24187DPPC   C4A28714   4.339   5.222  17.732  0.2385  0.3514  0.2561
24187DPPC   C1B28715   4.900   4.844  18.909  0.0983 -0.2023 -0.3151
24187DPPC   C2B28716   4.614   4.807  18.573 -0.2160  0.0071 -0.1329
24187DPPC   C3B28717   4.415   4.744  18.126 -0.0900  0.0520  0.0630
24187DPPC   C4B28718   4.096   4.762  17.750  0.1998  0.0516  0.1059
24188DPPC   NC328719   8.629   4.804  22.923  0.0638  0.1055 -0.1982
24188DPPC   PO428720   8.325   4.787  22.647 -0.0589 -0.1698  0.1044
24188DPPC   GL128721   8.403   4.856  22.297 -0.0307  0.3153 -0.0506
24188DPPC   GL228722   8.358   5.074  22.168  0.2747 -0.1196 -0.2169
24188DPPC   C1A28723   8.759   4.842  22.172  0.2794 -0.1966  0.1071
24188DPPC   C2A28724   9.033   4.773  21.858  0.1680  0.0164 -0.3469
24188DPPC   C3A28725   9.338   4.663  21.514  0.1701 -0.2496  0.2168
24188DPPC   C4A28726   9.635   4.690  21.128 -0.2029  0.0416 -0.3451
24188DPPC   C1B28727   8.612   5.125  21.924  0.0412  0.0071 -0.1471
24188DPPC   C2B28728   8.844   5.086  21.560  0.0711  0.3858 -0.2477
24188DPPC   C3B28729   9.169   5.109  21.192 -0.0878  0.0064  0.0741
24188DPPC   C4B28730   9.487   5.063  20.810  0.1225 -0.2275  0.1496
24189DPPC   NC328731   9.130   6.531  23.209  0.1212  0.1135  0.1377
24189DPPC   PO428732   9.104   6.481  22.827 -0.0501  0.1301 -0.1187
24189DPPC   GL128733   9.376   6.746  22.637  0.0808 -0.3381  0.1474
24189DPPC   GL228734   9.493   6.491  22.622 -0.3335 -0.0982  0.2655
24189DPPC   C1A28735   9.658   7.039  22.558  0.2499  0.0433  0.3330
24189DPPC   C2A28736   9.922   7.051  22.259  0.2449 -0.1124 -0.1167
24189DPPC   C3A28737  10.178   6.996  21.902  0.0286 -0.0279  0.1619
24189DPPC   C4A28738  10.457   6.934  21.512 -0.1504  0.0571 -0.1394
24189DPPC   C1B28739   9.617   6.569  22.271 -0.0364  0.1909 -0.1227
24189DPPC   C2B28740   9.874   6.584  21.994 -0.1289  0.4973 -0.0615
24189DPPC   C3B28741  10.189   6.509  21.581 -0.0113  0.1156 -0.2336
24189DPPC   C4B28742  10.412   6.561  21.182 -0.0465 -0.1197  0.2439
24190DPPC   NC328743   8.308   1.184  22.704 -0.2519 -0.1270  0.2361
24190DPPC   PO428744   8.483   1.537  22.561 -0.5168  0.0595  0.2576
24190DPPC   GL128745   8.825   1.401  22.313  0.0282 -0.1412  0.3496
24190DPPC   GL228746   8.726   1.429  22.071  0.1752  0.2069  0.1409
24190DPPC   C1A28747   9.151   1.243  22.298 -0.2178  0.0833 -0.2355
24190DPPC   C2A28748   9.462   1.190  22.013 -0.2819 -0.2870  0.1496
24190DPPC   C3A28749   9.704   1.205  21.618 -0.1655 -0.3515 -0.0442
24190DPPC   C4A28750  10.014   1.161  21.279 -0.0871 -0.2162  0.1969
24190DPPC   C1B28751   8.905   1.156  21.887 -0.0395 -0.0879 -0.1630
24190DPPC   C2B28752   9.139   1.186  21.546  0.0779  0.1059  0.3013
24190DPPC   C3B28753   9.444   1.150  21.160  0.0074 -0.2332 -0.1846
24190DPPC   C4B28754   9.794   1.131  20.815 -0.0267  0.1041 -0.0942
24191DPPC   NC328755   7.157   3.493  21.140 -0.0663  0.2444  0.1631
24191DPPC   PO428756   7.104   3.175  20.967 -0.0754 -0.1067 -0.2687
24191DPPC   GL128757   7.446   3.213  20.695 -0.1125  0.1377 -0.0706
24191DPPC   GL228758   7.569   2.974  20.844  0.0626 -0.2089 -0.1415
24191DPPC   C1A28759   7.635   3.171  20.331 -0.0012  0.1079 -0.1414
24191DPPC   C2A28760   7.850   3.230  20.004  0.2678 -0.1713  0.0649
24191DPPC   C3A28761   8.140   3.175  19.607  0.2558  0.1260 -0.0181
24191DPPC   C4A28762   8.418   3.095  19.240  0.3225  0.5732 -0.0568
24191DPPC   C1B28763   7.788   2.821  20.565  0.2293  0.2179 -0.0784
24191DPPC   C2B28764   8.106   2.816  20.274  0.2605  0.0227 -0.3348
24191DPPC   C3B28765   8.382   2.797  19.826  0.0616  0.0288  0.1533
24191DPPC   C4B28766   8.691   2.749  19.428 -0.0883  0.0042  0.1113
24192DPPC   NC328767   6.860   5.491  21.368 -0.0742  0.2060  0.0280
24192DPPC   PO428768   6.761   5.088  21.279 -0.3355 -0.2112  0.1298
24192DPPC   GL128769   7.076   4.827  21.058 -0.3231  0.0384 -0.0185
24192DPPC   GL228770   7.056   4.991  20.919 -0.0364 -0.2517  0.1958
24192DPPC   C1A28771   7.439   4.840  21.002 -0.5078  0.0883  0.2543
24192DPPC   C2A28772   7.692   4.930  20.698  0.1688  0.0393 -0.0334
24192DPPC   C3A28773   7.938   4.953  20.349  0.1463 -0.1910  0.1590
24192DPPC   C4A28774   8.255   4.957  20.004  0.2163  0.2382 -0.0015
24192DPPC   C1B28775   7.261   4.914  20.599  0.1918 -0.1018  0.1358
24192DPPC   C2B28776   7.448   4.887  20.205  0.0319  0.2763 -0.2154
24192DPPC   C3B28777   7.774   4.928  19.802  0.1097  0.0981 -0.0499
24192DPPC   C4B28778   8.066   4.942  19.414  0.0478 -0.3436 -0.1754
24193DPPC   NC328779  10.171   1.525  25.783 -0.0712 -0.1310 -0.0745
24193DPPC   PO428780  10.317   1.389  25.440  0.3756  0.1475  0.0601
24193DPPC   GL128781  10.588   1.613  25.283 -0.0301 -0.0139  0.2257
24193DPPC   GL228782  10.511   1.668  25.018 -0.2257  0.0699 -0.1960
24193DPPC   C1A28783  10.917   1.401  25.297  0.3613 -0.0378  0.3356
24193DPPC   C2A28784  11.155   1.225  25.019  0.1714  0.0745 -0.0109
24193DPPC   C3A28785  11.509   1.154  24.650 -0.4897 -0.3074 -0.3708
24193DPPC   C4A28786  11.801   1.113  24.266  0.0392 -0.1660 -0.2395
24193DPPC   C1B28787  10.904   1.690  24.968 -0.0081  0.0387 -0.2116
24193DPPC   C2B28788  11.180   1.599  24.717 -0.0131 -0.1556  0.0544
24193DPPC   C3B28789  11.453   1.534  24.329  0.2259  0.0550  0.3032
24193DPPC   C4B28790  11.724   1.579  23.942  0.3608 -0.3849 -0.0418
24194DPPC   NC328791  11.655   2.189  26.557  0.2658 -0.2269  0.0178
24194DPPC   PO428792  11.408   2.142  26.269 -0.0273  0.0412  0.3682
24194DPPC   GL128793  11.484   1.959  25.968 -0.3112 -0.0366  0.0606
24194DPPC   GL228794  11.757   1.863  25.952  0.3140 -0.1641  0.1219
24194DPPC   C1A28795  11.433   2.060  25.656  0.1627  0.2188 -0.0949
24194DPPC   C2A28796  11.512   2.120  25.281  0.3486  0.1636 -0.0111
24194DPPC   C3A28797  11.797   2.100  24.903 -0.0777 -0.0802 -0.1698
24194DPPC   C4A28798  12.118   2.104  24.452 -0.0608 -0.0608 -0.1021
24194DPPC   C1B28799  12.038   1.763  25.801 -0.3494 -0.0734 -0.0840
24194DPPC   C2B28800  12.288   1.766  25.497 -0.0145 -0.0817 -0.1091
24194DPPC   C3B28801  12.639   1.803  25.201 -0.0757 -0.0641 -0.2229
24194DPPC   C4B28802  12.947   1.734  24.791  0.0640  0.1282 -0.3044
24195DPPC   NC328803   8.962   0.862  22.972 -0.2274 -0.2392 -0.0347
24195DPPC   PO428804   8.786   1.142  22.744 -0.2702 -0.0148 -0.1029
24195DPPC   GL128805   8.874   0.911  22.394 -0.0153 -0.2168  0.0758
24195DPPC   GL228806   8.909   0.686  22.528 -0.0041  0.1522 -0.2292
24195DPPC   C1A28807   9.036   0.782  22.077 -0.0932  0.1935 -0.0564
24195DPPC   C2A28808   9.284   0.759  21.786 -0.2369 -0.0789  0.0418
24195DPPC   C3A28809   9.516   0.747  21.442 -0.0403 -0.2363  0.1425
24195DPPC   C4A28810   9.877   0.724  21.112  0.3919  0.0222  0.2512
24195DPPC   C1B28811   9.168   0.447  22.423  0.2311  0.0684  0.0485
24195DPPC   C2B28812   9.452   0.385  22.111  0.3219 -0.1435 -0.1219
24195DPPC   C3B28813   9.721   0.349  21.691 -0.2978  0.0842 -0.2297
24195DPPC   C4B28814   9.958   0.275  21.277  0.1441  0.0011 -0.1723
24196DPPC   NC328815   7.703   2.866  21.759 -0.1138 -0.1194  0.0184
24196DPPC   PO428816   7.903   2.628  22.020  0.1754  0.1734  0.2124
24196DPPC   GL128817   8.251   2.567  21.796  0.0362  0.0920 -0.2708
24196DPPC   GL228818   8.464   2.498  21.952  0.0896  0.1753 -0.3674
24196DPPC   C1A28819   8.318   2.726  21.530  0.2427 -0.3171  0.0336
24196DPPC   C2A28820   8.544   2.880  21.240 -0.1518 -0.1315  0.0007
24196DPPC   C3A28821   8.819   2.875  20.856 -0.1381 -0.1789  0.0498
24196DPPC   C4A28822   9.142   2.851  20.512 -0.0477  0.0490 -0.3369
24196DPPC   C1B28823   8.721   2.442  21.738  0.1474  0.0935 -0.6143
24196DPPC   C2B28824   8.817   2.464  21.351 -0.1340 -0.1341  0.1307
24196DPPC   C3B28825   9.187   2.448  20.975 -0.2490 -0.1929 -0.1107
24196DPPC   C4B28826   9.487   2.452  20.579  0.1005 -0.1230  0.0446
24197DPPC   NC328827   7.840   5.427  22.332 -0.0260 -0.1318 -0.1932
24197DPPC   PO428828   8.001   5.201  22.606 -0.2834 -0.0834  0.0434
24197DPPC   GL128829   8.398   5.368  22.487 -0.0890  0.1934 -0.0968
24197DPPC   GL228830   8.638   5.165  22.584 -0.0914  0.4826 -0.1589
24197DPPC   C1A28831   8.601   5.502  22.178  0.4178 -0.1522  0.2463
24197DPPC   C2A28832   8.803   5.531  21.826 -0.1537 -0.0832  0.0093
24197DPPC   C3A28833   9.162   5.572  21.519  0.1548  0.2390 -0.1348
24197DPPC   C4A28834   9.411   5.597  21.074  0.0908 -0.2172  0.1230
24197DPPC   C1B28835   8.890   5.181  22.378  0.2072 -0.3965 -0.2197
24197DPPC   C2B28836   9.151   5.209  22.052  0.4727 -0.2450 -0.1504
24197DPPC   C3B28837   9.425   5.172  21.657 -0.0924  0.3599  0.1585
24197DPPC   C4B28838   9.731   5.183  21.323 -0.0376 -0.0536  0.1641
24198DPPC   NC328839   8.955   4.126  23.280  0.0219 -0.2974  0.1947
24198DPPC   PO428840   8.836   4.513  23.347  0.0894  0.1926  0.1536
24198DPPC   GL128841   9.163   4.562  23.011 -0.1034 -0.0496  0.0866
24198DPPC   GL228842   9.283   4.770  23.159  0.0261  0.2253 -0.2734
24198DPPC   C1A28843   9.431   4.479  22.750 -0.0957  0.3483 -0.2415
24198DPPC   C2A28844   9.631   4.372  22.374  0.0474  0.3000 -0.4066
24198DPPC   C3A28845   9.915   4.335  21.966 -0.1705  0.0249  0.1384
24198DPPC   C4A28846  10.264   4.262  21.611  0.0314 -0.3058 -0.0745
24198DPPC   C1B28847   9.644   4.753  23.191  0.1977 -0.0234  0.2387
24198DPPC   C2B28848   9.983   4.917  23.011 -0.0776 -0.0791 -0.0179
24198DPPC   C3B28849  10.295   4.824  22.618  0.0971  0.2801  0.2246
24198DPPC   C4B28850  10.602   4.831  22.294 -0.2647  0.0230  0.3354
24199DPPC   NC328851   8.187   4.460  23.068  0.2126 -0.0678 -0.0657
24199DPPC   PO428852   8.554   4.349  22.945 -0.1988  0.4755  0.0460
24199DPPC   GL128853   8.749   4.469  22.645  0.1905  0.3004  0.0455
24199DPPC   GL228854   8.808   4.262  22.430  0.1139  0.2562 -0.1226
24199DPPC   C1A28855   8.908   4.747  22.560 -0.1151  0.4442  0.0049
24199DPPC   C2A28856   9.274   4.803  22.324  0.0786 -0.2944  0.1934
24199DPPC   C3A28857   9.554   4.842  21.947  0.0424  0.0488  0.2160
24199DPPC   C4A28858   9.858   4.753  21.644 -0.0019 -0.2360 -0.1391
24199DPPC   C1B28859   9.044   4.336  22.142  0.1720 -0.1733 -0.1993
24199DPPC   C2B28860   9.343   4.255  21.886  0.2253  0.1998 -0.0637
24199DPPC   C3B28861   9.667   4.205  21.538 -0.1902 -0.1822 -0.1984
24199DPPC   C4B28862   9.968   4.315  21.203  0.1216  0.5079 -0.0329
24200DPPC   NC328863   7.921   3.560  22.064  0.3230 -0.0089  0.1765
24200DPPC   PO428864   8.160   3.872  22.179 -0.1122  0.3264  0.0632
24200DPPC   GL128865   8.539   3.905  22.150 -0.0471  0.1956  0.4338
24200DPPC   GL228866   8.692   3.737  22.428  0.2522  0.1555  0.1626
24200DPPC   C1A28867   8.659   3.825  21.805  0.5173  0.4594 -0.2552
24200DPPC   C2A28868   8.873   3.816  21.419 -0.0398  0.2830 -0.0879
24200DPPC   C3A28869   9.215   3.709  21.069 -0.1376  0.2190 -0.2313
24200DPPC   C4A28870   9.523   3.696  20.650  0.2808  0.0808 -0.0195
24200DPPC   C1B28871   9.014   3.866  22.236 -0.4953  0.2299 -0.0879
24200DPPC   C2B28872   9.134   3.763  21.902  0.1419 -0.2539  0.1771
24200DPPC   C3B28873   9.372   3.781  21.515  0.2551  0.0029  0.1038
24200DPPC   C4B28874   9.766   3.783  21.176 -0.0386 -0.0217 -0.0909
24201DPPC   NC328875   9.569   1.340  23.594  0.0201 -0.0583 -0.1150
24201DPPC   PO428876   9.322   1.086  23.450 -0.0816  0.0953  0.1630
24201DPPC   GL128877   9.419   0.909  23.040  0.1207  0.2352  0.3118
24201DPPC   GL228878   9.551   0.675  23.191 -0.0302  0.1168  0.2159
24201DPPC   C1A28879   9.743   0.969  22.793  0.1069  0.1557  0.0381
24201DPPC   C2A28880   9.928   0.871  22.447 -0.1669 -0.2036  0.0465
24201DPPC   C3A28881  10.261   0.839  22.099  0.3104 -0.3022 -0.0215
24201DPPC   C4A28882  10.533   0.769  21.699  0.1558 -0.0895 -0.0966
24201DPPC   C1B28883   9.890   0.526  23.127  0.0795 -0.1521  0.0378
24201DPPC   C2B28884  10.105   0.501  22.796 -0.1777 -0.1718 -0.1517
24201DPPC   C3B28885  10.398   0.413  22.389  0.3116  0.0079  0.0972
24201DPPC   C4B28886  10.649   0.409  22.021  0.1562  0.0791 -0.4331
24202DPPC   NC328887  11.128   1.457  26.546  0.0999  0.2780  0.3692
24202DPPC   PO428888  11.037   1.626  26.189 -0.2828  0.2427 -0.0754
24202DPPC   GL128889  11.271   1.511  25.900 -0.0101  0.0813 -0.1961
24202DPPC   GL228890  11.306   1.647  25.666  0.0670 -0.2250 -0.1839
24202DPPC   C1A28891  11.583   1.439  25.839 -0.2539  0.0092 -0.0013
24202DPPC   C2A28892  11.924   1.377  25.602 -0.0837  0.1379 -0.1517
24202DPPC   C3A28893  12.260   1.309  25.225 -0.2393  0.0218 -0.3913
24202DPPC   C4A28894  12.560   1.363  24.846  0.2184 -0.2074  0.1025
24202DPPC   C1B28895  11.676   1.741  25.547  0.3898 -0.0554  0.1893
24202DPPC   C2B28896  11.874   1.742  25.214 -0.1670 -0.0614 -0.0354
24202DPPC   C3B28897  12.177   1.677  24.886 -0.5024  0.1283 -0.3794
24202DPPC   C4B28898  12.463   1.728  24.428  0.3861 -0.0116 -0.3628
24203DPPC   NC328899  10.369   5.948  24.729 -0.0266  0.0736  0.2611
24203DPPC   PO428900  10.062   5.984  24.481  0.1420 -0.2690 -0.4445
24203DPPC   GL128901  10.216   5.757  24.230 -0.0190 -0.1756  0.0265
24203DPPC   GL228902  10.279   5.484  24.351 -0.1639  0.1840  0.5215
24203DPPC   C1A28903  10.420   5.799  23.896 -0.0524  0.2814 -0.0250
24203DPPC   C2A28904  10.668   5.890  23.595  0.1190  0.0338  0.0992
24203DPPC   C3A28905  10.922   5.852  23.136 -0.2171  0.2270 -0.0093
24203DPPC   C4A28906  11.287   5.815  22.791 -0.3906 -0.0283  0.1416
24203DPPC   C1B28907  10.567   5.448  24.153  0.1252 -0.1699  0.0011
24203DPPC   C2B28908  10.832   5.486  23.858 -0.1844 -0.3393 -0.0146
24203DPPC   C3B28909  11.192   5.412  23.489  0.1073  0.1820 -0.1542
24203DPPC   C4B28910  11.452   5.405  23.080  0.4820 -0.0720  0.0601
24204DPPC   NC328911   9.517   3.903  24.011  0.1558  0.0869  0.0993
24204DPPC   PO428912   9.465   3.546  23.834 -0.0367 -0.0264  0.1799
24204DPPC   GL128913   9.790   3.505  23.559 -0.3812 -0.0988  0.2298
24204DPPC   GL228914   9.959   3.457  23.644 -0.0723  0.1092  0.1237
24204DPPC   C1A28915   9.864   3.473  23.189 -0.0548  0.3647 -0.0478
24204DPPC   C2A28916  10.077   3.467  22.837  0.0681 -0.1051 -0.1554
24204DPPC   C3A28917  10.365   3.485  22.447 -0.0676  0.3089  0.2107
24204DPPC   C4A28918  10.639   3.419  22.085 -0.2120 -0.0963 -0.3290
24204DPPC   C1B28919  10.265   3.492  23.398 -0.1577 -0.0799 -0.3013
24204DPPC   C2B28920  10.492   3.541  23.051  0.0112 -0.1873  0.0082
24204DPPC   C3B28921  10.842   3.634  22.687  0.2684  0.2553  0.0292
24204DPPC   C4B28922  11.117   4.023  22.501 -0.0076  0.0472 -0.1639
24205DPPC   NC328923   8.441   4.076  22.590  0.0090 -0.2663 -0.1155
24205DPPC   PO428924   8.332   4.382  22.363  0.0300  0.1400  0.0267
24205DPPC   GL128925   8.407   4.312  21.957 -0.1827 -0.1292 -0.1912
24205DPPC   GL228926   8.225   4.248  21.842 -0.1047  0.0772 -0.2023
24205DPPC   C1A28927   8.739   4.270  21.765  0.1951  0.4456 -0.2121
24205DPPC   C2A28928   9.084   4.267  21.501 -0.2986  0.0750 -0.0764
24205DPPC   C3A28929   9.363   4.236  21.131  0.0252  0.0572  0.0490
24205DPPC   C4A28930   9.687   4.118  20.823  0.1143 -0.0031  0.3071
24205DPPC   C1B28931   8.358   4.279  21.511  0.6405 -0.2680 -0.5382
24205DPPC   C2B28932   8.660   4.218  21.155 -0.0118  0.0810  0.0048
24205DPPC   C3B28933   9.016   4.150  20.817 -0.1390 -0.0109 -0.1345
24205DPPC   C4B28934   9.331   4.158  20.452 -0.3309  0.0280 -0.0677
24206DPPC   NC328935   7.747   0.495  21.800  0.1814  0.0841  0.0458
24206DPPC   PO428936   7.612   0.821  21.680 -0.1486 -0.0997 -0.1516
24206DPPC   GL128937   7.912   0.765  21.398 -0.0342  0.2530 -0.1520
24206DPPC   GL228938   7.846   0.556  21.274  0.1612  0.0694 -0.2705
24206DPPC   C1A28939   8.146   0.949  21.209  0.1747 -0.0958 -0.1946
24206DPPC   C2A28940   8.398   1.069  20.906  0.0356 -0.0606  0.1440
24206DPPC   C3A28941   8.667   1.140  20.531 -0.0476  0.2560  0.1077
24206DPPC   C4A28942   8.973   1.076  20.157 -0.2564  0.0126  0.1051
24206DPPC   C1B28943   8.146   0.550  21.051 -0.1299  0.0003  0.0186
24206DPPC   C2B28944   8.303   0.617  20.658  0.1825 -0.2693  0.3228
24206DPPC   C3B28945   8.562   0.641  20.239 -0.0337  0.0833  0.0274
24206DPPC   C4B28946   8.921   0.643  19.837  0.0852 -0.2153 -0.1735
24207DPPC   NC328947   6.529   5.889  21.276 -0.0409  0.1738  0.2459
24207DPPC   PO428948   6.694   5.731  20.933  0.1359 -0.0623 -0.2394
24207DPPC   GL128949   7.110   5.660  20.895 -0.0336 -0.4522  0.0781
24207DPPC   GL228950   7.162   5.387  21.026 -0.0882 -0.1145 -0.1566
24207DPPC   C1A28951   7.236   5.663  20.568 -0.0933  0.1526 -0.1543
24207DPPC   C2A28952   7.414   5.708  20.203  0.0377 -0.0917 -0.0092
24207DPPC   C3A28953   7.589   5.755  19.789 -0.2371 -0.3750 -0.2295
24207DPPC   C4A28954   7.970   5.742  19.412  0.3773  0.3046  0.0635
24207DPPC   C1B28955   7.354   5.269  20.755 -0.0259 -0.3271  0.0592
24207DPPC   C2B28956   7.612   5.308  20.442 -0.5533 -0.0178  0.0591
24207DPPC   C3B28957   7.908   5.413  20.026  0.2929  0.0890  0.2136
24207DPPC   C4B28958   8.231   5.344  19.666  0.2202  0.1040 -0.0977
24208DPPC   NC328959   7.406   0.109  21.820  0.1528  0.3700 -0.2681
24208DPPC   PO428960   7.438   0.335  21.514 -0.1047 -0.0358  0.0340
24208DPPC   GL128961   7.544   0.169  21.162  0.1643 -0.1328  0.0881
24208DPPC   GL228962   7.551   0.362  20.934 -0.0952  0.1941 -0.2183
24208DPPC   C1A28963   7.656  -0.090  20.989 -0.2410  0.3026  0.1662
24208DPPC   C2A28964   7.887  -0.173  20.651 -0.4788 -0.1309 -0.0759
24208DPPC   C3A28965   8.135  -0.265  20.219 -0.0230  0.3235  0.0656
24208DPPC   C4A28966   8.430  -0.306  19.814 -0.1605  0.1973 -0.1366
24208DPPC   C1B28967   7.915   0.212  20.854  0.0943 -0.1189 -0.1500
24208DPPC   C2B28968   8.176   0.163  20.453 -0.1186 -0.1555 -0.0445
24208DPPC   C3B28969   8.534   0.164  20.092  0.0724  0.0427  0.0959
24208DPPC   C4B28970   8.778   0.018  19.755 -0.1512  0.0142  0.2965
24209DPPC   NC328971   7.358   4.105  21.959 -0.1238  0.0727 -0.0788
24209DPPC   PO428972   7.608   3.872  21.801 -0.0666  0.1523 -0.2298
24209DPPC   GL128973   7.705   3.860  21.438 -0.3203  0.0387 -0.1893
24209DPPC   GL228974   7.592   3.625  21.306 -0.1102 -0.0223  0.2052
24209DPPC   C1A28975   7.941   3.973  21.189 -0.1291  0.0157 -0.3129
24209DPPC   C2A28976   8.194   4.172  20.984 -0.1599 -0.2887  0.3191
24209DPPC   C3A28977   8.506   4.139  20.656 -0.0901  0.0566 -0.0161
24209DPPC   C4A28978   8.841   4.149  20.314 -0.1168  0.1353  0.0353
24209DPPC   C1B28979   7.588   3.608  20.971 -0.1268  0.2036  0.1919
24209DPPC   C2B28980   7.648   3.617  20.595 -0.3102 -0.0612 -0.0687
24209DPPC   C3B28981   7.829   3.713  20.151  0.0782  0.1152  0.0856
24209DPPC   C4B28982   8.171   3.642  19.780  0.4227 -0.1000 -0.2127
24210DPPC   NC328983  10.976   3.669  25.899  0.4012 -0.0850 -0.0411
24210DPPC   PO428984  10.730   3.471  25.650  0.0083 -0.0633 -0.1952
24210DPPC   GL128985  11.010   3.523  25.349 -0.2848  0.1192  0.0109
24210DPPC   GL228986  10.877   3.668  25.125  0.0073  0.0467 -0.1717
24210DPPC   C1A28987  11.219   3.226  25.259 -0.2705  0.2159 -0.1816
24210DPPC   C2A28988  11.555   2.983  25.122  0.1623 -0.0449  0.1393
24210DPPC   C3A28989  11.778   2.973  24.733  0.1211  0.1778  0.1612
24210DPPC   C4A28990  12.119   2.966  24.402 -0.1342  0.1757 -0.2467
24210DPPC   C1B28991  11.013   3.397  24.868  0.3009  0.0031 -0.2293
24210DPPC   C2B28992  11.410   3.354  24.746 -0.1032  0.3450  0.1607
24210DPPC   C3B28993  11.753   3.302  24.363 -0.0520 -0.1142  0.1063
24210DPPC   C4B28994  12.076   3.323  24.029 -0.0042 -0.0527  0.0256
24211DPPC   NC328995   9.649   2.471  24.737 -0.4564  0.4006  0.0829
24211DPPC   PO428996   9.602   2.733  24.393 -0.1708  0.0881  0.0759
24211DPPC   GL128997   9.957   2.838  24.316 -0.1550 -0.0255  0.2623
24211DPPC   GL228998   9.936   3.075  24.183  0.1692  0.1319  0.1022
24211DPPC   C1A28999  10.278   2.742  24.147  0.1819  0.0856 -0.1568
24211DPPC   C2A29000  10.540   2.731  23.889 -0.0001  0.3434  0.0816
24211DPPC   C3A29001  10.911   2.725  23.543 -0.1141 -0.0867  0.0417
24211DPPC   C4A29002  11.173   2.849  23.135 -0.0394 -0.3464 -0.3564
24211DPPC   C1B29003  10.127   3.081  23.898  0.1596  0.0294  0.1512
24211DPPC   C2B29004  10.402   3.143  23.609  0.1822 -0.2723 -0.3488
24211DPPC   C3B29005  10.782   3.184  23.282 -0.1795 -0.0425 -0.2667
24211DPPC   C4B29006  10.988   3.224  22.879 -0.3392 -0.2398 -0.0012
24212DPPC   NC329007  10.285   0.816  25.243  0.0168 -0.0107 -0.0384
24212DPPC   PO429008  10.070   0.774  24.891  0.0059 -0.0433 -0.0207
24212DPPC   GL129009  10.417   0.887  24.592 -0.1060 -0.1783  0.0609
24212DPPC   GL229010  10.385   0.619  24.551  0.3647  0.1780 -0.0502
24212DPPC   C1A29011  10.585   1.046  24.356 -0.0858 -0.4107 -0.0490
24212DPPC   C2A29012  10.677   1.079  23.929 -0.3341 -0.0498  0.3884
24212DPPC   C3A29013  11.011   0.962  23.603  0.0746 -0.0236  0.1270
24212DPPC   C4A29014  11.236   0.926  23.219 -0.0986 -0.0476  0.2542
24212DPPC   C1B29015  10.750   0.645  24.379  0.0264 -0.2910 -0.3798
24212DPPC   C2B29016  10.989   0.670  24.075  0.2363  0.3168  0.0154
24212DPPC   C3B29017  11.268   0.611  23.670 -0.0647 -0.1040 -0.1742
24212DPPC   C4B29018  11.601   0.595  23.262 -0.0271  0.2158  0.2216
24213DPPC   NC329019   9.605   4.804  24.297 -0.1892 -0.1602  0.0317
24213DPPC   PO429020   9.768   4.644  24.637  0.1145  0.0139 -0.1012
24213DPPC   GL129021  10.100   4.485  24.554  0.3389  0.0335 -0.2421
24213DPPC   GL229022  10.323   4.619  24.610  0.3329  0.2289  0.3056
24213DPPC   C1A29023  10.157   4.530  24.196  0.0551 -0.0062  0.0140
24213DPPC   C2A29024  10.345   4.572  23.826  0.0921  0.0790  0.0238
24213DPPC   C3A29025  10.592   4.514  23.407  0.1548 -0.0471 -0.2474
24213DPPC   C4A29026  10.942   4.531  23.090 -0.0760  0.1696 -0.1274
24213DPPC   C1B29027  10.558   4.655  24.294 -0.1353 -0.1473  0.0173
24213DPPC   C2B29028  10.824   4.581  23.959 -0.0224  0.2303 -0.0096
24213DPPC   C3B29029  11.166   4.570  23.597  0.2989 -0.1288 -0.1000
24213DPPC   C4B29030  11.438   4.641  23.140 -0.1699 -0.1936 -0.2406
24214DPPC   NC329031   8.144   6.301  22.046  0.0551  0.0669 -0.2857
24214DPPC   PO429032   8.311   6.641  22.206 -0.3259 -0.0591 -0.3411
24214DPPC   GL129033   8.690   6.649  22.076 -0.1433 -0.1660  0.2202
24214DPPC   GL229034   8.552   6.470  21.846  0.2999 -0.1416 -0.1640
24214DPPC   C1A29035   8.914   6.868  21.866 -0.1821  0.0378  0.2842
24214DPPC   C2A29036   9.204   6.942  21.569  0.1171 -0.0921  0.1416
24214DPPC   C3A29037   9.445   6.915  21.206 -0.0960  0.2823  0.2177
24214DPPC   C4A29038   9.771   6.916  20.801 -0.0774  0.0179  0.1447
24214DPPC   C1B29039   8.797   6.504  21.590  0.0916 -0.0684  0.0197
24214DPPC   C2B29040   9.170   6.476  21.351 -0.0033  0.1331  0.2651
24214DPPC   C3B29041   9.436   6.407  20.996  0.2043  0.1653 -0.1495
24214DPPC   C4B29042   9.743   6.420  20.592  0.2581 -0.0860  0.1194
24215DPPC   NC329043   7.394   0.773  21.207 -0.1972 -0.2083 -0.2749
24215DPPC   PO429044   7.149   0.525  21.062  0.2764  0.0199  0.1533
24215DPPC   GL129045   7.202   0.522  20.604 -0.3371  0.0946 -0.0298
24215DPPC   GL229046   7.447   0.650  20.645 -0.1494  0.0407 -0.1193
24215DPPC   C1A29047   7.264   0.442  20.303 -0.1010 -0.0034 -0.0095
24215DPPC   C2A29048   7.549   0.494  19.989  0.1252 -0.0791 -0.0694
24215DPPC   C3A29049   7.849   0.459  19.639  0.2946  0.1585 -0.0859
24215DPPC   C4A29050   8.126   0.437  19.224  0.0916  0.3682 -0.2516
24215DPPC   C1B29051   7.763   0.618  20.502 -0.2718 -0.0263 -0.0720
24215DPPC   C2B29052   8.079   0.563  20.174 -0.0784 -0.0859  0.4411
24215DPPC   C3B29053   8.349   0.565  19.770  0.1708  0.0989 -0.2620
24215DPPC   C4B29054   8.682   0.488  19.370  0.3430  0.1407 -0.0199
24216DPPC   NC329055  10.152   4.123  25.269  0.1345  0.1600  0.0146
24216DPPC   PO429056  10.471   4.325  25.389 -0.2190  0.0458  0.1414
24216DPPC   GL129057  10.505   4.669  25.117 -0.1868 -0.2431  0.4671
24216DPPC   GL229058  10.658   4.858  25.381  0.1587 -0.1330 -0.0803
24216DPPC   C1A29059  10.707   4.684  24.849  0.0676  0.0852  0.2940
24216DPPC   C2A29060  10.970   4.664  24.561  0.2638  0.0104  0.4920
24216DPPC   C3A29061  11.279   4.629  24.168 -0.4297  0.3360  0.0050
24216DPPC   C4A29062  11.650   4.613  23.787  0.1679 -0.0890 -0.0377
24216DPPC   C1B29063  10.996   4.792  25.327 -0.0297 -0.3649 -0.2891
24216DPPC   C2B29064  11.277   4.763  25.086  0.0352  0.2237  0.0189
24216DPPC   C3B29065  11.482   4.701  24.672  0.0152  0.1703  0.0092
24216DPPC   C4B29066  11.858   4.635  24.348  0.1609  0.0779 -0.1224
24217DPPC   NC329067   9.234   0.439  24.009  0.1714  0.0949  0.1833
24217DPPC   PO429068   9.656   0.480  24.082  0.1922 -0.1237 -0.0677
24217DPPC   GL129069   9.987   0.580  23.808  0.1515  0.1664 -0.1408
24217DPPC   GL229070  10.105   0.528  24.070 -0.1114 -0.3468  0.1367
24217DPPC   C1A29071  10.142   0.640  23.511  0.2609 -0.0602  0.0449
24217DPPC   C2A29072  10.353   0.548  23.215  0.1266  0.2594 -0.1969
24217DPPC   C3A29073  10.660   0.521  22.824  0.4869  0.0630 -0.1493
24217DPPC   C4A29074  10.970   0.413  22.447 -0.0025  0.0927 -0.1110
24217DPPC   C1B29075  10.455   0.563  24.060  0.2182 -0.0818  0.0804
24217DPPC   C2B29076  10.619   0.602  23.679 -0.0754 -0.1057 -0.1230
24217DPPC   C3B29077  10.910   0.512  23.264 -0.1357  0.0266 -0.1336
24217DPPC   C4B29078  11.189   0.544  22.860 -0.1391 -0.0636  0.3063
24218DPPC   NC329079   9.016   3.643  23.160 -0.3780  0.0038 -0.0632
24218DPPC   PO429080   8.768   3.791  22.893 -0.1683 -0.1073  0.3179
24218DPPC   GL129081   8.978   4.158  22.814 -0.1478  0.2257 -0.2659
24218DPPC   GL229082   9.230   4.130  22.913  0.2438  0.1888  0.0147
24218DPPC   C1A29083   9.186   4.183  22.521 -0.0858  0.0688 -0.0478
24218DPPC   C2A29084   9.441   3.904  22.398 -0.2868  0.0438  0.4034
24218DPPC   C3A29085   9.698   3.830  22.030  0.0144 -0.2038 -0.1908
24218DPPC   C4A29086   9.961   3.808  21.602  0.0435 -0.3429 -0.0243
24218DPPC   C1B29087   9.536   3.989  22.807 -0.2243 -0.1962  0.3100
24218DPPC   C2B29088   9.922   3.910  22.603  0.0938 -0.0319  0.1150
24218DPPC   C3B29089  10.195   3.958  22.128  0.0614 -0.1702 -0.0609
24218DPPC   C4B29090  10.511   3.860  21.843  0.1650 -0.0994 -0.1270
24219DPPC   NC329091   7.202   3.444  21.642 -0.1419  0.4125  0.1720
24219DPPC   PO429092   7.306   3.109  21.438 -0.0004  0.0264 -0.0769
24219DPPC   GL129093   7.701   3.174  21.219 -0.4016  0.2338  0.1942
24219DPPC   GL229094   7.850   2.959  21.319 -0.0052 -0.0039 -0.1202
24219DPPC   C1A29095   7.904   3.217  20.877  0.1246  0.0517  0.0244
24219DPPC   C2A29096   8.068   3.297  20.489 -0.0883  0.1175  0.2480
24219DPPC   C3A29097   8.354   3.204  20.138  0.1774 -0.3219  0.1195
24219DPPC   C4A29098   8.666   3.252  19.759  0.1031 -0.0123 -0.0137
24219DPPC   C1B29099   8.097   2.817  21.081  0.0286  0.4589  0.1707
24219DPPC   C2B29100   8.324   2.831  20.736  0.0442  0.3907  0.0831
24219DPPC   C3B29101   8.616   2.872  20.386 -0.0375 -0.1053  0.3071
24219DPPC   C4B29102   8.868   2.849  19.965 -0.1058 -0.2186  0.3648
24220DPPC   NC329103   9.434   2.619  23.919  0.1441  0.0003 -0.1564
24220DPPC   PO429104   9.436   2.286  23.730 -0.0851  0.0545  0.2203
24220DPPC   GL129105   9.711   2.409  23.393 -0.2825  0.0728 -0.2797
24220DPPC   GL229106   9.549   2.275  23.194  0.2343  0.3648 -0.1335
24220DPPC   C1A29107   9.904   2.595  23.126 -0.1539 -0.2302 -0.0015
24220DPPC   C2A29108  10.196   2.694  22.848  0.0196  0.3981  0.3092
24220DPPC   C3A29109  10.493   2.538  22.541 -0.1736 -0.1195  0.0678
24220DPPC   C4A29110  10.847   2.545  22.177  0.3627 -0.0445  0.0104
24220DPPC   C1B29111   9.805   2.236  22.922 -0.1115 -0.3083  0.2175
24220DPPC   C2B29112  10.112   2.210  22.613  0.0777  0.1184  0.2214
24220DPPC   C3B29113  10.423   2.190  22.180 -0.0618 -0.0372 -0.3032
24220DPPC   C4B29114  10.720   2.140  21.836 -0.1371 -0.0493 -0.0197
24221DPPC   NC329115   9.703   1.691  24.417 -0.2769  0.1303 -0.0407
24221DPPC   PO429116   9.623   2.091  24.392  0.2019  0.0836 -0.0969
24221DPPC   GL129117   9.791   2.091  24.083  0.1346 -0.1340 -0.0322
24221DPPC   GL229118   9.829   2.432  23.981 -0.2354 -0.1498 -0.0968
24221DPPC   C1A29119  10.094   1.903  23.907  0.2445  0.2201 -0.0361
24221DPPC   C2A29120  10.337   1.857  23.573  0.0120  0.1694  0.2695
24221DPPC   C3A29121  10.631   1.827  23.246 -0.1416  0.1562 -0.0589
24221DPPC   C4A29122  10.941   1.793  22.943 -0.2068  0.1714  0.2732
24221DPPC   C1B29123  10.014   2.653  23.735  0.4863 -0.2144  0.1397
24221DPPC   C2B29124  10.344   2.655  23.435 -0.1300 -0.3940 -0.1011
24221DPPC   C3B29125  10.675   2.774  23.083 -0.2383 -0.1904 -0.0526
24221DPPC   C4B29126  11.058   2.693  22.708 -0.0672 -0.1932 -0.1992
24222DPPC   NC329127   9.677   5.697  24.504 -0.0768  0.1959 -0.3886
24222DPPC   PO429128   9.715   5.734  24.113 -0.1029 -0.3318 -0.1207
24222DPPC   GL129129  10.021   5.877  23.818  0.2968  0.0841 -0.0729
24222DPPC   GL229130  10.106   6.118  23.989  0.0905 -0.0519  0.0341
24222DPPC   C1A29131  10.138   5.800  23.477 -0.2426  0.0906  0.1820
24222DPPC   C2A29132  10.410   5.823  23.148  0.0289 -0.0938 -0.2381
24222DPPC   C3A29133  10.635   5.826  22.705  0.0885 -0.0916  0.0480
24222DPPC   C4A29134  10.935   5.787  22.341 -0.3668 -0.1018  0.0978
24222DPPC   C1B29135  10.376   6.285  23.826  0.4090  0.1707 -0.0428
24222DPPC   C2B29136  10.765   6.328  23.761  0.1861 -0.1686  0.0984
24222DPPC   C3B29137  11.021   6.261  23.363 -0.0146  0.1907 -0.4143
24222DPPC   C4B29138  11.282   6.258  22.976 -0.0436  0.0094 -0.2171
24223DPPC   NC329139  11.359   3.737  26.678 -0.0119 -0.1014  0.4890
24223DPPC   PO429140  11.362   3.833  26.311 -0.1399 -0.1267 -0.1819
24223DPPC   GL129141  11.667   3.751  25.968 -0.2722  0.0297 -0.3569
24223DPPC   GL229142  11.401   3.634  25.811 -0.2707 -0.1274  0.0474
24223DPPC   C1A29143  11.887   3.600  25.706 -0.2082  0.0799 -0.0600
24223DPPC   C2A29144  12.121   3.603  25.399 -0.0087 -0.0063  0.1400
24223DPPC   C3A29145  12.426   3.564  25.020  0.3310  0.0629  0.2325
24223DPPC   C4A29146  12.719   3.467  24.666 -0.2349  0.0212  0.3760
24223DPPC   C1B29147  11.501   3.555  25.498 -0.1285  0.0404 -0.2038
24223DPPC   C2B29148  11.711   3.459  25.183 -0.2083 -0.1851 -0.1621
24223DPPC   C3B29149  12.010   3.412  24.793  0.0048  0.0089  0.0596
24223DPPC   C4B29150  12.285   3.436  24.423  0.0311 -0.1697  0.0735
24224DPPC   NC329151   8.817   1.660  22.905 -0.3009 -0.0749 -0.0444
24224DPPC   PO429152   8.829   2.021  22.719 -0.1473  0.2571  0.1669
24224DPPC   GL129153   9.077   2.125  22.478 -0.0986  0.2281  0.2765
24224DPPC   GL229154   9.361   2.186  22.667  0.0667 -0.0394 -0.0654
24224DPPC   C1A29155   9.281   2.162  22.169 -0.2924  0.2021 -0.1017
24224DPPC   C2A29156   9.515   2.111  21.831  0.2777  0.0306 -0.0732
24224DPPC   C3A29157   9.807   2.091  21.484 -0.0653 -0.0001  0.0891
24224DPPC   C4A29158  10.137   2.060  21.075 -0.3442  0.0878  0.1265
24224DPPC   C1B29159   9.694   2.167  22.513 -0.2449 -0.0438  0.0586
24224DPPC   C2B29160   9.958   2.087  22.170  0.0810  0.0046 -0.2150
24224DPPC   C3B29161  10.249   2.080  21.714  0.2173 -0.0924  0.1232
24224DPPC   C4B29162  10.530   2.118  21.318 -0.1638  0.0683 -0.1338
24225DPPC   NC329163   8.105   5.640  22.740 -0.1511  0.0104  0.0743
24225DPPC   PO429164   8.344   5.899  22.870 -0.0549  0.3843 -0.0831
24225DPPC   GL129165   8.713   6.010  22.596 -0.0995  0.2036 -0.1015
24225DPPC   GL229166   8.510   6.052  22.414 -0.1651 -0.4302  0.4216
24225DPPC   C1A29167   9.066   6.012  22.443  0.0410  0.1047  0.0758
24225DPPC   C2A29168   9.408   6.091  22.202 -0.2702  0.0367  0.1401
24225DPPC   C3A29169   9.703   6.070  21.836  0.0423 -0.0694  0.0072
24225DPPC   C4A29170   9.959   6.055  21.469 -0.1936 -0.0537  0.2260
24225DPPC   C1B29171   8.640   6.004  22.060 -0.2842  0.2060 -0.0637
24225DPPC   C2B29172   8.646   5.987  21.665  0.0471  0.1130  0.1368
24225DPPC   C3B29173   8.947   5.997  21.276  0.3159  0.0200 -0.0455
24225DPPC   C4B29174   9.211   5.985  20.873 -0.0308 -0.1119 -0.0631
24226DPPC   NC329175  10.456   3.430  25.246 -0.2267 -0.0742  0.1155
24226DPPC   PO429176  10.382   3.747  25.047 -0.1269  0.1767  0.0018
24226DPPC   GL129177  10.636   4.039  24.975  0.1929 -0.1471  0.3254
24226DPPC   GL229178  10.460   4.255  24.921 -0.1513 -0.0604  0.0421
24226DPPC   C1A29179  10.885   4.054  24.794 -0.0778  0.0280  0.2465
24226DPPC   C2A29180  11.131   3.826  24.549 -0.0103 -0.3045 -0.2378
24226DPPC   C3A29181  11.452   3.695  24.320 -0.1444 -0.0967  0.0469
24226DPPC   C4A29182  11.703   3.728  23.930  0.2812  0.1062  0.0616
24226DPPC   C1B29183  10.592   4.281  24.588 -0.0608  0.0985  0.1428
24226DPPC   C2B29184  10.886   4.251  24.316  0.1028  0.0291  0.0279
24226DPPC   C3B29185  11.239   4.194  23.940  0.0793 -0.2147  0.1498
24226DPPC   C4B29186  11.528   4.203  23.538  0.0253  0.0565 -0.1166
24227DPPC   NC329187   7.910   4.783  22.352  0.1779  0.2332 -0.2351
24227DPPC   PO429188   7.812   5.007  22.033 -0.0768 -0.0890  0.0125
24227DPPC   GL129189   8.147   5.199  21.780  0.4745 -0.1601 -0.0882
24227DPPC   GL229190   8.180   5.378  21.912 -0.1172 -0.1978  0.0853
24227DPPC   C1A29191   8.306   5.070  21.445  0.1186 -0.2341  0.1649
24227DPPC   C2A29192   8.588   5.070  21.146 -0.1125  0.3408  0.0887
24227DPPC   C3A29193   8.901   5.068  20.788 -0.0690 -0.0964  0.0211
24227DPPC   C4A29194   9.222   5.024  20.373  0.0400 -0.0041  0.1523
24227DPPC   C1B29195   8.346   5.583  21.614  0.2970 -0.0310 -0.0372
24227DPPC   C2B29196   8.614   5.649  21.324 -0.0710 -0.1835  0.0284
24227DPPC   C3B29197   8.945   5.572  20.931 -0.0317 -0.1626  0.1562
24227DPPC   C4B29198   9.237   5.534  20.601  0.1494  0.0283  0.2711
24228DPPC   NC329199   9.880   0.774  24.400 -0.1689 -0.3161 -0.2036
24228DPPC   PO429200   9.945   1.181  24.459  0.2148 -0.0363 -0.0626
24228DPPC   GL129201  10.114   1.424  24.216 -0.2303 -0.1334  0.0841
24228DPPC   GL229202   9.875   1.496  24.027  0.0923  0.0173  0.0356
24228DPPC   C1A29203  10.342   1.438  23.960  0.0596 -0.2173 -0.3083
24228DPPC   C2A29204  10.639   1.462  23.626 -0.0156 -0.4717 -0.1484
24228DPPC   C3A29205  10.940   1.396  23.270 -0.2616 -0.1051  0.1011
24228DPPC   C4A29206  11.281   1.410  22.891  0.1976 -0.0117 -0.0001
24228DPPC   C1B29207  10.025   1.437  23.662 -0.0802 -0.1384 -0.0202
24228DPPC   C2B29208  10.192   1.445  23.304 -0.0898  0.1585  0.1151
24228DPPC   C3B29209  10.533   1.394  22.932  0.2285  0.0345 -0.0781
24228DPPC   C4B29210  10.875   1.378  22.617 -0.2286  0.0937 -0.2527
24229DPPC   NC329211   7.899   5.549  21.627 -0.3571  0.1459 -0.0236
24229DPPC   PO429212   7.743   5.176  21.532  0.0889 -0.0391  0.1365
24229DPPC   GL129213   7.761   5.143  21.134 -0.0460  0.0439 -0.0519
24229DPPC   GL229214   7.948   4.906  21.159  0.1759 -0.1954  0.7356
24229DPPC   C1A29215   7.955   5.325  20.841 -0.3451 -0.3354  0.1040
24229DPPC   C2A29216   8.135   5.434  20.503  0.0916  0.0397 -0.0792
24229DPPC   C3A29217   8.384   5.460  20.114 -0.3392 -0.1518  0.0769
24229DPPC   C4A29218   8.738   5.326  19.696 -0.0670 -0.0548  0.3340
24229DPPC   C1B29219   8.191   4.920  20.869  0.2430  0.0363  0.0686
24229DPPC   C2B29220   8.434   4.957  20.563  0.0002 -0.1597  0.1978
24229DPPC   C3B29221   8.741   5.046  20.233  0.1698 -0.0115 -0.0574
24229DPPC   C4B29222   9.032   4.882  19.851 -0.2351 -0.2741 -0.2454
24230DPPC   NC329223   6.835   5.502  20.452 -0.1342 -0.1762  0.1385
24230DPPC   PO429224   6.721   5.887  20.434 -0.1239  0.0548 -0.0508
24230DPPC   GL129225   6.870   5.921  20.125  0.0856  0.0734  0.3016
24230DPPC   GL229226   6.946   5.631  19.995  0.0905  0.0127 -0.3006
24230DPPC   C1A29227   7.072   6.101  19.885  0.2078 -0.5966 -0.1541
24230DPPC   C2A29228   7.379   6.213  19.651  0.0484  0.2463  0.0561
24230DPPC   C3A29229   7.582   6.173  19.302 -0.0187  0.1003 -0.0134
24230DPPC   C4A29230   7.854   6.192  18.901 -0.3298  0.0021 -0.1615
24230DPPC   C1B29231   7.152   5.682  19.735 -0.2952  0.2149  0.0266
24230DPPC   C2B29232   7.369   5.760  19.341 -0.1675  0.0076 -0.0076
24230DPPC   C3B29233   7.693   5.726  18.968 -0.1666  0.0903 -0.0816
24230DPPC   C4B29234   7.961   5.783  18.466  0.1238 -0.3098  0.0801
24231DPPC   NC329235   8.802   1.033  23.563  0.0015  0.2826 -0.2915
24231DPPC   PO429236   8.881   1.299  23.255  0.1352 -0.1025 -0.2437
24231DPPC   GL129237   9.182   1.272  22.991  0.0594 -0.1216  0.0749
24231DPPC   GL229238   9.312   1.425  23.157 -0.0148  0.4146 -0.1649
24231DPPC   C1A29239   9.341   1.211  22.694  0.1486 -0.0269  0.4062
24231DPPC   C2A29240   9.651   1.325  22.471 -0.0111  0.0041  0.3281
24231DPPC   C3A29241   9.954   1.281  22.073  0.2159  0.1388 -0.3055
24231DPPC   C4A29242  10.252   1.207  21.747 -0.0299  0.3755  0.2291
24231DPPC   C1B29243   9.697   1.351  23.151  0.0642 -0.1477  0.1906
24231DPPC   C2B29244  10.003   1.401  22.868  0.1108 -0.0615  0.0988
24231DPPC   C3B29245  10.324   1.328  22.483  0.0884  0.0965  0.2957
24231DPPC   C4B29246  10.597   1.346  22.081  0.1226  0.1984 -0.1194
24232DPPC   NC329247   7.031   4.404  21.126 -0.1552  0.0360  0.0046
24232DPPC   PO429248   6.856   4.300  20.808  0.1936  0.0938  0.0319
24232DPPC   GL129249   6.939   4.641  20.629 -0.3139  0.1477 -0.0612
24232DPPC   GL229250   7.233   4.545  20.758 -0.2999  0.0891  0.0575
24232DPPC   C1A29251   7.103   4.627  20.291 -0.0663  0.2970 -0.0376
24232DPPC   C2A29252   7.260   4.400  19.984 -0.0287 -0.3274 -0.2234
24232DPPC   C3A29253   7.506   4.454  19.600  0.1365  0.3847 -0.1542
24232DPPC   C4A29254   7.883   4.494  19.234 -0.1811 -0.3347  0.0866
24232DPPC   C1B29255   7.529   4.490  20.487  0.0130 -0.2653  0.1684
24232DPPC   C2B29256   7.747   4.502  20.188  0.2980  0.2000 -0.0266
24232DPPC   C3B29257   8.107   4.493  19.782 -0.1839 -0.1890  0.1380
24232DPPC   C4B29258   8.384   4.498  19.329  0.2670  0.1683  0.0469
24233DPPC   NC329259   7.156   2.690  20.906  0.0051 -0.1409 -0.0242
24233DPPC   PO429260   6.929   2.598  20.613 -0.0487 -0.0490 -0.0180
24233DPPC   GL129261   7.342   2.528  20.499 -0.1310 -0.2936  0.3742
24233DPPC   GL229262   7.407   2.809  20.406  0.2711  0.1258 -0.1163
24233DPPC   C1A29263   7.420   2.305  20.208 -0.0276 -0.2597  0.1617
24233DPPC   C2A29264   7.505   2.280  19.834 -0.3404  0.2893 -0.3483
24233DPPC   C3A29265   7.717   2.262  19.446 -0.1801  0.2955  0.2481
24233DPPC   C4A29266   7.995   2.307  19.095  0.0795 -0.0742  0.3274
24233DPPC   C1B29267   7.605   2.753  20.111 -0.0422 -0.1254 -0.2281
24233DPPC   C2B29268   7.850   2.755  19.792  0.1511  0.1676 -0.1869
24233DPPC   C3B29269   8.111   2.694  19.390  0.2883  0.2472 -0.0213
24233DPPC   C4B29270   8.382   2.640  19.028  0.2511 -0.0136  0.1219
24234DPPC   NC329271   9.651   6.104  23.722 -0.1299 -0.0650 -0.0201
24234DPPC   PO429272   9.382   6.309  23.538 -0.3199  0.0639 -0.2737
24234DPPC   GL129273   9.699   6.452  23.388  0.0218 -0.1294  0.0534
24234DPPC   GL229274   9.533   6.346  23.115 -0.0185  0.1867 -0.0177
24234DPPC   C1A29275  10.059   6.404  23.452 -0.0321 -0.0223 -0.2897
24234DPPC   C2A29276  10.422   6.281  23.305  0.7007 -0.1761  0.3006
24234DPPC   C3A29277  10.682   6.265  22.935  0.1790 -0.1178 -0.0107
24234DPPC   C4A29278  10.952   6.199  22.598 -0.0897  0.2915  0.1535
24234DPPC   C1B29279   9.655   6.174  22.809 -0.3809  0.2914 -0.4545
24234DPPC   C2B29280   9.886   6.136  22.413  0.0089  0.0739 -0.0734
24234DPPC   C3B29281  10.183   6.109  21.990 -0.1134  0.0617 -0.0195
24234DPPC   C4B29282  10.542   6.129  21.634  0.2819  0.0762  0.0627
24235DPPC   NC329283   8.430   0.255  22.613 -0.0201 -0.0397  0.0827
24235DPPC   PO429284   8.561   0.446  22.303  0.0927  0.0738 -0.2077
24235DPPC   GL129285   8.619   0.707  21.911 -0.0856 -0.2079 -0.0391
24235DPPC   GL229286   8.440   0.407  21.814 -0.0064 -0.2705 -0.1713
24235DPPC   C1A29287   8.792   0.689  21.583 -0.0933  0.3529  0.1256
24235DPPC   C2A29288   9.038   0.682  21.274 -0.3441 -0.1705  0.0607
24235DPPC   C3A29289   9.363   0.689  20.914 -0.0416 -0.0843 -0.0250
24235DPPC   C4A29290   9.643   0.725  20.540  0.3720  0.1548 -0.0113
24235DPPC   C1B29291   8.629   0.275  21.480  0.0169  0.0546 -0.0728
24235DPPC   C2B29292   8.897   0.249  21.129 -0.2404 -0.0056 -0.1206
24235DPPC   C3B29293   9.174   0.272  20.730  0.1141 -0.0123 -0.0540
24235DPPC   C4B29294   9.512   0.238  20.384  0.0488 -0.3444 -0.1753
24236DPPC   NC329295  10.877   0.414  26.765 -0.2038  0.2316  0.0103
24236DPPC   PO429296  10.978   0.247  26.413  0.0311  0.0088  0.1627
24236DPPC   GL129297  11.284   0.362  26.186 -0.0682 -0.0287 -0.0375
24236DPPC   GL229298  11.178   0.548  26.007 -0.1383  0.0896 -0.2115
24236DPPC   C1A29299  11.539   0.117  26.042  0.1630  0.1882  0.1590
24236DPPC   C2A29300  11.722   0.077  25.717 -0.0404 -0.0516 -0.0577
24236DPPC   C3A29301  11.995  -0.030  25.373 -0.1084  0.2004  0.2632
24236DPPC   C4A29302  12.259  -0.025  24.952 -0.0011  0.0494  0.1967
24236DPPC   C1B29303  11.408   0.561  25.718  0.1496 -0.2330 -0.0033
24236DPPC   C2B29304  11.649   0.430  25.376 -0.0442 -0.2629  0.2426
24236DPPC   C3B29305  11.906   0.381  25.026  0.1135 -0.2371  0.1459
24236DPPC   C4B29306  12.223   0.391  24.675  0.3116  0.2790  0.1085
24237DPPC   NC329307   8.586   3.235  22.730 -0.1945 -0.1579  0.0469
24237DPPC   PO429308   8.429   2.857  22.725  0.2215 -0.0946 -0.2824
24237DPPC   GL129309   8.717   2.695  22.396  0.1259 -0.4858  0.0523
24237DPPC   GL229310   8.836   2.541  22.603  0.2290 -0.2316 -0.0843
24237DPPC   C1A29311   8.897   2.481  22.154 -0.1380 -0.2260  0.2197
24237DPPC   C2A29312   9.143   2.425  21.836 -0.0987 -0.0344  0.0959
24237DPPC   C3A29313   9.428   2.464  21.442  0.0205  0.0411 -0.2974
24237DPPC   C4A29314   9.746   2.411  21.056 -0.0526  0.2276 -0.1313
24237DPPC   C1B29315   9.209   2.525  22.464  0.1998  0.1327  0.2483
24237DPPC   C2B29316   9.510   2.553  22.156  0.0296 -0.1256  0.0152
24237DPPC   C3B29317   9.875   2.495  21.807 -0.4437 -0.1115  0.2166
24237DPPC   C4B29318  10.143   2.506  21.379 -0.2756 -0.1258  0.0768
24238DPPC   NC329319   7.800   0.942  22.097 -0.1867  0.3076  0.0202
24238DPPC   PO429320   7.789   1.233  21.860  0.3428  0.0945  0.3261
24238DPPC   GL129321   7.943   1.244  21.485 -0.3537 -0.2898  0.0126
24238DPPC   GL229322   7.654   1.131  21.354 -0.1180  0.2385  0.0483
24238DPPC   C1A29323   8.263   1.340  21.341  0.1929  0.2418  0.1824
24238DPPC   C2A29324   8.556   1.569  21.112 -0.2261 -0.0798 -0.1143
24238DPPC   C3A29325   8.853   1.536  20.748  0.1120  0.0783 -0.1458
24238DPPC   C4A29326   9.152   1.536  20.304 -0.2884  0.0434  0.1013
24238DPPC   C1B29327   7.794   1.117  21.008  0.1559  0.4048 -0.2094
24238DPPC   C2B29328   7.938   0.964  20.684 -0.2204 -0.0405 -0.2497
24238DPPC   C3B29329   8.183   1.017  20.296 -0.1536 -0.2833 -0.1557
24238DPPC   C4B29330   8.522   1.107  19.974 -0.0031 -0.2131  0.0986
24239DPPC   NC329331   6.616   6.387  20.541  0.3413  0.4020  0.1766
24239DPPC   PO429332   6.590   6.297  20.156  0.2122 -0.2129 -0.1006
24239DPPC   GL129333   6.908   6.461  19.921  0.1878  0.0086  0.1996
24239DPPC   GL229334   6.847   6.747  19.973  0.0839 -0.1328  0.3366
24239DPPC   C1A29335   7.018   6.507  19.574  0.0555  0.0937  0.0547
24239DPPC   C2A29336   7.276   6.568  19.271 -0.0892 -0.1451  0.2474
24239DPPC   C3A29337   7.611   6.713  18.870  0.0462 -0.0426 -0.1711
24239DPPC   C4A29338   7.852   6.629  18.449  0.0277  0.0659  0.4198
24239DPPC   C1B29339   7.080   6.942  19.739 -0.0913 -0.0433 -0.1866
24239DPPC   C2B29340   7.300   7.158  19.467 -0.1527 -0.0639  0.0209
24239DPPC   C3B29341   7.649   7.149  19.098  0.0557  0.3505 -0.2642
24239DPPC   C4B29342   7.932   7.099  18.713  0.0015  0.0286 -0.0337
24240DPPC   NC329343   9.900   2.636  25.453  0.0176 -0.0750 -0.0712
24240DPPC   PO429344  10.171   2.924  25.360 -0.0487  0.0908  0.1402
24240DPPC   GL129345  10.288   3.024  25.026  0.1833 -0.0683 -0.1671
24240DPPC   GL229346  10.061   2.959  24.753 -0.0126  0.1045  0.0329
24240DPPC   C1A29347  10.613   3.033  24.768 -0.3552 -0.3173  0.0464
24240DPPC   C2A29348  10.830   2.846  24.462 -0.0209  0.0100  0.2230
24240DPPC   C3A29349  11.101   2.788  24.018 -0.0388  0.1493  0.0133
24240DPPC   C4A29350  11.417   2.793  23.623  0.1192 -0.2412  0.0342
24240DPPC   C1B29351  10.277   3.081  24.454  0.1777 -0.4845 -0.1532
24240DPPC   C2B29352  10.565   3.154  24.146  0.3534 -0.0304 -0.0151
24240DPPC   C3B29353  10.844   3.173  23.770  0.0244  0.0725  0.2759
24240DPPC   C4B29354  11.244   3.263  23.454  0.0024 -0.0716  0.0157
24241DPPC   NC329355   9.924   0.081  24.143 -0.0094  0.2097 -0.1942
24241DPPC   PO429356   9.698  -0.017  23.848  0.0485  0.1962  0.1512
24241DPPC   GL129357   9.851   0.233  23.509 -0.3809  0.1875  0.1698
24241DPPC   GL229358  10.087   0.183  23.664  0.0117 -0.2673  0.4332
24241DPPC   C1A29359  10.064   0.103  23.194 -0.0257  0.0067  0.4065
24241DPPC   C2A29360  10.347   0.079  22.876  0.2662  0.3104 -0.0749
24241DPPC   C3A29361  10.696   0.040  22.588  0.1908  0.0273 -0.1014
24241DPPC   C4A29362  11.027  -0.058  22.225 -0.1365  0.0014  0.2545
24241DPPC   C1B29363  10.387   0.044  23.634 -0.3400 -0.1178 -0.2015
24241DPPC   C2B29364  10.710   0.049  23.323  0.3488 -0.0759 -0.2736
24241DPPC   C3B29365  11.019   0.053  22.993  0.1485  0.0550 -0.0856
24241DPPC   C4B29366  11.309   0.020  22.633 -0.1067  0.0689  0.2272
24242DPPA   PO429367  10.670   0.482  25.374  0.0687 -0.3087  0.2731
24242DPPA   GL129368  10.759   0.896  25.212 -0.1093  0.3422 -0.0506
24242DPPA   GL229369  11.012   0.727  25.084  0.1767 -0.1959  0.3440
24242DPPA   C1A29370  10.669   1.139  24.986 -0.1736  0.3298  0.1811
24242DPPA   C2A29371  10.707   1.428  24.626 -0.1042 -0.2560  0.0692
24242DPPA   C3A29372  10.871   1.529  24.195  0.0722 -0.0821  0.1186
24242DPPA   C4A29373  11.176   1.498  23.804  0.1786 -0.2597 -0.0861
24242DPPA   C1B29374  11.182   0.658  24.791  0.0799  0.1879 -0.4545
24242DPPA   C2B29375  11.352   0.654  24.456 -0.0547 -0.3124 -0.0463
24242DPPA   C3B29376  11.543   0.731  24.049 -0.0926  0.0638  0.0722
24242DPPA   C4B29377  11.871   0.719  23.664 -0.1230  0.0637 -0.1105
24243DPPA   PO429378   9.171   1.845  23.243  0.1870 -0.2045  0.0312
24243DPPA   GL129379   9.438   1.891  22.946 -0.2372  0.2497 -0.0367
24243DPPA   GL229380   9.240   1.700  22.707 -0.2143  0.3541 -0.3364
24243DPPA   C1A29381   9.775   1.825  22.780  0.1834  0.1599 -0.0062
24243DPPA   C2A29382  10.036   1.704  22.443  0.2575  0.1442  0.2707
24243DPPA   C3A29383  10.285   1.717  22.069 -0.0037  0.2886  0.0277
24243DPPA   C4A29384  10.592   1.692  21.714 -0.2369 -0.1252  0.0595
24243DPPA   C1B29385   9.438   1.781  22.449 -0.0478 -0.0003 -0.0956
24243DPPA   C2B29386   9.592   1.678  22.083 -0.1411 -0.1206  0.3379
24243DPPA   C3B29387   9.877   1.691  21.725 -0.0883  0.1804 -0.2044
24243DPPA   C4B29388  10.217   1.654  21.405 -0.1924  0.3243 -0.0404
24244DPPA   PO429389   9.725   1.040  24.002  0.0643  0.2016 -0.1167
24244DPPA   GL129390  10.001   1.011  23.667 -0.0803  0.0783  0.1567
24244DPPA   GL229391   9.818   1.022  23.427  0.2568  0.1323  0.1759
24244DPPA   C1A29392  10.323   1.090  23.584 -0.1949 -0.0612  0.0705
24244DPPA   C2A29393  10.608   1.039  23.269  0.0550  0.0423  0.1862
24244DPPA   C3A29394  10.864   0.902  22.904 -0.0688 -0.2982  0.0398
24244DPPA   C4A29395  11.175   0.928  22.559 -0.0853 -0.0147  0.0323
24244DPPA   C1B29396  10.041   0.982  23.124  0.2020  0.2919 -0.1490
24244DPPA   C2B29397  10.320   0.947  22.813  0.0671  0.0613  0.0903
24244DPPA   C3B29398  10.629   0.871  22.409 -0.2226  0.0811  0.1247
24244DPPA   C4B29399  10.908   0.847  22.004  0.0312 -0.2017  0.0848
24245DPPA   PO429400  12.681   1.121  20.606  0.0071  0.2634 -0.1438
24245DPPA   GL129401  12.382   1.294  20.806 -0.0893  0.1758  0.0897
24245DPPA   GL229402  12.514   1.262  21.061 -0.0932  0.3108  0.0794
24245DPPA   C1A29403  12.034   1.327  21.036 -0.4308  0.0771 -0.1603
24245DPPA   C2A29404  11.806   1.316  21.382 -0.2864 -0.3015  0.1756
24245DPPA   C3A29405  11.454   1.315  21.695  0.3280  0.3060  0.1101
24245DPPA   C4A29406  11.141   1.375  22.121 -0.1031  0.2413 -0.0849
24245DPPA   C1B29407  12.325   1.362  21.357 -0.0839 -0.2295  0.0984
24245DPPA   C2B29408  12.158   1.394  21.740  0.1053 -0.1827 -0.0337
24245DPPA   C3B29409  11.806   1.321  22.040 -0.0758 -0.1173 -0.1164
24245DPPA   C4B29410  11.533   1.339  22.423 -0.1830 -0.2056  0.0336
24246DPPA   PO429411   7.826   5.869  21.998  0.1377  0.1751  0.1391
24246DPPA   GL129412   8.129   6.016  21.699 -0.2048 -0.3463  0.0956
24246DPPA   GL229413   7.998   5.987  21.466 -0.0167 -0.5156 -0.4199
24246DPPA   C1A29414   8.348   6.285  21.547 -0.3669  0.2197  0.3688
24246DPPA   C2A29415   8.550   6.328  21.155 -0.2932 -0.4901  0.0597
24246DPPA   C3A29416   8.866   6.440  20.823  0.2598 -0.0370  0.1984
24246DPPA   C4A29417   9.241   6.328  20.491  0.2338 -0.0199 -0.1692
24246DPPA   C1B29418   8.259   5.969  21.245 -0.0827  0.0936 -0.0922
24246DPPA   C2B29419   8.549   5.937  20.906 -0.1927  0.1162 -0.2340
24246DPPA   C3B29420   8.841   5.920  20.553 -0.1865  0.0543 -0.0299
24246DPPA   C4B29421   9.132   5.877  20.225  0.2000  0.2089 -0.0860
24247DPPA   PO429422   9.103   3.937  23.731  0.4172 -0.2183  0.1324
24247DPPA   GL129423   9.360   3.845  23.378  0.2631 -0.2313 -0.0355
24247DPPA   GL229424   9.588   3.900  23.556  0.0310 -0.2584  0.0165
24247DPPA   C1A29425   9.539   3.703  23.093  0.1543  0.2933 -0.2754
24247DPPA   C2A29426   9.603   3.545  22.770  0.3328  0.2064 -0.0123
24247DPPA   C3A29427   9.887   3.459  22.341  0.3087 -0.1000  0.1802
24247DPPA   C4A29428  10.160   3.443  21.952 -0.3543 -0.1013  0.2875
24247DPPA   C1B29429   9.851   3.950  23.339 -0.2238 -0.3517 -0.2742
24247DPPA   C2B29430  10.148   3.886  23.078  0.2007 -0.0850  0.0825
24247DPPA   C3B29431  10.412   3.976  22.726 -0.0721 -0.0483 -0.2070
24247DPPA   C4B29432  10.626   3.894  22.297  0.1909  0.2823 -0.0594
24248DPPA   PO429433   7.008   6.025  21.409 -0.2510  0.2938  0.0465
24248DPPA   GL129434   7.267   5.975  21.142 -0.1632 -0.0375  0.2674
24248DPPA   GL229435   7.524   6.083  21.240 -0.1731 -0.1795 -0.4112
24248DPPA   C1A29436   7.343   6.129  20.845  0.1260 -0.3339  0.0505
24248DPPA   C2A29437   7.516   6.183  20.471 -0.2551 -0.0439  0.0940
24248DPPA   C3A29438   7.680   6.289  20.093 -0.0843  0.1527  0.5645
24248DPPA   C4A29439   7.936   6.223  19.662  0.1990 -0.3473 -0.0037
24248DPPA   C1B29440   7.837   6.090  21.055 -0.0738 -0.0487 -0.1177
24248DPPA   C2B29441   8.065   5.869  20.795 -0.1977 -0.1656  0.3705
24248DPPA   C3B29442   8.355   5.858  20.419  0.3212  0.5366 -0.0301
24248DPPA   C4B29443   8.650   5.867  20.014  0.1813  0.1641 -0.1134
24249DPPA   PO429444   9.132   0.665  23.355  0.0549 -0.1762 -0.0180
24249DPPA   GL129445   9.229   0.375  23.122 -0.3002  0.2593  0.2022
24249DPPA   GL229446   9.224   0.500  22.903 -0.1131  0.1597  0.4946
24249DPPA   C1A29447   9.568   0.196  23.015 -0.2650 -0.3132 -0.1680
24249DPPA   C2A29448   9.852   0.097  22.811 -0.1076  0.2182 -0.0722
24249DPPA   C3A29449  10.073  -0.023  22.432 -0.1449  0.2654 -0.0273
24249DPPA   C4A29450  10.390  -0.025  22.135  0.0098 -0.1320 -0.0974
24249DPPA   C1B29451   9.382   0.736  22.707 -0.0983 -0.1207  0.0997
24249DPPA   C2B29452   9.416   0.824  22.347 -0.1614  0.1501 -0.0206
24249DPPA   C3B29453   9.734   0.804  21.969 -0.0599  0.0974 -0.0497
24249DPPA   C4B29454  10.030   0.757  21.600  0.1675  0.1008 -0.1361
24250DPPA   PO429455  10.113   5.496  24.797  0.1917  0.3485 -0.0305
24250DPPA   GL129456  10.515   5.447  24.804 -0.1726  0.2350 -0.2465
24250DPPA   GL229457  10.580   5.639  25.080  0.3516  0.0628 -0.0688
24250DPPA   C1A29458  10.765   5.467  24.549  0.0277 -0.0655 -0.1115
24250DPPA   C2A29459  11.104   5.531  24.334 -0.5502 -0.1015 -0.1260
24250DPPA   C3A29460  11.358   5.504  23.937 -0.2169  0.3508 -0.1734
24250DPPA   C4A29461  11.693   5.551  23.624  0.1174 -0.2339 -0.2315
24250DPPA   C1B29462  10.821   5.770  24.836  0.1172 -0.2121 -0.2561
24250DPPA   C2B29463  11.100   6.009  24.564 -0.3210  0.1341  0.0723
24250DPPA   C3B29464  11.381   5.986  24.230 -0.0548  0.1868  0.1133
24250DPPA   C4B29465  11.666   5.986  23.858  0.0144 -0.0157  0.0422
24251DPPA   PO429466   5.973   3.941  19.402  0.0049 -0.2120  0.0275
24251DPPA   GL129467   5.979   3.735  19.068 -0.0829 -0.0683 -0.1018
24251DPPA   GL229468   5.780   3.469  19.133  0.1761  0.1563  0.1343
24251DPPA   C1A29469   6.118   3.712  18.682  0.1921 -0.1636 -0.1852
24251DPPA   C2A29470   6.227   3.425  18.378 -0.1745 -0.3469 -0.0695
24251DPPA   C3A29471   6.440   3.445  17.897 -0.1719  0.0102 -0.1849
24251DPPA   C4A29472   6.730   3.437  17.478  0.0545  0.1531 -0.2469
24251DPPA   C1B29473   5.479   3.459  18.976  0.1545 -0.2437 -0.1307
24251DPPA   C2B29474   5.195   3.256  18.785  0.2838 -0.0026  0.3709
24251DPPA   C3B29475   4.874   3.151  18.446 -0.1361 -0.1298  0.1670
24251DPPA   C4B29476   4.570   3.074  18.045  0.0209 -0.2211  0.1486
24252DPPA   PO429477   8.092   0.490  22.092 -0.1680 -0.0251 -0.0952
24252DPPA   GL129478   8.183   0.746  21.753  0.3192 -0.1020  0.1305
24252DPPA   GL229479   8.225   0.989  21.845  0.3158  0.2413 -0.2412
24252DPPA   C1A29480   8.389   0.750  21.489 -0.2806  0.1539  0.0435
24252DPPA   C2A29481   8.562   0.664  21.142 -0.2938 -0.1006 -0.2696
24252DPPA   C3A29482   8.858   0.672  20.687 -0.1442 -0.0787 -0.1228
24252DPPA   C4A29483   9.179   0.668  20.323  0.0218  0.1127  0.0012
24252DPPA   C1B29484   8.504   1.169  21.711 -0.0575 -0.0108  0.1275
24252DPPA   C2B29485   8.688   1.113  21.380 -0.1590  0.1163 -0.0829
24252DPPA   C3B29486   9.002   1.119  21.014  0.0706 -0.2011  0.2342
24252DPPA   C4B29487   9.259   1.100  20.583  0.2098  0.0099  0.1893
24253DPPA   PO429488   9.469   1.767  23.980  0.0568 -0.1211 -0.1168
24253DPPA   GL129489   9.729   1.950  23.668  0.1510  0.1545  0.1549
24253DPPA   GL229490   9.591   1.861  23.451  0.0613  0.1664  0.0207
24253DPPA   C1A29491  10.005   2.156  23.534 -0.1855  0.0704  0.3965
24253DPPA   C2A29492  10.251   2.235  23.188  0.1484 -0.0525  0.1131
24253DPPA   C3A29493  10.589   2.222  22.921  0.3110 -0.0778 -0.1701
24253DPPA   C4A29494  10.892   2.258  22.561 -0.0602 -0.0893 -0.2832
24253DPPA   C1B29495   9.866   1.818  23.170  0.1190 -0.2481  0.2546
24253DPPA   C2B29496  10.200   1.803  22.955  0.0448 -0.1006 -0.4553
24253DPPA   C3B29497  10.526   1.764  22.567  0.0903  0.0929 -0.1783
24253DPPA   C4B29498  10.801   1.793  22.206 -0.4037 -0.0048 -0.1789
24254DPPA   PO429499   6.986   1.014  21.190  0.0745 -0.2845 -0.1550
24254DPPA   GL129500   7.306   1.290  21.089 -0.0698 -0.0075 -0.1966
24254DPPA   GL229501   7.387   1.090  20.886  0.0246 -0.1631 -0.2262
24254DPPA   C1A29502   7.626   1.483  21.104  0.3101 -0.2067 -0.1772
24254DPPA   C2A29503   8.016   1.528  20.938 -0.4252 -0.1814 -0.4556
24254DPPA   C3A29504   8.329   1.574  20.550 -0.3176 -0.0246 -0.0169
24254DPPA   C4A29505   8.679   1.545  20.190 -0.2041  0.0998 -0.1083
24254DPPA   C1B29506   7.581   1.250  20.657 -0.2314  0.1327 -0.1130
24254DPPA   C2B29507   7.828   1.382  20.340  0.2421  0.0566  0.0488
24254DPPA   C3B29508   8.186   1.444  20.003  0.1533  0.1310 -0.3590
24254DPPA   C4B29509   8.466   1.400  19.596 -0.0530  0.2233 -0.1952
24255DPPA   PO429510   8.578   6.417  22.761 -0.3894  0.1939 -0.1972
24255DPPA   GL129511   8.829   6.398  22.439  0.0400  0.2970  0.0935
24255DPPA   GL229512   8.933   6.693  22.458 -0.1975  0.0472 -0.0437
24255DPPA   C1A29513   8.981   6.260  22.128  0.0463  0.0560  0.2559
24255DPPA   C2A29514   9.129   6.144  21.755  0.2376 -0.0654  0.2980
24255DPPA   C3A29515   9.473   6.032  21.354  0.0994  0.0731 -0.0596
24255DPPA   C4A29516   9.748   5.964  20.932 -0.0426  0.0353  0.0320
24255DPPA   C1B29517   9.160   6.648  22.170 -0.0540 -0.2024  0.0984
24255DPPA   C2B29518   9.399   6.541  21.808  0.3108  0.1151  0.0313
24255DPPA   C3B29519   9.674   6.484  21.456 -0.3276  0.2130  0.0052
24255DPPA   C4B29520   9.920   6.402  21.046 -0.1520  0.0552  0.1214
24256DPPA   PO429521   7.512   2.685  21.249 -0.0899  0.0368  0.0733
24256DPPA   GL129522   7.831   2.495  21.108 -0.0697  0.1836  0.1863
24256DPPA   GL229523   7.651   2.266  20.994  0.0920  0.2558  0.1121
24256DPPA   C1A29524   8.079   2.401  20.840  0.0102  0.1367 -0.0114
24256DPPA   C2A29525   8.314   2.422  20.505 -0.0769  0.0234 -0.0779
24256DPPA   C3A29526   8.541   2.398  20.093  0.1270 -0.2155  0.2116
24256DPPA   C4A29527   8.870   2.379  19.711  0.0165 -0.0030 -0.0698
24256DPPA   C1B29528   7.652   2.268  20.626  0.1851  0.0989  0.5559
24256DPPA   C2B29529   7.888   2.280  20.259 -0.1208  0.1129 -0.1396
24256DPPA   C3B29530   8.056   2.352  19.859 -0.1974  0.2949 -0.0885
24256DPPA   C4B29531   8.392   2.286  19.478  0.2120 -0.3375 -0.0744
24257DPPA   PO429532   7.713   6.356  21.704 -0.3111 -0.0543  0.1597
24257DPPA   GL129533   7.950   6.413  21.352 -0.0101 -0.0519 -0.2682
24257DPPA   GL229534   7.857   6.702  21.400 -0.1983 -0.0326 -0.2450
24257DPPA   C1A29535   8.127   6.397  21.031 -0.3178 -0.0344  0.4246
24257DPPA   C2A29536   8.343   6.302  20.680 -0.0361 -0.1659  0.1743
24257DPPA   C3A29537   8.585   6.230  20.286 -0.1867 -0.0987  0.1471
24257DPPA   C4A29538   8.969   6.299  20.012 -0.0815 -0.0692  0.2701
24257DPPA   C1B29539   8.223   6.753  21.283 -0.2964 -0.1276 -0.1310
24257DPPA   C2B29540   8.371   6.756  20.910 -0.0374 -0.3274  0.0174
24257DPPA   C3B29541   8.674   6.869  20.547  0.0118 -0.0090  0.0920
24257DPPA   C4B29542   9.026   6.808  20.195 -0.2931  0.1554 -0.0531
24258DPPA   PO429543   7.680   3.379  21.671 -0.2729  0.1596  0.0951
24258DPPA   GL129544   7.965   3.510  21.437 -0.2737 -0.1166 -0.1797
24258DPPA   GL229545   8.141   3.722  21.551 -0.2257  0.1303  0.0137
24258DPPA   C1A29546   8.018   3.551  21.110 -0.1679 -0.0027 -0.1763
24258DPPA   C2A29547   8.143   3.736  20.762  0.0264  0.2109  0.0772
24258DPPA   C3A29548   8.355   3.692  20.324  0.2704 -0.0030 -0.0632
24258DPPA   C4A29549   8.707   3.715  20.000 -0.0587  0.1134  0.0098
24258DPPA   C1B29550   8.390   3.785  21.298  0.3660  0.1404 -0.1833
24258DPPA   C2B29551   8.618   3.752  20.970 -0.0639 -0.2732  0.0334
24258DPPA   C3B29552   8.876   3.655  20.518 -0.1226 -0.0981  0.3759
24258DPPA   C4B29553   9.226   3.740  20.159 -0.0241  0.2295 -0.0444
24259DPPA   PO429554   8.160   3.232  22.410 -0.1183 -0.1369  0.4387
24259DPPA   GL129555   8.401   3.426  22.172  0.2216  0.0017  0.3396
24259DPPA   GL229556   8.668   3.376  22.279 -0.1193  0.0920 -0.0042
24259DPPA   C1A29557   8.416   3.439  21.815  0.3136  0.3290  0.2241
24259DPPA   C2A29558   8.680   3.310  21.581  0.0740  0.2556  0.2702
24259DPPA   C3A29559   8.890   3.273  21.145 -0.0310  0.2201  0.0100
24259DPPA   C4A29560   9.170   3.258  20.786  0.2318  0.0324  0.4465
24259DPPA   C1B29561   8.935   3.358  21.938  0.4326  0.0247 -0.3326
24259DPPA   C2B29562   9.152   3.242  21.555 -0.1293  0.1055 -0.1083
24259DPPA   C3B29563   9.461   3.255  21.232 -0.2288 -0.2011 -0.3039
24259DPPA   C4B29564   9.771   3.256  20.814  0.2088 -0.1818 -0.1913
24260DPPA   PO429565   8.062   2.157  21.948 -0.1318 -0.0571  0.0435
24260DPPA   GL129566   8.368   2.109  21.619  0.0818  0.1310 -0.0770
24260DPPA   GL229567   8.100   2.168  21.465  0.4285 -0.1786 -0.2346
24260DPPA   C1A29568   8.617   2.051  21.355 -0.0103 -0.1550  0.3629
24260DPPA   C2A29569   8.839   2.037  21.016  0.1684 -0.2005 -0.0161
24260DPPA   C3A29570   9.151   2.003  20.751  0.0466 -0.3092 -0.0710
24260DPPA   C4A29571   9.448   1.957  20.338  0.3002  0.1957 -0.1852
24260DPPA   C1B29572   8.271   2.383  21.275 -0.1740  0.0986  0.1851
24260DPPA   C2B29573   8.504   2.426  20.956  0.1004  0.0137  0.1490
24260DPPA   C3B29574   8.856   2.433  20.595  0.1335 -0.2673  0.1077
24260DPPA   C4B29575   9.154   2.418  20.184 -0.0253 -0.0827 -0.1872
24261DPPA   PO429576   9.597   1.923  24.950 -0.0971  0.0073  0.0643
24261DPPA   GL129577   9.960   2.022  24.659  0.1133 -0.2310 -0.3380
24261DPPA   GL229578  10.108   2.113  24.930  0.2475  0.0999  0.3835
24261DPPA   C1A29579  10.143   1.915  24.326 -0.0618 -0.0673 -0.1265
24261DPPA   C2A29580  10.505   1.898  24.124  0.0796 -0.2147 -0.3692
24261DPPA   C3A29581  10.874   1.868  23.809  0.0050  0.0485 -0.0914
24261DPPA   C4A29582  11.149   1.862  23.411 -0.3636  0.2040  0.0850
24261DPPA   C1B29583  10.374   2.108  24.748 -0.2709 -0.0640 -0.3344
24261DPPA   C2B29584  10.698   1.909  24.616 -0.1707 -0.1791 -0.0080
24261DPPA   C3B29585  11.074   1.937  24.323 -0.0994  0.2064 -0.0547
24261DPPA   C4B29586  11.332   1.928  23.941  0.1895  0.0368 -0.1145
24262DPPA   PO429587   9.985   3.442  25.066  0.1042  0.3745  0.0774
24262DPPA   GL129588  10.174   3.528  24.723  0.1045 -0.1744  0.0551
24262DPPA   GL229589  10.411   3.433  24.739 -0.0302  0.2387  0.2724
24262DPPA   C1A29590  10.240   3.464  24.313  0.0625 -0.2173 -0.2502
24262DPPA   C2A29591  10.430   3.573  23.956 -0.0225  0.0928 -0.1126
24262DPPA   C3A29592  10.703   3.655  23.531 -0.0212  0.2189 -0.0493
24262DPPA   C4A29593  11.016   3.617  23.153 -0.0405 -0.0414  0.0889
24262DPPA   C1B29594  10.701   3.397  24.536 -0.0623 -0.2517 -0.1723
24262DPPA   C2B29595  10.987   3.325  24.250  0.1229  0.2378  0.1186
24262DPPA   C3B29596  11.355   3.274  23.922 -0.0648  0.1974 -0.1917
24262DPPA   C4B29597  11.762   3.238  23.570 -0.1463  0.0399  0.0261
24263DPPA   PO429598   7.709   3.106  22.164 -0.2485 -0.0863 -0.1624
24263DPPA   GL129599   8.114   3.115  21.961 -0.1767 -0.0081 -0.2249
24263DPPA   GL229600   8.057   3.101  21.711 -0.0639 -0.0381  0.2002
24263DPPA   C1A29601   8.472   2.993  21.847  0.4215  0.3400 -0.0500
24263DPPA   C2A29602   8.836   2.865  21.684 -0.4033  0.0154  0.3306
24263DPPA   C3A29603   9.090   2.852  21.273  0.0424  0.1422  0.0184
24263DPPA   C4A29604   9.449   2.845  20.897  0.2289  0.0789 -0.1919
24263DPPA   C1B29605   8.281   3.210  21.417 -0.1014  0.4030 -0.1694
24263DPPA   C2B29606   8.354   3.295  21.024 -0.0898 -0.2380  0.1849
24263DPPA   C3B29607   8.607   3.280  20.629 -0.3721 -0.3426 -0.0726
24263DPPA   C4B29608   8.919   3.269  20.247  0.1491 -0.4090 -0.4545
24264DPPA   PO429609   9.506   5.228  24.671  0.2804 -0.0369  0.0119
24264DPPA   GL129610   9.907   5.138  24.519 -0.0935  0.0607  0.1146
24264DPPA   GL229611   9.869   5.328  24.289 -0.0127 -0.0343  0.0722
24264DPPA   C1A29612  10.197   5.005  24.277  0.4863 -0.3180  0.4203
24264DPPA   C2A29613  10.421   5.058  23.970  0.0831 -0.0086  0.0747
24264DPPA   C3A29614  10.728   5.011  23.627 -0.2315  0.1984 -0.3704
24264DPPA   C4A29615  11.065   4.963  23.253  0.1136 -0.1211 -0.0020
24264DPPA   C1B29616  10.107   5.394  24.011  0.0174  0.4291  0.2789
24264DPPA   C2B29617  10.327   5.434  23.634  0.0425 -0.2001  0.0852
24264DPPA   C3B29618  10.727   5.408  23.318 -0.0640  0.1469 -0.0724
24264DPPA   C4B29619  10.971   5.382  22.887 -0.0853  0.0142  0.0266
24265DPPA   PO429620   9.133   5.296  23.738  0.0248  0.2217  0.0887
24265DPPA   GL129621   9.493   5.195  23.533  0.0809  0.3528 -0.0725
24265DPPA   GL229622   9.342   5.362  23.307 -0.0320  0.0881  0.0041
24265DPPA   C1A29623   9.806   5.305  23.447  0.1123  0.1025 -0.0957
24265DPPA   C2A29624  10.080   5.361  23.154 -0.1292 -0.0976  0.1158
24265DPPA   C3A29625  10.417   5.399  22.768  0.0535  0.0750 -0.1992
24265DPPA   C4A29626  10.738   5.341  22.432 -0.1552  0.0527 -0.1172
24265DPPA   C1B29627   9.510   5.350  22.977 -0.1072 -0.3128  0.0969
24265DPPA   C2B29628   9.811   5.270  22.759 -0.2459  0.2245 -0.1762
24265DPPA   C3B29629  10.156   5.265  22.377 -0.0433  0.2022 -0.0775
24265DPPA   C4B29630  10.470   5.200  21.987  0.1548  0.1498  0.0899
24266DPPA   PO429631  12.557   0.277  20.545 -0.0403 -0.0618  0.4310
24266DPPA   GL129632  12.280   0.471  20.587 -0.1280  0.0584  0.0921
24266DPPA   GL229633  12.102   0.577  20.409 -0.0738  0.1456 -0.2710
24266DPPA   C1A29634  12.052   0.451  20.889 -0.1308  0.2451  0.1736
24266DPPA   C2A29635  11.800   0.421  21.265 -0.2388  0.0415  0.0415
24266DPPA   C3A29636  11.466   0.484  21.686 -0.2034 -0.0718 -0.2992
24266DPPA   C4A29637  11.240   0.435  22.048 -0.1471 -0.0238 -0.3464
24266DPPA   C1B29638  11.764   0.441  20.405 -0.0554 -0.0943 -0.0839
24266DPPA   C2B29639  11.408   0.659  20.470  0.1234  0.1231 -0.0685
24266DPPA   C3B29640  11.208   0.837  20.883  0.1509 -0.2130 -0.3252
24266DPPA   C4B29641  10.871   0.869  21.285 -0.2385  0.1858  0.2937
24267DPPC   NC329642  11.535   2.546  19.176  0.2811  0.0007  0.1466
24267DPPC   PO429643  11.252   2.556  18.919 -0.0625  0.1808 -0.1825
24267DPPC   GL129644  10.818   2.475  19.107  0.3547 -0.2374 -0.2588
24267DPPC   GL229645  10.875   2.743  19.106 -0.1956  0.1897  0.0981
24267DPPC   C1A29646  10.718   2.213  19.328 -0.0405  0.0444  0.0576
24267DPPC   C2A29647  10.879   2.092  19.750  0.1726 -0.3222 -0.1407
24267DPPC   C3A29648  10.664   2.109  20.174  0.0671  0.1174 -0.1827
24267DPPC   C4A29649  10.389   2.063  20.599  0.1365 -0.1629  0.0216
24267DPPC   C1B29650  10.808   3.037  19.355 -0.0782  0.1130  0.0482
24267DPPC   C2B29651  10.492   3.229  19.581 -0.0096 -0.1772 -0.3913
24267DPPC   C3B29652  10.255   3.328  19.988  0.0374 -0.2617  0.2943
24267DPPC   C4B29653   9.979   3.304  20.365 -0.1462 -0.0457  0.0330
24268DPPC   NC329654   3.711   6.026  15.913  0.0646  0.1963  0.0370
24268DPPC   PO429655   3.876   6.357  15.984  0.1513  0.0834 -0.1972
24268DPPC   GL129656   3.959   6.472  16.424  0.1180 -0.1266 -0.1618
24268DPPC   GL229657   3.727   6.642  16.389 -0.0896  0.1711  0.2660
24268DPPC   C1A29658   4.170   6.531  16.733  0.0848 -0.0456 -0.0268
24268DPPC   C2A29659   4.389   6.573  17.101  0.1887  0.2934  0.1245
24268DPPC   C3A29660   4.663   6.619  17.502 -0.1964 -0.1599 -0.2477
24268DPPC   C4A29661   5.062   6.668  17.797  0.1693  0.0212  0.3060
24268DPPC   C1B29662   3.806   6.883  16.625 -0.2438 -0.1249  0.1998
24268DPPC   C2B29663   3.999   6.940  17.013  0.0051 -0.1723  0.0539
24268DPPC   C3B29664   4.351   7.010  17.346 -0.1353 -0.0058  0.3545
24268DPPC   C4B29665   4.600   7.007  17.778 -0.0591 -0.1378  0.1706
24269DPPC   NC329666  13.526   0.787  22.273  0.0790 -0.1296 -0.2648
24269DPPC   PO429667  13.803   0.960  22.491  0.2234 -0.0107 -0.0033
24269DPPC   GL129668  13.649   0.858  22.755  0.2078  0.0209  0.0031
24269DPPC   GL229669  13.716   0.695  22.892 -0.3735 -0.0548 -0.0464
24269DPPC   C1A29670  13.276   0.865  22.831 -0.0774 -0.0743 -0.2443
24269DPPC   C2A29671  13.078   0.611  23.114 -0.1978 -0.1638  0.0803
24269DPPC   C3A29672  12.739   0.633  23.425  0.1748  0.1422 -0.1964
24269DPPC   C4A29673  12.446   0.730  23.801 -0.1449  0.2465  0.0634
24269DPPC   C1B29674  13.513   0.784  23.209 -0.0039  0.1677 -0.1453
24269DPPC   C2B29675  13.280   0.721  23.569 -0.0908 -0.1281 -0.1700
24269DPPC   C3B29676  12.953   0.799  23.956 -0.0195 -0.1543  0.4128
24269DPPC   C4B29677  12.596   0.816  24.337 -0.2499  0.0774  0.0829
24270DPPC   NC329678  10.947   2.883  18.659 -0.1545  0.0809 -0.3037
24270DPPC   PO429679  10.835   2.472  18.635  0.0109  0.1708  0.0701
24270DPPC   GL129680  10.546   2.636  18.792  0.1943 -0.0916 -0.0514
24270DPPC   GL229681  10.536   2.931  18.903  0.3054 -0.0683 -0.3191
24270DPPC   C1A29682  10.370   2.471  19.051  0.1498  0.2092 -0.2601
24270DPPC   C2A29683  10.188   2.349  19.383 -0.2432 -0.2772 -0.0874
24270DPPC   C3A29684   9.926   2.371  19.753  0.1916 -0.0971  0.2594
24270DPPC   C4A29685   9.674   2.383  20.151 -0.0740 -0.3065  0.0593
24270DPPC   C1B29686  10.352   2.910  19.188  0.3076  0.1273 -0.2935
24270DPPC   C2B29687  10.220   2.850  19.594 -0.3098 -0.0306  0.0138
24270DPPC   C3B29688  10.002   2.826  20.029  0.2646 -0.1096 -0.0103
24270DPPC   C4B29689   9.752   2.853  20.500  0.4104  0.1098 -0.0887
24271DPPC   NC329690   6.450   3.202  16.291  0.0319 -0.0739 -0.3215
24271DPPC   PO429691   6.602   2.972  16.620  0.0953 -0.1070 -0.0575
24271DPPC   GL129692   6.747   3.099  16.970 -0.5014  0.5845 -0.2375
24271DPPC   GL229693   6.981   3.257  16.843  0.1099  0.0800  0.1451
24271DPPC   C1A29694   6.861   3.065  17.283 -0.0624 -0.3556 -0.1611
24271DPPC   C2A29695   7.013   2.945  17.661  0.2408  0.0359  0.1152
24271DPPC   C3A29696   6.742   3.046  18.040  0.1779 -0.1997 -0.1170
24271DPPC   C4A29697   6.532   2.958  18.489 -0.4421  0.3917 -0.1552
24271DPPC   C1B29698   7.246   3.230  17.092 -0.2032 -0.0873  0.3709
24271DPPC   C2B29699   7.640   3.257  17.262 -0.0253  0.4651 -0.0716
24271DPPC   C3B29700   8.031   3.144  17.565  0.0529  0.1090 -0.2041
24271DPPC   C4B29701   8.356   3.029  17.928  0.0090 -0.0358  0.1218
24272DPPC   NC329702  10.622   1.423  17.721 -0.1476  0.0020 -0.1064
24272DPPC   PO429703  10.636   1.243  18.071  0.0423  0.3728  0.0780
24272DPPC   GL129704  10.350   1.216  18.413  0.0466 -0.3308  0.2282
24272DPPC   GL229705  10.059   1.192  18.323 -0.0925  0.1018 -0.2125
24272DPPC   C1A29706  10.191   1.281  18.739  0.1590 -0.0881 -0.1188
24272DPPC   C2A29707  10.002   1.394  19.065 -0.0439  0.1759  0.0958
24272DPPC   C3A29708   9.714   1.499  19.447  0.1787  0.4977 -0.0790
24272DPPC   C4A29709   9.459   1.504  19.923 -0.3502  0.2936  0.3407
24272DPPC   C1B29710   9.673   1.139  18.449 -0.0297 -0.1276 -0.4195
24272DPPC   C2B29711   9.357   1.059  18.683  0.1144 -0.0929 -0.0075
24272DPPC   C3B29712   9.126   1.013  19.114 -0.0757 -0.0556 -0.3157
24272DPPC   C4B29713   8.782   1.002  19.491 -0.0380  0.1601 -0.2740
24273DPPC   NC329714  13.685   4.188  22.412 -0.2440 -0.3080 -0.1058
24273DPPC   PO429715  13.336   4.350  22.211 -0.0659  0.4785 -0.0147
24273DPPC   GL129716  13.128   4.459  22.513 -0.1141 -0.0721  0.2703
24273DPPC   GL229717  13.131   4.767  22.514  0.3117  0.4031  0.0366
24273DPPC   C1A29718  12.881   4.225  22.566  0.4040  0.1416 -0.3236
24273DPPC   C2A29719  12.625   4.168  22.896 -0.1423  0.2494 -0.4031
24273DPPC   C3A29720  12.335   4.217  23.283  0.3061  0.1891 -0.0036
24273DPPC   C4A29721  12.035   4.158  23.702 -0.1868 -0.2274 -0.0069
24273DPPC   C1B29722  12.898   4.705  22.785  0.1438 -0.1694  0.4357
24273DPPC   C2B29723  12.674   4.653  23.128 -0.1479  0.1597  0.0833
24273DPPC   C3B29724  12.409   4.636  23.517 -0.1149  0.0835 -0.0335
24273DPPC   C4B29725  12.130   4.590  23.938 -0.0397  0.0961 -0.1370
24274DPPC   NC329726  11.129   1.252  18.895  0.0938 -0.3230  0.0740
24274DPPC   PO429727  11.078   1.583  18.669 -0.0694  0.3476  0.1566
24274DPPC   GL129728  10.809   1.647  18.875 -0.0227 -0.1052 -0.4574
24274DPPC   GL229729  10.620   1.408  18.807  0.0669  0.0043 -0.0183
24274DPPC   C1A29730  10.621   1.808  19.153 -0.3890  0.0329 -0.0153
24274DPPC   C2A29731  10.469   1.913  19.512  0.0530  0.1305 -0.0398
24274DPPC   C3A29732  10.260   2.021  19.931  0.0874  0.0827 -0.0127
24274DPPC   C4A29733   9.993   2.053  20.333 -0.2282  0.0524 -0.1635
24274DPPC   C1B29734  10.425   1.421  19.153 -0.2363 -0.0469  0.2167
24274DPPC   C2B29735  10.231   1.501  19.513  0.0377  0.1743  0.2021
24274DPPC   C3B29736   9.944   1.533  19.948  0.2573 -0.0965 -0.0512
24274DPPC   C4B29737   9.681   1.485  20.382 -0.0373  0.5935 -0.4786
24275DPPC   NC329738  13.229   3.134  21.288 -0.0291  0.2829  0.0474
24275DPPC   PO429739  12.852   3.019  21.287 -0.2402 -0.1962 -0.1698
24275DPPC   GL129740  12.525   2.842  21.439  0.2624  0.4893 -0.2422
24275DPPC   GL229741  12.645   2.913  21.684 -0.0761  0.3120  0.0620
24275DPPC   C1A29742  12.158   2.990  21.400  0.1000  0.0983  0.1212
24275DPPC   C2A29743  11.924   3.069  21.766  0.0696 -0.0046 -0.1810
24275DPPC   C3A29744  11.609   3.144  22.107  0.2236  0.1710  0.0840
24275DPPC   C4A29745  11.314   3.173  22.493 -0.0410 -0.0463 -0.0872
24275DPPC   C1B29746  12.548   3.114  21.964 -0.2234 -0.3152  0.2181
24275DPPC   C2B29747  12.156   3.174  22.235 -0.2805  0.2012 -0.2910
24275DPPC   C3B29748  11.852   3.220  22.578  0.0817  0.0157 -0.3185
24275DPPC   C4B29749  11.487   3.194  22.972 -0.1825 -0.2491 -0.0461
24276DPPC   NC329750  13.229   1.741  22.001  0.1394 -0.5554 -0.0892
24276DPPC   PO429751  12.969   1.679  21.723  0.1109 -0.1161  0.0058
24276DPPC   GL129752  12.667   1.966  21.753 -0.4820  0.1590  0.1340
24276DPPC   GL229753  12.467   1.919  21.574 -0.2151 -0.2529  0.1203
24276DPPC   C1A29754  12.458   2.124  22.073 -0.0121 -0.1704 -0.4275
24276DPPC   C2A29755  12.169   2.271  22.321 -0.0284  0.0081 -0.1860
24276DPPC   C3A29756  11.923   2.332  22.705 -0.1157  0.3559  0.1393
24276DPPC   C4A29757  11.603   2.308  23.049 -0.0099  0.2040  0.1182
24276DPPC   C1B29758  12.215   1.852  21.822 -0.2721 -0.1036  0.1465
24276DPPC   C2B29759  11.994   1.825  22.141  0.2236  0.1909 -0.3392
24276DPPC   C3B29760  11.727   1.849  22.543 -0.0040 -0.0854 -0.0660
24276DPPC   C4B29761  11.455   1.865  22.955  0.0301 -0.1079 -0.2635
24277DPPC   NC329762  12.717   6.454  20.381  0.0513  0.1008 -0.0164
24277DPPC   PO429763  12.532   6.112  20.309 -0.0835 -0.1533 -0.0640
24277DPPC   GL129764  12.161   6.257  20.471 -0.0671  0.0886 -0.0375
24277DPPC   GL229765  12.202   6.591  20.408 -0.2668 -0.0374  0.1233
24277DPPC   C1A29766  11.860   6.127  20.618  0.3803  0.2632 -0.2574
24277DPPC   C2A29767  11.601   6.065  20.968  0.0710 -0.0892 -0.0747
24277DPPC   C3A29768  11.263   6.078  21.324 -0.0661 -0.0544 -0.1201
24277DPPC   C4A29769  10.997   6.154  21.727 -0.1631 -0.2436  0.1548
24277DPPC   C1B29770  11.892   6.691  20.620 -0.1135 -0.1537 -0.2748
24277DPPC   C2B29771  11.576   6.875  20.784 -0.6197  0.5177 -0.0488
24277DPPC   C3B29772  11.270   6.998  21.145 -0.1275  0.1242 -0.0664
24277DPPC   C4B29773  10.983   6.999  21.530  0.2154 -0.0670  0.2444
24278DPPC   NC329774  11.626   1.425  19.333 -0.1061  0.2276  0.0826
24278DPPC   PO429775  11.436   1.083  19.249  0.0214 -0.1548  0.1590
24278DPPC   GL129776  11.318   0.914  19.527  0.2307  0.0049 -0.0216
24278DPPC   GL229777  11.529   1.055  19.798 -0.1676  0.1463 -0.0167
24278DPPC   C1A29778  11.039   0.941  19.708  0.2095  0.2105 -0.1296
24278DPPC   C2A29779  10.870   1.159  20.009 -0.2640 -0.0462  0.1540
24278DPPC   C3A29780  10.579   1.237  20.327 -0.2150  0.2756  0.0754
24278DPPC   C4A29781  10.302   1.206  20.740 -0.1621  0.1594 -0.1913
24278DPPC   C1B29782  11.439   1.181  20.131  0.2932 -0.1917 -0.0081
24278DPPC   C2B29783  11.196   1.177  20.466 -0.4221  0.0245  0.0021
24278DPPC   C3B29784  10.873   1.234  20.826 -0.3227  0.0381 -0.0743
24278DPPC   C4B29785  10.545   1.211  21.254 -0.0260 -0.0188  0.0560
24279DPPC   NC329786  10.892   5.501  18.396 -0.2625 -0.0723  0.3214
24279DPPC   PO429787  11.006   5.595  18.732 -0.2668  0.0587 -0.2338
24279DPPC   GL129788  10.939   5.586  19.234  0.1743 -0.1255 -0.2807
24279DPPC   GL229789  10.812   5.854  19.104 -0.0427 -0.2531 -0.0640
24279DPPC   C1A29790  10.618   5.493  19.443 -0.0007 -0.0339 -0.1728
24279DPPC   C2A29791  10.434   5.515  19.766  0.0060  0.2282 -0.0986
24279DPPC   C3A29792  10.138   5.541  20.163 -0.2370  0.2262 -0.5027
24279DPPC   C4A29793   9.796   5.592  20.562  0.1646 -0.0895 -0.3617
24279DPPC   C1B29794  10.448   5.916  19.246 -0.2669 -0.0811 -0.1230
24279DPPC   C2B29795  10.206   5.918  19.593 -0.0511 -0.2133 -0.3025
24279DPPC   C3B29796   9.899   5.973  19.989  0.4413  0.2982  0.1895
24279DPPC   C4B29797   9.612   6.010  20.331  0.1875 -0.0324 -0.2120
24280DPPC   NC329798  11.357   4.274  18.763 -0.1328  0.0109  0.1160
24280DPPC   PO429799  11.401   4.409  19.122  0.0917  0.3786  0.1534
24280DPPC   GL129800  11.121   4.433  19.322  0.0528  0.0187  0.1824
24280DPPC   GL229801  10.928   4.596  19.273  0.0032 -0.0879 -0.1830
24280DPPC   C1A29802  10.937   4.258  19.613 -0.1194  0.0627  0.1174
24280DPPC   C2A29803  10.735   4.219  19.957  0.1735  0.0034 -0.1789
24280DPPC   C3A29804  10.464   4.205  20.352  0.4038 -0.0536 -0.1476
24280DPPC   C4A29805  10.201   4.204  20.756 -0.1805  0.3623  0.1323
24280DPPC   C1B29806  10.734   4.630  19.573  0.0669 -0.0209  0.1630
24280DPPC   C2B29807  10.448   4.591  19.862 -0.0905 -0.2549 -0.0195
24280DPPC   C3B29808  10.192   4.635  20.289  0.0211  0.0974 -0.0764
24280DPPC   C4B29809   9.863   4.605  20.702  0.3341  0.0636 -0.2265
24281DPPC   NC329810  12.057   6.557  19.502  0.0878 -0.1680 -0.2389
24281DPPC   PO429811  11.716   6.421  19.320  0.0805 -0.1588 -0.2947
24281DPPC   GL129812  11.280   6.499  19.322  0.0325  0.2444 -0.2574
24281DPPC   GL229813  11.228   6.187  19.243  0.1839  0.3787 -0.0727
24281DPPC   C1A29814  11.049   6.527  19.634 -0.1321 -0.1388 -0.0933
24281DPPC   C2A29815  10.781   6.421  19.967  0.0498 -0.1123  0.5057
24281DPPC   C3A29816  10.520   6.441  20.311  0.2709  0.1027 -0.0720
24281DPPC   C4A29817  10.247   6.475  20.690 -0.0416 -0.1133 -0.2930
24281DPPC   C1B29818  11.014   6.050  19.505 -0.3663  0.2526  0.1633
24281DPPC   C2B29819  10.685   5.938  19.706 -0.0842 -0.1307  0.0620
24281DPPC   C3B29820  10.367   6.023  20.095 -0.0374 -0.0774 -0.0253
24281DPPC   C4B29821  10.111   6.006  20.505  0.0892 -0.1819 -0.0573
24282DPPC   NC329822  13.085   5.045  21.598  0.1132  0.1661 -0.2843
24282DPPC   PO429823  13.318   5.281  21.811  0.0670  0.0947 -0.1188
24282DPPC   GL129824  12.959   5.527  21.874 -0.1722 -0.2905  0.1962
24282DPPC   GL229825  12.901   5.593  21.631  0.0930  0.0735 -0.0177
24282DPPC   C1A29826  12.690   5.385  22.093 -0.0898 -0.1130 -0.0211
24282DPPC   C2A29827  12.423   5.482  22.408 -0.2067  0.2979  0.0510
24282DPPC   C3A29828  12.243   5.411  22.856 -0.2843 -0.0800 -0.0033
24282DPPC   C4A29829  11.936   5.515  23.225  0.0598 -0.1498 -0.1034
24282DPPC   C1B29830  12.565   5.522  21.609  0.0576 -0.4163 -0.1863
24282DPPC   C2B29831  12.288   5.363  21.799 -0.1584  0.4500 -0.1063
24282DPPC   C3B29832  12.000   5.372  22.196 -0.2524 -0.1702  0.0023
24282DPPC   C4B29833  11.775   5.331  22.642 -0.2171  0.3628 -0.0453
24283DPPC   NC329834   9.779   4.823  17.248  0.0670  0.1438 -0.0345
24283DPPC   PO429835   9.879   4.741  17.616  0.3643 -0.5397 -0.0740
24283DPPC   GL129836   9.774   4.691  18.087 -0.3044 -0.0594  0.0686
24283DPPC   GL229837   9.692   4.979  18.089 -0.1707  0.5187 -0.0591
24283DPPC   C1A29838   9.548   4.516  18.288 -0.3889  0.0734 -0.0052
24283DPPC   C2A29839   9.424   4.562  18.697  0.2320 -0.1694  0.1013
24283DPPC   C3A29840   9.160   4.504  19.105  0.0070 -0.0225  0.1311
24283DPPC   C4A29841   8.966   4.526  19.521  0.0272 -0.2113  0.1719
24283DPPC   C1B29842   9.396   4.961  18.370 -0.0012 -0.0850  0.1830
24283DPPC   C2B29843   9.121   4.954  18.666  0.1589 -0.0647  0.0716
24283DPPC   C3B29844   8.867   4.933  19.128 -0.0766 -0.0272  0.2081
24283DPPC   C4B29845   8.566   4.910  19.502 -0.0408  0.1073  0.0065
24284DPPC   NC329846  10.895   2.843  17.869  0.1564 -0.0223 -0.1427
24284DPPC   PO429847  10.674   2.842  18.225 -0.2727  0.2322 -0.1106
24284DPPC   GL129848  10.361   2.917  18.499 -0.2788 -0.0256 -0.1681
24284DPPC   GL229849  10.160   2.968  18.263  0.0176  0.1055  0.2618
24284DPPC   C1A29850  10.133   2.824  18.795 -0.0654  0.1006  0.0287
24284DPPC   C2A29851   9.884   2.798  19.170 -0.1788 -0.2884 -0.2179
24284DPPC   C3A29852   9.714   2.755  19.604 -0.0080  0.1732 -0.0734
24284DPPC   C4A29853   9.458   2.782  20.054  0.3476  0.0199  0.2066
24284DPPC   C1B29854   9.862   2.886  18.425  0.2080  0.2499  0.0386
24284DPPC   C2B29855   9.620   2.719  18.679  0.0883 -0.2299 -0.2898
24284DPPC   C3B29856   9.408   2.789  19.120 -0.2470  0.0653 -0.2537
24284DPPC   C4B29857   9.198   2.781  19.562  0.0003 -0.1195  0.0245
24285DPPC   NC329858  11.902   5.514  19.432  0.1911 -0.0392  0.3165
24285DPPC   PO429859  11.676   5.317  19.190  0.1778 -0.0909  0.0068
24285DPPC   GL129860  11.326   5.390  19.399  0.1151 -0.1874  0.1154
24285DPPC   GL229861  11.533   5.214  19.587  0.0391 -0.1057 -0.0917
24285DPPC   C1A29862  11.078   5.431  19.645 -0.0786 -0.2891 -0.1492
24285DPPC   C2A29863  10.905   5.543  20.012 -0.0242 -0.0851  0.0029
24285DPPC   C3A29864  10.593   5.599  20.454  0.0436  0.0825  0.1555
24285DPPC   C4A29865  10.256   5.614  20.825 -0.1757 -0.1458 -0.0207
24285DPPC   C1B29866  11.299   5.111  19.880 -0.0813  0.2842 -0.1191
24285DPPC   C2B29867  11.047   5.120  20.201  0.2490  0.2915 -0.2390
24285DPPC   C3B29868  10.800   5.151  20.643  0.0079 -0.1487  0.1330
24285DPPC   C4B29869  10.483   5.173  21.006 -0.3459 -0.0395 -0.0624
24286DPPC   NC329870  13.016   1.333  21.041 -0.0581  0.0478  0.2127
24286DPPC   PO429871  12.830   0.945  21.127  0.2651 -0.1530 -0.1762
24286DPPC   GL129872  12.542   0.906  21.347  0.3204  0.2182  0.1749
24286DPPC   GL229873  12.459   0.634  21.172  0.1006 -0.1769 -0.0788
24286DPPC   C1A29874  12.329   0.906  21.646  0.3531 -0.2767  0.0203
24286DPPC   C2A29875  12.166   0.892  22.030 -0.1628  0.2345 -0.1616
24286DPPC   C3A29876  11.922   0.836  22.450  0.0630 -0.2408  0.0053
24286DPPC   C4A29877  11.639   0.945  22.833  0.1920  0.2567  0.0402
24286DPPC   C1B29878  12.220   0.511  21.411  0.8173 -0.2999  0.2460
24286DPPC   C2B29879  12.094   0.482  21.753  0.1669 -0.3046 -0.2138
24286DPPC   C3B29880  11.793   0.488  22.076  0.2279  0.0129 -0.2953
24286DPPC   C4B29881  11.554   0.472  22.478  0.2581 -0.0392  0.4589
24287DPPC   NC329882   3.876   0.288  16.023  0.1374  0.2909  0.1916
24287DPPC   PO429883   4.183   0.519  15.943  0.0344 -0.0447  0.0658
24287DPPC   GL129884   4.158   0.430  16.362 -0.0076  0.2397 -0.0266
24287DPPC   GL229885   4.250   0.645  16.357  0.2991  0.0214 -0.1217
24287DPPC   C1A29886   4.331   0.370  16.699  0.1725 -0.2384 -0.0174
24287DPPC   C2A29887   4.615   0.484  16.961 -0.0597 -0.1059 -0.2629
24287DPPC   C3A29888   4.861   0.426  17.381 -0.0853  0.0359  0.1739
24287DPPC   C4A29889   5.063   0.615  17.797  0.1613 -0.0257 -0.1503
24287DPPC   C1B29890   4.510   0.792  16.641  0.0121 -0.0221  0.0007
24287DPPC   C2B29891   4.767   1.025  16.913 -0.2079 -0.0963  0.3062
24287DPPC   C3B29892   5.128   1.260  16.914 -0.0629  0.1360 -0.0321
24287DPPC   C4B29893   5.539   1.627  16.873 -0.3221 -0.0908 -0.1515
24288DPPC   NC329894  10.774   0.788  18.190 -0.1819  0.0644 -0.2829
24288DPPC   PO429895  10.859   0.505  18.432 -0.0137  0.3403 -0.1908
24288DPPC   GL129896  10.561   0.289  18.696  0.0106 -0.2217  0.0339
24288DPPC   GL229897  10.418   0.376  18.406 -0.0136 -0.3194 -0.0486
24288DPPC   C1A29898  10.328   0.507  18.904  0.3391 -0.0636  0.1943
24288DPPC   C2A29899   9.981   0.604  19.118 -0.3269  0.0493 -0.2585
24288DPPC   C3A29900   9.723   0.631  19.538  0.0985 -0.1445 -0.0587
24288DPPC   C4A29901   9.471   0.585  19.961  0.1304 -0.1807  0.1915
24288DPPC   C1B29902  10.061   0.432  18.406 -0.1430  0.0607 -0.2510
24288DPPC   C2B29903   9.719   0.440  18.622  0.1344  0.0186 -0.1798
24288DPPC   C3B29904   9.502   0.543  19.009 -0.0988 -0.0874 -0.1425
24288DPPC   C4B29905   9.211   0.569  19.425  0.3154  0.0005 -0.1357
24289DPPC   NC329906  11.413   5.646  19.000 -0.2585  0.1497  0.1039
24289DPPC   PO429907  11.512   5.831  19.345 -0.0069  0.0667  0.1407
24289DPPC   GL129908  11.386   5.856  19.710 -0.1068  0.0425 -0.0769
24289DPPC   GL229909  11.472   5.611  19.854 -0.5959 -0.2365  0.3055
24289DPPC   C1A29910  11.110   5.916  19.952 -0.2881 -0.0709  0.3444
24289DPPC   C2A29911  10.922   6.056  20.251  0.1136  0.1416  0.0959
24289DPPC   C3A29912  10.614   6.055  20.615  0.1153  0.0550 -0.0627
24289DPPC   C4A29913  10.269   6.067  20.939 -0.2119 -0.0151 -0.0277
24289DPPC   C1B29914  11.387   5.579  20.185  0.1463 -0.1122 -0.0900
24289DPPC   C2B29915  11.083   5.599  20.499 -0.0024  0.0710  0.2459
24289DPPC   C3B29916  10.784   5.598  20.895 -0.2876  0.0541 -0.3026
24289DPPC   C4B29917  10.484   5.721  21.312 -0.0478  0.1786 -0.3470
24290DPPC   NC329918  10.873   4.916  18.331 -0.1417 -0.1979  0.0800
24290DPPC   PO429919  10.776   5.123  18.667  0.1971  0.1674  0.1356
24290DPPC   GL129920  10.498   5.452  18.633 -0.1438 -0.1769 -0.1774
24290DPPC   GL229921  10.297   5.360  18.438  0.0820  0.0811  0.1886
24290DPPC   C1A29922  10.317   5.537  18.979 -0.1676  0.0026  0.2773
24290DPPC   C2A29923  10.143   5.503  19.349  0.2961  0.2163 -0.0036
24290DPPC   C3A29924   9.824   5.506  19.714  0.2208  0.0562  0.0244
24290DPPC   C4A29925   9.531   5.464  20.146  0.2111  0.0595 -0.0595
24290DPPC   C1B29926  10.029   5.460  18.621 -0.0039  0.4133 -0.2983
24290DPPC   C2B29927   9.786   5.433  18.895 -0.0081 -0.0976  0.0502
24290DPPC   C3B29928   9.501   5.385  19.302 -0.1712  0.3997 -0.0310
24290DPPC   C4B29929   9.255   5.336  19.691  0.0384  0.0189 -0.2370
24291DPPC   NC329930   9.427   3.573  17.351 -0.2466  0.2766  0.0508
24291DPPC   PO429931   9.690   3.884  17.399 -0.1392 -0.0988 -0.0761
24291DPPC   GL129932   9.699   3.753  17.837 -0.0781 -0.3058 -0.1185
24291DPPC   GL229933   9.568   3.475  17.791  0.0781 -0.0236  0.1424
24291DPPC   C1A29934   9.551   4.025  18.133 -0.1591  0.1841  0.1650
24291DPPC   C2A29935   9.270   4.091  18.389 -0.0883 -0.0710  0.1791
24291DPPC   C3A29936   9.081   4.035  18.796  0.0326  0.0834  0.0883
24291DPPC   C4A29937   8.916   4.067  19.256 -0.0798  0.5073  0.0623
24291DPPC   C1B29938   9.368   3.268  18.004 -0.0265  0.0165  0.5867
24291DPPC   C2B29939   9.363   3.083  18.390 -0.0208 -0.3671 -0.3557
24291DPPC   C3B29940   9.132   3.140  18.832 -0.0490  0.0640  0.1392
24291DPPC   C4B29941   8.932   3.204  19.242 -0.0219 -0.0573  0.1807
24292DPPC   NC329942   5.658   5.964  15.957  0.1750 -0.2835  0.1015
24292DPPC   PO429943   5.512   6.308  16.106  0.0546  0.0579  0.0772
24292DPPC   GL129944   5.472   6.573  16.473  0.0332  0.1491 -0.1246
24292DPPC   GL229945   5.545   6.368  16.612 -0.0996 -0.1055 -0.3751
24292DPPC   C1A29946   5.602   6.826  16.707 -0.1013  0.1829  0.0744
24292DPPC   C2A29947   5.824   6.949  16.981  0.1101 -0.1173 -0.0453
24292DPPC   C3A29948   5.987   7.218  17.343  0.0366 -0.0810  0.0976
24292DPPC   C4A29949   6.300   7.334  17.760 -0.1874 -0.2139  0.2002
24292DPPC   C1B29950   5.619   6.412  16.979  0.1192  0.1743 -0.1793
24292DPPC   C2B29951   5.587   6.627  17.318  0.1229  0.0415 -0.4387
24292DPPC   C3B29952   5.467   6.916  17.722  0.3849 -0.2558 -0.0876
24292DPPC   C4B29953   5.299   6.798  18.187  0.3322 -0.3089  0.1665
24293DPPC   NC329954   9.686   1.513  16.704  0.2656 -0.0705 -0.2306
24293DPPC   PO429955   9.354   1.497  16.880  0.0485 -0.1753 -0.0351
24293DPPC   GL129956   9.193   1.121  17.024  0.2031 -0.3978 -0.0177
24293DPPC   GL229957   9.341   1.256  17.262 -0.4156  0.2412  0.0227
24293DPPC   C1A29958   9.000   0.936  17.265 -0.3177  0.0990 -0.1438
24293DPPC   C2A29959   8.857   0.793  17.623  0.2603  0.2671  0.1458
24293DPPC   C3A29960   8.553   0.841  18.079  0.3619 -0.1036 -0.0322
24293DPPC   C4A29961   8.277   0.882  18.470  0.0161 -0.0736  0.1375
24293DPPC   C1B29962   9.172   1.243  17.597  0.4239 -0.0618 -0.0157
24293DPPC   C2B29963   8.899   1.284  17.888  0.0490 -0.2418 -0.1756
24293DPPC   C3B29964   8.589   1.280  18.284  0.0652  0.0472 -0.1225
24293DPPC   C4B29965   8.357   1.291  18.752 -0.0209 -0.0611  0.0834
24294DPPC   NC329966   6.861   0.071  16.840 -0.0695  0.0882  0.0537
24294DPPC   PO429967   7.047   0.384  16.810 -0.0363 -0.0517 -0.0228
24294DPPC   GL129968   6.972   0.472  17.170 -0.4573 -0.3200 -0.0136
24294DPPC   GL229969   6.855   0.740  17.220  0.3646 -0.0023  0.2655
24294DPPC   C1A29970   6.951   0.152  17.377  0.2124 -0.1851 -0.0572
24294DPPC   C2A29971   6.935  -0.008  17.754 -0.4419 -0.1492  0.0389
24294DPPC   C3A29972   6.782  -0.046  18.174  0.0440 -0.0811  0.0993
24294DPPC   C4A29973   6.534  -0.111  18.606  0.0238  0.1866  0.0703
24294DPPC   C1B29974   6.534   0.750  17.292 -0.1083  0.6236 -0.0296
24294DPPC   C2B29975   6.271   1.041  17.285  0.1071 -0.0449 -0.2977
24294DPPC   C3B29976   5.899   1.204  17.562  0.0263 -0.1541  0.0427
24294DPPC   C4B29977   5.580   1.520  17.765  0.0517 -0.0438  0.2898
24295DPPC   NC329978  13.142   6.377  21.097  0.1955  0.1800  0.1206
24295DPPC   PO429979  13.237   6.766  21.219  0.0107 -0.0406 -0.0506
24295DPPC   GL129980  12.954   6.673  21.589  0.1262  0.2536  0.0003
24295DPPC   GL229981  12.802   6.459  21.472 -0.5486 -0.3253 -0.0275
24295DPPC   C1A29982  12.712   6.689  21.853 -0.0467 -0.0647 -0.2846
24295DPPC   C2A29983  12.310   6.695  22.012  0.0567  0.3573 -0.0263
24295DPPC   C3A29984  11.993   6.656  22.322 -0.3352 -0.1370 -0.0164
24295DPPC   C4A29985  11.747   6.716  22.784  0.1885  0.1297 -0.1323
24295DPPC   C1B29986  12.502   6.342  21.631 -0.1087  0.0942 -0.0966
24295DPPC   C2B29987  12.134   6.271  21.887  0.2067  0.1164 -0.2352
24295DPPC   C3B29988  11.799   6.199  22.207  0.3761 -0.2038 -0.0599
24295DPPC   C4B29989  11.548   6.238  22.604  0.2366  0.2995  0.0074
24296DPPC   NC329990  11.610   2.830  19.996 -0.6497  0.0734 -0.0638
24296DPPC   PO429991  11.572   2.784  19.598  0.2320 -0.4039 -0.0833
24296DPPC   GL129992  11.122   2.673  19.461  0.1852 -0.0277 -0.2600
24296DPPC   GL229993  11.085   2.832  19.679  0.2716  0.6654 -0.0970
24296DPPC   C1A29994  10.735   2.594  19.512 -0.1213  0.3511  0.2886
24296DPPC   C2A29995  10.460   2.485  19.830  0.1172  0.0360 -0.0973
24296DPPC   C3A29996  10.259   2.474  20.245  0.0340 -0.1729 -0.0433
24296DPPC   C4A29997   9.988   2.429  20.620  0.0970 -0.0498  0.2201
24296DPPC   C1B29998  10.769   2.828  19.868  0.0886 -0.1488 -0.0697
24296DPPC   C2B29999  10.483   2.886  20.147 -0.0017  0.0748 -0.0170
24296DPPC   C3B30000  10.255   2.871  20.573 -0.1983 -0.1677 -0.0330
24296DPPC   C4B30001  10.032   2.884  20.995  0.2109 -0.3021 -0.0959
24297DPPC   NC330002  11.652   0.768  18.929  0.0818 -0.2764 -0.2592
24297DPPC   PO430003  11.458   0.465  19.078 -0.0207  0.0114 -0.0737
24297DPPC   GL130004  11.161   0.549  19.347 -0.2901  0.2025 -0.2404
24297DPPC   GL230005  11.060   0.800  19.201 -0.2384 -0.1177 -0.0614
24297DPPC   C1A30006  10.928   0.525  19.646  0.1392  0.1628  0.0575
24297DPPC   C2A30007  10.682   0.644  19.960 -0.0633  0.2170  0.1131
24297DPPC   C3A30008  10.373   0.766  20.309 -0.3010 -0.1609  0.0417
24297DPPC   C4A30009  10.101   0.762  20.690  0.1282 -0.2405 -0.0261
24297DPPC   C1B30010  10.802   0.966  19.324  0.0376 -0.3556 -0.1158
24297DPPC   C2B30011  10.572   1.081  19.589 -0.0516  0.1481  0.0187
24297DPPC   C3B30012  10.256   1.132  19.937  0.0763 -0.0610 -0.1388
24297DPPC   C4B30013  10.049   1.122  20.319  0.1280 -0.2396 -0.0807
24298DPPC   NC330014  10.835   4.285  18.182  0.0465 -0.1787 -0.0293
24298DPPC   PO430015  10.909   4.477  18.524 -0.1193 -0.0131 -0.0969
24298DPPC   GL130016  10.681   4.504  18.885  0.1514  0.0016  0.0199
24298DPPC   GL230017  10.668   4.752  18.860 -0.1656 -0.3510 -0.2141
24298DPPC   C1A30018  10.425   4.485  19.143  0.2388  0.1828  0.2143
24298DPPC   C2A30019  10.168   4.543  19.443 -0.2910 -0.1191  0.2645
24298DPPC   C3A30020   9.890   4.620  19.865 -0.1013 -0.1520  0.1884
24298DPPC   C4A30021   9.597   4.595  20.252 -0.1051  0.2472 -0.1080
24298DPPC   C1B30022  10.616   4.928  19.222 -0.1407  0.1554  0.1435
24298DPPC   C2B30023  10.372   5.050  19.527 -0.0869 -0.0910 -0.0744
24298DPPC   C3B30024  10.080   5.074  19.904  0.2141 -0.0564  0.1884
24298DPPC   C4B30025   9.791   5.073  20.358 -0.1097  0.1864 -0.0962
24299DPPC   NC330026  12.758   5.687  21.092  0.2047 -0.3189  0.0412
24299DPPC   PO430027  13.035   5.920  21.286 -0.0577  0.0272  0.0985
24299DPPC   GL130028  12.764   6.057  21.517  0.0514 -0.3767 -0.3509
24299DPPC   GL230029  12.561   6.120  21.238 -0.0105 -0.1070 -0.3715
24299DPPC   C1A30030  12.671   5.853  21.863  0.0956 -0.0769 -0.1059
24299DPPC   C2A30031  12.314   5.811  21.996  0.0841 -0.2111  0.1515
24299DPPC   C3A30032  12.089   5.829  22.444 -0.1927  0.0756  0.0440
24299DPPC   C4A30033  11.763   5.852  22.794 -0.1654 -0.2904  0.0982
24299DPPC   C1B30034  12.183   6.171  21.224 -0.1326 -0.1321 -0.0564
24299DPPC   C2B30035  11.816   6.178  21.428 -0.1099 -0.0030  0.0691
24299DPPC   C3B30036  11.519   6.158  21.760 -0.1208 -0.0424 -0.0403
24299DPPC   C4B30037  11.233   6.151  22.160  0.2538  0.2554 -0.2191
24300DPPC   NC330038  13.387   4.250  21.689 -0.1827 -0.3270  0.2021
24300DPPC   PO430039  13.357   4.653  21.682  0.0045 -0.0727 -0.2179
24300DPPC   GL130040  12.946   4.687  21.952 -0.2772 -0.6718  0.3093
24300DPPC   GL230041  12.972   4.994  22.057  0.3032 -0.0056  0.1363
24300DPPC   C1A30042  12.809   4.510  22.214 -0.3955  0.2463 -0.2428
24300DPPC   C2A30043  12.520   4.550  22.521  0.0503  0.0968 -0.0695
24300DPPC   C3A30044  12.181   4.581  22.961  0.0578 -0.0918 -0.0755
24300DPPC   C4A30045  11.926   4.613  23.393  0.1728 -0.1535  0.2726
24300DPPC   C1B30046  12.806   5.085  22.384  0.0512 -0.2650  0.0963
24300DPPC   C2B30047  12.583   5.059  22.776 -0.2317 -0.1865  0.0532
24300DPPC   C3B30048  12.381   5.030  23.200  0.3112 -0.0674 -0.2556
24300DPPC   C4B30049  12.085   5.125  23.587  0.0525  0.1482  0.2671
24301DPPC   NC330050  12.027   4.079  19.425 -0.0939  0.0334 -0.1936
24301DPPC   PO430051  11.975   4.029  19.844 -0.1012 -0.2747  0.1835
24301DPPC   GL130052  11.587   4.081  19.944 -0.1218 -0.3548 -0.0269
24301DPPC   GL230053  11.700   4.395  20.060  0.0708  0.1425 -0.3436
24301DPPC   C1A30054  11.412   3.944  20.198 -0.1615  0.1161 -0.1295
24301DPPC   C2A30055  11.280   3.853  20.594 -0.3362 -0.0136  0.2384
24301DPPC   C3A30056  11.073   3.818  21.045  0.2300  0.0340  0.0765
24301DPPC   C4A30057  10.767   3.828  21.397 -0.0370  0.0301  0.1562
24301DPPC   C1B30058  11.423   4.626  20.257 -0.1442 -0.1628 -0.1700
24301DPPC   C2B30059  11.161   4.746  20.542  0.1776  0.0877 -0.0362
24301DPPC   C3B30060  10.885   4.659  20.958  0.0375 -0.0405  0.4679
24301DPPC   C4B30061  10.662   4.818  21.371 -0.0362 -0.0405 -0.1277
24302DPPC   NC330062  13.041   3.230  21.713 -0.0071  0.0374  0.2498
24302DPPC   PO430063  13.223   2.926  21.885 -0.1034  0.0689 -0.0417
24302DPPC   GL130064  13.103   2.619  22.184  0.1827 -0.0198 -0.1256
24302DPPC   GL230065  12.901   2.576  21.959 -0.3032  0.1347  0.0252
24302DPPC   C1A30066  13.132   2.482  22.514  0.1178  0.0751  0.0395
24302DPPC   C2A30067  12.997   2.349  22.876 -0.1697 -0.2367  0.0412
24302DPPC   C3A30068  12.678   2.438  23.215 -0.0198 -0.0822  0.0620
24302DPPC   C4A30069  12.437   2.441  23.626  0.1350 -0.2726  0.2902
24302DPPC   C1B30070  12.614   2.656  22.150 -0.2266 -0.0317  0.2979
24302DPPC   C2B30071  12.381   2.720  22.437 -0.0839 -0.0600 -0.2190
24302DPPC   C3B30072  12.091   2.811  22.818 -0.4443 -0.1957  0.1120
24302DPPC   C4B30073  11.793   2.806  23.228  0.0958  0.4580  0.3458
24303DPPC   NC330074  10.866   3.376  18.596  0.0826  0.1406  0.3370
24303DPPC   PO430075  11.004   3.320  18.894  0.3110  0.1316  0.0918
24303DPPC   GL130076  11.051   3.440  19.376 -0.0599  0.0508 -0.0861
24303DPPC   GL230077  10.910   3.677  19.190 -0.0414  0.1687 -0.1796
24303DPPC   C1A30078  10.910   3.299  19.722 -0.3909 -0.3116 -0.0240
24303DPPC   C2A30079  10.754   3.321  20.101 -0.0834  0.1208 -0.2554
24303DPPC   C3A30080  10.483   3.293  20.429  0.0348 -0.0798 -0.1070
24303DPPC   C4A30081  10.246   3.314  20.813 -0.1134  0.2153 -0.0551
24303DPPC   C1B30082  10.769   3.816  19.511 -0.0805  0.1506  0.0470
24303DPPC   C2B30083  10.528   3.765  19.842 -0.1955  0.1733 -0.0323
24303DPPC   C3B30084  10.264   3.755  20.243  0.1508  0.1391  0.0065
24303DPPC   C4B30085   9.981   3.765  20.703 -0.3173  0.0198  0.1750
24304DPPC   NC330086  11.627   3.650  19.769  0.2163  0.1358  0.2833
24304DPPC   PO430087  11.538   3.288  19.554  0.1027  0.2334  0.0689
24304DPPC   GL130088  11.329   3.176  19.850 -0.1937 -0.1527 -0.4530
24304DPPC   GL230089  11.280   3.454  19.990 -0.0723  0.3175  0.1582
24304DPPC   C1A30090  11.143   3.002  20.117  0.2435 -0.2538 -0.1131
24304DPPC   C2A30091  10.964   2.949  20.465 -0.1847 -0.0483 -0.4601
24304DPPC   C3A30092  10.713   2.968  20.910  0.1136  0.1322 -0.4389
24304DPPC   C4A30093  10.455   3.025  21.278  0.0271 -0.1049 -0.1543
24304DPPC   C1B30094  11.161   3.483  20.368 -0.2090  0.3389 -0.0699
24304DPPC   C2B30095  11.003   3.388  20.717  0.0851  0.0565  0.1022
24304DPPC   C3B30096  10.708   3.442  21.122 -0.1523  0.0159  0.1043
24304DPPC   C4B30097  10.476   3.452  21.551 -0.0721  0.0377 -0.0558
24305DPPC   NC330098  12.168   2.352  19.585  0.3227 -0.1371 -0.1708
24305DPPC   PO430099  11.818   2.254  19.414 -0.1206  0.2741 -0.3262
24305DPPC   GL130100  11.630   2.312  19.788 -0.1022 -0.1278 -0.2717
24305DPPC   GL230101  11.868   2.449  19.963  0.1172  0.0637  0.2943
24305DPPC   C1A30102  11.271   2.360  19.810 -0.2899 -0.1477 -0.2121
24305DPPC   C2A30103  10.959   2.479  20.074 -0.0359  0.1923 -0.0379
24305DPPC   C3A30104  10.671   2.466  20.534 -0.1604  0.1482  0.5472
24305DPPC   C4A30105  10.388   2.498  20.960  0.2789  0.2864 -0.2497
24305DPPC   C1B30106  11.642   2.377  20.217 -0.2642 -0.4844 -0.2011
24305DPPC   C2B30107  11.570   2.120  20.552 -0.1571 -0.2882 -0.0682
24305DPPC   C3B30108  11.310   2.134  20.979 -0.0336  0.1446  0.2180
24305DPPC   C4B30109  11.060   2.194  21.411  0.0876 -0.0144  0.0214
24306DPPC   NC330110  11.030   2.078  18.947 -0.2103  0.1855 -0.1330
24306DPPC   PO430111  11.163   1.774  19.193 -0.1547  0.0945  0.0821
24306DPPC   GL130112  11.128   1.421  19.472  0.2880  0.1726 -0.1076
24306DPPC   GL230113  10.864   1.428  19.283 -0.2904  0.1624 -0.1481
24306DPPC   C1A30114  11.100   1.639  19.771  0.3146 -0.0570  0.6155
24306DPPC   C2A30115  11.040   1.600  20.201  0.0941 -0.2014  0.2928
24306DPPC   C3A30116  10.772   1.689  20.500 -0.1409 -0.0391  0.0054
24306DPPC   C4A30117  10.509   1.638  20.906  0.3045 -0.0893  0.0228
24306DPPC   C1B30118  10.666   1.517  19.644  0.1096 -0.2579 -0.3806
24306DPPC   C2B30119  10.541   1.627  20.003  0.0692  0.1066  0.1508
24306DPPC   C3B30120  10.235   1.570  20.354  0.1179  0.0736  0.0480
24306DPPC   C4B30121   9.989   1.619  20.760  0.1240  0.4005  0.0244
24307DPPC   NC330122  13.500   3.908  21.353 -0.1175  0.3726  0.2376
24307DPPC   PO430123  13.266   3.630  21.535  0.1714 -0.2970  0.1656
24307DPPC   GL130124  12.978   3.764  21.786 -0.0201 -0.3146  0.2853
24307DPPC   GL230125  13.080   3.977  21.889 -0.0722  0.2196 -0.0384
24307DPPC   C1A30126  12.701   3.590  21.847  0.0199 -0.1004 -0.3174
24307DPPC   C2A30127  12.463   3.586  22.164 -0.0095  0.0395 -0.0695
24307DPPC   C3A30128  12.174   3.611  22.498 -0.0749  0.4427  0.1521
24307DPPC   C4A30129  11.884   3.691  22.808 -0.0814  0.0394 -0.1988
24307DPPC   C1B30130  12.807   4.081  22.110  0.2467  0.0246 -0.1360
24307DPPC   C2B30131  12.523   4.067  22.372  0.0937 -0.0592  0.1566
24307DPPC   C3B30132  12.144   4.143  22.709 -0.1002  0.1311 -0.1728
24307DPPC   C4B30133  11.888   4.107  23.111 -0.1233 -0.1004  0.1394
24308DPPC   NC330134  10.183   0.153  17.420 -0.3976  0.1997  0.1300
24308DPPC   PO430135  10.239   0.390  17.759 -0.1043  0.0616  0.0605
24308DPPC   GL130136  10.053   0.194  18.066  0.1934 -0.2356  0.0584
24308DPPC   GL230137  10.277  -0.024  18.080 -0.0359 -0.3182 -0.9918
24308DPPC   C1A30138   9.703   0.117  18.078 -0.0318 -0.1974 -0.3097
24308DPPC   C2A30139   9.560   0.051  18.458  0.0020 -0.3104  0.0573
24308DPPC   C3A30140   9.339   0.091  18.866 -0.3731 -0.0283  0.0609
24308DPPC   C4A30141   9.011   0.153  19.230 -0.0852  0.0295 -0.1656
24308DPPC   C1B30142  10.016  -0.151  18.382 -0.1630  0.1580  0.2900
24308DPPC   C2B30143   9.819  -0.331  18.733  0.1809 -0.3204  0.1376
24308DPPC   C3B30144   9.557  -0.284  19.125 -0.0010  0.1707  0.0659
24308DPPC   C4B30145   9.187  -0.279  19.520 -0.2159 -0.1459  0.2683
24309DPPC   NC330146   9.144   6.074  16.801 -0.2714 -0.0712  0.0030
24309DPPC   PO430147   9.088   5.776  17.040 -0.0880 -0.0199  0.1921
24309DPPC   GL130148   9.048   5.913  17.491 -0.1866  0.1176 -0.4288
24309DPPC   GL230149   9.229   5.657  17.554 -0.1955 -0.4702 -0.0820
24309DPPC   C1A30150   8.876   5.800  17.784 -0.1464 -0.4038  0.2549
24309DPPC   C2A30151   8.720   5.778  18.165 -0.0703  0.0680 -0.1077
24309DPPC   C3A30152   8.469   5.745  18.597  0.1665 -0.2541 -0.1138
24309DPPC   C4A30153   8.181   5.814  18.980  0.2750 -0.3178  0.0199
24309DPPC   C1B30154   9.269   5.669  17.919 -0.2004 -0.0251 -0.1523
24309DPPC   C2B30155   9.228   5.694  18.372 -0.0834 -0.0805 -0.1096
24309DPPC   C3B30156   8.990   5.759  18.709 -0.1223  0.0587 -0.2201
24309DPPC   C4B30157   8.729   5.856  19.097 -0.0837 -0.1004 -0.1046
24310DPPC   NC330158  11.649   4.758  19.801 -0.2734 -0.0955 -0.0132
24310DPPC   PO430159  11.473   4.820  19.422 -0.3322 -0.0930  0.1509
24310DPPC   GL130160  11.102   4.942  19.576  0.3298  0.1219  0.3677
24310DPPC   GL230161  11.175   4.666  19.728  0.3314  0.1002  0.2406
24310DPPC   C1A30162  10.805   5.083  19.695  0.3494 -0.3144  0.1018
24310DPPC   C2A30163  10.540   5.013  20.025  0.0473 -0.1304  0.0708
24310DPPC   C3A30164  10.289   5.102  20.414 -0.0384  0.3476 -0.0088
24310DPPC   C4A30165  10.018   5.141  20.848 -0.0128 -0.0208 -0.1982
24310DPPC   C1B30166  11.013   4.658  20.056  0.2082 -0.1511 -0.4401
24310DPPC   C2B30167  10.716   4.633  20.360 -0.1374 -0.0208 -0.0260
24310DPPC   C3B30168  10.445   4.623  20.763 -0.1174 -0.0189 -0.0710
24310DPPC   C4B30169  10.153   4.741  21.145 -0.0380 -0.0277 -0.1167
24311DPPC   NC330170  13.035   4.490  20.786 -0.0746 -0.2332 -0.1546
24311DPPC   PO430171  12.825   4.260  21.036  0.0864 -0.1960  0.1287
24311DPPC   GL130172  12.533   4.305  21.285  0.2313 -0.3703 -0.1120
24311DPPC   GL230173  12.273   4.303  21.233  0.2154 -0.0042 -0.2909
24311DPPC   C1A30174  12.527   4.416  21.630 -0.2414 -0.3663  0.0578
24311DPPC   C2A30175  12.357   4.479  22.003  0.0916  0.0669  0.2411
24311DPPC   C3A30176  12.050   4.533  22.335 -0.0832 -0.2143  0.2951
24311DPPC   C4A30177  11.730   4.583  22.738  0.2856  0.0913  0.0036
24311DPPC   C1B30178  12.073   4.327  21.556 -0.0119 -0.2299 -0.2866
24311DPPC   C2B30179  11.842   4.460  21.845  0.3435  0.0298 -0.5173
24311DPPC   C3B30180  11.546   4.468  22.275 -0.1234 -0.1900 -0.2479
24311DPPC   C4B30181  11.274   4.473  22.679  0.0853 -0.1042 -0.0284
24312DPPC   NC330182   5.001   6.408  15.488 -0.0475 -0.2262 -0.3988
24312DPPC   PO430183   5.243   6.660  15.684  0.0555 -0.0218  0.1414
24312DPPC   GL130184   5.128   6.586  16.114  0.2816 -0.0179 -0.0925
24312DPPC   GL230185   5.035   6.893  16.147  0.0085  0.3081 -0.2584
24312DPPC   C1A30186   5.038   6.435  16.446 -0.2502  0.0155 -0.1789
24312DPPC   C2A30187   5.157   6.246  16.793  0.0141 -0.3345 -0.3019
24312DPPC   C3A30188   5.415   6.125  17.197  0.2252 -0.1120 -0.3615
24312DPPC   C4A30189   5.680   5.829  17.494  0.2405  0.0588  0.2768
24312DPPC   C1B30190   5.189   6.866  16.464 -0.0858  0.2372 -0.0224
24312DPPC   C2B30191   5.175   6.790  16.887  0.0031  0.1965  0.2053
24312DPPC   C3B30192   5.101   6.540  17.262  0.1132  0.0598  0.1204
24312DPPC   C4B30193   4.913   6.094  17.334 -0.1886 -0.2890  0.0876
24313DPPC   NC330194  10.074   4.576  18.368 -0.1771 -0.0630  0.1528
24313DPPC   PO430195  10.265   4.317  18.112  0.1468  0.1790  0.1354
24313DPPC   GL130196  10.140   3.934  18.256 -0.1631  0.1094 -0.3440
24313DPPC   GL230197   9.930   4.145  18.368  0.3149 -0.0342 -0.1168
24313DPPC   C1A30198  10.098   3.727  18.562 -0.0162 -0.1092  0.1960
24313DPPC   C2A30199   9.955   3.662  18.951 -0.1862  0.1605  0.0929
24313DPPC   C3A30200   9.693   3.745  19.309  0.0920  0.2076  0.0031
24313DPPC   C4A30201   9.479   3.686  19.746  0.0467  0.2661 -0.0620
24313DPPC   C1B30202   9.676   4.169  18.592 -0.0128  0.0454  0.3957
24313DPPC   C2B30203   9.575   4.083  18.999 -0.0637  0.0022  0.0107
24313DPPC   C3B30204   9.390   4.125  19.431  0.1804 -0.2637  0.1668
24313DPPC   C4B30205   9.077   4.092  19.817 -0.1445 -0.1171 -0.1590
24314DPPC   NC330206  10.357   1.128  17.366  0.3056 -0.1757 -0.1436
24314DPPC   PO430207  10.121   1.455  17.464 -0.0377  0.2608  0.0393
24314DPPC   GL130208   9.867   1.157  17.600  0.2137  0.3414  0.3174
24314DPPC   GL230209   9.601   1.294  17.640  0.0919  0.0022  0.0995
24314DPPC   C1A30210   9.765   0.969  17.907  0.2180  0.4541  0.2519
24314DPPC   C2A30211   9.516   0.767  18.212 -0.1861  0.0183 -0.0224
24314DPPC   C3A30212   9.257   0.512  18.479  0.2108  0.2988  0.2495
24314DPPC   C4A30213   8.953   0.513  18.871 -0.2045  0.2555 -0.1378
24314DPPC   C1B30214   9.514   1.289  18.014  0.0151 -0.0411  0.1814
24314DPPC   C2B30215   9.245   1.444  18.207 -0.2908 -0.1668  0.1602
24314DPPC   C3B30216   9.011   1.435  18.643 -0.0694 -0.1990  0.1376
24314DPPC   C4B30217   8.778   1.353  19.078 -0.0668 -0.0754  0.0659
24315DPPC   NC330218  12.942   5.869  20.306  0.0103  0.1126  0.2085
24315DPPC   PO430219  12.701   5.731  20.569 -0.1605  0.1922 -0.3801
24315DPPC   GL130220  12.434   5.994  20.781 -0.1423  0.0865  0.1314
24315DPPC   GL230221  12.228   5.831  20.595 -0.0267 -0.6220  0.3277
24315DPPC   C1A30222  12.325   6.346  20.867  0.2670 -0.4480  0.0839
24315DPPC   C2A30223  11.945   6.468  21.001  0.0919 -0.1422 -0.3762
24315DPPC   C3A30224  11.559   6.576  21.293 -0.0406  0.0457  0.1456
24315DPPC   C4A30225  11.277   6.596  21.703  0.0962 -0.2709 -0.0501
24315DPPC   C1B30226  12.039   5.625  20.825  0.1570 -0.2491  0.3944
24315DPPC   C2B30227  11.833   5.587  21.116 -0.0839  0.0634  0.0615
24315DPPC   C3B30228  11.550   5.669  21.485  0.3691 -0.2734 -0.0249
24315DPPC   C4B30229  11.269   5.682  21.839  0.1676  0.2293  0.0737
24316DPPC   NC330230   8.363   2.461  16.686 -0.0545 -0.0278  0.1204
24316DPPC   PO430231   8.391   2.788  16.895 -0.0983 -0.0062 -0.0191
24316DPPC   GL130232   8.289   2.892  17.284  0.4147  0.0778  0.1056
24316DPPC   GL230233   8.357   3.207  17.270  0.0628 -0.3569 -0.0980
24316DPPC   C1A30234   8.197   2.638  17.550  0.1134 -0.1095 -0.3589
24316DPPC   C2A30235   8.180   2.294  17.713 -0.0778  0.1355  0.1328
24316DPPC   C3A30236   8.035   1.868  17.819  0.1922 -0.0664 -0.2978
24316DPPC   C4A30237   7.970   1.389  17.690  0.0983  0.0938 -0.0292
24316DPPC   C1B30238   8.553   3.365  17.579 -0.4202 -0.2519 -0.1611
24316DPPC   C2B30239   8.666   3.543  17.975 -0.1448  0.0883  0.2068
24316DPPC   C3B30240   8.502   3.550  18.418 -0.1462  0.2626 -0.0240
24316DPPC   C4B30241   8.341   3.525  18.846  0.0183  0.3331 -0.2702
24317DPPC   NC330242  12.680   0.684  20.760  0.0637  0.2240 -0.1837
24317DPPC   PO430243  12.964   0.482  20.972  0.1315 -0.1494  0.5069
24317DPPC   GL130244  12.727   0.266  21.253 -0.1076 -0.2299 -0.1935
24317DPPC   GL230245  12.765   0.501  21.430  0.0505 -0.1729  0.1223
24317DPPC   C1A30246  12.380   0.160  21.231 -0.1725  0.1022  0.3423
24317DPPC   C2A30247  12.090   0.035  21.464  0.1993  0.1803 -0.1428
24317DPPC   C3A30248  11.804   0.069  21.768  0.0493 -0.1327  0.2283
24317DPPC   C4A30249  11.525   0.010  22.148  0.0719 -0.0507 -0.0544
24317DPPC   C1B30250  12.575   0.432  21.742 -0.1397 -0.1260  0.3910
24317DPPC   C2B30251  12.446   0.526  22.146  0.2100 -0.0297  0.0737
24317DPPC   C3B30252  12.225   0.530  22.560 -0.0665  0.1968 -0.1555
24317DPPC   C4B30253  11.927   0.552  22.904 -0.2165 -0.0681  0.1845
24318DPPC   NC330254  12.148   6.191  19.986  0.0915 -0.2284 -0.2365
24318DPPC   PO430255  11.990   6.523  19.985 -0.2199  0.1022  0.5365
24318DPPC   GL130256  11.714   6.405  20.317 -0.2646 -0.4815 -0.2674
24318DPPC   GL230257  11.608   6.638  20.224 -0.0314 -0.0956  0.0473
24318DPPC   C1A30258  11.546   6.436  20.632  0.3208  0.0377 -0.1481
24318DPPC   C2A30259  11.258   6.478  20.897  0.0614 -0.0028  0.0977
24318DPPC   C3A30260  10.997   6.550  21.323 -0.0148  0.3013  0.0205
24318DPPC   C4A30261  10.773   6.599  21.684  0.1261 -0.1193 -0.1130
24318DPPC   C1B30262  11.369   6.771  20.411 -0.3858 -0.0429 -0.0677
24318DPPC   C2B30263  11.055   6.922  20.717 -0.4619  0.1971 -0.1592
24318DPPC   C3B30264  10.712   6.965  21.028 -0.0459 -0.1442 -0.2121
24318DPPC   C4B30265  10.332   7.304  21.195 -0.1815  0.1100 -0.0648
24319DPPC   NC330266  13.385   2.447  21.837 -0.2182  0.2232 -0.1283
24319DPPC   PO430267  13.072   2.167  21.838 -0.1133 -0.0561  0.2158
24319DPPC   GL130268  12.872   2.086  22.195  0.1010 -0.0100  0.1364
24319DPPC   GL230269  12.819   1.781  22.177  0.2561 -0.1362 -0.1688
24319DPPC   C1A30270  12.629   2.250  22.421  0.2604  0.1028 -0.0022
24319DPPC   C2A30271  12.455   2.375  22.787 -0.0289  0.4246  0.0161
24319DPPC   C3A30272  12.098   2.388  23.158  0.0073 -0.0150 -0.2493
24319DPPC   C4A30273  11.805   2.386  23.558  0.0794 -0.2193  0.2783
24319DPPC   C1B30274  12.496   1.796  22.425  0.1452  0.2506  0.1851
24319DPPC   C2B30275  12.189   1.874  22.701  0.0384  0.0622  0.1431
24319DPPC   C3B30276  11.915   1.938  23.068  0.0592 -0.3553  0.1925
24319DPPC   C4B30277  11.632   1.946  23.449  0.1100  0.0842  0.1658
24320DPPC   NC330278  12.446   5.145  20.187  0.0463 -0.0393 -0.0260
24320DPPC   PO430279  12.443   5.334  20.521  0.2682 -0.0370 -0.0391
24320DPPC   GL130280  12.383   5.374  20.903 -0.0738 -0.0533 -0.2484
24320DPPC   GL230281  12.299   5.108  21.035  0.0377  0.3182  0.2424
24320DPPC   C1A30282  12.297   5.600  21.227  0.3176  0.2336  0.2887
24320DPPC   C2A30283  12.113   5.784  21.552  0.1535 -0.0603 -0.1241
24320DPPC   C3A30284  11.868   5.791  21.949  0.1552  0.1029  0.2542
24320DPPC   C4A30285  11.551   5.745  22.357  0.2724  0.0922  0.1826
24320DPPC   C1B30286  12.115   5.223  21.376  0.2192  0.0395  0.0897
24320DPPC   C2B30287  11.825   5.289  21.705 -0.1061  0.0933  0.0638
24320DPPC   C3B30288  11.534   5.310  22.050 -0.0814  0.1939  0.0245
24320DPPC   C4B30289  11.227   5.374  22.461  0.2211  0.0691  0.0435
24321DPPC   NC330290  12.381   4.079  20.280 -0.2205 -0.0787  0.3217
24321DPPC   PO430291  12.226   3.715  20.145  0.1086  0.3994  0.0118
24321DPPC   GL130292  11.840   3.715  20.226  0.0210 -0.2144 -0.1127
24321DPPC   GL230293  11.839   4.036  20.313  0.0753 -0.2420  0.0243
24321DPPC   C1A30294  11.576   3.581  20.408  0.0090  0.3917  0.0218
24321DPPC   C2A30295  11.506   3.466  20.789 -0.3005 -0.2320 -0.0700
24321DPPC   C3A30296  11.304   3.417  21.236 -0.1393 -0.0010  0.1789
24321DPPC   C4A30297  10.965   3.437  21.665  0.1194  0.2605 -0.0583
24321DPPC   C1B30298  11.572   4.198  20.511 -0.0708 -0.1384  0.0164
24321DPPC   C2B30299  11.377   4.309  20.848 -0.0518 -0.1950  0.0646
24321DPPC   C3B30300  11.063   4.295  21.234 -0.1156 -0.1390 -0.0914
24321DPPC   C4B30301  10.735   4.325  21.601 -0.0940  0.0048 -0.3910
24322DPPC   NC330302   3.306   3.231  16.042  0.3357 -0.1261  0.1864
24322DPPC   PO430303   3.156   3.612  16.075 -0.1270  0.1350 -0.0620
24322DPPC   GL130304   3.111   3.688  16.485  0.0030 -0.3365  0.0051
24322DPPC   GL230305   3.256   3.316  16.586  0.0587 -0.3123 -0.1157
24322DPPC   C1A30306   3.391   3.886  16.710 -0.0753  0.1609  0.2038
24322DPPC   C2A30307   3.611   3.848  16.995 -0.1435 -0.0524  0.0043
24322DPPC   C3A30308   4.006   3.948  17.300 -0.1080  0.1518  0.1267
24322DPPC   C4A30309   4.124   3.929  17.723 -0.0130 -0.1908 -0.2016
24322DPPC   C1B30310   3.566   3.155  16.379 -0.0660  0.2205 -0.4901
24322DPPC   C2B30311   3.964   3.123  16.417 -0.1107 -0.1878 -0.2502
24322DPPC   C3B30312   4.315   3.197  16.651 -0.1730  0.2077  0.1494
24322DPPC   C4B30313   4.812   3.197  16.481  0.1743  0.3470  0.1177
24323DPPC   NC330314   3.043   6.254  15.883 -0.0167 -0.4735 -0.2668
24323DPPC   PO430315   3.253   5.963  15.938 -0.2355  0.0235 -0.1638
24323DPPC   GL130316   3.394   5.851  16.352  0.2388  0.3693 -0.2977
24323DPPC   GL230317   3.551   6.140  16.340 -0.1915  0.3158 -0.2306
24323DPPC   C1A30318   3.389   5.657  16.653 -0.3242 -0.1621 -0.2273
24323DPPC   C2A30319   3.291   5.602  17.036  0.1008 -0.1126  0.0141
24323DPPC   C3A30320   3.522   5.627  17.439  0.0608 -0.3279 -0.0116
24323DPPC   C4A30321   3.797   5.617  17.759 -0.1529  0.0843  0.1243
24323DPPC   C1B30322   3.762   6.124  16.662  0.2096  0.1162  0.0581
24323DPPC   C2B30323   4.073   6.128  17.002  0.2539  0.0882  0.0943
24323DPPC   C3B30324   4.380   6.104  17.334  0.0222  0.2839 -0.0922
24323DPPC   C4B30325   4.656   6.180  17.792  0.0137  0.1992  0.0192
24324DPPC   NC330326   4.226   4.608  16.157  0.3785 -0.0462  0.1282
24324DPPC   PO430327   4.373   4.900  15.942  0.3363  0.0301  0.0986
24324DPPC   GL130328   4.731   5.107  16.164  0.1249  0.1363 -0.5242
24324DPPC   GL230329   4.519   5.067  16.326 -0.0349  0.2883 -0.0036
24324DPPC   C1A30330   4.995   5.076  16.366 -0.3229  0.3702 -0.1858
24324DPPC   C2A30331   5.402   5.014  16.470  0.1176 -0.0553  0.1628
24324DPPC   C3A30332   5.850   5.110  16.702  0.4406 -0.0660 -0.0372
24324DPPC   C4A30333   6.311   4.884  16.733  0.2784  0.1017 -0.0210
24324DPPC   C1B30334   4.510   4.735  16.498 -0.2591 -0.0104 -0.1375
24324DPPC   C2B30335   4.638   4.386  16.675  0.1212 -0.0210 -0.0695
24324DPPC   C3B30336   5.013   4.202  16.755 -0.2491  0.2205 -0.1119
24324DPPC   C4B30337   5.214   3.805  16.764 -0.2351  0.0215  0.0615
24325DPPC   NC330338  12.319   3.247  19.984  0.0020  0.1217  0.1851
24325DPPC   PO430339  12.101   2.945  20.162  0.0209  0.1219 -0.1043
24325DPPC   GL130340  11.847   2.850  20.407  0.1749 -0.3682 -0.2284
24325DPPC   GL230341  11.848   3.148  20.536  0.1903  0.2528 -0.0286
24325DPPC   C1A30342  11.554   2.638  20.546  0.5002 -0.0013 -0.1144
24325DPPC   C2A30343  11.153   2.515  20.661 -0.0871  0.4493  0.1759
24325DPPC   C3A30344  10.887   2.515  21.007  0.1128  0.5073 -0.4044
24325DPPC   C4A30345  10.691   2.548  21.446  0.0091 -0.0632  0.0973
24325DPPC   C1B30346  11.619   3.003  20.748  0.0605 -0.2316 -0.1470
24325DPPC   C2B30347  11.262   2.957  20.941  0.2946  0.0243 -0.2159
24325DPPC   C3B30348  10.960   3.037  21.357  0.0649  0.1901  0.2713
24325DPPC   C4B30349  10.740   2.875  21.786  0.2035 -0.2318  0.3806
24326DPPC   NC330350   9.034   5.017  16.860  0.0963  0.0058 -0.0275
24326DPPC   PO430351   9.277   4.831  17.123 -0.1055 -0.1978 -0.1450
24326DPPC   GL130352   9.052   4.715  17.399 -0.1170 -0.0242 -0.0693
24326DPPC   GL230353   9.082   4.440  17.522  0.1486  0.0682  0.1782
24326DPPC   C1A30354   8.937   4.804  17.772 -0.2775 -0.0598  0.0717
24326DPPC   C2A30355   8.681   4.852  18.088 -0.0879  0.2508 -0.0172
24326DPPC   C3A30356   8.506   4.908  18.576  0.1419 -0.3455 -0.4403
24326DPPC   C4A30357   8.368   4.860  19.023 -0.1050 -0.4307  0.0925
24326DPPC   C1B30358   8.906   4.214  17.768 -0.1259 -0.0296  0.0915
24326DPPC   C2B30359   8.806   4.047  18.171  0.1190  0.2502  0.0145
24326DPPC   C3B30360   8.523   4.090  18.566 -0.1077  0.4278 -0.1280
24326DPPC   C4B30361   8.412   4.060  19.095  0.0142 -0.0508 -0.1615
24327DPPC   NC330362  12.349   5.674  19.609  0.0091  0.1075 -0.2798
24327DPPC   PO430363  12.197   5.354  19.795  0.1760  0.1594  0.1553
24327DPPC   GL130364  11.911   5.392  20.109 -0.0023  0.2639  0.1544
24327DPPC   GL230365  11.688   5.191  20.048  0.1505 -0.0302  0.0335
24327DPPC   C1A30366  11.882   5.617  20.395  0.0439 -0.1515 -0.1102
24327DPPC   C2A30367  11.619   5.667  20.675  0.1905  0.3390  0.0385
24327DPPC   C3A30368  11.297   5.593  21.044  0.4249 -0.5358 -0.0792
24327DPPC   C4A30369  10.965   5.712  21.426  0.0109  0.1617  0.1572
24327DPPC   C1B30370  11.553   5.153  20.368 -0.0009  0.1063 -0.2841
24327DPPC   C2B30371  11.325   5.181  20.726  0.3521  0.0197 -0.1382
24327DPPC   C3B30372  11.013   5.196  21.097  0.0635 -0.0427 -0.1276
24327DPPC   C4B30373  10.745   5.280  21.509  0.0749 -0.0212  0.2153
24328DPPC   NC330374  12.150   0.759  19.852  0.0262 -0.1151  0.1109
24328DPPC   PO430375  11.987   0.427  19.722 -0.3036 -0.0235 -0.0924
24328DPPC   GL130376  11.671   0.196  19.786  0.1241  0.0969 -0.0294
24328DPPC   GL230377  11.544   0.262  19.521 -0.1993  0.0150  0.2771
24328DPPC   C1A30378  11.324   0.233  19.989  0.1905  0.4620  0.1516
24328DPPC   C2A30379  10.921   0.270  20.146 -0.0144 -0.0297 -0.1862
24328DPPC   C3A30380  10.613   0.330  20.507  0.0834  0.1217 -0.2246
24328DPPC   C4A30381  10.249   0.335  20.847  0.2181 -0.0550 -0.4071
24328DPPC   C1B30382  11.342   0.529  19.720  0.0574  0.1305 -0.4946
24328DPPC   C2B30383  11.188   0.717  20.070 -0.2664 -0.0626  0.1255
24328DPPC   C3B30384  10.883   0.803  20.377 -0.4216 -0.0613 -0.1230
24328DPPC   C4B30385  10.644   0.816  20.786 -0.0315 -0.0408 -0.2614
24329DPPC   NC330386  12.713   3.378  20.807 -0.0067 -0.1166 -0.0472
24329DPPC   PO430387  12.982   3.497  21.106  0.0753  0.0308  0.3432
24329DPPC   GL130388  12.783   3.565  21.425  0.0047  0.0784 -0.2328
24329DPPC   GL230389  12.584   3.379  21.486 -0.1452  0.1074  0.1211
24329DPPC   C1A30390  12.523   3.872  21.512 -0.1286  0.3270 -0.2857
24329DPPC   C2A30391  12.281   3.942  21.839  0.0056 -0.4354  0.2036
24329DPPC   C3A30392  11.986   4.040  22.230  0.2812  0.0440 -0.0184
24329DPPC   C4A30393  11.646   4.044  22.593 -0.2521  0.1156  0.0252
24329DPPC   C1B30394  12.295   3.451  21.748 -0.1051 -0.0584  0.4455
24329DPPC   C2B30395  11.956   3.548  21.975  0.4702 -0.0055 -0.1222
24329DPPC   C3B30396  11.662   3.609  22.331 -0.0857  0.1574  0.1165
24329DPPC   C4B30397  11.350   3.620  22.721 -0.0444  0.3853  0.2849
24330DPPC   NC330398  12.837   5.159  20.849 -0.1704 -0.3096  0.1279
24330DPPC   PO430399  12.753   5.161  21.210 -0.1924 -0.0237 -0.0658
24330DPPC   GL130400  12.594   4.892  21.494  0.0224  0.0069  0.2670
24330DPPC   GL230401  12.372   4.782  21.368 -0.1120 -0.2212  0.8219
24330DPPC   C1A30402  12.551   4.955  21.848  0.1964 -0.1420  0.1200
24330DPPC   C2A30403  12.396   4.921  22.217 -0.0491  0.0053 -0.2201
24330DPPC   C3A30404  12.121   4.957  22.649 -0.2092 -0.3007 -0.2409
24330DPPC   C4A30405  11.869   5.001  23.094 -0.0106 -0.0213  0.0525
24330DPPC   C1B30406  12.127   4.828  21.639  0.3716 -0.0015  0.0003
24330DPPC   C2B30407  11.948   4.914  21.995  0.0052  0.0006  0.1623
24330DPPC   C3B30408  11.708   4.956  22.367 -0.0845 -0.0660  0.0636
24330DPPC   C4B30409  11.383   4.995  22.774 -0.1481  0.0376 -0.0248
24331DPPC   NC330410  10.926   6.600  18.338  0.1582 -0.0495 -0.2067
24331DPPC   PO430411  11.218   6.811  18.566 -0.1149  0.1059  0.0561
24331DPPC   GL130412  10.973   7.005  18.908 -0.2648  0.1706 -0.0013
24331DPPC   GL230413  11.084   6.796  19.100  0.3174 -0.2473 -0.1251
24331DPPC   C1A30414  10.730   7.204  18.988 -0.1127  0.1294 -0.1130
24331DPPC   C2A30415  10.514   7.258  19.315  0.3723 -0.1452 -0.2069
24331DPPC   C3A30416  10.308   7.304  19.701  0.0668 -0.0616  0.0597
24331DPPC   C4A30417   9.924   7.284  20.094  0.0019 -0.0494  0.1286
24331DPPC   C1B30418  10.850   6.688  19.337 -0.3346  0.1311  0.3562
24331DPPC   C2B30419  10.594   6.835  19.619 -0.1799 -0.0941 -0.2632
24331DPPC   C3B30420  10.368   6.825  20.048 -0.0830  0.0096 -0.0102
24331DPPC   C4B30421  10.022   6.874  20.417  0.1746  0.1406 -0.2479
24332DPPC   NC330422  13.443   0.003  21.710 -0.2089  0.2477 -0.2188
24332DPPC   PO430423  13.230  -0.335  21.594  0.0026 -0.0571  0.0230
24332DPPC   GL130424  12.980  -0.410  21.925  0.4442  0.2662  0.0437
24332DPPC   GL230425  13.023  -0.588  22.027 -0.3533  0.2032 -0.0243
24332DPPC   C1A30426  12.648  -0.309  22.100 -0.2297 -0.1594 -0.2070
24332DPPC   C2A30427  12.343  -0.371  22.322 -0.4149  0.3913 -0.2538
24332DPPC   C3A30428  12.045  -0.336  22.624  0.1716 -0.0001 -0.0948
24332DPPC   C4A30429  11.793  -0.300  23.088 -0.0009 -0.0207  0.0127
24332DPPC   C1B30430  12.844  -0.660  22.309  0.0570 -0.8323  0.0821
24332DPPC   C2B30431  12.551  -0.708  22.618  0.0604 -0.0354  0.1033
24332DPPC   C3B30432  12.225  -0.666  23.027 -0.0430 -0.1313 -0.1214
24332DPPC   C4B30433  11.936  -0.632  23.435 -0.1432 -0.1422 -0.1559
24333DPPC   NC330434  10.317   4.593  17.701  0.1935 -0.2636 -0.0238
24333DPPC   PO430435  10.611   4.714  17.989  0.2163 -0.2320 -0.0239
24333DPPC   GL130436  10.511   4.655  18.440 -0.1898 -0.0612 -0.0681
24333DPPC   GL230437  10.344   4.924  18.415 -0.1956  0.4087  0.3617
24333DPPC   C1A30438  10.279   4.569  18.745  0.0352  0.1495 -0.0137
24333DPPC   C2A30439   9.890   4.543  18.947  0.1746  0.0406 -0.0634
24333DPPC   C3A30440   9.662   4.548  19.286  0.3555 -0.0850 -0.1724
24333DPPC   C4A30441   9.421   4.573  19.676  0.2530  0.1003 -0.0934
24333DPPC   C1B30442  10.220   5.049  18.778 -0.3849 -0.2086 -0.4184
24333DPPC   C2B30443  10.069   5.022  19.156  0.2117  0.1844 -0.0296
24333DPPC   C3B30444   9.817   5.055  19.492 -0.0103 -0.2553  0.1910
24333DPPC   C4B30445   9.561   4.964  19.905  0.0620 -0.0429  0.1147
24334DPPC   NC330446   9.857   1.564  17.927  0.0401  0.0300 -0.0563
24334DPPC   PO430447  10.232   1.643  18.056  0.0249 -0.2929 -0.1576
24334DPPC   GL130448  10.111   1.632  18.457  0.0934 -0.0173  0.1034
24334DPPC   GL230449   9.781   1.607  18.348 -0.0357  0.0927  0.0974
24334DPPC   C1A30450  10.228   1.762  18.746 -0.0788  0.0121  0.2116
24334DPPC   C2A30451  10.150   1.931  19.149  0.1370  0.1375 -0.2555
24334DPPC   C3A30452   9.950   1.888  19.538 -0.1227 -0.0989  0.0441
24334DPPC   C4A30453   9.633   1.967  19.867  0.0519 -0.0207  0.0241
24334DPPC   C1B30454   9.520   1.510  18.663 -0.2422 -0.3047  0.0564
24334DPPC   C2B30455   9.422   1.448  19.014  0.0106  0.1307  0.1112
24334DPPC   C3B30456   9.170   1.425  19.401 -0.1112 -0.2147  0.0178
24334DPPC   C4B30457   8.961   1.448  19.790 -0.0559 -0.2220  0.1364
24335DPPC   NC330458  11.680   6.064  18.891 -0.1485 -0.0975 -0.4583
24335DPPC   PO430459  11.350   6.042  18.701  0.1191  0.1036  0.4234
24335DPPC   GL130460  11.020   6.196  18.885 -0.0163  0.2922 -0.2209
24335DPPC   GL230461  11.037   6.425  18.760 -0.2344 -0.0303  0.4233
24335DPPC   C1A30462  10.795   6.250  19.150  0.0945 -0.1303 -0.0871
24335DPPC   C2A30463  10.550   6.364  19.455 -0.4118  0.3551  0.2009
24335DPPC   C3A30464  10.250   6.387  19.777 -0.2099  0.1439  0.0324
24335DPPC   C4A30465  10.053   6.427  20.189 -0.1581  0.4440  0.0630
24335DPPC   C1B30466  10.731   6.619  18.916 -0.0704  0.1530  0.4695
24335DPPC   C2B30467  10.408   6.705  19.157 -0.2493  0.0390  0.1788
24335DPPC   C3B30468  10.102   6.773  19.507  0.1202  0.1104  0.1062
24335DPPC   C4B30469   9.786   6.833  19.870 -0.1138  0.0988 -0.1430
24336DPPC   NC330470  13.205   0.654  21.344 -0.0836  0.1243 -0.1469
24336DPPC   PO430471  13.223   0.470  21.706  0.0302 -0.0521 -0.0416
24336DPPC   GL130472  12.959   0.481  21.993 -0.0143 -0.0339 -0.3668
24336DPPC   GL230473  12.996   0.763  22.044 -0.0276 -0.0724  0.3725
24336DPPC   C1A30474  12.784   0.249  22.238 -0.3507 -0.0975  0.0690
24336DPPC   C2A30475  12.502   0.114  22.488  0.1521  0.0848  0.0200
24336DPPC   C3A30476  12.209   0.120  22.882  0.1075 -0.3743 -0.0714
24336DPPC   C4A30477  11.958   0.147  23.288  0.1431  0.1348 -0.0868
24336DPPC   C1B30478  12.662   0.926  22.164  0.0465  0.0511  0.0272
24336DPPC   C2B30479  12.407   0.995  22.485  0.1133  0.1086 -0.2215
24336DPPC   C3B30480  12.086   1.055  22.846  0.1765  0.1380 -0.0272
24336DPPC   C4B30481  11.805   1.056  23.280 -0.2042 -0.0532 -0.3399
24337DPPC   NC330482  10.306   3.523  17.979 -0.0379  0.2221 -0.2523
24337DPPC   PO430483  10.474   3.315  18.263 -0.1409  0.2212 -0.0527
24337DPPC   GL130484  10.358   3.298  18.737 -0.0186 -0.3591 -0.0252
24337DPPC   GL230485  10.478   3.642  18.662 -0.2222  0.0865 -0.1732
24337DPPC   C1A30486  10.175   3.286  19.061  0.0254 -0.3455  0.3166
24337DPPC   C2A30487   9.943   3.230  19.451 -0.3943  0.0864 -0.1057
24337DPPC   C3A30488   9.737   3.246  19.910 -0.2487 -0.1038  0.1784
24337DPPC   C4A30489   9.462   3.239  20.315  0.3447  0.1765  0.0460
24337DPPC   C1B30490  10.444   3.635  19.019  0.0167 -0.0581  0.2518
24337DPPC   C2B30491  10.267   3.658  19.400 -0.1175  0.2728 -0.2828
24337DPPC   C3B30492  10.062   3.747  19.822 -0.1331  0.2665 -0.0003
24337DPPC   C4B30493   9.741   3.748  20.155 -0.0077  0.1843 -0.3009
24338DPPC   NC330494  12.939   2.011  21.380 -0.1415 -0.0383  0.1786
24338DPPC   PO430495  12.732   1.705  21.256  0.1548 -0.1282  0.1510
24338DPPC   GL130496  12.384   1.761  21.141  0.2146  0.2990  0.3267
24338DPPC   GL230497  12.465   1.782  20.850 -0.0717 -0.1954  0.0857
24338DPPC   C1A30498  12.048   1.769  21.305 -0.2436 -0.2954 -0.0514
24338DPPC   C2A30499  11.806   1.746  21.662  0.1546  0.0162 -0.0652
24338DPPC   C3A30500  11.491   1.790  22.050 -0.0405  0.0560 -0.3007
24338DPPC   C4A30501  11.199   1.756  22.466 -0.1017 -0.0171 -0.4437
24338DPPC   C1B30502  12.092   1.709  20.736 -0.2112  0.2882 -0.1926
24338DPPC   C2B30503  11.733   1.740  20.902 -0.2257  0.1775 -0.1488
24338DPPC   C3B30504  11.447   1.668  21.284  0.2033 -0.3818 -0.2502
24338DPPC   C4B30505  11.137   1.737  21.742  0.0203 -0.1042 -0.1199
24339DPPC   NC330506  10.615   5.991  17.755 -0.0652  0.3123  0.1306
24339DPPC   PO430507  10.231   6.081  17.798 -0.0740 -0.0024 -0.1196
24339DPPC   GL130508  10.104   6.037  18.200 -0.3158 -0.2225  0.3708
24339DPPC   GL230509   9.828   6.127  18.121 -0.0957 -0.3666 -0.2558
24339DPPC   C1A30510  10.142   5.916  18.552  0.0366 -0.3408  0.0169
24339DPPC   C2A30511  10.001   5.879  18.957  0.0119  0.2642  0.0038
24339DPPC   C3A30512   9.727   5.885  19.397  0.0199  0.4006  0.1043
24339DPPC   C4A30513   9.399   5.963  19.809 -0.1160 -0.4565  0.0266
24339DPPC   C1B30514   9.585   6.223  18.363 -0.0369  0.2960 -0.1387
24339DPPC   C2B30515   9.266   6.190  18.629  0.1688  0.1021  0.0363
24339DPPC   C3B30516   9.007   6.274  19.016  0.1233 -0.2172 -0.2664
24339DPPC   C4B30517   8.683   6.261  19.393  0.0825 -0.0817 -0.0606
24340DPPC   NC330518   7.945   4.538  16.598 -0.1174  0.2537  0.1343
24340DPPC   PO430519   7.781   4.158  16.516 -0.1989 -0.3440 -0.0515
24340DPPC   GL130520   7.568   4.238  16.767  0.0712  0.2470 -0.1422
24340DPPC   GL230521   7.549   4.535  16.778  0.4128  0.2391 -0.1991
24340DPPC   C1A30522   7.470   4.140  17.074  0.1836  0.0595  0.0631
24340DPPC   C2A30523   7.722   4.098  17.383 -0.0582 -0.0202 -0.0823
24340DPPC   C3A30524   7.928   4.039  17.775 -0.2317 -0.0882  0.1617
24340DPPC   C4A30525   8.321   4.019  18.084  0.2211  0.2710  0.0971
24340DPPC   C1B30526   7.635   4.570  17.170  0.0798  0.3206 -0.2091
24340DPPC   C2B30527   7.831   4.666  17.517  0.0365 -0.1965  0.0897
24340DPPC   C3B30528   8.070   4.661  17.900 -0.1319 -0.1109 -0.0320
24340DPPC   C4B30529   7.982   4.885  18.372  0.1445 -0.1525  0.2836
24341DPPC   NC330530   6.309   2.423  16.257  0.1999  0.1102  0.1410
24341DPPC   PO430531   6.371   2.416  16.650  0.0984 -0.3623  0.2202
24341DPPC   GL130532   6.527   2.612  16.943  0.1414  0.1853  0.1072
24341DPPC   GL230533   6.887   2.616  16.851 -0.2332 -0.4131  0.1389
24341DPPC   C1A30534   6.513   2.849  17.183 -0.3172  0.3457  0.2879
24341DPPC   C2A30535   6.362   3.011  17.526  0.0184  0.0253  0.0715
24341DPPC   C3A30536   6.221   3.025  18.011  0.2282  0.2304 -0.0656
24341DPPC   C4A30537   5.939   2.969  18.369  0.1180 -0.1895  0.3224
24341DPPC   C1B30538   7.109   2.763  17.089  0.3070 -0.0910  0.1768
24341DPPC   C2B30539   7.392   2.787  17.334 -0.0936 -0.0103 -0.0871
24341DPPC   C3B30540   7.587   3.038  17.707  0.0767 -0.0101  0.1982
24341DPPC   C4B30541   7.752   3.047  18.173  0.0863  0.2392 -0.0799
24342DPPA   PO430542  12.494   1.964  20.423  0.3066 -0.1812  0.0440
24342DPPA   GL130543  12.284   2.152  20.789 -0.1217 -0.2375  0.2027
24342DPPA   GL230544  12.419   2.384  20.858  0.4640  0.1755  0.1915
24342DPPA   C1A30545  11.997   2.116  21.033  0.2782 -0.1383 -0.0735
24342DPPA   C2A30546  11.677   2.115  21.295  0.1046 -0.0208 -0.0082
24342DPPA   C3A30547  11.484   2.127  21.693 -0.1052  0.0236  0.0025
24342DPPA   C4A30548  11.185   2.167  22.045 -0.0186  0.3685  0.2733
24342DPPA   C1B30549  12.186   2.504  21.156 -0.0110 -0.3622  0.0391
24342DPPA   C2B30550  11.941   2.574  21.495 -0.2906 -0.3492 -0.2341
24342DPPA   C3B30551  11.640   2.616  21.841  0.1240 -0.1021 -0.4637
24342DPPA   C4B30552  11.327   2.662  22.175  0.1516 -0.1750 -0.2437
24343DPPA   PO430553  12.700   2.892  20.721 -0.2755  0.0656 -0.1921
24343DPPA   GL130554  12.407   3.086  20.924 -0.0954 -0.4076  0.0042
24343DPPA   GL230555  12.461   3.216  21.112  0.3722 -0.0062  0.0112
24343DPPA   C1A30556  12.047   3.072  20.948  0.1851 -0.0673 -0.2350
24343DPPA   C2A30557  11.739   2.959  21.219  0.1731  0.0066  0.0276
24343DPPA   C3A30558  11.417   3.000  21.597 -0.3219  0.1013 -0.0235
24343DPPA   C4A30559  11.130   3.095  21.981 -0.1864 -0.2357  0.0370
24343DPPA   C1B30560  12.247   3.410  21.265  0.3661  0.0388 -0.0579
24343DPPA   C2B30561  12.093   3.787  21.385  0.2577 -0.3651  0.1825
24343DPPA   C3B30562  11.755   3.928  21.722  0.1945  0.0872  0.0246
24343DPPA   C4B30563  11.477   4.029  22.116  0.0437 -0.0288  0.2006
24344DPPA   PO430564  10.951   3.903  18.562  0.0871  0.2303 -0.0408
24344DPPA   GL130565  10.667   4.045  18.748 -0.2978 -0.3766  0.5060
24344DPPA   GL230566  10.484   4.204  18.551 -0.1456  0.2555 -0.1954
24344DPPA   C1A30567  10.535   4.048  19.075 -0.0631  0.0249 -0.0522
24344DPPA   C2A30568  10.428   4.150  19.470 -0.0803  0.1060  0.1873
24344DPPA   C3A30569  10.216   4.172  19.962 -0.1457 -0.0628  0.0440
24344DPPA   C4A30570   9.937   4.169  20.372  0.0677  0.0544  0.0735
24344DPPA   C1B30571  10.198   4.166  18.766  0.0069 -0.0081  0.0671
24344DPPA   C2B30572  10.103   4.143  19.128 -0.1125 -0.1275  0.3762
24344DPPA   C3B30573   9.933   4.132  19.592 -0.0963 -0.1636  0.1834
24344DPPA   C4B30574   9.581   4.214  19.939  0.0367  0.1705  0.1186
24345DPPA   PO430575  10.291   5.526  17.842  0.1649 -0.2356 -0.3537
24345DPPA   GL130576  10.033   5.510  18.086  0.0417 -0.1675  0.3115
24345DPPA   GL230577   9.797   5.651  18.177 -0.4886 -0.0377 -0.3450
24345DPPA   C1A30578   9.936   5.242  18.272 -0.2979 -0.1560 -0.4963
24345DPPA   C2A30579   9.859   4.972  18.574  0.0760 -0.2508 -0.0539
24345DPPA   C3A30580   9.613   4.960  18.987  0.0024  0.4210  0.1764
24345DPPA   C4A30581   9.347   4.933  19.378  0.0189 -0.0554 -0.1832
24345DPPA   C1B30582   9.729   5.794  18.498  0.4371  0.2265  0.2811
24345DPPA   C2B30583   9.527   5.838  18.887  0.4011  0.0485 -0.4003
24345DPPA   C3B30584   9.269   5.927  19.250  0.1944  0.1309  0.1273
24345DPPA   C4B30585   8.935   5.819  19.588 -0.0991 -0.0348 -0.1715
24346DPPA   PO430586   1.905   0.266  17.077 -0.2790 -0.1352  0.0961
24346DPPA   GL130587   2.279   0.104  17.220  0.3125  0.0251  0.2090
24346DPPA   GL230588   2.176  -0.177  17.256 -0.4482  0.2128 -0.2976
24346DPPA   C1A30589   2.465   0.145  17.517  0.2445 -0.7260 -0.2407
24346DPPA   C2A30590   2.726   0.080  17.878  0.2255 -0.0532 -0.1084
24346DPPA   C3A30591   2.999   0.162  18.272 -0.1166 -0.1495  0.1832
24346DPPA   C4A30592   3.392   0.211  18.569  0.0022  0.2160  0.3125
24346DPPA   C1B30593   2.224  -0.250  17.648  0.0114 -0.1401  0.2688
24346DPPA   C2B30594   2.472  -0.390  17.950 -0.0512 -0.2780  0.0626
24346DPPA   C3B30595   2.892  -0.357  18.255 -0.2238  0.3041 -0.1753
24346DPPA   C4B30596   3.169  -0.283  18.647  0.3741  0.0374 -0.2320
24347DPPA   PO430597  12.074   4.905  20.013  0.0502 -0.1176 -0.1926
24347DPPA   GL130598  11.888   4.884  20.387  0.1353 -0.0815 -0.0052
24347DPPA   GL230599  11.976   5.197  20.492  0.0233 -0.2575 -0.3391
24347DPPA   C1A30600  11.634   4.747  20.645  0.0875 -0.1919  0.1158
24347DPPA   C2A30601  11.444   4.735  21.044  0.0065 -0.3213 -0.1599
24347DPPA   C3A30602  11.135   4.720  21.440 -0.1185 -0.0411  0.1696
24347DPPA   C4A30603  10.891   4.793  21.852  0.2005  0.1581 -0.2465
24347DPPA   C1B30604  11.892   5.177  20.840  0.1462 -0.0329  0.1769
24347DPPA   C2B30605  11.616   5.148  21.180  0.1361  0.2508 -0.1592
24347DPPA   C3B30606  11.315   5.188  21.559  0.3244  0.1164 -0.2240
24347DPPA   C4B30607  11.019   5.234  21.970 -0.1292 -0.2050 -0.1639
24348DPPA   PO430608   2.647   4.345  16.014  0.1866  0.0351 -0.1930
24348DPPA   GL130609   2.746   4.480  16.402  0.0879 -0.0714 -0.0313
24348DPPA   GL230610   2.711   4.129  16.501 -0.4120 -0.0085  0.0402
24348DPPA   C1A30611   3.033   4.661  16.591  0.0087 -0.1097  0.4360
24348DPPA   C2A30612   3.062   4.946  16.875 -0.2399  0.0289 -0.0975
24348DPPA   C3A30613   3.291   5.056  17.275  0.0334 -0.0696 -0.1583
24348DPPA   C4A30614   3.512   5.114  17.713 -0.1246  0.1322  0.0445
24348DPPA   C1B30615   2.879   4.050  16.839 -0.0239  0.1898  0.1436
24348DPPA   C2B30616   3.108   3.913  17.120 -0.0650 -0.0775 -0.0813
24348DPPA   C3B30617   3.437   3.791  17.495  0.0310 -0.1427 -0.0977
24348DPPA   C4B30618   3.648   3.863  17.923 -0.0215 -0.0215  0.2629
24349DPPA   PO430619  12.422   1.144  20.051  0.0425  0.1578  0.0351
24349DPPA   GL130620  12.219   1.260  20.442  0.0704  0.1160  0.5279
24349DPPA   GL230621  12.198   0.980  20.523 -0.3327  0.1757 -0.2028
24349DPPA   C1A30622  11.882   1.310  20.589 -0.3185 -0.1680  0.2102
24349DPPA   C2A30623  11.592   1.282  20.913  0.0986 -0.0600  0.1278
24349DPPA   C3A30624  11.231   1.250  21.203  0.1796  0.1460  0.1180
24349DPPA   C4A30625  10.916   1.263  21.612  0.1266  0.1324 -0.2049
24349DPPA   C1B30626  12.214   0.902  20.893  0.1603 -0.6366 -0.1158
24349DPPA   C2B30627  12.050   0.901  21.272  0.1133 -0.1254 -0.0427
24349DPPA   C3B30628  11.769   0.881  21.677  0.2386 -0.0568 -0.2553
24349DPPA   C4B30629  11.492   0.928  22.116  0.2045  0.2359  0.1943
24350DPPA   PO430630  11.998   5.969  19.293  0.1260  0.2999  0.0733
24350DPPA   GL130631  11.911   5.997  19.648  0.0628  0.0524  0.1174
24350DPPA   GL230632  11.921   5.811  19.861 -0.1117 -0.0104 -0.2131
24350DPPA   C1A30633  11.609   6.150  19.789 -0.4644  0.3276 -0.3218
24350DPPA   C2A30634  11.305   6.313  20.045 -0.1186 -0.3284 -0.0438
24350DPPA   C3A30635  10.998   6.498  20.424 -0.2575 -0.2470 -0.2358
24350DPPA   C4A30636  10.767   6.538  20.820  0.0433  0.2051  0.1943
24350DPPA   C1B30637  11.641   5.879  20.152 -0.0173  0.0769 -0.1621
24350DPPA   C2B30638  11.395   6.024  20.434 -0.0308 -0.4204  0.2432
24350DPPA   C3B30639  11.142   6.009  20.787  0.1437 -0.1720  0.0979
24350DPPA   C4B30640  10.783   6.120  21.120 -0.0822 -0.1166  0.1574
24351DPPA   PO430641   4.446   4.101  15.909 -0.2455  0.0380 -0.1167
24351DPPA   GL130642   4.368   4.140  16.233  0.0715 -0.1547 -0.1815
24351DPPA   GL230643   4.055   4.157  16.285  0.1291  0.0832  0.3836
24351DPPA   C1A30644   4.522   3.967  16.538  0.1248 -0.1107 -0.3965
24351DPPA   C2A30645   4.675   3.659  16.801 -0.1266 -0.4362 -0.1855
24351DPPA   C3A30646   4.929   3.538  17.169 -0.1594  0.0730 -0.0027
24351DPPA   C4A30647   5.169   3.592  17.535  0.0124  0.0637 -0.1641
24351DPPA   C1B30648   4.005   4.259  16.570  0.2948 -0.0437  0.0334
24351DPPA   C2B30649   3.930   4.403  16.949  0.1032 -0.0478 -0.0865
24351DPPA   C3B30650   4.163   4.405  17.403 -0.1481  0.2687  0.1838
24351DPPA   C4B30651   4.565   4.337  17.668  0.0083 -0.0084 -0.0671
24352DPPA   PO430652  12.739   2.555  21.130  0.2550 -0.1954 -0.1666
24352DPPA   GL130653  12.540   2.290  21.329  0.1984  0.4765  0.1372
24352DPPA   GL230654  12.712   2.397  21.566 -0.0359  0.3643  0.0457
24352DPPA   C1A30655  12.176   2.200  21.474 -0.2110  0.4894 -0.0681
24352DPPA   C2A30656  11.983   2.226  21.837 -0.1234  0.1445 -0.0177
24352DPPA   C3A30657  11.665   2.231  22.166 -0.0789  0.1133  0.0033
24352DPPA   C4A30658  11.410   2.331  22.531  0.1948  0.4583 -0.0423
24352DPPA   C1B30659  12.416   2.531  21.705  0.3533  0.0838  0.0407
24352DPPA   C2B30660  12.166   2.690  22.015  0.2682 -0.2686  0.2352
24352DPPA   C3B30661  11.832   2.740  22.330  0.1304  0.1535 -0.0895
24352DPPA   C4B30662  11.604   2.746  22.745 -0.1698 -0.0142 -0.1440
24353DPPA   PO430663  12.370   3.716  20.641 -0.1810  0.0761  0.1453
24353DPPA   GL130664  12.103   3.460  20.823 -0.4400 -0.0051  0.1177
24353DPPA   GL230665  11.936   3.566  20.633 -0.3091  0.2300  0.1214
24353DPPA   C1A30666  11.855   3.468  21.128  0.1668  0.4549  0.4050
24353DPPA   C2A30667  11.713   3.514  21.513 -0.0401  0.0269 -0.0321
24353DPPA   C3A30668  11.425   3.558  21.857  0.2045 -0.1965 -0.0936
24353DPPA   C4A30669  11.060   3.531  22.236  0.0462  0.0164 -0.0869
24353DPPA   C1B30670  11.734   3.857  20.750 -0.2148 -0.1123  0.4798
24353DPPA   C2B30671  11.562   3.852  21.093 -0.0523  0.2784 -0.0726
24353DPPA   C3B30672  11.305   3.871  21.496 -0.1586 -0.4103  0.0290
24353DPPA   C4B30673  11.000   3.922  21.905 -0.0952 -0.0077 -0.2473
24354DPPA   PO430674  10.579   6.283  18.134  0.0057 -0.2260 -0.3944
24354DPPA   GL130675  10.621   6.338  18.584  0.0835  0.4902 -0.0082
24354DPPA   GL230676  10.462   6.560  18.477 -0.2446  0.0364  0.0913
24354DPPA   C1A30677  10.393   6.295  18.923 -0.0264 -0.1031 -0.0694
24354DPPA   C2A30678  10.110   6.313  19.216 -0.1761  0.0099 -0.2629
24354DPPA   C3A30679   9.757   6.299  19.629  0.0463 -0.2831 -0.1186
24354DPPA   C4A30680   9.441   6.411  20.028 -0.0237  0.1937 -0.1469
24354DPPA   C1B30681  10.196   6.643  18.740 -0.1019 -0.5176  0.1083
24354DPPA   C2B30682   9.873   6.673  18.991  0.0265 -0.0795 -0.0206
24354DPPA   C3B30683   9.589   6.755  19.357 -0.1303 -0.1302  0.2397
24354DPPA   C4B30684   9.262   6.793  19.722 -0.1518  0.0968 -0.1440
24355DPPA   PO430685  13.116   1.180  21.978 -0.1863 -0.0149  0.0418
24355DPPA   GL130686  12.798   1.319  22.059  0.0335 -0.1535  0.5074
24355DPPA   GL230687  12.617   1.485  21.928 -0.3577  0.0548  0.1414
24355DPPA   C1A30688  12.748   1.304  22.428 -0.1811  0.3144  0.1443
24355DPPA   C2A30689  12.593   1.410  22.762 -0.0841  0.2956 -0.0075
24355DPPA   C3A30690  12.243   1.501  23.071  0.2235  0.0963 -0.0212
24355DPPA   C4A30691  11.950   1.587  23.437  0.0395  0.1349 -0.0345
24355DPPA   C1B30692  12.359   1.415  22.213  0.2595  0.0741 -0.0016
24355DPPA   C2B30693  12.050   1.414  22.507 -0.0861  0.0889 -0.2879
24355DPPA   C3B30694  11.776   1.476  22.918 -0.3923  0.0142  0.1579
24355DPPA   C4B30695  11.455   1.404  23.336 -0.1017  0.0760  0.1301
24356DPPA   PO430696  13.522   1.415  22.294 -0.0839 -0.0637 -0.3180
24356DPPA   GL130697  13.139   1.439  22.525 -0.0753  0.0713  0.3214
24356DPPA   GL230698  13.131   1.093  22.528  0.1182  0.0808 -0.1091
24356DPPA   C1A30699  13.040   1.512  22.845 -0.3318 -0.1538 -0.3022
24356DPPA   C2A30700  12.818   1.520  23.169 -0.1458  0.1664 -0.0674
24356DPPA   C3A30701  12.556   1.512  23.546  0.0464 -0.0447  0.1280
24356DPPA   C4A30702  12.249   1.567  23.960 -0.0421  0.1272 -0.0166
24356DPPA   C1B30703  12.816   1.012  22.766 -0.1020  0.1306  0.2229
24356DPPA   C2B30704  12.656   1.088  23.144  0.0995  0.2013  0.0130
24356DPPA   C3B30705  12.313   1.098  23.491 -0.0506  0.2955  0.0692
24356DPPA   C4B30706  12.051   1.152  23.838  0.2275 -0.0995 -0.0514
24357DPPA   PO430707  10.256   2.148  17.960 -0.1429  0.1377  0.1357
24357DPPA   GL130708  10.022   1.982  18.294 -0.0439  0.0676  0.0948
24357DPPA   GL230709   9.756   1.998  18.177  0.0659  0.0110  0.0947
24357DPPA   C1A30710   9.949   2.268  18.492  0.0791 -0.0739 -0.3349
24357DPPA   C2A30711   9.881   2.346  18.909  0.0869  0.4658  0.0228
24357DPPA   C3A30712   9.648   2.284  19.326  0.3723 -0.2573 -0.0393
24357DPPA   C4A30713   9.371   2.379  19.716 -0.1369 -0.2099 -0.2648
24357DPPA   C1B30714   9.706   1.916  18.552  0.1619 -0.1160  0.2242
24357DPPA   C2B30715   9.606   1.908  18.939 -0.1827 -0.1653 -0.0529
24357DPPA   C3B30716   9.380   1.885  19.389 -0.1575  0.4593  0.2651
24357DPPA   C4B30717   9.074   1.915  19.790 -0.0566  0.0118 -0.2786
24358DPPA   PO430718  10.889   1.128  18.484  0.0106 -0.1250 -0.1170
24358DPPA   GL130719  10.616   0.876  18.633 -0.0122  0.0216 -0.1324
24358DPPA   GL230720  10.736   1.029  18.888  0.1820 -0.0103 -0.2143
24358DPPA   C1A30721  10.203   0.837  18.653  0.1173 -0.3093 -0.0389
24358DPPA   C2A30722   9.817   0.892  18.799 -0.0549 -0.2536  0.0065
24358DPPA   C3A30723   9.626   0.998  19.238 -0.0028  0.1201 -0.2190
24358DPPA   C4A30724   9.300   1.005  19.646  0.0500 -0.3174 -0.1410
24358DPPA   C1B30725  10.376   0.996  19.050 -0.0358 -0.1110  0.1123
24358DPPA   C2B30726  10.103   1.044  19.390 -0.0709  0.1913  0.0850
24358DPPA   C3B30727   9.759   1.050  19.751 -0.2659 -0.2326 -0.1080
24358DPPA   C4B30728   9.493   1.071  20.145 -0.1387  0.1406 -0.3002
24359DPPA   PO430729  12.336   2.519  20.040  0.0907 -0.1079 -0.1443
24359DPPA   GL130730  12.158   2.350  20.407  0.1183 -0.0433  0.1493
24359DPPA   GL230731  12.081   2.099  20.196  0.1073  0.2018 -0.2186
24359DPPA   C1A30732  11.909   2.350  20.665  0.0324 -0.0434 -0.3525
24359DPPA   C2A30733  11.696   2.522  20.983 -0.1633 -0.0032 -0.0632
24359DPPA   C3A30734  11.340   2.607  21.297  0.1323 -0.0104 -0.1725
24359DPPA   C4A30735  11.126   2.607  21.740 -0.0778 -0.0472  0.1100
24359DPPA   C1B30736  11.865   1.797  20.295  0.0855  0.0860  0.0146
24359DPPA   C2B30737  11.508   1.646  20.460  0.0994 -0.1120  0.1436
24359DPPA   C3B30738  11.175   1.643  20.799  0.1973  0.1871  0.3071
24359DPPA   C4B30739  10.966   1.672  21.218  0.2059 -0.0214 -0.0348
24360DPPA   PO430740  11.390   3.903  19.351  0.2259 -0.1583  0.2693
24360DPPA   GL130741  11.260   3.952  19.715  0.2168  0.2402  0.0664
24360DPPA   GL230742  11.118   3.819  19.786  0.4752 -0.0985  0.2424
24360DPPA   C1A30743  11.212   4.265  19.935 -0.2838 -0.1382 -0.0326
24360DPPA   C2A30744  11.039   4.236  20.344  0.1508 -0.1821  0.0040
24360DPPA   C3A30745  10.824   4.211  20.768  0.1324  0.3498  0.3722
24360DPPA   C4A30746  10.556   4.300  21.143  0.0684 -0.0121  0.1760
24360DPPA   C1B30747  10.997   3.758  20.121 -0.1526 -0.3114  0.6505
24360DPPA   C2B30748  10.728   3.738  20.389 -0.0673  0.1610 -0.0202
24360DPPA   C3B30749  10.509   3.792  20.779 -0.5847  0.2336  0.2084
24360DPPA   C4B30750  10.265   3.720  21.150 -0.0668 -0.1867 -0.1295
24361DPPA   PO430751  12.389   4.813  20.588  0.0510 -0.0067 -0.0741
24361DPPA   GL130752  12.186   4.663  20.965 -0.0711  0.0556 -0.1716
24361DPPA   GL230753  12.010   4.479  20.796  0.1354 -0.0160  0.3073
24361DPPA   C1A30754  11.955   4.803  21.199 -0.0664 -0.1159 -0.0604
24361DPPA   C2A30755  11.665   4.801  21.527 -0.1641 -0.1081  0.1559
24361DPPA   C3A30756  11.393   4.830  21.919 -0.0631 -0.1262 -0.0510
24361DPPA   C4A30757  11.119   4.903  22.337 -0.2078  0.1965 -0.0672
24361DPPA   C1B30758  11.833   4.289  21.087 -0.0099 -0.1432  0.2945
24361DPPA   C2B30759  11.536   4.330  21.401  0.0978  0.0699  0.1749
24361DPPA   C3B30760  11.338   4.343  21.801  0.2637  0.1063 -0.3081
24361DPPA   C4B30761  11.036   4.403  22.169  0.1464  0.1801 -0.4020
24362DPPA   PO430762   2.863   2.879  16.061  0.1532  0.1748 -0.4284
24362DPPA   GL130763   2.928   2.753  16.517 -0.1226 -0.0811 -0.0897
24362DPPA   GL230764   3.202   2.902  16.388  0.4292 -0.2268  0.0657
24362DPPA   C1A30765   3.045   2.622  16.844  0.0615 -0.3165 -0.3540
24362DPPA   C2A30766   3.169   2.467  17.195 -0.1794 -0.0182 -0.3040
24362DPPA   C3A30767   3.450   2.461  17.584 -0.1803  0.0768 -0.0625
24362DPPA   C4A30768   3.745   2.542  18.000  0.0260 -0.1487  0.1881
24362DPPA   C1B30769   3.417   2.867  16.689  0.0675 -0.2407  0.1325
24362DPPA   C2B30770   3.777   3.001  16.911 -0.1251 -0.2385 -0.2368
24362DPPA   C3B30771   4.076   3.044  17.281  0.4624  0.2095  0.1727
24362DPPA   C4B30772   4.451   3.218  17.553  0.0974  0.2230  0.2001
24363DPPA   PO430773   3.504   4.525  15.874  0.0696 -0.0441  0.0607
24363DPPA   GL130774   3.406   4.191  16.069 -0.2626 -0.0777 -0.0817
24363DPPA   GL230775   3.603   4.219  16.270  0.0746 -0.2060  0.1489
24363DPPA   C1A30776   3.160   4.214  16.388  0.1053 -0.0466  0.0503
24363DPPA   C2A30777   3.186   4.336  16.806 -0.1136 -0.0482 -0.1040
24363DPPA   C3A30778   3.488   4.275  17.231  0.1400 -0.2306 -0.2473
24363DPPA   C4A30779   3.740   4.254  17.671  0.0510 -0.2918  0.3018
24363DPPA   C1B30780   3.567   4.520  16.493  0.3731  0.0618 -0.1538
24363DPPA   C2B30781   3.555   4.712  16.884 -0.1767  0.5384  0.0465
24363DPPA   C3B30782   3.620   5.220  16.882 -0.1718  0.0509 -0.3880
24363DPPA   C4B30783   3.769   5.706  16.928  0.1136 -0.2334 -0.3141
24364DPPA   PO430784  13.699   0.364  21.946  0.0500 -0.0360  0.1368
24364DPPA   GL130785  13.370   0.325  22.232  0.4778 -0.0410 -0.1526
24364DPPA   GL230786  13.178   0.113  22.054 -0.3735  0.1462 -0.2071
24364DPPA   C1A30787  13.175   0.569  22.431 -0.0464 -0.4067  0.0755
24364DPPA   C2A30788  12.835   0.642  22.545  0.0232 -0.0765  0.2175
24364DPPA   C3A30789  12.537   0.652  22.902 -0.2775  0.0917 -0.1202
24364DPPA   C4A30790  12.270   0.659  23.247  0.1652 -0.0091  0.1197
24364DPPA   C1B30791  13.067  -0.094  22.325  0.0528 -0.1137 -0.0097
24364DPPA   C2B30792  12.817  -0.305  22.559 -0.0441 -0.0255 -0.0449
24364DPPA   C3B30793  12.544  -0.308  22.888 -0.1433 -0.1215  0.0214
24364DPPA   C4B30794  12.330  -0.211  23.301 -0.0588  0.1004 -0.2203
24365DPPA   PO430795  11.951   1.158  19.651  0.0729 -0.4570 -0.2910
24365DPPA   GL130796  11.823   1.390  19.976 -0.0755  0.2687 -0.3721
24365DPPA   GL230797  11.903   1.067  20.117 -0.1555  0.0871 -0.0707
24365DPPA   C1A30798  11.524   1.609  19.908  0.0187  0.2287 -0.2808
24365DPPA   C2A30799  11.305   1.974  19.969  0.2660 -0.3327 -0.2225
24365DPPA   C3A30800  11.101   2.046  20.439  0.1167 -0.0786  0.3129
24365DPPA   C4A30801  10.821   2.056  20.830 -0.3992 -0.1388 -0.0810
24365DPPA   C1B30802  11.806   0.912  20.448  0.0623 -0.3596  0.1713
24365DPPA   C2B30803  11.726   0.787  20.854 -0.0854 -0.1147  0.0371
24365DPPA   C3B30804  11.499   0.814  21.287  0.1780  0.1095 -0.0105
24365DPPA   C4B30805  11.186   0.871  21.612 -0.2236  0.1643 -0.0060
24366DPPA   PO430806  10.056   0.311  24.644 -0.2155 -0.0358  0.3172
24366DPPA   GL130807  10.402   0.290  24.776  0.5604  0.1759 -0.0773
24366DPPA   GL230808  10.495   0.458  24.963  0.4941  0.1891 -0.1556
24366DPPA   C1A30809  10.656   0.089  24.564 -0.3952  0.1552 -0.5343
24366DPPA   C2A30810  10.898  -0.171  24.355 -0.1146 -0.0063  0.0548
24366DPPA   C3A30811  11.225  -0.224  23.980  0.2045  0.0231 -0.1708
24366DPPA   C4A30812  11.510  -0.298  23.539 -0.0878 -0.1654  0.0237
24366DPPA   C1B30813  10.736   0.688  24.806 -0.0396  0.1204 -0.1519
24366DPPA   C2B30814  10.986   0.974  24.581  0.2796  0.0470  0.2832
24366DPPA   C3B30815  11.231   1.117  24.165 -0.0052  0.3320 -0.0855
24366DPPA   C4B30816  11.532   1.138  23.756 -0.0427  0.2670  0.1498
24367W        W30817   9.585   2.284  28.025  0.2070  0.0113 -0.2671
24368W        W30818  15.123   2.175   8.026  0.0972 -0.1378 -0.0024
24369W        W30819  15.821   3.446   0.999 -0.1530  0.0781  0.0784
24370W        W30820  20.951   4.858   8.755  0.2012 -0.0050  0.0271
24371W        W30821   3.564   3.756   4.226  0.0377  0.2813 -0.0604
24372W        W30822   9.008   0.174   2.220  0.0061 -0.1585 -0.2652
24373W        W30823  19.078   5.540  13.746 -0.0562  0.0364 -0.4149
24374W        W30824   2.965   5.586  10.875  0.0503  0.2735 -0.0695
24375W        W30825   6.226   3.927   6.799  0.0018 -0.3761  0.1048
24376W        W30826  13.065   4.340   0.698 -0.0269 -0.1279  0.0458
24377W        W30827   7.372   5.540  13.059  0.1632  0.0906  0.1857
24378W        W30828  13.948   0.132  20.991 -0.3058 -0.1237  0.0854
24379W        W30829  18.811   3.466   3.666 -0.2354  0.2024  0.3225
24380W        W30830   1.122   3.916  16.949 -0.2582 -0.2526  0.0513
24381W        W30831   6.713   6.072  29.089 -0.1230  0.1164 -0.0574
24382W        W30832   8.210   4.405  40.230  0.1201  0.1794 -0.2324
24383W        W30833  18.135   1.470  12.242 -0.2060 -0.0440  0.1781
24384W        W30834  18.780   2.942  17.110 -0.3826 -0.1478 -0.3102
24385W        W30835  15.592   0.433  29.665 -0.1068  0.0977  0.2762
24386W        W30836   3.413   0.130  40.567  0.0962 -0.2702  0.1261
24387W        W30837  14.168   5.996   4.053  0.2134  0.1005  0.3375
24388W        W30838  17.341   4.999   8.584 -0.2191  0.1336  0.1932
24389W        W30839  18.015   3.866  10.912  0.2696 -0.4075  0.0638
24390W        W30840   8.800   4.135   9.784  0.1686 -0.4627  0.0468
24391W        W30841  13.497   4.017  18.041  0.1093  0.4222 -0.0629
24392W        W30842   9.336   3.206  42.236 -0.0041 -0.2094 -0.2625
24393W        W30843   3.650   1.508  38.869  0.2062  0.0354 -0.0925
24394W        W30844   0.167   3.835  31.132  0.3140 -0.2886  0.0992
24395W        W30845   3.732   6.174   3.446  0.2222  0.1293  0.0321
24396W        W30846   7.651   1.261  12.736  0.0747  0.2118  0.2398
24397W        W30847  19.901   4.958  38.152  0.3756 -0.1894 -0.1522
24398W        W30848  18.187   6.341  32.925 -0.2874  0.2784 -0.0552
24399W        W30849   7.004   4.380  32.847 -0.0560  0.2705  0.5149
24400W        W30850  18.909   5.306  17.093  0.2315 -0.1143  0.0386
24401W        W30851   4.186   3.086  23.275 -0.1750  0.1191 -0.0627
24402W        W30852  10.395   1.541  35.963  0.0210  0.0857 -0.1919
24403W        W30853   2.244   2.265   6.142  0.1858 -0.2104  0.0381
24404W        W30854  18.197   4.386  14.868 -0.1495  0.2750  0.0355
24405W        W30855  19.214   6.346   4.303  0.3558  0.1277 -0.0351
24406W        W30856   7.411   0.671  10.873  0.1819 -0.0727  0.1886
24407W        W30857   2.249   1.314  42.919 -0.1009  0.2017 -0.0391
24408W        W30858   8.103   5.214   7.875  0.1637 -0.1367  0.0087
24409W        W30859  20.196   4.536   8.390 -0.2724 -0.1272 -0.2406
24410W        W30860   9.984   5.524  14.686 -0.0667  0.0077  0.2768
24411W        W30861  17.540   2.549  13.549  0.0109  0.1302  0.1694
24412W        W30862   9.067   4.916  14.277  0.0702  0.0718  0.4197
24413W        W30863   0.851   4.335  44.301  0.0517  0.2332  0.2008
24414W        W30864   0.157   4.811  29.907  0.0242 -0.2045 -0.1447
24415W        W30865   2.996   4.141  42.960  0.0392  0.0298 -0.0558
24416W        W30866  16.311   4.447  32.153  0.0352 -0.0291 -0.0978
24417W        W30867   3.521   4.431  38.894  0.5244 -0.1656  0.0219
24418W        W30868   2.239   3.722  42.046  0.0822 -0.0662 -0.0905
24419W        W30869   6.643   4.475   5.326  0.1723 -0.0706 -0.0594
24420W        W30870   9.827   4.426   8.926  0.1161  0.2897  0.0141
24421W        W30871  12.045   4.217   9.136 -0.0800 -0.0347 -0.1074
24422W        W30872  16.279   3.625  43.556  0.2890 -0.1727 -0.0591
24423W        W30873  14.734   6.209   2.315 -0.2499 -0.3062 -0.3440
24424W        W30874   9.174   3.739  36.552  0.1235  0.0446  0.1951
24425W        W30875   0.132   3.749   2.222 -0.2451  0.3271  0.3295
24426W        W30876   8.422   3.021  25.356  0.0724  0.0591  0.0151
24427W        W30877  10.369   1.585  34.110  0.1557  0.0796 -0.1376
24428W        W30878  12.085   4.707  12.355  0.1484 -0.0839 -0.1585
24429W        W30879   7.857   1.571  12.360 -0.1530  0.1732 -0.4623
24430W        W30880  15.205   4.575  32.388  0.1174 -0.1134  0.0659
24431W        W30881  12.126   4.659  14.162 -0.0380 -0.1095 -0.0244
24432W        W30882  18.155   5.286   3.530 -0.1748  0.0261  0.0486
24433W        W30883  11.490   0.308  13.681 -0.0818 -0.0351 -0.2353
24434W        W30884   4.213   4.544  11.999 -0.1343  0.0650 -0.2460
24435W        W30885   7.995   0.579  25.278  0.4374 -0.1605  0.0721
24436W        W30886   5.388   5.296  13.787 -0.1213 -0.1096 -0.2028
24437W        W30887  11.403   5.450  39.890  0.2620 -0.0792 -0.0028
24438W        W30888   8.401   4.106   7.596  0.1646 -0.0425 -0.3520
24439W        W30889  10.128   2.381  17.543  0.2801  0.0032 -0.2783
24440W        W30890  19.315   3.865  42.381 -0.0419  0.0671 -0.0067
24441W        W30891   9.757   3.784  41.019  0.2712 -0.2205 -0.1225
24442W        W30892   7.215   4.610   8.888 -0.2194 -0.1528 -0.0388
24443W        W30893  19.303   0.092   6.091  0.0103  0.2765 -0.2731
24444W        W30894   1.307   1.737  35.570  0.0830 -0.3767 -0.1438
24445W        W30895   7.108   5.945  43.485 -0.0502 -0.0271 -0.0297
24446W        W30896   0.414   2.212  15.747 -0.0888 -0.1129  0.0371
24447W        W30897  18.276   1.280  44.542  0.0370 -0.0193 -0.0702
24448W        W30898   9.862   4.614   9.540  0.1505 -0.1097 -0.1364
24449W        W30899  15.823   3.408  21.423  0.0674 -0.0376  0.1090
24450W        W30900   8.821   0.732  34.537  0.1840 -0.1018  0.0599
24451W        W30901   2.384   1.256  26.197 -0.1480  0.0435 -0.2469
24452W        W30902  18.278   0.108   2.612  0.2012  0.0537  0.0093
24453W        W30903   5.205   3.236   8.953  0.1327 -0.1084 -0.0925
24454W        W30904   3.664   2.954  29.240 -0.0374 -0.5134 -0.0395
24455W        W30905  14.729   1.640  38.325  0.0911 -0.0593 -0.1407
24456W        W30906   1.856   0.543  11.089 -0.0049  0.0372 -0.2525
24457W        W30907   0.209   5.821  10.011  0.1526 -0.0191  0.2879
24458W        W30908  17.772   6.158   2.392  0.0068 -0.2058 -0.0318
24459W        W30909  13.270   0.513  43.701  0.1678  0.2166  0.1651
24460W        W30910  17.894   4.642  19.084  0.0780  0.1124 -0.0457
24461W        W30911   7.155   2.602  35.734 -0.1799 -0.0563 -0.3544
24462W        W30912   6.890   0.400   6.566 -0.0456  0.3413 -0.0880
24463W        W30913  21.030   2.133  42.564  0.2066  0.1715  0.0217
24464W        W30914  16.565   0.721  44.804  0.1611 -0.1226  0.2782
24465W        W30915   8.059   4.231  17.015 -0.3129  0.1093 -0.0223
24466W        W30916   2.395   5.925  44.479 -0.1351  0.0687 -0.1722
24467W        W30917  14.470   5.328  39.397 -0.1348 -0.3600  0.2687
24468W        W30918  12.319   3.249  20.470  0.4121 -0.0055 -0.0209
24469W        W30919   4.499   6.259  22.246 -0.0707 -0.0099 -0.0614
24470W        W30920   0.511   0.987  41.301 -0.0349 -0.3959 -0.1634
24471W        W30921   1.776   3.334  29.700  0.0017 -0.2861  0.3791
24472W        W30922   4.179   2.813   6.019  0.0497 -0.0206 -0.1311
24473W        W30923  10.722   5.987   6.891 -0.2097  0.1248  0.1922
24474W        W30924   1.725   5.203  11.456  0.0380  0.1346 -0.0140
24475W        W30925  15.293   5.172  18.718  0.1891 -0.0997  0.1032
24476W        W30926  15.555   2.735   4.489  0.1212 -0.0127 -0.0465
24477W        W30927  14.765   0.450   2.030  0.0948 -0.3635  0.0442
24478W        W30928  20.469   2.302  41.886 -0.2379 -0.0615  0.0531
24479W        W30929  10.303   4.465   4.658 -0.0018 -0.0879  0.0151
24480W        W30930   8.854   2.798  11.531 -0.0017 -0.1112 -0.0005
24481W        W30931   7.476   4.838  14.317 -0.4242  0.3734  0.1946
24482W        W30932   5.086   4.745   4.339 -0.1277  0.1297 -0.2591
24483W        W30933  11.510   0.366  28.876 -0.0229 -0.2216  0.1789
24484W        W30934   7.901   4.358   2.498  0.2079 -0.3301 -0.5410
24485W        W30935   2.104   1.908  13.910  0.0379 -0.1857 -0.0577
24486W        W30936  19.768   5.505  12.890 -0.0897  0.2508 -0.0838
24487W        W30937  10.601   1.515  17.216  0.0223  0.0146 -0.0577
24488W        W30938   4.200   2.476  28.141  0.3004 -0.0664 -0.1335
24489W        W30939   2.682   5.808  34.691  0.0933  0.0839 -0.2913
24490W        W30940   4.243   2.112   1.440  0.0029  0.1975  0.2594
24491W        W30941  14.306   4.677  29.205 -0.0264 -0.2448 -0.2071
24492W        W30942   6.858   1.844  11.169  0.0762  0.2760 -0.0386
24493W        W30943  19.544   0.261  18.216 -0.0613 -0.0450  0.0820
24494W        W30944  20.001   0.289  19.538  0.0666  0.1087 -0.0267
24495W        W30945   8.321   5.050   3.634 -0.2100 -0.0466  0.1396
24496W        W30946  16.846   1.008  44.408 -0.0893 -0.3168  0.4480
24497W        W30947  12.699   2.291  13.214  0.2796  0.0231 -0.1041
24498W        W30948   1.470   4.189   7.047  0.1728  0.0890 -0.1183
24499W        W30949  20.961   1.625  27.480  0.1311 -0.2224  0.2725
24500W        W30950  15.460   0.346   0.818  0.1688 -0.0805 -0.4631
24501W        W30951  17.659   3.877  36.090  0.0767 -0.4352 -0.0809
24502W        W30952  12.119   6.120   1.740  0.2069 -0.1625  0.0273
24503W        W30953  11.874   2.688   8.645  0.0444 -0.1268 -0.0280
24504W        W30954  16.702   2.756  37.121  0.0833 -0.0553 -0.0876
24505W        W30955   9.374   4.549  36.428  0.0307 -0.0617  0.1082
24506W        W30956  17.086   2.470  23.685 -0.0859  0.0663  0.3464
24507W        W30957  11.362   0.184  36.744 -0.0710 -0.0392 -0.1807
24508W        W30958  18.820   5.951  20.494  0.0811  0.0529  0.0608
24509W        W30959  13.715   4.210   4.368 -0.0979 -0.0060 -0.0656
24510W        W30960   9.440   0.360  12.710  0.1588  0.0265 -0.0561
24511W        W30961  19.904   0.602  42.697 -0.0652 -0.0873 -0.2795
24512W        W30962   4.099   2.144  12.926 -0.2092  0.1234 -0.1369
24513W        W30963  19.471   3.487  31.411  0.0580  0.0699 -0.0692
24514W        W30964   1.615   6.436   6.153  0.0753 -0.1066 -0.0410
24515W        W30965   7.872   2.830  17.089 -0.1053 -0.0005  0.0917
24516W        W30966   6.221   1.211  30.725  0.0037 -0.0225 -0.0821
24517W        W30967   7.335   6.245  27.611 -0.0764 -0.0091  0.1515
24518W        W30968   4.079   3.519  25.793  0.1781 -0.0820 -0.3017
24519W        W30969  11.326   3.122  15.926 -0.0315  0.0332 -0.1512
24520W        W30970   0.246   6.323   3.217  0.2252 -0.1476 -0.1663
24521W        W30971  17.774   2.895   6.174 -0.0348  0.0893  0.1821
24522W        W30972   3.482   4.679   6.353 -0.0008  0.0713  0.0340
24523W        W30973   5.012   2.272  25.895  0.0187  0.0236  0.1762
24524W        W30974   9.519   1.796   5.827  0.0932 -0.1631 -0.0399
24525W        W30975   2.716   0.614  25.473  0.2555 -0.0450 -0.0960
24526W        W30976  11.800   3.401  42.237 -0.0527  0.1863  0.4150
24527W        W30977   2.955   0.604   2.032  0.1322  0.0816 -0.0501
24528W        W30978   7.132   1.996  14.916  0.1118  0.0322  0.0441
24529W        W30979  14.841   3.782  11.295 -0.2351  0.1846 -0.0942
24530W        W30980  17.643   3.474  16.500  0.0876  0.0852  0.4795
24531W        W30981  10.977   1.621  16.923 -0.0151 -0.0719 -0.0085
24532W        W30982   2.642   2.120   9.848 -0.0127 -0.2389  0.0512
24533W        W30983   3.802   5.902  25.919  0.2139  0.1754 -0.4271
24534W        W30984   7.418   2.392  32.050 -0.1252  0.0448  0.1671
24535W        W30985  15.299   3.812   6.696  0.1868  0.2547 -0.0643
24536W        W30986   2.629   5.672  34.177 -0.3684  0.3493 -0.3324
24537W        W30987  12.797   5.595  37.521 -0.2911  0.1500 -0.0812
24538W        W30988  10.723   2.497   8.386  0.1805  0.0851  0.0381
24539W        W30989   3.601   6.498  33.667 -0.1174  0.0755 -0.1384
24540W        W30990   1.736   3.673  33.317  0.1008  0.1459 -0.1465
24541W        W30991   7.492   6.493   4.810  0.2053 -0.2056  0.3867
24542W        W30992   4.701   2.113  10.337 -0.2274 -0.0726 -0.1790
24543W        W30993  18.749   0.030   2.874  0.2204 -0.1495 -0.2572
24544W        W30994  18.708   3.719  12.461  0.2627 -0.1485  0.0198
24545W        W30995  12.175   1.517   6.598 -0.1222  0.0159  0.0549
24546W        W30996  19.985   3.388   0.465 -0.4283  0.0009  0.1012
24547W        W30997   3.227   3.626  38.740 -0.1201  0.0019 -0.0582
24548W        W30998   4.538   5.375  24.837 -0.1227 -0.1266 -0.1828
24549W        W30999   2.264   1.505   0.313 -0.2793  0.1476  0.4550
24550W        W31000   7.230   5.771   2.184  0.0128 -0.0920  0.0097
24551W        W31001  18.929   4.861   8.392 -0.0762 -0.3776  0.0454
24552W        W31002  12.649   3.292   2.521 -0.1307 -0.0453  0.0992
24553W        W31003  15.619   5.551  40.396  0.0178  0.0734  0.0735
24554W        W31004   1.022   1.663  30.178  0.0494  0.1064 -0.0579
24555W        W31005  11.152   5.836  41.306 -0.0711  0.1877 -0.0053
24556W        W31006  10.855   3.272  10.320 -0.1676 -0.0483 -0.2179
24557W        W31007   7.306   5.293  33.656 -0.0295  0.1463 -0.0670
24558W        W31008  15.245   0.236  29.296 -0.0482  0.2893 -0.2787
24559W        W31009  12.992   3.769  37.061 -0.0568 -0.1059  0.0551
24560W        W31010  20.263   4.600  29.758  0.0463  0.2928  0.1360
24561W        W31011  17.462   2.224  41.713 -0.0248 -0.0571  0.2144
24562W        W31012  14.063   6.081   0.614 -0.0461  0.0964 -0.1417
24563W        W31013   2.714   4.353  42.065 -0.1192  0.0442 -0.1890
24564W        W31014  20.822   1.311  10.219 -0.1901 -0.3335 -0.0752
24565W        W31015   7.570   4.933  31.601 -0.1687  0.1502 -0.0869
24566W        W31016  16.438   4.435  20.154 -0.0616 -0.0612  0.0832
24567W        W31017  18.754   3.003  16.619 -0.1769  0.1981 -0.1397
24568W        W31018   6.878   5.115   3.574  0.2507 -0.1408  0.0015
24569W        W31019   3.185   4.332  13.476  0.0313  0.4100  0.1066
24570W        W31020   1.751   3.626   0.307 -0.0418 -0.0713 -0.0636
24571W        W31021  13.950   4.695  40.295 -0.2872  0.1853 -0.2988
24572W        W31022  20.052   3.199   3.099 -0.0617  0.3693 -0.0766
24573W        W31023   2.568   5.070   3.660 -0.2290 -0.1357 -0.3160
24574W        W31024  20.872   4.035  18.495 -0.1081  0.3266 -0.1642
24575W        W31025   8.853   5.803   6.981 -0.2636  0.0357 -0.0978
24576W        W31026   1.026   4.635  44.727 -0.2037  0.1472  0.4051
24577W        W31027   1.918   2.253  32.480  0.0257  0.0225  0.1182
24578W        W31028  10.464   4.363  26.998  0.0100 -0.1136 -0.0838
24579W        W31029   9.494   4.503  10.338  0.2241 -0.0941  0.0622
24580W        W31030   7.669   5.237   8.780 -0.5004 -0.1025 -0.1068
24581W        W31031   3.775   4.130  33.125 -0.1121 -0.0418 -0.0306
24582W        W31032   6.977   1.089  33.664  0.1159  0.3508  0.0378
24583W        W31033   1.796   0.053   7.121 -0.0335  0.0513  0.2472
24584W        W31034   1.054   4.512   2.177 -0.1778 -0.0415 -0.0060
24585W        W31035  19.261   0.209  37.221 -0.1648 -0.0064 -0.2247
24586W        W31036  14.601   6.466  41.446 -0.0228  0.0359 -0.0251
24587W        W31037  15.755   3.042   3.013 -0.0880  0.1583 -0.3690
24588W        W31038  15.970   2.216   9.884  0.0743  0.3486  0.0155
24589W        W31039   4.613   1.675   0.615 -0.0575  0.2576 -0.0820
24590W        W31040   3.132   0.185   4.055 -0.2907  0.2269  0.1190
24591W        W31041  12.615   2.472  29.870 -0.0834  0.2347 -0.0926
24592W        W31042  18.099   5.046  14.390 -0.0348 -0.0519  0.1224
24593W        W31043  13.132   1.570   4.468  0.0288  0.2043 -0.1622
24594W        W31044  13.979   4.079  34.139  0.1781 -0.0994  0.0832
24595W        W31045   2.310   1.127  29.663  0.0836 -0.2113  0.2758
24596W        W31046  13.178   4.830  41.268  0.2684  0.2931 -0.0826
24597W        W31047   9.688   3.580   5.680 -0.0530 -0.1323  0.1723
24598W        W31048   4.460   6.157  33.826  0.1138  0.2814 -0.1143
24599W        W31049  20.731   1.167  33.490 -0.1158 -0.0003 -0.0790
24600W        W31050  15.110   4.919  30.160 -0.2575  0.1212  0.0536
24601W        W31051   6.601   0.711  12.535  0.0678  0.0307  0.0264
24602W        W31052  12.594   2.871  20.241 -0.0132  0.1128 -0.1483
24603W        W31053  11.430   1.169  18.533 -0.1523 -0.0225 -0.0729
24604W        W31054  17.582   6.599   4.054 -0.0707  0.0571  0.2117
24605W        W31055   4.262   1.951  24.642  0.2609 -0.0701  0.1647
24606W        W31056   3.377   0.253  24.458  0.0070  0.1485 -0.0193
24607W        W31057   5.747   0.205  22.284 -0.0482 -0.0789  0.2214
24608W        W31058  16.951   0.666  30.337 -0.0770  0.0505  0.3199
24609W        W31059   6.441   0.944  37.846 -0.0946 -0.0051 -0.1398
24610W        W31060  13.948   2.210   1.224 -0.3032 -0.1044 -0.0858
24611W        W31061  12.795   5.283   5.102  0.1790 -0.3332 -0.0560
24612W        W31062   5.558   1.722  36.841 -0.0538 -0.3863  0.2403
24613W        W31063   1.932   3.097  15.488 -0.0372 -0.0794  0.0549
24614W        W31064  18.194   4.570  33.437 -0.2296  0.1903  0.5061
24615W        W31065  19.975   0.506  40.848  0.0491 -0.0846  0.0966
24616W        W31066  10.528   5.468   5.975 -0.2036 -0.0859  0.0334
24617W        W31067   6.119   0.085  33.995  0.3195 -0.0400  0.1774
24618W        W31068  14.010   3.455  10.141 -0.0453  0.0533 -0.4753
24619W        W31069  18.117   1.399   2.791 -0.0906  0.1740 -0.1187
24620W        W31070   0.799   2.227  43.475  0.1969  0.1995 -0.4767
24621W        W31071  16.939   3.195   9.833  0.0416 -0.1644  0.0951
24622W        W31072   4.484   1.821  23.028  0.0323 -0.1870 -0.2844
24623W        W31073   9.207   3.034  37.319 -0.0245  0.1251 -0.2707
24624W        W31074   7.684   6.312  38.920  0.3043 -0.0373  0.1994
24625W        W31075  17.328   6.217   6.644  0.0540 -0.0151 -0.0234
24626W        W31076   5.147   0.153  23.222  0.0283  0.2757  0.3108
24627W        W31077   0.701   4.987  42.837  0.3745  0.0946 -0.0593
24628W        W31078   6.049   5.979  43.477  0.0661  0.0053  0.3416
24629W        W31079  18.972   1.869   1.020  0.1017  0.2178 -0.0775
24630W        W31080   3.198   1.272  34.811 -0.0253  0.0678  0.1084
24631W        W31081   7.752   6.118  16.310 -0.2485 -0.1878 -0.2966
24632W        W31082  21.093   3.399   9.996 -0.0627 -0.0791 -0.1221
24633W        W31083  10.084   3.197  44.651  0.0756 -0.0890 -0.1533
24634W        W31084   5.946   1.914  20.827  0.0257  0.2321 -0.1243
24635W        W31085  17.207   3.233   1.712  0.2077  0.0393  0.0077
24636W        W31086  13.897   6.311  37.068 -0.0749 -0.3247  0.1276
24637W        W31087   2.530   6.456  38.077  0.0352  0.0488 -0.1334
24638W        W31088  19.785   6.163  18.523  0.1079 -0.0878  0.0807
24639W        W31089  16.609   3.456  24.080  0.1643 -0.3961 -0.2166
24640W        W31090   4.866   3.700   9.629 -0.0227 -0.2927  0.3118
24641W        W31091   6.062   2.776  10.026  0.2293  0.1023 -0.0185
24642W        W31092  18.476   3.160  32.855 -0.0386 -0.2675  0.0641
24643W        W31093  17.105   1.807  22.165 -0.0206 -0.1563  0.0566
24644W        W31094  10.940   4.672   0.776  0.1176 -0.2913  0.2206
24645W        W31095  19.459   4.108  13.330 -0.1458  0.0874  0.2516
24646W        W31096  17.648   2.223   1.353  0.2922  0.0060  0.2426
24647W        W31097   0.203   5.954  13.624  0.0850 -0.5301 -0.1042
24648W        W31098  13.666   5.089  33.273 -0.0066  0.1297  0.1557
24649W        W31099  17.887   5.586   3.116 -0.1664 -0.1734  0.2383
24650W        W31100  10.943   5.522   4.933  0.0253 -0.1191  0.0323
24651W        W31101  18.590   1.609  17.641 -0.1148 -0.2026 -0.3113
24652W        W31102  16.642   0.324  31.601  0.0074 -0.0901 -0.0513
24653W        W31103  20.530   1.435   9.807  0.3428  0.2754 -0.0384
24654W        W31104  17.249   4.015   5.475  0.1536  0.0512  0.5246
24655W        W31105   4.879   3.902  27.334  0.1025  0.2047  0.2945
24656W        W31106  20.844   6.091  43.234 -0.0394 -0.0714 -0.0657
24657W        W31107   3.815   5.088   4.651  0.1998 -0.0085  0.2709
24658W        W31108  20.168   0.867   0.673  0.2280 -0.0043  0.1836
24659W        W31109  16.938   2.227  21.244  0.0894 -0.0755  0.0833
24660W        W31110  16.980   0.337   2.250  0.3742 -0.0900 -0.3849
24661W        W31111   3.241   5.475  24.556  0.1275 -0.0627  0.2205
24662W        W31112   7.886   0.268  42.917 -0.0819  0.0374 -0.1281
24663W        W31113  16.773   4.423  33.086 -0.1939  0.0382  0.2873
24664W        W31114   1.130   2.954  29.507  0.2332  0.0304 -0.0611
24665W        W31115   9.224   1.820   2.223 -0.0989 -0.1693  0.0539
24666W        W31116  10.367   4.006  36.834  0.0285  0.3321 -0.1183
24667W        W31117  11.868   1.013  31.569  0.0550  0.4264 -0.0689
24668W        W31118   3.109   1.430  42.704  0.1911 -0.1058 -0.2491
24669W        W31119  13.517   2.180  28.500  0.2825  0.1119 -0.0644
24670W        W31120   2.125   3.868  26.292  0.2545  0.1684  0.0770
24671W        W31121   3.598   0.707  40.503  0.1040  0.0328 -0.0447
24672W        W31122  11.583   2.742  16.564  0.0012 -0.0264 -0.3104
24673W        W31123  13.650   1.430  36.840  0.1402 -0.2449  0.0164
24674W        W31124   4.646   1.594  40.141 -0.0623  0.0804  0.1270
24675W        W31125  20.880   5.169  16.541  0.0367  0.0020  0.2759
24676W        W31126  13.819   2.461   1.714  0.1639 -0.0352  0.0290
24677W        W31127  11.176   5.256  44.108 -0.0279 -0.3585 -0.1697
24678W        W31128  12.720   5.489  33.125  0.0342  0.0808  0.2184
24679W        W31129   4.359   4.808  44.700  0.0008  0.2812  0.1768
24680W        W31130  19.996   4.033   8.327 -0.1668  0.0511  0.1577
24681W        W31131   0.821   2.996   0.282 -0.0708  0.2920 -0.0182
24682W        W31132   1.723   5.481  34.349  0.2129  0.2689  0.4660
24683W        W31133   7.065   2.506   3.354 -0.2731 -0.0676 -0.0119
24684W        W31134   9.646   1.031  41.314  0.1270 -0.3580 -0.1211
24685W        W31135   5.558   2.365   2.405 -0.1006  0.1057  0.0911
24686W        W31136   9.395   4.878  38.259  0.1088 -0.1186  0.1542
24687W        W31137  12.729   6.434  36.581  0.0559 -0.2062  0.0443
24688W        W31138  10.594   2.681   2.069  0.1791 -0.1364 -0.1178
24689W        W31139  16.712   4.380  29.395 -0.1015  0.1953  0.0053
24690W        W31140  20.272   3.964  37.484  0.0725  0.2079  0.0987
24691W        W31141  17.126   0.419  17.670 -0.2728  0.0534  0.0997
24692W        W31142  12.404   2.850  12.748  0.1773  0.0752  0.1927
24693W        W31143   5.944   1.124  21.130  0.2930 -0.1271  0.1594
24694W        W31144   4.501   0.224   6.437  0.0057  0.0587  0.2013
24695W        W31145   3.571   0.177  44.542 -0.1240 -0.1633 -0.0519
24696W        W31146  11.593   4.147  35.566  0.1042  0.1588  0.3652
24697W        W31147   3.484   0.709  34.546 -0.0272  0.1463  0.0983
24698W        W31148   9.676   2.291  14.606  0.1222 -0.2288  0.0099
24699W        W31149  14.677   5.094  32.273  0.0655 -0.1826 -0.2856
24700W        W31150  13.365   0.171   8.053 -0.2209 -0.2892  0.0825
24701W        W31151  15.007   3.247  41.589 -0.0437  0.0244 -0.4481
24702W        W31152  20.608   1.809  44.586 -0.0652 -0.0043  0.1094
24703W        W31153   3.128   0.802   0.960  0.0543 -0.0823 -0.0851
24704W        W31154   0.359   0.862   1.326 -0.0550  0.0194 -0.0528
24705W        W31155   2.387   5.935  38.251  0.0517  0.1019 -0.0234
24706W        W31156  20.295   6.469  44.071  0.1512 -0.2334 -0.2448
24707W        W31157   8.139   1.192  41.135 -0.1707 -0.0722  0.0765
24708W        W31158   7.724   2.529   8.805 -0.0614 -0.0654 -0.1316
24709W        W31159   8.424   6.167  35.754 -0.1673  0.0403 -0.3671
24710W        W31160   9.338   0.695  33.160 -0.2574  0.1202  0.0793
24711W        W31161  13.432   5.573  32.437  0.1136 -0.0163  0.3312
24712W        W31162   1.030   4.620  15.213  0.0195 -0.3561 -0.3343
24713W        W31163   6.166   4.900   2.996 -0.4365 -0.1450  0.1958
24714W        W31164   4.954   2.728   1.451  0.2432 -0.1655  0.3018
24715W        W31165  11.187   5.498  17.557  0.0598  0.2310  0.1925
24716W        W31166  19.601   6.544  19.560 -0.0035  0.2440 -0.0615
24717W        W31167   7.382   2.190  40.600  0.1530 -0.1803  0.0717
24718W        W31168  16.509   1.155  28.812 -0.1917  0.2320 -0.0283
24719W        W31169  10.830   1.878  35.947 -0.1847  0.0656 -0.0101
24720W        W31170  14.574   5.532  45.051  0.1038  0.3162  0.1104
24721W        W31171  18.939   4.342  12.633 -0.2098 -0.0279  0.1136
24722W        W31172  10.255   4.232   0.322 -0.2205 -0.1041 -0.2570
24723W        W31173  15.404   6.452   3.315 -0.0543  0.1271  0.0629
24724W        W31174   7.079   6.506   3.059  0.0899 -0.3005 -0.2065
24725W        W31175   9.904   4.376  36.135 -0.1971 -0.3957 -0.0508
24726W        W31176   7.632   3.624  15.457 -0.0664 -0.0317  0.1259
24727W        W31177   8.855   5.856  14.438 -0.2047  0.1726 -0.1192
24728W        W31178  10.903   5.374  14.850 -0.3538  0.2495 -0.0728
24729W        W31179  16.843   1.092  40.997  0.0973  0.1909  0.0826
24730W        W31180   0.401   5.595  32.964  0.0562 -0.0127  0.2995
24731W        W31181  13.210   2.574  19.688 -0.0779  0.2479 -0.1919
24732W        W31182   8.628   0.620   1.638 -0.1211 -0.2499  0.0832
24733W        W31183   1.064   2.663   3.414  0.1534 -0.0588 -0.1471
24734W        W31184   5.593   6.036  24.098  0.1945 -0.0683 -0.0048
24735W        W31185  20.171   1.304  19.465 -0.2195 -0.2271  0.1921
24736W        W31186   4.226   5.734  26.816 -0.0428 -0.2893  0.0705
24737W        W31187   0.880   4.297  36.921 -0.1186  0.2313 -0.3385
24738W        W31188  19.267   3.994   2.319 -0.1379  0.1673 -0.0466
24739W        W31189  14.325   5.817   8.316  0.0407 -0.0585  0.0854
24740W        W31190   0.132   5.244  31.699  0.0883 -0.0912 -0.0037
24741W        W31191   8.797   1.229   0.065  0.2306 -0.0602  0.0200
24742W        W31192  15.159   4.652  18.801  0.0234 -0.1292 -0.1068
24743W        W31193   9.020   2.759   5.705 -0.0855  0.0317  0.0692
24744W        W31194  18.720   0.475  17.838  0.0013 -0.0863 -0.1695
24745W        W31195   9.716   5.095   5.427 -0.3603 -0.0792 -0.2006
24746W        W31196   1.646   1.967  26.237  0.0749 -0.3734  0.2885
24747W        W31197   6.118   0.607   1.403 -0.0889 -0.5223  0.1218
24748W        W31198   8.943   6.588  28.925  0.1555  0.2482 -0.1780
24749W        W31199  20.559   1.585   6.727  0.0570 -0.0915  0.0619
24750W        W31200   4.045   5.162  10.075 -0.1730 -0.0658 -0.2320
24751W        W31201  16.896   4.922  10.354  0.0950  0.1147 -0.2750
24752W        W31202   1.499   3.421  16.105 -0.0912  0.1387  0.1062
24753W        W31203  10.868   4.241  34.405  0.5055  0.1556  0.1171
24754W        W31204  18.651   1.717   0.060 -0.1427  0.1450 -0.1165
24755W        W31205  19.448   1.788   9.450  0.2151 -0.2963 -0.2061
24756W        W31206  10.017   0.771  17.427  0.1992 -0.0941 -0.1502
24757W        W31207  19.833   5.381   2.938  0.0104 -0.1993  0.1929
24758W        W31208  20.765   4.141  31.322 -0.2678 -0.0222 -0.1896
24759W        W31209   7.969   4.213  10.881 -0.1365 -0.0467 -0.0788
24760W        W31210   6.142   0.005  21.218 -0.0081 -0.3605  0.2395
24761W        W31211   5.400   4.123  26.583  0.0270  0.1441  0.3474
24762W        W31212   8.281   4.152   2.810  0.1022 -0.0769  0.2026
24763W        W31213   9.334   0.169  33.205 -0.2937 -0.2145  0.2137
24764W        W31214   6.788   0.871  26.098 -0.3523  0.1649  0.0686
24765W        W31215   3.221   2.129  29.278 -0.0054  0.0587  0.0910
24766W        W31216  19.332   2.513  45.016 -0.1878 -0.3495 -0.1602
24767W        W31217   7.409   4.720   2.322  0.0484 -0.0191 -0.2092
24768W        W31218   4.376   3.165  41.643 -0.0613  0.3173  0.1371
24769W        W31219  19.577   2.586  44.452  0.3184  0.1037  0.1256
24770W        W31220   6.047   5.944  11.063  0.0690 -0.2238  0.0554
24771W        W31221  13.534   6.165  31.595  0.2841 -0.2565 -0.0119
24772W        W31222   8.623   4.761  40.240 -0.0797  0.0909 -0.1545
24773W        W31223   4.709   1.771   5.192 -0.0438  0.0788  0.0784
24774W        W31224   9.794   0.734  42.934 -0.2458 -0.1897 -0.3411
24775W        W31225   6.221   5.140  13.415 -0.0210 -0.1064  0.0910
24776W        W31226   4.061   6.323  22.347  0.2463 -0.1579 -0.0701
24777W        W31227   8.125   4.460  24.531 -0.1969 -0.0327 -0.0502
24778W        W31228  17.847   2.252  31.904 -0.0247  0.0786 -0.1462
24779W        W31229   1.576   4.979  13.970 -0.0007  0.1441  0.1271
24780W        W31230  13.849   6.056  30.538  0.2183  0.0992 -0.2540
24781W        W31231  11.589   1.318  41.587  0.0510 -0.1241  0.1245
24782W        W31232  11.132   5.810  26.826  0.1435 -0.0186  0.0688
24783W        W31233   6.740   3.240  38.345 -0.3821 -0.0247  0.0315
24784W        W31234   0.864   3.822  39.445  0.1269 -0.0109  0.0939
24785W        W31235  17.914   3.088  38.801 -0.0797 -0.2438 -0.0003
24786W        W31236  19.234   2.885  39.032 -0.0998 -0.1702  0.1056
24787W        W31237   9.590   2.500  31.856 -0.1013 -0.1166 -0.1342
24788W        W31238  12.357   6.440  34.648 -0.0242 -0.3312 -0.4969
24789W        W31239   4.331   4.064  14.060 -0.0731 -0.2553  0.1757
24790W        W31240  11.879   0.988  43.677  0.0899 -0.0096 -0.1339
24791W        W31241  20.243   4.154  41.439 -0.0813  0.1676  0.1368
24792W        W31242   5.940   3.268   6.395 -0.2440  0.2698 -0.3309
24793W        W31243  12.337   6.342  12.926 -0.4157 -0.2189 -0.2864
24794W        W31244   2.497   4.414  41.352  0.0728  0.1574  0.2882
24795W        W31245  13.596   5.962   9.977 -0.0995  0.0083 -0.1480
24796W        W31246  15.712   1.899  20.098  0.0068 -0.1370 -0.1676
24797W        W31247  21.073   4.145  16.562 -0.1904 -0.0683  0.0889
24798W        W31248  14.783   6.293   4.736 -0.3246 -0.1696 -0.2277
24799W        W31249   9.764   3.825  12.851  0.0387  0.0868  0.1227
24800W        W31250   3.858   2.430   7.669  0.2681 -0.1311 -0.2584
24801W        W31251  11.988   1.947  38.344 -0.1247 -0.0199  0.2341
24802W        W31252   6.070   5.342   1.106  0.0080  0.1701 -0.1701
24803W        W31253  14.332   0.062   9.784  0.1364  0.0255 -0.0171
24804W        W31254   2.845   0.622   0.469  0.2209 -0.2603 -0.5205
24805W        W31255   0.109   4.184   5.919  0.2384  0.2348  0.1784
24806W        W31256   1.241   6.485  29.420 -0.0014  0.0078 -0.2099
24807W        W31257  16.170   0.524  22.516 -0.6246 -0.1364  0.0008
24808W        W31258   5.784   2.185   1.590 -0.2027 -0.0150  0.4061
24809W        W31259  17.448   2.963  11.735  0.2648 -0.0089  0.1559
24810W        W31260   5.432   4.231  34.149 -0.2324 -0.1995  0.0577
24811W        W31261  11.816   2.575   9.502  0.2763  0.2649 -0.0538
24812W        W31262   9.689   6.089  32.472 -0.0101 -0.2905 -0.1680
24813W        W31263   4.388   0.103  42.980  0.0782 -0.0561  0.0781
24814W        W31264   8.050   3.618  14.301 -0.5508  0.1541  0.0964
24815W        W31265  16.487   6.475  41.665  0.0555 -0.1210 -0.1033
24816W        W31266   7.341   3.578   5.846  0.4409  0.0705  0.0148
24817W        W31267  10.440   5.617  27.482  0.2557  0.2045  0.0918
24818W        W31268  19.128   1.525  17.169 -0.0848  0.1732  0.0451
24819W        W31269  19.712   0.447  10.964 -0.1600 -0.2282  0.0050
24820W        W31270  19.122   1.208   1.382 -0.0697 -0.0325 -0.1536
24821W        W31271   9.894   5.282  10.632  0.2473  0.3055  0.0962
24822W        W31272   7.483   2.059   5.285 -0.3686  0.2264  0.1790
24823W        W31273   9.838   3.066  28.139  0.0496  0.2293  0.1016
24824W        W31274   0.943   4.757  29.228  0.1819 -0.2829  0.0197
24825W        W31275   8.677   6.000  13.065 -0.0026  0.0192  0.0047
24826W        W31276   4.981   0.210  40.461  0.0827 -0.0034  0.1895
24827W        W31277  19.609   4.099  37.786  0.0555  0.2185  0.1656
24828W        W31278   4.411   4.162  27.233  0.1118  0.0815  0.1544
24829W        W31279  14.222   0.611   8.522  0.1239 -0.2601  0.0917
24830W        W31280  18.791   1.792   8.232  0.0951 -0.0856 -0.0428
24831W        W31281  17.654   4.031  32.445 -0.5039 -0.2953  0.1350
24832W        W31282   6.149   0.274  28.893  0.0567 -0.0720  0.1283
24833W        W31283   6.280   6.274  37.859  0.0212 -0.3156  0.1233
24834W        W31284   9.640   2.090  31.287 -0.1031 -0.4421  0.3369
24835W        W31285  18.371   4.625  15.308  0.0720  0.0440  0.1265
24836W        W31286  17.680   1.845   0.047 -0.0337  0.3445  0.3147
24837W        W31287   8.813   4.035  38.112 -0.0049  0.1127  0.1410
24838W        W31288  18.903   2.282  35.506  0.3355  0.2247  0.1438
24839W        W31289  16.871   0.558  11.878 -0.0550  0.2194  0.0104
24840W        W31290   8.228   6.412  25.034  0.0452 -0.1723  0.1248
24841W        W31291   6.847   5.206  32.574 -0.3326 -0.1120 -0.0376
24842W        W31292  21.057   3.159  43.102  0.2222  0.0390 -0.0745
24843W        W31293   6.958   1.180  20.667 -0.2817 -0.2082 -0.1840
24844W        W31294  10.569   4.386  26.373  0.2828  0.0628 -0.0612
24845W        W31295   4.608   4.382  44.189  0.1575 -0.1294 -0.0917
24846W        W31296   7.970   3.349   6.719 -0.3137  0.3520 -0.0738
24847W        W31297  13.822   3.371  14.913 -0.1357 -0.1085  0.1130
24848W        W31298   9.531   3.463  34.415  0.0103 -0.0868  0.0280
24849W        W31299  13.594   1.641  18.087 -0.0574  0.0585  0.0840
24850W        W31300  14.780   3.954  34.301 -0.0641 -0.2423 -0.1706
24851W        W31301  16.665   1.552  37.976 -0.1941 -0.0190  0.3302
24852W        W31302  18.561   0.688  16.798  0.2675  0.1921  0.2251
24853W        W31303  14.765   1.592  22.631  0.0707 -0.1780  0.1157
24854W        W31304  13.248   2.704  21.048  0.0764 -0.0667  0.2047
24855W        W31305   0.871   5.619  12.505  0.1014  0.1022 -0.1324
24856W        W31306   5.483   1.544   8.061  0.0090  0.0108 -0.1251
24857W        W31307  16.161   2.716   3.213  0.0796 -0.0695  0.0063
24858W        W31308  10.967   1.224   7.463 -0.1332  0.2111  0.1731
24859W        W31309  13.139   2.607  31.774 -0.2910  0.0174 -0.1150
24860W        W31310  10.916   6.342  28.980  0.1207 -0.0891 -0.0364
24861W        W31311   4.143   3.699  39.244 -0.3341  0.0124  0.2176
24862W        W31312  14.189   5.506   6.395  0.2260 -0.1827  0.0688
24863W        W31313   4.739   2.659  22.030  0.0005  0.1115 -0.2128
24864W        W31314  12.728   3.326  14.316 -0.2274 -0.1274 -0.1576
24865W        W31315  15.188   3.884  14.728 -0.2781 -0.0520  0.0123
24866W        W31316  19.995   3.890  44.791  0.1929 -0.0509  0.0598
24867W        W31317  19.564   1.236  43.060  0.0723 -0.1072  0.0213
24868W        W31318   7.591   4.595  38.917  0.0414  0.0706 -0.0156
24869W        W31319   4.643   5.298  32.101  0.3454  0.0871  0.2326
24870W        W31320   7.141   3.993  43.918 -0.1801  0.1816 -0.1777
24871W        W31321  17.248   6.195   5.652 -0.0671  0.0005 -0.2869
24872W        W31322  17.091   0.803   2.480 -0.3506 -0.0277 -0.0009
24873W        W31323  10.799   5.513  41.289  0.3042 -0.3115  0.2077
24874W        W31324   4.343   1.238  43.859 -0.0295  0.1456 -0.0199
24875W        W31325  17.517   1.744   3.311  0.2340  0.0385  0.2335
24876W        W31326   5.044   3.231  26.713  0.0982  0.0616 -0.1627
24877W        W31327   2.434   0.821   3.735  0.1787  0.1361 -0.1210
24878W        W31328  15.666   3.451  12.858 -0.4214 -0.2973  0.0950
24879W        W31329  15.374   1.901  44.210  0.0426 -0.1924  0.1518
24880W        W31330  12.452   6.173  36.190  0.0863  0.2023 -0.2129
24881W        W31331  14.454   6.298   9.438 -0.2450 -0.0696  0.1412
24882W        W31332  12.786   4.180   2.225  0.1611  0.0844 -0.2130
24883W        W31333   7.813   4.979  34.875 -0.2071 -0.1746 -0.1482
24884W        W31334  19.165   3.773   3.067 -0.0395  0.0181 -0.0428
24885W        W31335   5.746   5.114  16.138  0.0811 -0.1244 -0.1536
24886W        W31336   0.232   5.059  42.656 -0.2257 -0.0920 -0.0601
24887W        W31337  14.822   1.165  30.723 -0.1226  0.1919 -0.0312
24888W        W31338  13.070   5.063   8.985  0.2401  0.1011  0.1399
24889W        W31339   8.160   0.642   8.342  0.1777 -0.3747  0.1015
24890W        W31340  15.761   5.484  33.583  0.1310 -0.0917 -0.3371
24891W        W31341  12.563   6.241  33.684 -0.0889 -0.2097 -0.1235
24892W        W31342  18.847   4.252  35.108 -0.1771 -0.2207  0.2142
24893W        W31343   8.265   4.732  24.930  0.3766  0.0118  0.1509
24894W        W31344   9.238   2.525  30.050 -0.2697  0.1769 -0.0974
24895W        W31345  14.840   5.760   8.168 -0.0721  0.0423  0.2128
24896W        W31346   5.371   1.687  27.575  0.0389  0.1134 -0.2691
24897W        W31347   5.371   3.325  22.820  0.1855 -0.0188 -0.1889
24898W        W31348  15.800   1.993   7.262  0.0710  0.0359 -0.1118
24899W        W31349  10.069   4.836  12.001 -0.0230  0.2058 -0.1937
24900W        W31350   7.086   0.843  42.802 -0.1209  0.0370  0.1604
24901W        W31351  12.145   3.628  27.109 -0.1034  0.0562 -0.0559
24902W        W31352  16.398   4.490  29.780  0.2600  0.1490  0.2157
24903W        W31353  14.122   6.413  11.776  0.0862 -0.0407  0.0874
24904W        W31354  16.613   1.800   5.220 -0.3271  0.1466  0.1078
24905W        W31355  18.545   3.888  32.168  0.2310  0.0027 -0.0301
24906W        W31356   2.843   3.200  36.609 -0.2966  0.0259  0.2116
24907W        W31357  11.491   3.105   5.309 -0.5028 -0.0961 -0.1459
24908W        W31358   0.721   3.283  33.048  0.4662 -0.4304  0.3284
24909W        W31359  14.060   3.947  12.302  0.0166 -0.1130  0.0947
24910W        W31360   8.005   1.155   5.516 -0.0688  0.0404 -0.0610
24911W        W31361   4.756   6.381  38.441  0.0136  0.1446 -0.2039
24912W        W31362  19.293   0.661   5.205  0.0853 -0.1007 -0.0703
24913W        W31363   5.507   1.047  39.296 -0.0040  0.0332  0.2068
24914W        W31364   3.893   2.339   3.005  0.3508  0.3043  0.4262
24915W        W31365   9.956   4.042  13.719 -0.1229  0.1197  0.1090
24916W        W31366   9.715   2.125   4.780 -0.2179  0.0422 -0.0828
24917W        W31367  12.880   3.172  17.837  0.0841  0.0856  0.1227
24918W        W31368  10.593   2.318  29.440  0.1986 -0.0422  0.1481
24919W        W31369  16.194   3.244   0.794  0.1935  0.5923  0.1816
24920W        W31370   6.778   4.260  40.805  0.1009  0.0207 -0.0115
24921W        W31371  15.323   0.636   3.449 -0.1029  0.1401 -0.1805
24922W        W31372  20.993   4.605  41.477 -0.2323  0.0984 -0.1778
24923W        W31373   0.898   1.287  26.185  0.1209 -0.0850 -0.0479
24924W        W31374   2.632   4.062  14.466 -0.0663 -0.0517  0.0144
24925W        W31375   5.877   6.471   0.833 -0.1137  0.1891  0.1556
24926W        W31376  18.321   0.512  18.509 -0.1544 -0.1033  0.1803
24927W        W31377   2.545   4.996  38.000  0.0763 -0.1061 -0.5499
24928W        W31378   0.155   2.722  18.385  0.2989  0.0280 -0.1259
24929W        W31379  16.513   6.502  38.105 -0.0226  0.2543  0.1764
24930W        W31380   4.215   3.184  32.089 -0.3168 -0.0988  0.0470
24931W        W31381   2.137   3.573  40.781 -0.2250 -0.1283 -0.1470
24932W        W31382  13.335   2.265  21.241 -0.0042 -0.0427 -0.0859
24933W        W31383   8.672   2.305  44.861  0.1295 -0.3596  0.1793
24934W        W31384  10.224   4.218  28.738  0.0045  0.0659 -0.0511
24935W        W31385   9.018   2.733   4.690 -0.4450  0.1780  0.2343
24936W        W31386   2.655   3.563  31.696 -0.0227 -0.0761  0.0201
24937W        W31387  15.169   0.756  34.792  0.1755  0.0490 -0.0343
24938W        W31388  19.690   3.742   0.213 -0.3666 -0.0356 -0.0137
24939W        W31389  17.092   0.825  20.621  0.2516 -0.0131  0.3472
24940W        W31390  19.035   2.117   6.325 -0.2187 -0.0540  0.1177
24941W        W31391   4.540   0.331  30.966 -0.0740  0.2092 -0.0024
24942W        W31392  16.626   3.574  36.761 -0.0782  0.2471  0.0044
24943W        W31393   4.204   4.446  29.051 -0.1518  0.2346 -0.0972
24944W        W31394  18.801   6.160  34.221  0.3226 -0.1934  0.0004
24945W        W31395   5.393   2.468  29.350 -0.0445 -0.1294 -0.3565
24946W        W31396   7.037   3.666  22.524  0.0081  0.0458  0.1271
24947W        W31397  16.159   5.020  17.430  0.0886  0.1887 -0.1473
24948W        W31398   4.664   6.531   5.433  0.2245  0.2465  0.1176
24949W        W31399   2.622   3.292  26.838 -0.1208 -0.2320  0.1956
24950W        W31400  17.794   0.773  43.963 -0.2321  0.1627  0.0476
24951W        W31401   2.829   0.030  16.112  0.1606  0.1919  0.2900
24952W        W31402  19.153   3.894  31.506  0.0453 -0.2066  0.0924
24953W        W31403   8.012   2.433  28.545  0.0073  0.0906 -0.0041
24954W        W31404   7.708   3.782  26.398  0.1460 -0.3565  0.2674
24955W        W31405   8.569   0.255  27.004  0.0407  0.1715 -0.2232
24956W        W31406   3.763   4.382  39.551  0.0903 -0.2650 -0.3181
24957W        W31407  12.844   3.702  31.804 -0.0509 -0.0422  0.0703
24958W        W31408  14.395   1.497  31.856  0.2523  0.0859 -0.1644
24959W        W31409   3.567   4.983  10.217 -0.2740 -0.0400  0.0203
24960W        W31410  12.608   3.937  13.541  0.0443  0.0095 -0.0548
24961W        W31411   5.142   5.668  33.648  0.2243 -0.2033 -0.0175
24962W        W31412   9.645   4.762  31.425 -0.2611  0.0365 -0.2195
24963W        W31413   9.011   5.826  27.715 -0.0322  0.0813 -0.0505
24964W        W31414   4.854   0.557  36.793 -0.0904 -0.0038 -0.1678
24965W        W31415   8.337   2.446   5.712  0.0565 -0.0408  0.2261
24966W        W31416  12.756   0.691   5.071 -0.1198 -0.1449 -0.1722
24967W        W31417   6.765   3.343  26.706 -0.0151 -0.1225  0.2841
24968W        W31418  18.586   3.933  39.721 -0.0351  0.1507 -0.2977
24969W        W31419  10.701   4.782   1.197 -0.1277  0.2713 -0.3147
24970W        W31420  12.693   1.894  29.780 -0.0480  0.0145  0.2981
24971W        W31421   3.915   4.031  31.234  0.2579  0.2372 -0.1518
24972W        W31422  21.122   4.672  35.744  0.3450  0.0572 -0.0741
24973W        W31423  19.545   1.144  40.052  0.0727  0.0434  0.0762
24974W        W31424   5.951   2.296  11.872 -0.0830  0.2973 -0.1820
24975W        W31425   8.569   1.845   5.822  0.0505 -0.1204 -0.0041
24976W        W31426   4.236   6.030  14.991  0.0019  0.1142  0.2611
24977W        W31427  10.016   5.753  31.568 -0.1147  0.3979  0.1778
24978W        W31428   8.154   2.762  13.115 -0.1033  0.0040  0.0198
24979W        W31429  15.030   2.386  42.882 -0.2904 -0.0185 -0.0008
24980W        W31430  20.919   3.365  13.900 -0.1278  0.0212 -0.1291
24981W        W31431   2.226   4.536   0.347  0.2213 -0.0477 -0.0163
24982W        W31432  18.137   6.131  44.075  0.0519  0.0971  0.2942
24983W        W31433  17.531   1.867  30.111 -0.0615 -0.1512 -0.1894
24984W        W31434  14.716   2.511  39.816  0.0100 -0.0038 -0.0067
24985W        W31435   4.276   6.135  43.493  0.1631  0.4055  0.3153
24986W        W31436  11.292   0.841  13.762  0.0826 -0.1900  0.1633
24987W        W31437   3.955   1.386  13.301 -0.0600  0.2550  0.0163
24988W        W31438  12.257   5.200  13.862 -0.1057 -0.0012  0.1782
24989W        W31439   2.688   0.062  38.918  0.2075  0.0440  0.0329
24990W        W31440  20.272   0.960  39.746  0.0508 -0.1955  0.0472
24991W        W31441   2.517   4.250  36.683  0.3585  0.1595  0.1352
24992W        W31442  19.993   5.023   8.395 -0.1783 -0.1881  0.0180
24993W        W31443   1.557   4.804  43.714 -0.2443  0.0909 -0.2239
24994W        W31444  16.373   2.016  22.864  0.1307  0.0750 -0.0737
24995W        W31445  16.934   3.446  11.452  0.1234  0.1035  0.0098
24996W        W31446   1.363   4.592  32.103  0.1903 -0.0890 -0.2800
24997W        W31447   1.901   1.550  30.727  0.0129  0.0315 -0.0423
24998W        W31448   0.252   2.002  28.309 -0.0454  0.1783  0.1079
24999W        W31449   5.542   1.024   8.276 -0.0308  0.0754  0.1309
25000W        W31450   6.095   1.157  14.184  0.2212  0.2834 -0.1366
25001W        W31451  16.975   6.094  11.138 -0.0584 -0.2488  0.3243
25002W        W31452  12.069   0.070   5.590 -0.1294  0.5479  0.0421
25003W        W31453   8.629   5.242   8.883  0.2927  0.0075 -0.2288
25004W        W31454  12.830   0.302  20.156 -0.1181 -0.1859  0.2349
25005W        W31455  18.911   1.140  15.350  0.0841 -0.3357 -0.0268
25006W        W31456  13.535   1.116   3.112  0.1344 -0.3564  0.1872
25007W        W31457   4.795   0.099   3.648  0.0925 -0.0911  0.1701
25008W        W31458  10.259   4.010   1.197  0.1658 -0.0579  0.1479
25009W        W31459  20.985   2.232  32.754 -0.0997  0.0716 -0.0122
25010W        W31460   5.541   1.483  10.187  0.0211  0.0272  0.1645
25011W        W31461   5.900   4.937  26.859  0.1264  0.0557 -0.1157
25012W        W31462  12.086   6.478  29.419 -0.0793  0.0928  0.1544
25013W        W31463   0.389   5.685  35.714 -0.0198 -0.0064 -0.0788
25014W        W31464  11.703   0.841  16.702 -0.2262 -0.0069  0.0352
25015W        W31465   8.658   3.125   6.384 -0.1041  0.1237  0.0645
25016W        W31466  16.526   1.877  38.811  0.0912  0.1357  0.0844
25017W        W31467  16.835   4.309   5.416  0.1418  0.1002  0.3160
25018W        W31468  15.390   4.628  11.710 -0.0044  0.3489 -0.0659
25019W        W31469  10.362   5.550   6.927 -0.1058 -0.0025 -0.0577
25020W        W31470  12.485   4.119  33.912  0.2485  0.0294 -0.2139
25021W        W31471   9.545   5.443   4.946  0.1576  0.3330 -0.1728
25022W        W31472   8.299   2.063  34.786 -0.0982 -0.3161  0.0655
25023W        W31473  15.650   3.532  23.662  0.1835  0.0303  0.1672
25024W        W31474   5.800   3.505  37.926 -0.0584 -0.0607 -0.3176
25025W        W31475  10.406   2.320  13.909  0.1057 -0.2341 -0.0188
25026W        W31476   1.118   6.024  40.586 -0.0659  0.0054 -0.0329
25027W        W31477   5.363   4.205   5.359  0.0713  0.0270  0.0767
25028W        W31478  20.495   5.432  32.467  0.0850  0.1427  0.1938
25029W        W31479   1.137   1.336  45.007 -0.0348  0.1296  0.0646
25030W        W31480  16.492   2.429   0.753  0.0427 -0.0058  0.0317
25031W        W31481   9.523   4.411  17.409  0.0628 -0.0913  0.0639
25032W        W31482   8.593   3.416  34.704 -0.1492  0.0728 -0.3126
25033W        W31483   4.003   2.178   7.241 -0.1912  0.0182 -0.0203
25034W        W31484  15.640   1.530  16.141 -0.1973  0.1204 -0.2228
25035W        W31485   9.245   4.040  34.963  0.0650  0.3323 -0.2814
25036W        W31486  12.874   0.152   3.772  0.0950 -0.0937 -0.3064
25037W        W31487  12.592   0.269  30.275  0.0805 -0.0210  0.1136
25038W        W31488   1.833   4.240  28.870 -0.0034 -0.1649 -0.0149
25039W        W31489  15.793   0.981  41.943 -0.2023  0.0160 -0.0369
25040W        W31490  18.688   0.533   1.737 -0.2761  0.2761  0.2081
25041W        W31491   6.623   2.787  36.609 -0.1689 -0.0186  0.0646
25042W        W31492   5.583   1.277  29.937 -0.0953  0.0872  0.0373
25043W        W31493   9.961   1.461   9.671 -0.0735  0.4483 -0.2114
25044W        W31494  17.425   5.088  23.231 -0.1287 -0.0718  0.0072
25045W        W31495  20.890   4.367   2.818  0.1518  0.0389 -0.3877
25046W        W31496   3.284   4.066   7.683 -0.0009  0.1700 -0.0293
25047W        W31497   7.741   1.437  25.569 -0.2570 -0.0189 -0.2228
25048W        W31498   6.968   2.699  10.459  0.0530  0.3621  0.0459
25049W        W31499  10.652   3.434   5.652 -0.3569  0.0074 -0.0350
25050W        W31500   5.017   6.133   1.160 -0.0953  0.5798 -0.1896
25051W        W31501  18.758   3.165  38.456 -0.0456  0.1297  0.1178
25052W        W31502   6.344   0.615   0.415  0.0908  0.2995  0.1355
25053W        W31503  11.842   0.276   1.142 -0.2239 -0.2149 -0.0225
25054W        W31504  18.861   4.084  18.593 -0.0133  0.1169 -0.0799
25055W        W31505  15.960   3.086  37.121 -0.1450  0.2113 -0.1339
25056W        W31506  10.756   2.534  27.305 -0.2094 -0.1165  0.1418
25057W        W31507  14.245   4.913  11.314 -0.3429  0.0413 -0.0974
25058W        W31508  17.466   1.102  20.967 -0.1745 -0.3213  0.0195
25059W        W31509  18.278   2.114  16.807  0.0514 -0.2190 -0.1982
25060W        W31510  10.135   6.450   0.460 -0.0132  0.1567  0.2199
25061W        W31511  17.819   2.554  36.976  0.2633 -0.2117  0.1146
25062W        W31512  10.297   2.384  34.977 -0.0672  0.0649 -0.0292
25063W        W31513  18.980   5.409  15.375  0.0490 -0.1621 -0.0629
25064W        W31514   4.045   2.924  10.768  0.0751  0.1629  0.2296
25065W        W31515   3.377   5.854  27.855 -0.1050 -0.0622 -0.0586
25066W        W31516   4.197   4.503  25.956 -0.0817  0.3421  0.0393
25067W        W31517   2.215   5.017   0.131 -0.2246  0.0867  0.3457
25068W        W31518  13.896   3.879  16.588  0.0941 -0.2022  0.1953
25069W        W31519  17.627   0.936   6.822 -0.1067  0.0255  0.2299
25070W        W31520  13.546   4.682   8.420  0.1689  0.1459 -0.5272
25071W        W31521   5.491   1.905  38.823  0.1210 -0.0187 -0.2321
25072W        W31522   7.034   3.347  13.927 -0.0197 -0.0662  0.0293
25073W        W31523  15.140   6.523   6.187 -0.0132  0.0274 -0.0291
25074W        W31524  21.030   4.084  39.713  0.2373  0.1816 -0.0321
25075W        W31525  20.406   5.027  42.282  0.0753 -0.0209  0.1118
25076W        W31526   3.051   6.552  26.096 -0.0304 -0.1427  0.1206
25077W        W31527   5.958   4.609  39.948 -0.2033  0.1634 -0.2530
25078W        W31528  20.648   1.123  43.941 -0.0109 -0.3183 -0.1907
25079W        W31529   8.653   0.290  44.131 -0.1442  0.1714 -0.1181
25080W        W31530  19.043   6.552   0.452  0.1094 -0.1404  0.0573
25081W        W31531   3.974   3.472  15.088  0.1172  0.0084 -0.1340
25082W        W31532   8.204   4.106  43.903  0.1975  0.0573  0.0672
25083W        W31533  10.183   1.092  11.160  0.0197  0.1486 -0.0798
25084W        W31534   3.583   2.914  38.072  0.2179  0.0791  0.0995
25085W        W31535   4.496   1.615  40.606  0.2699  0.2369 -0.1324
25086W        W31536  15.923   4.447  37.421  0.0908  0.0215  0.1439
25087W        W31537  10.685   2.322  12.240 -0.0457 -0.1432 -0.3121
25088W        W31538   0.036   6.546  35.850 -0.0329 -0.1540 -0.0319
25089W        W31539  19.971   5.295   3.479  0.1470 -0.2470 -0.0100
25090W        W31540  16.615   4.459   3.477  0.2635  0.0812  0.0449
25091W        W31541  11.564   0.684  18.454 -0.1081 -0.2522 -0.0228
25092W        W31542  14.252   3.955  19.265 -0.2251  0.0255  0.1938
25093W        W31543  18.833   1.765   8.982 -0.3898 -0.1600  0.5416
25094W        W31544  14.939   0.636   9.407  0.3544  0.4581 -0.0402
25095W        W31545   1.208   0.039   3.388  0.2174 -0.3216 -0.2141
25096W        W31546  15.934   0.793  15.624 -0.3276  0.1583 -0.2310
25097W        W31547  19.341   4.171  43.855 -0.0464  0.0851  0.1308
25098W        W31548   9.696   6.602  42.318 -0.3625  0.0033  0.2074
25099W        W31549   3.454   4.931  43.791 -0.0064 -0.0721 -0.1849
25100W        W31550   3.062   0.269   5.145  0.0050  0.0954 -0.1075
25101W        W31551  13.712   3.131   0.977 -0.0816  0.1469 -0.0546
25102W        W31552   3.206   3.224  27.048  0.1131 -0.1016  0.0351
25103W        W31553   4.078   4.282  23.225 -0.1289 -0.4081  0.0156
25104W        W31554  19.014   0.331  21.345 -0.1494  0.2866 -0.0621
25105W        W31555  10.103   4.183  14.711  0.1621 -0.0278  0.0288
25106W        W31556  14.710   1.872   7.841  0.0141 -0.0521  0.4339
25107W        W31557   0.372   1.647  10.511 -0.0409 -0.1334 -0.0252
25108W        W31558   0.610   3.339   5.637 -0.0725 -0.1196 -0.3477
25109W        W31559   3.019   3.167  31.638 -0.0751 -0.2755  0.4252
25110W        W31560  19.874   3.654  32.529 -0.0426  0.1459 -0.3423
25111W        W31561   7.793   4.433  31.596  0.1448  0.0715 -0.0277
25112W        W31562   6.490   5.684   8.315  0.1407 -0.4120  0.0964
25113W        W31563  20.882   4.851  10.036 -0.1834 -0.1261 -0.1151
25114W        W31564   6.801   5.640  38.863  0.0935 -0.0325  0.0147
25115W        W31565  10.496   0.370  42.080 -0.1324 -0.2034 -0.2383
25116W        W31566   0.669   6.359  33.160 -0.1264  0.0176 -0.1222
25117W        W31567   6.649   1.066   9.597  0.0404 -0.1301  0.1507
25118W        W31568  18.634   4.243  10.772  0.2100 -0.0082 -0.0711
25119W        W31569   0.394   0.425  12.408  0.0823 -0.0382  0.1154
25120W        W31570  20.614   3.738  32.860 -0.1114  0.1223 -0.1960
25121W        W31571   7.486   2.294  24.650 -0.0529  0.0357  0.2959
25122W        W31572  19.418   5.064  41.840 -0.3226  0.2987 -0.1967
25123W        W31573  16.627   6.419  11.017 -0.0454 -0.0304  0.1450
25124W        W31574   1.605   4.243   5.951 -0.0050  0.1046  0.0465
25125W        W31575   3.327   1.809   5.337 -0.1826 -0.3750  0.0217
25126W        W31576   2.806   2.424  14.490  0.3252  0.2202  0.0124
25127W        W31577  11.215   1.886  28.472 -0.0221 -0.0756 -0.1128
25128W        W31578  16.268   5.727  13.421 -0.0899 -0.1632  0.0746
25129W        W31579   7.767   3.345   2.363 -0.0007 -0.0340 -0.1434
25130W        W31580  14.493   6.540  14.190 -0.1943  0.0305  0.1204
25131W        W31581  13.478   0.660  28.627 -0.0922 -0.0514  0.0206
25132W        W31582  21.122   5.294  40.301 -0.0217 -0.0697  0.1126
25133W        W31583  11.693   6.242  14.772  0.0532  0.1351  0.0494
25134W        W31584   0.526   5.404  31.282  0.2693  0.1717 -0.5118
25135W        W31585   0.219   4.503  39.724  0.1347  0.0886 -0.1482
25136W        W31586   4.905   3.067  21.207  0.2069  0.2111 -0.3457
25137W        W31587   6.864   2.091  27.826  0.0791  0.0775  0.0980
25138W        W31588  12.401   5.354   9.463 -0.0755  0.1528  0.0690
25139W        W31589   0.566   2.662  32.262  0.0361 -0.1270  0.0531
25140W        W31590  16.378   5.050   0.714  0.2336 -0.0284 -0.1165
25141W        W31591  10.868   2.424  38.480  0.1655 -0.1761  0.0424
25142W        W31592   0.404   5.976  34.830  0.1251  0.1483 -0.0933
25143W        W31593  11.731   3.651   0.715 -0.0358  0.0420  0.0438
25144W        W31594  13.163   4.992  32.600 -0.2057 -0.3289 -0.2597
25145W        W31595   8.884   2.275  44.413  0.0411 -0.0678  0.0974
25146W        W31596   3.330   0.698  30.535 -0.0822 -0.2110  0.1501
25147W        W31597  16.309   6.182  37.316 -0.1713 -0.0234 -0.0376
25148W        W31598   9.648   3.841  10.903 -0.1058  0.0403  0.2822
25149W        W31599   5.777   4.077  40.648 -0.1619  0.4439  0.0481
25150W        W31600  11.395   3.469  27.583 -0.2188 -0.2066  0.2098
25151W        W31601  12.923   2.853  19.398 -0.0052 -0.2138 -0.2811
25152W        W31602   2.133   3.409  37.116  0.0540 -0.3118  0.2087
25153W        W31603   5.711   5.804  30.657 -0.0518  0.0246  0.1101
25154W        W31604  16.193   3.893  36.734 -0.1598  0.3556 -0.0050
25155W        W31605   4.915   2.296   9.512  0.0241 -0.1422  0.0466
25156W        W31606  12.112   2.382  36.738  0.0307 -0.0480  0.0373
25157W        W31607   3.146   1.361  15.661 -0.2376  0.2623  0.0775
25158W        W31608  15.367   4.929  19.822  0.2247  0.0187  0.0105
25159W        W31609   3.000   4.266  43.437 -0.1099 -0.1742 -0.1935
25160W        W31610   6.481   2.984  30.150  0.1433  0.1924  0.5618
25161W        W31611  19.352   0.047  10.295  0.0296  0.0888  0.0180
25162W        W31612   6.925   5.071  28.992  0.3135  0.2725 -0.1674
25163W        W31613  18.496   0.308  22.264  0.1561 -0.1405  0.0416
25164W        W31614   0.500   2.338  40.694 -0.3022 -0.3275  0.0815
25165W        W31615   0.289   1.509  39.000 -0.0256  0.1893  0.2403
25166W        W31616   7.591   3.991   4.261  0.0629 -0.0365  0.0362
25167W        W31617  20.923   1.005  12.346  0.3481 -0.2251  0.1065
25168W        W31618  16.967   3.170  12.083  0.1736 -0.1352 -0.2285
25169W        W31619  15.520   5.523  31.513  0.1402 -0.2414 -0.1494
25170W        W31620   9.201   1.458  28.507 -0.2333  0.1345 -0.3865
25171W        W31621  11.050   4.736   5.815  0.0794 -0.2909  0.1255
25172W        W31622  15.311   4.959  40.612  0.0388 -0.0624  0.0410
25173W        W31623   5.438   4.279  12.999  0.0966 -0.4077 -0.0314
25174W        W31624  20.500   5.751  14.589  0.1336  0.2336 -0.0233
25175W        W31625  10.228   4.397  14.145  0.0659  0.0260  0.1968
25176W        W31626  18.087   1.992  29.602 -0.1302 -0.1946  0.3051
25177W        W31627  18.420   4.487  31.658 -0.2641 -0.1098  0.1109
25178W        W31628  17.165   2.496   0.548 -0.2368 -0.1134  0.2166
25179W        W31629  15.664   2.574   2.402 -0.3375 -0.2449 -0.2106
25180W        W31630  21.069   3.644  40.459 -0.2893  0.0526  0.1362
25181W        W31631   8.261   5.097  33.656  0.2233  0.1340 -0.0058
25182W        W31632   6.652   4.273  13.848 -0.2388  0.0851  0.4455
25183W        W31633  19.441   0.777  18.265  0.0120 -0.1822 -0.2059
25184W        W31634   6.298   4.793  21.341 -0.0039 -0.0654 -0.1695
25185W        W31635  16.498   4.897  14.899 -0.0017  0.2901 -0.1292
25186W        W31636  13.910   3.614   9.691  0.1654 -0.1065 -0.0836
25187W        W31637   0.382   2.821  11.770  0.1179  0.5184  0.2580
25188W        W31638   1.913   2.949  28.103  0.0755  0.1341  0.0977
25189W        W31639  16.631   5.649   7.516  0.0301 -0.1180  0.0825
25190W        W31640   7.003   5.183  14.617  0.1258  0.0559  0.1104
25191W        W31641   3.042   3.207  43.960 -0.0659 -0.2136  0.0378
25192W        W31642   8.844   4.201  11.968 -0.1929 -0.2260  0.1156
25193W        W31643   3.432   4.085   5.725  0.3386 -0.2866 -0.0624
25194W        W31644   2.994   4.937  30.782 -0.0830  0.0549  0.0183
25195W        W31645   3.176   3.271   0.439  0.0554 -0.1815  0.3548
25196W        W31646   0.719   0.432   6.343  0.1410  0.1033 -0.0507
25197W        W31647  19.542   4.016  35.012  0.0265  0.1120 -0.2010
25198W        W31648  17.874   3.126  13.936 -0.1119 -0.0100 -0.1454
25199W        W31649   4.990   2.460  22.447  0.2949  0.1201 -0.0304
25200W        W31650  16.051   4.819  31.931 -0.1180  0.0329  0.2554
25201W        W31651   9.357   4.211  12.427  0.0830  0.0984  0.0473
25202W        W31652  16.501   6.527  33.269 -0.2732  0.0382  0.1352
25203W        W31653  16.591   2.364  13.788 -0.0714  0.3002  0.0654
25204W        W31654  16.728   1.740  34.506  0.2802  0.0336 -0.1462
25205W        W31655  17.561   2.842  14.942 -0.1781 -0.2757 -0.1094
25206W        W31656  10.858   1.975  41.443 -0.0914  0.0281 -0.2944
25207W        W31657   7.994   1.263   6.735  0.2285  0.2880  0.1173
25208W        W31658  18.029   1.179  13.869  0.0175 -0.1663  0.0711
25209W        W31659   4.591   5.799  39.675 -0.3887  0.1862 -0.1544
25210W        W31660   9.495   4.898  37.243 -0.0681  0.3941 -0.0138
25211W        W31661  12.520   3.665  41.596  0.0990 -0.1937 -0.0337
25212W        W31662  10.941   3.441  30.938 -0.1138  0.1298 -0.2644
25213W        W31663   2.750   1.132  36.031  0.4186  0.1102 -0.0350
25214W        W31664   6.722   3.404  29.389  0.0946 -0.0055 -0.1033
25215W        W31665   1.152   3.116  40.357  0.1888 -0.1093 -0.4446
25216W        W31666  11.331   0.827  29.301 -0.3664  0.0479 -0.0571
25217W        W31667  15.561   5.984  16.328 -0.2899 -0.3271 -0.4256
25218W        W31668  17.444   2.998   8.299 -0.2053 -0.0271  0.3741
25219W        W31669   8.937   5.460  42.178 -0.1295 -0.2918 -0.0096
25220W        W31670   7.169   1.986   2.093 -0.2878 -0.2496 -0.2683
25221W        W31671   0.694   4.876   6.299  0.2951  0.0446 -0.0025
25222W        W31672   2.798   2.911  37.054 -0.1114 -0.0427  0.0299
25223W        W31673   5.722   4.985   2.773  0.0430 -0.1165  0.1001
25224W        W31674  13.434   1.169  14.383  0.3418 -0.1378  0.4490
25225W        W31675   7.357   2.543  34.449  0.1673 -0.2343 -0.1752
25226W        W31676  11.317   1.827  43.859  0.1054 -0.1329  0.2466
25227W        W31677   4.352   4.654  23.041 -0.2665 -0.1276 -0.0787
25228W        W31678  15.306   0.579   2.100 -0.0814 -0.1314 -0.1872
25229W        W31679   2.456   1.378   7.275  0.0209  0.2192 -0.0368
25230W        W31680  16.535   1.469  35.286  0.2056  0.3275 -0.3156
25231W        W31681   9.026   6.140  30.319 -0.1385 -0.1444  0.1799
25232W        W31682  21.068   0.796  33.668 -0.0104 -0.2673 -0.0974
25233W        W31683  20.851   6.291  12.879  0.1194  0.0643 -0.1201
25234W        W31684   1.850   6.155  15.446 -0.1465  0.2732  0.0493
25235W        W31685  18.960   0.742  44.756  0.0422 -0.0189 -0.3296
25236W        W31686   4.991   1.546   4.757  0.1857  0.1882 -0.2737
25237W        W31687  16.618   0.104   2.482  0.1342 -0.0180  0.0577
25238W        W31688  15.725   1.212   2.326  0.1109 -0.0887  0.1888
25239W        W31689   6.875   3.503   6.077 -0.2165 -0.0814  0.1448
25240W        W31690   6.210   6.094  20.548  0.0259  0.2393  0.0861
25241W        W31691  17.229   1.315  11.943  0.0974 -0.0831 -0.0189
25242W        W31692  20.138   0.711  16.036  0.1063  0.1012 -0.1359
25243W        W31693  20.935   4.855  15.890 -0.0452 -0.2081  0.0231
25244W        W31694   1.382   2.518  43.684 -0.0676 -0.1184  0.1215
25245W        W31695   7.902   2.509  35.195 -0.0470  0.0107 -0.1500
25246W        W31696   7.319   1.525   9.674  0.0539  0.0781 -0.0157
25247W        W31697  10.164   1.579  13.435  0.1519  0.1460  0.0512
25248W        W31698   8.792   3.920  34.687  0.0933  0.0086 -0.1519
25249W        W31699   9.822   1.549   0.443 -0.2119  0.0475 -0.2613
25250W        W31700   8.058   6.229   0.717 -0.0504 -0.2129 -0.2078
25251W        W31701   7.943   0.498   5.615  0.1165  0.3044 -0.1310
25252W        W31702  13.135   0.701  32.237 -0.0959 -0.1514  0.0048
25253W        W31703   2.513   3.666   0.294  0.1088  0.0892 -0.2045
25254W        W31704   5.887   4.626   6.503 -0.2002  0.0321  0.1340
25255W        W31705   8.745   4.702  13.664  0.0977 -0.0437  0.1626
25256W        W31706  14.831   2.016   3.097 -0.2338 -0.1283  0.0363
25257W        W31707  20.789   5.770   6.156 -0.0687 -0.1403 -0.1712
25258W        W31708  10.844   4.884  28.968 -0.1385  0.0002 -0.0893
25259W        W31709   1.954   4.815   6.169 -0.1125  0.0563  0.4874
25260W        W31710   1.620   1.698  26.599  0.2221 -0.2065 -0.2570
25261W        W31711  14.075   3.760   8.815 -0.2068  0.1322  0.3765
25262W        W31712  16.697   1.350  29.816 -0.0215 -0.0524 -0.0192
25263W        W31713   5.312   1.715   5.861  0.0809  0.2341 -0.0241
25264W        W31714  14.073   1.329   6.861 -0.2976 -0.0325  0.0703
25265W        W31715  12.647   5.124  38.313  0.0058 -0.1570 -0.0957
25266W        W31716  14.100   5.761   7.529  0.0572 -0.0028  0.0560
25267W        W31717  11.986   1.150   0.110  0.0614 -0.3332 -0.1340
25268W        W31718   4.508   0.345  31.694  0.2538  0.0300 -0.2067
25269W        W31719   8.751   2.448  26.068 -0.1319 -0.2188  0.1085
25270W        W31720   3.478   1.476  25.198  0.0780  0.1071  0.2006
25271W        W31721  17.059   3.559   5.991  0.1586 -0.1444  0.0306
25272W        W31722   3.236   6.228   7.238 -0.1443 -0.1942 -0.2952
25273W        W31723  18.247   6.435   9.602  0.1385  0.1228  0.4327
25274W        W31724  11.407   5.171  14.855  0.0732 -0.1135  0.0797
25275W        W31725   1.136   2.224  34.847 -0.1466  0.1830  0.0575
25276W        W31726   7.679   2.241  35.583  0.1127 -0.0908  0.1448
25277W        W31727  10.585   6.377   5.734 -0.2994 -0.1821 -0.0939
25278W        W31728   2.309   0.234  28.358  0.0209 -0.0489  0.1242
25279W        W31729  16.411   4.409  36.487  0.1098 -0.2060 -0.0323
25280W        W31730   9.616   4.124  14.068  0.0714  0.0349 -0.1858
25281W        W31731  15.720   2.156  21.568 -0.0530 -0.0840  0.2881
25282W        W31732   0.058   5.568  28.964 -0.0142  0.0456 -0.2477
25283W        W31733  11.457   6.148   7.475 -0.3609 -0.1345  0.1158
25284W        W31734  15.495   0.496  41.372 -0.0080 -0.1518  0.1602
25285W        W31735  10.278   5.031  38.474 -0.1736 -0.1763  0.3946
25286W        W31736  12.167   5.144  28.748 -0.1271  0.0001 -0.1850
25287W        W31737   6.157   5.453  23.172 -0.1951  0.0811 -0.1639
25288W        W31738   4.069   5.146  27.425 -0.1360 -0.0904 -0.2588
25289W        W31739  11.534   4.359  35.130 -0.1062 -0.0436  0.1988
25290W        W31740   8.061   6.468  26.360 -0.2552 -0.0245 -0.0396
25291W        W31741  16.764   5.379  31.125  0.1015 -0.2949  0.1440
25292W        W31742   8.155   2.110  15.619  0.2292  0.2289 -0.0621
25293W        W31743  14.949   5.585  20.443 -0.4485 -0.2503  0.0455
25294W        W31744   7.741   3.958  28.481  0.2498  0.1887  0.1354
25295W        W31745  16.098   2.510   1.193  0.0360  0.0148 -0.0891
25296W        W31746  13.648   0.843  21.214 -0.1756 -0.1409  0.0284
25297W        W31747  11.238   3.036  19.199 -0.0542  0.0267 -0.1685
25298W        W31748   4.921   0.451   6.803  0.1722 -0.2882  0.1654
25299W        W31749  10.355   3.528  44.379  0.0921 -0.1873  0.2979
25300W        W31750   7.283   6.447   1.165  0.2235 -0.0046 -0.1139
25301W        W31751   7.891   1.848   7.020 -0.4925  0.3296 -0.1019
25302W        W31752  15.118   0.428   1.663  0.0221  0.1803  0.2556
25303W        W31753   0.185   4.090  42.655 -0.2034  0.0872 -0.0253
25304W        W31754   5.503   6.252  15.537  0.1032  0.0257 -0.2361
25305W        W31755   0.699   2.966  30.839 -0.1431 -0.2154  0.2867
25306W        W31756   0.169   3.433  42.660 -0.2215 -0.1612  0.0111
25307W        W31757   4.552   2.786   7.268  0.1044  0.1171  0.1346
25308W        W31758  15.293   3.247  43.577  0.0640  0.2131 -0.1703
25309W        W31759   1.097   1.862  44.246  0.4717  0.1150  0.2555
25310W        W31760   9.968   4.114  32.021 -0.2730  0.0786 -0.0357
25311W        W31761  16.530   6.483  32.470 -0.1214  0.2997 -0.0622
25312W        W31762  20.978   0.324  29.539 -0.0997 -0.3801  0.3443
25313W        W31763  15.654   1.253   5.930 -0.4142  0.0107 -0.0474
25314W        W31764   9.205   5.051  30.455  0.0195 -0.0667 -0.2422
25315W        W31765  15.971   5.733   1.712 -0.3837  0.0411 -0.1465
25316W        W31766   4.063   4.442  41.581  0.6126 -0.0072 -0.3473
25317W        W31767  18.473   4.399   9.116 -0.0074  0.2802 -0.0810
25318W        W31768   2.613   5.315   1.012 -0.1764 -0.0729  0.2115
25319W        W31769  14.322   4.613  13.935 -0.0964 -0.0916  0.3072
25320W        W31770  15.318   1.224  39.005  0.0826 -0.0456 -0.1468
25321W        W31771   1.423   4.412  34.540 -0.0969  0.1365  0.1925
25322W        W31772  14.797   1.217  18.567 -0.0462 -0.0098  0.1254
25323W        W31773  15.607   3.653  40.667 -0.2310  0.3298  0.2975
25324W        W31774   2.080   5.141  10.886 -0.1172 -0.0305  0.1795
25325W        W31775  14.257   4.586  32.853  0.1485  0.1869  0.0977
25326W        W31776   1.129   4.030  27.351 -0.1810 -0.2163 -0.0783
25327W        W31777  15.621   1.667   8.056 -0.0960  0.1662 -0.1177
25328W        W31778   5.315   4.136  25.586  0.1106 -0.0887 -0.3810
25329W        W31779  13.591   5.262  38.633 -0.2355  0.0372  0.2353
25330W        W31780  15.294   0.234   2.462  0.0702  0.0160  0.3063
25331W        W31781  12.553   5.123  14.259 -0.2623 -0.1168 -0.1373
25332W        W31782   7.549   3.938  12.360 -0.3393 -0.0578  0.0713
25333W        W31783   4.865   4.720  27.614  0.2330  0.2035  0.0345
25334W        W31784  10.843   4.018  37.035  0.0918  0.2368  0.0500
25335W        W31785   3.599   0.767  36.608 -0.2068 -0.0495 -0.0705
25336W        W31786  19.036   5.929  33.528 -0.0145  0.1545 -0.2175
25337W        W31787   5.232   2.948  24.168  0.2089 -0.0483  0.1126
25338W        W31788  17.092   5.538  39.968  0.0564 -0.0232  0.1573
25339W        W31789  17.742   4.512  32.616  0.0976 -0.1373  0.2297
25340W        W31790  12.992   2.461   1.060 -0.0464  0.1750  0.0854
25341W        W31791   0.171   2.609  36.702 -0.0758  0.0856 -0.2883
25342W        W31792  13.456   3.594  13.776  0.0704  0.0565  0.1994
25343W        W31793   9.868   1.660  31.287  0.1156 -0.2595  0.0160
25344W        W31794   0.011   3.488  10.510 -0.0418 -0.3693  0.0416
25345W        W31795  19.586   1.149  31.770 -0.0538 -0.0480  0.0323
25346W        W31796  10.706   3.060  37.322 -0.0968 -0.4735  0.2575
25347W        W31797   8.799   5.211  32.250 -0.0744 -0.1562 -0.0465
25348W        W31798  13.322   6.580  18.753  0.0412 -0.1574  0.1535
25349W        W31799  16.007   0.264  12.714  0.2999  0.2727  0.1030
25350W        W31800   1.316   3.170   4.441  0.1656 -0.2785 -0.2629
25351W        W31801  11.600   6.381   1.318 -0.3864  0.0497  0.0549
25352W        W31802   3.815   5.385   5.931  0.1786  0.2048  0.0849
25353W        W31803  20.171   0.118   4.423  0.2140 -0.1317 -0.1679
25354W        W31804  14.789   5.014  37.384  0.1677 -0.2809 -0.0767
25355W        W31805   2.335   0.731   1.356  0.0308 -0.1464 -0.3441
25356W        W31806  10.941   2.177   0.700  0.0198  0.1052 -0.1537
25357W        W31807  17.177   0.912   4.430 -0.2938 -0.1026 -0.2366
25358W        W31808   4.298   4.949   8.795 -0.1439 -0.1357 -0.1803
25359W        W31809  19.848   1.654  15.832  0.0051 -0.0065 -0.1731
25360W        W31810  11.816   2.676  39.789 -0.3326 -0.1552 -0.0023
25361W        W31811  14.235   1.873  16.412  0.0921  0.0756  0.1885
25362W        W31812   6.148   5.488  11.124 -0.1997  0.2654 -0.0721
25363W        W31813   4.438   2.531  37.926  0.2031 -0.3285  0.1253
25364W        W31814  14.542   1.129   1.489 -0.2889  0.2038  0.0828
25365W        W31815   7.972   3.136   1.954  0.2122  0.0306 -0.0483
25366W        W31816  16.383   4.136  24.754  0.1385 -0.3225  0.0080
25367W        W31817  19.468   1.271  12.336 -0.0194  0.0294  0.1541
25368W        W31818   2.205   3.161   2.980 -0.1964 -0.1018  0.2680
25369W        W31819   1.833   2.515   2.723 -0.1870  0.4195 -0.0263
25370W        W31820  11.117   0.476  27.812 -0.2308 -0.1143  0.1783
25371W        W31821  12.990   1.887  32.143  0.1460  0.1096  0.1375
25372W        W31822  13.240   1.051  12.569  0.0850  0.2294  0.0347
25373W        W31823   6.344   5.372  29.183  0.1496  0.0780 -0.0400
25374W        W31824  16.826   4.456  22.861  0.2865 -0.2228  0.1726
25375W        W31825   4.911   0.086  25.889 -0.1699 -0.0395  0.1400
25376W        W31826  13.108   3.001  15.964 -0.0553 -0.0043 -0.1357
25377W        W31827   2.067   4.313  37.707 -0.1408  0.0149  0.1662
25378W        W31828   6.644   0.751   9.038 -0.0650  0.4346  0.0381
25379W        W31829  18.090   2.106   6.274 -0.0038  0.0866  0.0483
25380W        W31830  10.490   5.570  32.887  0.0806 -0.1072  0.2611
25381W        W31831   6.727   0.807  31.891  0.1210 -0.0692  0.2008
25382W        W31832   7.790   0.774   0.793  0.1963 -0.0084  0.0194
25383W        W31833  11.886   3.434  31.113  0.0538 -0.2830  0.2154
25384W        W31834   6.038   3.029  26.294  0.1637  0.4014 -0.0572
25385W        W31835   3.472   5.305   7.626 -0.2397  0.0883 -0.1247
25386W        W31836  12.604   4.919   0.231  0.2890 -0.1276 -0.1934
25387W        W31837  16.275   4.185  34.042 -0.0418  0.0005  0.1010
25388W        W31838   3.854   3.029   2.580  0.0424  0.0462 -0.0511
25389W        W31839  14.775   0.380  17.132 -0.3686 -0.0548 -0.1073
25390W        W31840  19.065   1.119  15.927  0.1968  0.2131  0.1311
25391W        W31841  16.312   3.358  35.082  0.0564  0.2288  0.0707
25392W        W31842  18.473   1.749   2.912 -0.1634  0.0786 -0.2530
25393W        W31843   7.298   1.151   1.510 -0.3255  0.0862 -0.3475
25394W        W31844  12.166   4.852  38.644  0.0747 -0.0237  0.2572
25395W        W31845  13.410   5.446  42.172 -0.1852  0.1370 -0.0095
25396W        W31846   6.077   1.108  11.098 -0.0873  0.1730  0.0233
25397W        W31847   6.520   5.708  13.483 -0.2927  0.2597  0.1257
25398W        W31848   0.948   3.066   3.130 -0.0581  0.1971  0.0826
25399W        W31849  17.311   6.270  20.909 -0.0192 -0.2216 -0.4912
25400W        W31850   2.785   2.366  14.984  0.0311  0.0213 -0.1362
25401W        W31851  19.910   2.242   5.163  0.0961  0.0855  0.0288
25402W        W31852  14.192   6.248  18.092 -0.0682  0.0466 -0.2207
25403W        W31853   4.896   0.372   5.645  0.0169 -0.0972  0.0069
25404W        W31854  13.060   3.223  29.477  0.0556  0.1452  0.0664
25405W        W31855  20.366   3.325   9.387 -0.3471  0.0955 -0.4032
25406W        W31856  14.852   1.552  42.791 -0.0326 -0.4115  0.1135
25407W        W31857  14.237   5.377  28.438  0.2385  0.1764 -0.1522
25408W        W31858  16.427   0.259  10.903 -0.0564 -0.2456 -0.2463
25409W        W31859  18.355   2.900  38.679  0.0824  0.3386 -0.2273
25410W        W31860  10.480   1.859  15.597  0.0519  0.1748  0.0239
25411W        W31861  17.269   2.365  24.163 -0.0186 -0.0350 -0.2797
25412W        W31862  11.205   5.814   3.268  0.0890  0.2519  0.0498
25413W        W31863  10.470   4.477  45.016 -0.2927 -0.0073  0.0841
25414W        W31864   8.842   4.569   5.792  0.1570  0.0167  0.1594
25415W        W31865  19.742   2.017  35.830  0.2685 -0.0567  0.1061
25416W        W31866   4.399   3.762   9.700  0.0803 -0.0624 -0.3227
25417W        W31867  11.835   3.370  15.693  0.0001 -0.5282 -0.2733
25418W        W31868   4.747   4.232  13.662  0.2418  0.1936 -0.2120
25419W        W31869   3.930   4.421  42.823 -0.2760 -0.1752  0.2288
25420W        W31870  17.566   0.086  40.094  0.0960  0.2896  0.0544
25421W        W31871   4.634   1.949  33.455 -0.1894  0.3459 -0.4050
25422W        W31872   6.045   3.685  41.078  0.2562 -0.0670 -0.1133
25423W        W31873   7.502   0.403   9.418  0.0688 -0.2025 -0.0153
25424W        W31874  18.728   4.236  30.266  0.1574 -0.0216  0.1419
25425W        W31875   0.865   1.467  42.202 -0.1713  0.1670 -0.0866
25426W        W31876  11.524   2.223  28.209 -0.2007  0.0379 -0.1343
25427W        W31877  12.731   2.979   1.074  0.1674 -0.1060  0.0163
25428W        W31878   3.902   3.940   5.405  0.1601 -0.2011  0.5766
25429W        W31879   1.379   3.765   5.815 -0.1263  0.4208  0.1380
25430W        W31880  17.844   0.905  16.118  0.1135  0.1573 -0.3651
25431W        W31881  13.766   0.260  39.044  0.1845 -0.4000 -0.3220
25432W        W31882  16.373   2.549  22.209 -0.0017 -0.0314 -0.1074
25433W        W31883  15.522   2.964  14.399 -0.3282 -0.1457  0.0197
25434W        W31884   0.843   1.642  40.174  0.0144  0.0442 -0.0254
25435W        W31885  15.794   4.635  40.448 -0.2378 -0.2272  0.1998
25436W        W31886  13.573   5.181  10.468 -0.2572 -0.0702 -0.0255
25437W        W31887   7.092   1.296  35.586  0.0312 -0.1587 -0.1044
25438W        W31888   1.093   4.755  11.995 -0.0195  0.1652  0.0607
25439W        W31889  16.939   4.881  39.358 -0.3782  0.3922 -0.1778
25440W        W31890   6.603   3.865  42.595  0.0562 -0.0080  0.0621
25441W        W31891   4.750   0.072  39.581  0.1763 -0.1376  0.0586
25442W        W31892  10.103   4.533  26.127 -0.2756  0.3800 -0.1632
25443W        W31893  19.854   5.464   9.964 -0.0017 -0.1068 -0.2231
25444W        W31894  10.550   3.287  42.202  0.2042  0.1948 -0.1828
25445W        W31895  20.552   1.323  31.835 -0.1127 -0.2181  0.5875
25446W        W31896   8.204   5.517  36.297  0.2329  0.2801 -0.0257
25447W        W31897   7.919   4.060   7.262  0.0249 -0.2202  0.2017
25448W        W31898  11.183   1.653  27.554 -0.1287  0.0479  0.4587
25449W        W31899  17.425   5.407  23.783 -0.0077  0.0268 -0.1368
25450W        W31900   6.668   2.417  11.229 -0.2502  0.0483  0.0060
25451W        W31901  10.572   5.912  18.702  0.1308  0.0811  0.2073
25452W        W31902  12.955   1.638  40.957 -0.1483  0.2123  0.0422
25453W        W31903   1.703   3.844  14.933 -0.0118  0.0846  0.0732
25454W        W31904  18.589   2.656  34.918  0.1841  0.1326  0.3925
25455W        W31905  13.520   4.192  29.809 -0.0906 -0.0753 -0.1119
25456W        W31906   9.063   6.555  13.808 -0.3484 -0.1694 -0.1783
25457W        W31907  13.345   6.374   5.473  0.1755  0.0810 -0.1352
25458W        W31908   4.054   2.689  33.310  0.1126 -0.0446  0.1283
25459W        W31909   1.894   1.398  42.223  0.0648 -0.3602 -0.0000
25460W        W31910  14.445   4.751  31.920  0.0483  0.0044 -0.1154
25461W        W31911   9.366   2.445  26.096  0.0459 -0.5643  0.0729
25462W        W31912  10.528   2.760  44.617  0.0539 -0.2140  0.1607
25463W        W31913  17.327   5.989  40.921  0.0046 -0.0142  0.0605
25464W        W31914   1.069   2.972  38.302  0.0702 -0.2121  0.1427
25465W        W31915  14.410   6.505  14.675  0.0995 -0.0412 -0.2698
25466W        W31916  16.906   6.378  14.646  0.2894  0.0306  0.0178
25467W        W31917   9.771   2.318   8.927 -0.0724  0.0810 -0.0921
25468W        W31918  16.112   1.065  24.667  0.1611 -0.4514 -0.4231
25469W        W31919   4.037   0.517   7.973  0.0834 -0.0245  0.0036
25470W        W31920   8.246   1.810  27.468  0.0997 -0.2889  0.0908
25471W        W31921  11.209   0.544   5.204  0.1354 -0.1204  0.0046
25472W        W31922  15.229   2.031   5.120  0.0173  0.0239  0.0453
25473W        W31923  20.166   4.749  42.610  0.1599 -0.0800  0.1865
25474W        W31924  17.554   3.458  10.378 -0.0965 -0.2057  0.0990
25475W        W31925  20.255   2.680  15.406  0.2015 -0.0004  0.0234
25476W        W31926   9.764   4.042  12.086  0.4610 -0.1053  0.0991
25477W        W31927   1.388   4.778  14.776  0.0231 -0.0322  0.0759
25478W        W31928  15.759   4.781  42.894 -0.0681 -0.0753  0.2011
25479W        W31929   1.832   4.906  43.160 -0.2499  0.2275 -0.1228
25480W        W31930  14.811   4.170  35.254 -0.1002  0.0519  0.1012
25481W        W31931  18.825   5.112  39.017  0.1496  0.1756 -0.0780
25482W        W31932  17.437   3.232   9.914 -0.2194 -0.0282 -0.1325
25483W        W31933  10.805   5.359  29.153  0.2890 -0.0801  0.0536
25484W        W31934   3.428   3.768   6.127 -0.2190 -0.0772  0.1404
25485W        W31935   5.217   4.542  36.973  0.0756  0.3668 -0.2420
25486W        W31936  12.838   0.752  19.853 -0.2572 -0.3000 -0.1258
25487W        W31937  15.288   2.310   0.966  0.0024 -0.1630 -0.4582
25488W        W31938   3.328   2.641  28.921 -0.1046  0.2724  0.1719
25489W        W31939   3.702   1.818   4.298  0.0100  0.2266  0.0099
25490W        W31940  11.559   0.451  28.230 -0.1846  0.3279 -0.0155
25491W        W31941   4.368   0.343  27.342 -0.1362  0.0225 -0.0547
25492W        W31942   8.247   6.272   5.924 -0.0915 -0.0314 -0.3793
25493W        W31943  19.955   6.438  33.487  0.1400 -0.2518  0.1180
25494W        W31944   2.523   5.986  32.638 -0.1147  0.1386 -0.0157
25495W        W31945  15.122   2.142  34.797 -0.0621 -0.0679  0.0664
25496W        W31946   3.060   5.917  39.614  0.1741 -0.1062  0.2858
25497W        W31947  14.651   5.148  43.165  0.0121  0.1470 -0.1160
25498W        W31948  13.602   0.469  10.926  0.3832  0.1688 -0.1334
25499W        W31949   2.243   6.337  43.756  0.1929 -0.2925  0.1356
25500W        W31950   4.163   6.471   5.488  0.0296  0.0074 -0.0436
25501W        W31951   7.167   5.535  38.533 -0.0983 -0.6557  0.1921
25502W        W31952   4.340   4.287  12.778 -0.3245 -0.0588 -0.0024
25503W        W31953   7.068   4.959  10.326  0.0350 -0.1818  0.0683
25504W        W31954   5.733   0.896  11.436 -0.1311 -0.1768 -0.0085
25505W        W31955   7.699   1.050   6.304 -0.3869 -0.1955 -0.1413
25506W        W31956   2.930   0.399  35.122 -0.0616 -0.1740  0.0765
25507W        W31957   4.872   0.833   0.430 -0.1215 -0.2157 -0.0926
25508W        W31958   9.704   4.724  26.906 -0.1597 -0.0827  0.0003
25509W        W31959   8.997   3.146   9.955  0.3259 -0.2118 -0.1348
25510W        W31960  18.699   4.816   9.988  0.1036  0.0097  0.0588
25511W        W31961  16.093   1.490  35.462  0.2352 -0.2784  0.0672
25512W        W31962  19.937   6.078  31.575  0.0661  0.0819 -0.0629
25513W        W31963  14.786   1.741  16.249  0.1447  0.1299  0.0127
25514W        W31964  15.742   3.178  29.972 -0.3652  0.2259 -0.0901
25515W        W31965   7.792   0.590  43.369  0.3276 -0.1299  0.0050
25516W        W31966   4.315   0.487  41.858  0.0609  0.3012  0.1472
25517W        W31967   3.021   4.730  38.755 -0.2262 -0.0649  0.5435
25518W        W31968   3.002   5.979  35.703  0.0042 -0.0189  0.1664
25519W        W31969  11.954   4.912  30.077  0.3092  0.0438  0.0994
25520W        W31970   6.213   0.871  11.614 -0.1138  0.0069 -0.2611
25521W        W31971  11.034   5.060  15.211 -0.2326  0.0721  0.1634
25522W        W31972   6.674   5.612  25.815 -0.1960  0.4116  0.2221
25523W        W31973  15.276   1.322   2.620 -0.0668 -0.3690  0.1230
25524W        W31974   7.859   0.443  42.483 -0.2918 -0.1328  0.2449
25525W        W31975  13.103   1.223  13.438 -0.1728 -0.1272 -0.0494
25526W        W31976  15.011   3.848  11.887  0.0861  0.3553 -0.0048
25527W        W31977  14.969   1.982   5.907 -0.2205  0.0450 -0.0080
25528W        W31978   5.808   4.165   6.731  0.2271 -0.0800 -0.1131
25529W        W31979  17.875   1.635   9.533  0.2693 -0.2048  0.1090
25530W        W31980  20.016   2.784  38.377 -0.1386 -0.3009  0.0515
25531W        W31981   4.331   3.889  35.453 -0.1190  0.0134 -0.1394
25532W        W31982   2.584   5.593  33.697 -0.2079  0.0219 -0.2201
25533W        W31983   7.942   5.164  14.401  0.0019  0.1166 -0.0465
25534W        W31984   4.567   1.699  39.380 -0.0138 -0.0726 -0.0596
25535W        W31985   8.880   3.575   7.182  0.0740  0.1585 -0.0056
25536W        W31986   2.206   3.381   8.763  0.0156 -0.0478 -0.0243
25537W        W31987   7.312   6.493  36.442 -0.1311 -0.2312 -0.1457
25538W        W31988   8.938   3.716  14.833 -0.2050  0.0403  0.0199
25539W        W31989  14.168   2.618  42.593 -0.1690  0.0825 -0.0601
25540W        W31990   0.114   6.340  15.628  0.0601 -0.1156  0.2361
25541W        W31991  11.511   5.260  39.323 -0.0253 -0.2836  0.0873
25542W        W31992  12.268   2.281  15.360  0.0152  0.0247 -0.1670
25543W        W31993   4.449   3.795  28.590 -0.1556 -0.1895 -0.2260
25544W        W31994  14.231   3.554  17.448 -0.1754  0.0433 -0.2482
25545W        W31995   1.978   4.691   2.129 -0.1184 -0.0342  0.0085
25546W        W31996   5.816   0.468  33.952  0.0830 -0.0184  0.1142
25547W        W31997  13.257   0.993  16.153  0.0802  0.1412 -0.0703
25548W        W31998  10.326   5.425  10.895  0.1805 -0.1858  0.1090
25549W        W31999   2.867   1.518  43.160 -0.2152  0.1287  0.1058
25550W        W32000   9.495   5.046  26.628  0.1248 -0.1482 -0.1025
25551W        W32001  18.795   1.569   1.499 -0.3053 -0.0284 -0.0340
25552W        W32002   6.406   6.326  31.951  0.2181  0.0428 -0.2782
25553W        W32003   3.196   5.440  30.444  0.1469 -0.1334  0.0800
25554W        W32004   8.683   3.417  15.528 -0.2390 -0.2271 -0.1138
25555W        W32005  16.428   3.457  31.748  0.0761  0.0042 -0.1754
25556W        W32006  15.667   4.034  19.625  0.0761 -0.0011 -0.0193
25557W        W32007  11.356   3.175  35.431 -0.0842 -0.2362 -0.0345
25558W        W32008   1.162   0.587  25.863  0.2198 -0.2637  0.0776
25559W        W32009  21.006   4.381   1.116  0.0048 -0.0522  0.0736
25560W        W32010   5.031   0.610   2.227 -0.2812 -0.0205 -0.1362
25561W        W32011   8.620   1.085  23.980 -0.3673 -0.2958  0.2975
25562W        W32012  11.785   5.026  44.994 -0.4557 -0.1690  0.1383
25563W        W32013  10.813   5.671  37.866  0.0594 -0.0825  0.1142
25564W        W32014  19.902   3.587  40.174  0.1185  0.1200  0.3620
25565W        W32015   1.649   5.762  44.844  0.3321 -0.2904  0.2395
25566W        W32016   3.330   1.015  44.685  0.2144 -0.0118 -0.1123
25567W        W32017   8.059   4.048   4.887 -0.0133  0.1083  0.1038
25568W        W32018  19.197   1.840  43.001 -0.0265 -0.3636  0.2501
25569W        W32019  10.752   2.873  27.691 -0.0024 -0.1022  0.5215
25570W        W32020   3.884   6.465  23.556 -0.0020  0.0101  0.0845
25571W        W32021  17.546   4.404   5.941 -0.0756  0.1406  0.1304
25572W        W32022  13.117   4.105  10.015 -0.0416  0.1123 -0.2134
25573W        W32023  20.383   6.025   7.192 -0.0686 -0.0846  0.1132
25574W        W32024  14.853   6.089  13.576  0.2576 -0.1259 -0.1712
25575W        W32025  16.611   4.011  22.886 -0.0611  0.0204 -0.0851
25576W        W32026  20.850   3.411  29.564  0.0279  0.2413  0.0890
25577W        W32027   9.607   3.221  44.517  0.0343  0.2505 -0.2637
25578W        W32028   5.823   4.124   8.949 -0.2652 -0.0681 -0.1431
25579W        W32029   1.080   6.497  10.651  0.0081  0.0155  0.0171
25580W        W32030  13.815   0.971   9.387  0.0589 -0.1019 -0.0326
25581W        W32031   7.203   3.066   8.575  0.0796  0.1915  0.0206
25582W        W32032  12.762   0.530   1.311  0.1418  0.2066 -0.0587
25583W        W32033  16.642   4.466  11.170  0.1054  0.0349  0.0323
25584W        W32034   0.411   0.720  11.719 -0.2517  0.0683 -0.0678
25585W        W32035  11.413   5.279   1.245  0.3583  0.1725  0.4011
25586W        W32036  10.454   0.109  35.855 -0.1734 -0.1080  0.0851
25587W        W32037   8.186   4.855  41.488  0.1776 -0.0532 -0.1096
25588W        W32038  14.575   3.716   0.017  0.1986  0.2330 -0.1381
25589W        W32039  16.582   0.826  42.512 -0.0093  0.3089  0.2400
25590W        W32040  15.371   6.487   9.824 -0.2395  0.1392 -0.0123
25591W        W32041  12.355   0.882  44.421 -0.1164 -0.0156  0.1039
25592W        W32042  16.520   5.503   8.541  0.2019 -0.1061 -0.0611
25593W        W32043   7.536   4.953  35.388  0.1007 -0.3397  0.1113
25594W        W32044   6.647   6.304  39.998  0.2480  0.2013  0.1762
25595W        W32045   7.816   0.514  38.276 -0.1568  0.0012 -0.0165
25596W        W32046   3.812   5.498  27.012 -0.1253  0.1450 -0.4237
25597W        W32047   5.477   6.230  33.747  0.1089  0.0548 -0.1995
25598W        W32048   2.434   2.192  33.146 -0.2148 -0.2084 -0.1365
25599W        W32049   2.181   4.610  27.119 -0.0771 -0.1701 -0.0713
25600W        W32050  17.225   1.602  36.294 -0.1025 -0.1563 -0.1427
25601W        W32051  17.648   5.860  33.902  0.0765 -0.0448  0.0513
25602W        W32052  16.373   1.354   2.620 -0.0760  0.3389  0.1647
25603W        W32053   4.431   0.465  24.685 -0.1159  0.1016 -0.1282
25604W        W32054   7.463   0.882  14.540 -0.0072 -0.0895  0.2503
25605W        W32055   5.397   0.914  32.286 -0.1302 -0.1393  0.1500
25606W        W32056   8.139   3.955  32.469 -0.0413  0.0090  0.0264
25607W        W32057   1.696   4.124  36.581 -0.2377 -0.0023  0.2963
25608W        W32058   8.540   6.401  38.079 -0.1268  0.2982  0.2051
25609W        W32059  17.964   3.162  32.743  0.1895 -0.1067  0.0320
25610W        W32060   0.022   6.263   7.814  0.3856 -0.1512  0.0193
25611W        W32061  17.465   4.988  21.074 -0.2962  0.0945  0.1859
25612W        W32062  18.431   5.920  17.519  0.1691 -0.2749 -0.1422
25613W        W32063  11.792   0.243   2.052 -0.4485 -0.0048 -0.1386
25614W        W32064  14.405   3.007  30.309 -0.0920  0.1980  0.1666
25615W        W32065  11.067   3.073  40.762 -0.2626 -0.1404 -0.2055
25616W        W32066   7.799   4.671  28.691  0.0877 -0.0506 -0.2503
25617W        W32067   4.519   0.661   4.876  0.2257 -0.1569  0.0625
25618W        W32068  13.471   0.076  13.851 -0.1705 -0.0859  0.0842
25619W        W32069  12.457   2.099   1.345 -0.0172 -0.0847 -0.0343
25620W        W32070   7.643   0.033   8.946  0.2621  0.0511 -0.2118
25621W        W32071   5.780   1.506  24.069 -0.0075  0.0179  0.2214
25622W        W32072  16.999   5.842  34.271  0.1164 -0.0610 -0.3222
25623W        W32073  18.540   2.474  37.766 -0.1331  0.0438 -0.0067
25624W        W32074  11.092   6.458  42.586 -0.0478  0.0806  0.1471
25625W        W32075   2.598   5.378  23.307  0.0933  0.0319  0.3743
25626W        W32076  11.320   6.187  27.674  0.0127 -0.1813  0.1011
25627W        W32077  11.573   1.049  44.460 -0.2785 -0.0170 -0.1236
25628W        W32078  12.132   3.368  44.001  0.1069  0.1629  0.1709
25629W        W32079   6.585   1.807  29.859  0.0493  0.1319 -0.3161
25630W        W32080  16.852   2.019  11.287  0.0264  0.1467  0.0830
25631W        W32081   5.949   4.021   3.593 -0.1644 -0.1934 -0.1096
25632W        W32082   2.652   5.853   2.148  0.1686  0.2272 -0.0946
25633W        W32083  11.064   3.388  41.318 -0.1853 -0.1293 -0.1152
25634W        W32084  13.424   0.429  34.988 -0.0590  0.1084  0.0280
25635W        W32085  14.238   4.623  38.029  0.1385 -0.2465 -0.0542
25636W        W32086  15.262   2.757   2.836  0.2815  0.0497  0.0581
25637W        W32087   1.926   0.938  13.481  0.2236 -0.0203  0.1019
25638W        W32088   2.876   5.654  42.241 -0.0561 -0.0770 -0.2481
25639W        W32089   6.739   0.714  27.324  0.0801  0.0183 -0.4297
25640W        W32090  18.824   1.173  44.587 -0.1609 -0.1512  0.0225
25641W        W32091   0.443   4.087  36.528  0.0202  0.0616 -0.2907
25642W        W32092  12.540   1.771  31.026  0.0240 -0.1515 -0.2692
25643W        W32093   6.210   1.825  29.489  0.0364  0.1095  0.1010
25644W        W32094  10.274   4.853   4.377  0.0632 -0.2344 -0.0570
25645W        W32095  11.149   6.158   4.461 -0.0614  0.1852 -0.1684
25646W        W32096   1.019   4.660   3.766 -0.1441  0.1955  0.3116
25647W        W32097   3.931   0.932  22.255  0.0992  0.0610  0.3265
25648W        W32098   2.641   4.487  10.882 -0.3738  0.1902  0.1334
25649W        W32099   0.241   5.460   0.283  0.0376 -0.0403  0.2478
25650W        W32100  21.130   3.795  10.972  0.0638  0.0825  0.0178
25651W        W32101  16.805   1.978  14.081 -0.0273 -0.1903  0.1096
25652W        W32102   3.181   3.455  43.409 -0.1117  0.0177  0.1222
25653W        W32103  16.289   3.696  42.590  0.1047  0.3876  0.1885
25654W        W32104   4.516   6.556   2.507  0.2905 -0.0687  0.0665
25655W        W32105  10.279   6.574  30.191  0.0573 -0.0141  0.1853
25656W        W32106   3.578   3.196  23.775 -0.0486  0.3004  0.0026
25657W        W32107   4.218   5.085  31.526  0.2710  0.0074  0.0717
25658W        W32108  15.009   4.561  22.893  0.2735 -0.1304 -0.1198
25659W        W32109  16.830   6.111  40.667 -0.0762  0.0080  0.0477
25660W        W32110   0.159   5.894  18.278  0.2507  0.0083  0.2223
25661W        W32111   4.265   6.588   2.051  0.0137 -0.1473 -0.0464
25662W        W32112   0.645   2.712  36.457 -0.0004  0.1347  0.2447
25663W        W32113   6.436   3.852  21.537  0.1962 -0.3327  0.2704
25664W        W32114  16.730   3.343   7.745  0.0831 -0.0607 -0.0889
25665W        W32115   8.630   0.907  35.051 -0.0041 -0.3363  0.4827
25666W        W32116   6.362   5.472  13.885  0.1884  0.2492  0.1171
25667W        W32117  17.503   5.409  31.978  0.0783  0.1414 -0.0217
25668W        W32118   8.644   4.297  44.732 -0.1609 -0.1623  0.1993
25669W        W32119   3.496   0.062  11.862  0.1259 -0.2648  0.0801
25670W        W32120  13.122   0.653   2.983 -0.0535  0.2013  0.1379
25671W        W32121  20.096   5.731  37.200  0.1622  0.1225  0.1925
25672W        W32122  10.710   0.954  16.982 -0.1365 -0.2532  0.0787
25673W        W32123  10.706   6.085   1.771 -0.0773  0.2752  0.5850
25674W        W32124   4.059   0.425  42.703 -0.0820  0.0462 -0.1187
25675W        W32125  14.957   5.953  11.355  0.0846  0.5089 -0.0547
25676W        W32126   2.756   1.904  27.555 -0.2995 -0.0936 -0.0614
25677W        W32127  19.525   5.717  30.564  0.1787  0.3666  0.2532
25678W        W32128   8.659   4.022  35.902  0.2330 -0.1677  0.2137
25679W        W32129  14.150   5.387  36.319 -0.1823 -0.2464 -0.1318
25680W        W32130   9.888   5.155  35.350 -0.1410 -0.0772 -0.0762
25681W        W32131   2.211   5.193   9.263  0.3395  0.1011  0.4586
25682W        W32132  10.578   0.461  11.919  0.1669  0.1057  0.1428
25683W        W32133   0.317   0.440  18.053 -0.1362  0.1262  0.2693
25684W        W32134  16.621   5.085   9.121 -0.0556  0.2758  0.3782
25685W        W32135   3.846   4.776   1.139  0.3078  0.2554  0.1008
25686W        W32136  12.464   2.932  17.832  0.0457  0.1580  0.0580
25687W        W32137   1.291   6.202  35.437 -0.1083  0.0990 -0.0480
25688W        W32138  15.699   6.144   1.223  0.3354  0.0453  0.0076
25689W        W32139   4.900   1.598  41.396 -0.3465 -0.3814 -0.0209
25690W        W32140  17.246   6.537   9.746 -0.1622 -0.0513 -0.2470
25691W        W32141  18.215   3.073  43.556  0.0861 -0.0410 -0.0805
25692W        W32142  11.928   0.549  28.552  0.0295  0.0792 -0.0769
25693W        W32143  20.170   5.968  12.207 -0.1727  0.1523  0.0863
25694W        W32144  13.646   1.775  17.131 -0.0134  0.0067  0.1196
25695W        W32145  13.321   4.437  17.843 -0.0215  0.0111 -0.0018
25696W        W32146  11.124   3.204   9.499 -0.1974 -0.0345  0.1770
25697W        W32147  15.090   6.317  39.369  0.1177 -0.2804 -0.1829
25698W        W32148   7.131   4.128   0.900  0.2880  0.0752  0.0167
25699W        W32149   8.435   0.456   5.398 -0.2249  0.0230  0.0063
25700W        W32150   5.772   0.056  31.140  0.3249  0.1800  0.2221
25701W        W32151  16.979   5.001  36.071  0.0923 -0.1388  0.1322
25702W        W32152  13.596   2.830  21.471 -0.1106  0.2699  0.1066
25703W        W32153   9.730   5.703  13.863  0.3089 -0.1494  0.0572
25704W        W32154  18.550   4.933  22.533  0.0977  0.1702 -0.1747
25705W        W32155  13.249   3.790  28.869 -0.2708 -0.0424 -0.0614
25706W        W32156   9.516   1.066  44.795 -0.0682 -0.0903 -0.2070
25707W        W32157   8.471   0.952  22.249 -0.0633 -0.0645 -0.1204
25708W        W32158  13.136   2.061  35.185  0.3896  0.1397 -0.5338
25709W        W32159  18.081   6.571  18.642 -0.2937  0.2035  0.1357
25710W        W32160  10.082   4.832  12.548  0.3098 -0.2648 -0.1543
25711W        W32161   6.092   5.895  13.933  0.0790  0.0194 -0.0664
25712W        W32162   2.037   6.522  36.211 -0.1354  0.0496 -0.3318
25713W        W32163  20.564   0.482  10.542 -0.1767 -0.0481  0.0277
25714W        W32164   1.728   1.588  28.055 -0.1297 -0.2290  0.0278
25715W        W32165  18.472   0.375  35.606 -0.1365 -0.0734  0.0457
25716W        W32166   9.249   6.167  11.360 -0.1082  0.1956 -0.1823
25717W        W32167  17.744   6.177  14.565  0.0379  0.2209  0.0109
25718W        W32168  20.559   2.151  33.009  0.0854 -0.1308  0.0737
25719W        W32169   4.576   4.276  35.617 -0.0524  0.2663  0.0503
25720W        W32170  10.254   6.454  26.330  0.0447  0.1855 -0.3367
25721W        W32171  12.221   3.343   3.789  0.1606  0.1628 -0.0940
25722W        W32172   7.991   4.337  42.032  0.1656 -0.2330  0.1484
25723W        W32173  11.138   3.737  45.063 -0.5057  0.1265  0.2565
25724W        W32174   0.733   4.473   6.692 -0.0188  0.2907 -0.4276
25725W        W32175   7.378   2.344  43.305 -0.4248 -0.0040  0.0702
25726W        W32176  12.182   1.212  37.703 -0.2708 -0.0482 -0.1313
25727W        W32177   1.690   2.399   4.517  0.1519  0.4497  0.0716
25728W        W32178  10.066   1.398  14.197 -0.1379  0.0618 -0.0365
25729W        W32179   1.597   6.166   3.761 -0.0770 -0.1589 -0.1963
25730W        W32180  20.689   6.070  14.114  0.1785  0.4236 -0.0460
25731W        W32181   1.055   0.883   3.808 -0.2233  0.5796 -0.2025
25732W        W32182   0.707   3.916  44.121 -0.3860  0.2327  0.0717
25733W        W32183   6.795   4.556  13.205 -0.0211  0.1627  0.2812
25734W        W32184   5.015   4.776  10.063  0.0151  0.0970  0.1158
25735W        W32185  15.538   3.222  22.429  0.0368  0.1538  0.0086
25736W        W32186  10.174   1.893  35.117 -0.2299  0.2767 -0.2050
25737W        W32187   9.811   1.969  13.330  0.0510  0.0253 -0.5668
25738W        W32188   5.770   1.309   9.771 -0.2025 -0.2950  0.2242
25739W        W32189  18.111   6.166  39.002  0.1204  0.0390  0.1191
25740W        W32190   5.073   4.921  29.390 -0.2263  0.1144 -0.1476
25741W        W32191  15.594   1.275   8.359  0.0009  0.1279  0.0553
25742W        W32192  11.522   5.736  28.861 -0.2376  0.1274  0.1048
25743W        W32193   6.132   3.730  16.064  0.0470 -0.0944  0.0044
25744W        W32194   2.817   6.227  24.879 -0.2647 -0.2002 -0.2991
25745W        W32195  18.303   0.160  28.554  0.2329  0.1777 -0.1335
25746W        W32196  14.917   2.284   8.998  0.0032 -0.2259  0.0095
25747W        W32197  11.618   6.461  32.846 -0.0126  0.2711 -0.1498
25748W        W32198  15.600   2.396  18.704  0.1172  0.1893 -0.0143
25749W        W32199  14.755   1.455  36.255 -0.1284  0.0911  0.0908
25750W        W32200  16.528   5.845  43.537 -0.2984  0.1129 -0.1745
25751W        W32201  17.030   5.980  14.974 -0.0758  0.2444  0.1367
25752W        W32202  19.135   5.036  15.800  0.0938  0.1691 -0.3341
25753W        W32203  15.273   4.051  39.396 -0.4300  0.1522  0.2606
25754W        W32204   4.572   5.703   0.916 -0.2576  0.1069 -0.0040
25755W        W32205   5.209   5.225  11.652  0.0479 -0.1023  0.0372
25756W        W32206   1.337   1.857   8.897 -0.0824 -0.0134  0.0036
25757W        W32207   9.768   0.985   1.471  0.1266  0.1898 -0.1306
25758W        W32208   9.993   1.006  31.896  0.0753  0.0675  0.2256
25759W        W32209  19.265   6.566  35.508  0.3301 -0.2726  0.1066
25760W        W32210   1.670   1.169  45.009  0.0061 -0.0077 -0.0079
25761W        W32211   9.557   5.741   9.656 -0.0517 -0.1544 -0.2901
25762W        W32212  15.243   3.726  38.820 -0.4187  0.4023  0.1832
25763W        W32213  19.932   1.390  31.024  0.1318 -0.3574 -0.3167
25764W        W32214  10.585   4.166   7.957 -0.0841  0.1861  0.1153
25765W        W32215  15.245   3.756  34.163  0.2121 -0.0641 -0.2607
25766W        W32216   0.545   4.229   8.343  0.1298  0.2668  0.1670
25767W        W32217   9.043   6.032  36.842 -0.1249 -0.3540  0.0202
25768W        W32218  20.083   5.018  15.405  0.0407  0.0870 -0.1525
25769W        W32219  15.502   5.590  32.042  0.0708  0.0111  0.0267
25770W        W32220  12.664   2.439  33.381 -0.3261  0.2612  0.1039
25771W        W32221   8.206   0.785  35.405 -0.0761  0.1551 -0.2276
25772W        W32222   5.007   5.780  32.764 -0.2000 -0.0574 -0.1160
25773W        W32223  20.674   3.144  31.450  0.0804 -0.2406 -0.0444
25774W        W32224  12.158   4.672   0.216 -0.0111 -0.1682  0.1028
25775W        W32225  16.817   1.457  44.707 -0.0207 -0.1219  0.0282
25776W        W32226   0.637   6.333  27.990  0.0343  0.1460 -0.0577
25777W        W32227  12.224   2.096  29.489  0.1460 -0.2420 -0.1457
25778W        W32228   4.164   1.013   4.998 -0.1709  0.0523  0.0644
25779W        W32229  18.088   1.564  22.094 -0.0453  0.2046 -0.0259
25780W        W32230   0.721   3.461  13.714  0.0483 -0.0290 -0.3607
25781W        W32231  11.833   1.439   3.305  0.0426  0.1592  0.1979
25782W        W32232   1.323   6.341   7.951  0.1956 -0.0580 -0.3731
25783W        W32233  10.611   5.480   8.186  0.4239 -0.1376  0.1784
25784W        W32234  12.285   1.015  32.165  0.0632  0.2454  0.1009
25785W        W32235   6.928   0.416  34.756 -0.0056  0.1744 -0.0353
25786W        W32236   7.711   0.875  32.414  0.1414  0.1135  0.3772
25787W        W32237  10.867   0.186  31.997  0.0940  0.1281  0.2082
25788W        W32238  14.196   5.195   3.488 -0.2028 -0.0179 -0.4446
25789W        W32239   5.891   0.511  35.585 -0.2889  0.0189 -0.1334
25790W        W32240  13.846   0.223  41.211  0.0285 -0.0606 -0.1128
25791W        W32241   5.137   2.476  24.947 -0.0584 -0.2482  0.1476
25792W        W32242   5.623   4.769  22.364  0.1604  0.1161 -0.0778
25793W        W32243   7.571   2.521  14.567 -0.0338 -0.0229  0.1611
25794W        W32244  10.402   5.418   1.249 -0.0047 -0.0216 -0.0066
25795W        W32245   8.171   6.264  33.969 -0.1081  0.1589  0.1639
25796W        W32246  10.831   1.118   4.357 -0.3530 -0.0559 -0.0183
25797W        W32247   0.429   3.304  10.244 -0.0035  0.0007 -0.0802
25798W        W32248   6.826   2.572  30.890  0.0167 -0.1870  0.0290
25799W        W32249  21.022   5.866  38.623  0.0627 -0.0067  0.4685
25800W        W32250   9.922   3.790  11.656  0.0739 -0.1785 -0.1721
25801W        W32251  16.892   3.858  40.477 -0.0148 -0.0491 -0.0720
25802W        W32252   8.776   6.056  23.978  0.1262 -0.2668 -0.1345
25803W        W32253   7.442   4.701  29.599  0.0466  0.3275 -0.2505
25804W        W32254  13.538   6.346  16.736 -0.0400  0.2332  0.0635
25805W        W32255  13.957   6.245  38.243 -0.1237 -0.0333  0.0669
25806W        W32256  11.635   5.612  35.621  0.0559  0.2483  0.0277
25807W        W32257  19.084   1.831  18.446 -0.2474  0.0641 -0.0353
25808W        W32258   7.967   3.275  31.134 -0.0645  0.0137  0.0580
25809W        W32259  12.398   0.065  36.930  0.0191  0.0472 -0.0152
25810W        W32260   4.873   5.959  40.328  0.3400  0.1279  0.0502
25811W        W32261   3.139   1.176   2.194  0.1729  0.0318  0.1913
25812W        W32262  20.740   1.163  39.517 -0.3357  0.0689 -0.3180
25813W        W32263   4.979   2.076   3.991 -0.3334 -0.0557  0.0202
25814W        W32264  12.110   2.861   1.978 -0.0270  0.0740  0.1068
25815W        W32265   5.235   0.616  33.765 -0.2840  0.1053 -0.0676
25816W        W32266   3.788   2.190  45.086  0.2893  0.1114  0.0762
25817W        W32267  11.245   4.315   0.052  0.2391 -0.1196  0.2664
25818W        W32268  18.312   3.080  17.125  0.1487 -0.1395  0.0531
25819W        W32269  13.853   1.759  29.138 -0.1844  0.2146  0.2073
25820W        W32270   5.216   0.619  25.147  0.1856 -0.0122 -0.1164
25821W        W32271   4.671   3.352  31.544 -0.3643 -0.4679 -0.0293
25822W        W32272   6.558   1.367  41.062  0.0932 -0.1746 -0.0853
25823W        W32273  13.735   1.431  19.280  0.2164 -0.1238 -0.0171
25824W        W32274   7.999   5.773  23.382 -0.1038  0.0547 -0.0432
25825W        W32275  17.252   1.257   6.651  0.2132  0.0341  0.1810
25826W        W32276  13.290   1.010  32.603  0.1256  0.1182 -0.1204
25827W        W32277   3.435   0.867   2.478  0.0440 -0.0468  0.2791
25828W        W32278   7.012   0.443  30.575  0.1406  0.1189  0.1505
25829W        W32279  16.690   2.547  33.320 -0.1527  0.1240 -0.0838
25830W        W32280  16.475   5.303  42.880  0.1954 -0.0316  0.1276
25831W        W32281   0.780   2.984   8.445 -0.1732 -0.1458 -0.1897
25832W        W32282   6.156   1.761   7.944  0.4414  0.2924  0.0090
25833W        W32283  12.342   5.990   4.491  0.0141  0.1357 -0.0110
25834W        W32284  12.064   5.986   6.768 -0.0760 -0.1013  0.0748
25835W        W32285  10.142   0.851  16.862  0.1423  0.0911  0.0373
25836W        W32286   0.092   5.060  28.060  0.2396 -0.0340 -0.0497
25837W        W32287  17.985   3.182  21.076  0.1379 -0.0076  0.0895
25838W        W32288   2.972   4.969   4.109 -0.0738  0.1030 -0.2844
25839W        W32289  13.147   2.948   4.227  0.3104  0.1337 -0.0732
25840W        W32290   3.308   5.429  31.768  0.0595 -0.4694  0.0867
25841W        W32291   7.005   2.478  40.645 -0.1858  0.1233 -0.0276
25842W        W32292   5.922   5.340  35.275  0.1433 -0.2523 -0.0507
25843W        W32293   2.116   2.041  13.213 -0.2101 -0.0735  0.0809
25844W        W32294   2.881   1.561  11.385  0.1870 -0.0639  0.1013
25845W        W32295   1.863   3.658   9.417  0.1308 -0.0619 -0.1550
25846W        W32296   2.548   0.755  35.063  0.1119 -0.0626 -0.2047
25847W        W32297  19.686   2.024  16.628  0.1129  0.1698  0.0484
25848W        W32298   8.156   2.518  41.763  0.0215 -0.0894 -0.1430
25849W        W32299  18.422   3.379  19.433 -0.1279  0.1499  0.6588
25850W        W32300   8.319   2.295  13.090 -0.0509 -0.0239  0.2634
25851W        W32301  16.183   3.573  33.260 -0.1409 -0.0825 -0.1944
25852W        W32302   0.107   0.094   9.752  0.2029 -0.1360 -0.2113
25853W        W32303  14.448   3.063  10.939 -0.0205 -0.1471  0.0117
25854W        W32304  14.709   0.116  17.515 -0.2032  0.1291 -0.1816
25855W        W32305   5.678   0.365   5.076 -0.5212  0.2616  0.0427
25856W        W32306  20.522   0.836   5.866 -0.2038 -0.0836  0.1173
25857W        W32307  19.387   6.521  38.798  0.1601  0.0986  0.0395
25858W        W32308   0.293   4.079   2.583 -0.0287  0.2297  0.0531
25859W        W32309   1.093   0.099  30.442  0.1358 -0.2952  0.1362
25860W        W32310  10.336   4.410  35.858 -0.0793  0.0457  0.0328
25861W        W32311   4.985   6.301  44.214 -0.0813 -0.0453  0.3088
25862W        W32312  18.816   0.378  11.496  0.0986 -0.3553 -0.2002
25863W        W32313  11.461   1.910   4.528  0.0130  0.0499  0.1577
25864W        W32314   3.303   2.973  35.841 -0.2672  0.0369 -0.2140
25865W        W32315   3.219   5.105  33.451  0.0060 -0.3632  0.0194
25866W        W32316   6.673   6.420  21.468 -0.0277  0.0740 -0.0914
25867W        W32317  11.238   2.354  31.136 -0.1426 -0.1073 -0.1398
25868W        W32318  15.927   1.383   8.718 -0.0407 -0.2263 -0.0403
25869W        W32319  16.322   3.582  18.422 -0.4408 -0.0812 -0.0628
25870W        W32320   6.486   2.919  40.060 -0.0243 -0.0328 -0.2079
25871W        W32321  19.668   6.263  33.994  0.0801 -0.1013 -0.0069
25872W        W32322  16.478   0.861   3.757 -0.1954 -0.0711 -0.2836
25873W        W32323   5.123   5.275  29.023 -0.1084  0.1340  0.1683
25874W        W32324   7.168   1.151  24.834  0.0251 -0.1337 -0.1059
25875W        W32325  11.222   0.444  15.897 -0.0893  0.0351  0.2792
25876W        W32326  16.210   4.281  22.222  0.2411 -0.2682 -0.2116
25877W        W32327  15.879   3.323  43.669 -0.1151 -0.0093  0.2161
25878W        W32328  18.018   3.775  32.190  0.0228 -0.1535  0.0921
25879W        W32329   5.647   0.380  36.940 -0.1062  0.0977 -0.0827
25880W        W32330   2.722   1.551  10.427 -0.0922  0.1600 -0.1622
25881W        W32331   4.648   5.416  34.508  0.3197  0.0294 -0.1734
25882W        W32332  14.241   0.933  41.789 -0.1956 -0.2167 -0.1701
25883W        W32333   5.183   1.457  37.050 -0.0286 -0.0203 -0.1079
25884W        W32334   5.099   0.531  21.123  0.1020  0.0222  0.0803
25885W        W32335   0.105   5.546  11.568 -0.0380  0.0781  0.4012
25886W        W32336   9.815   5.099   4.602  0.1596 -0.6442  0.1707
25887W        W32337   8.336   4.684  35.478 -0.2234  0.3186 -0.2303
25888W        W32338  15.184   6.028  39.805  0.1627  0.0432  0.3451
25889W        W32339  16.763   0.249  41.822 -0.0078 -0.1305  0.1603
25890W        W32340  12.707   2.899  38.647 -0.2189  0.3255  0.4187
25891W        W32341  20.087   2.785  13.878  0.1732 -0.2267 -0.1847
25892W        W32342  11.619   2.290  36.343 -0.4304  0.0886 -0.0931
25893W        W32343   5.291   5.871  44.299 -0.2050  0.3435  0.1422
25894W        W32344  19.768   6.216  12.281  0.0288  0.1012  0.0985
25895W        W32345   9.960   5.953   5.673  0.0773  0.1296 -0.0190
25896W        W32346  20.859   3.260  37.820 -0.1078 -0.3602  0.0730
25897W        W32347   2.239   4.145  34.003  0.0995  0.0148 -0.1978
25898W        W32348   8.466   1.881  29.816  0.3143  0.1786 -0.2035
25899W        W32349  18.684   1.462  43.683 -0.1075  0.0431  0.1566
25900W        W32350  10.183   5.671  39.375  0.1679 -0.0230  0.1359
25901W        W32351   4.210   4.673  39.717 -0.0863 -0.4099 -0.1867
25902W        W32352   3.773   0.809   6.053  0.0693  0.0570  0.0358
25903W        W32353   2.521   1.784   7.601  0.1061 -0.0826 -0.1358
25904W        W32354  17.892   5.804  42.477  0.0016  0.1730 -0.0486
25905W        W32355  10.458   0.210  14.359 -0.1181  0.0860 -0.4433
25906W        W32356   6.232   5.695  10.622 -0.0997  0.1252  0.1532
25907W        W32357   9.292   6.019  15.497 -0.2696 -0.2468  0.0174
25908W        W32358  19.663   2.058  43.087 -0.3191 -0.0420  0.1873
25909W        W32359  12.182   0.223  18.327  0.1024 -0.1487 -0.0543
25910W        W32360   7.714   4.837  32.937  0.3240 -0.3221  0.1832
25911W        W32361   0.254   3.505  27.337 -0.1733  0.0544 -0.1076
25912W        W32362  14.150   5.387   7.207  0.0100 -0.0379 -0.1078
25913W        W32363   5.826   4.208  10.711 -0.1213  0.2170 -0.2828
25914W        W32364  17.454   0.593  35.167 -0.1058 -0.0432  0.2794
25915W        W32365  10.647   6.219  31.297  0.2999 -0.1049 -0.0184
25916W        W32366   8.482   5.742  23.321  0.1222 -0.0881 -0.3009
25917W        W32367   3.324   5.204  39.550 -0.1249  0.2610  0.0457
25918W        W32368  13.971   4.515  38.961 -0.0281  0.3502 -0.1787
25919W        W32369  16.839   3.042  23.799  0.2180  0.0856 -0.0001
25920W        W32370  16.993   0.561  42.248 -0.2335 -0.1542  0.1318
25921W        W32371  14.341   3.177  15.875 -0.0259  0.2109 -0.2142
25922W        W32372  19.703   4.646  15.091  0.2798  0.3071 -0.1882
25923W        W32373   2.007   3.244  39.076 -0.4515 -0.1198  0.2042
25924W        W32374  19.190   5.448  37.741  0.1302 -0.3446 -0.0554
25925W        W32375   5.314   0.668  40.369 -0.0063  0.0145 -0.2416
25926W        W32376   3.235   0.585  43.065 -0.0853 -0.1355 -0.1812
25927W        W32377   1.529   2.939  44.726  0.0092  0.0150  0.2057
25928W        W32378   3.902   5.110   8.553 -0.0637 -0.0089  0.0500
25929W        W32379   2.645   0.608   5.212  0.1437  0.2687 -0.1783
25930W        W32380   5.362   2.840  37.449 -0.1931  0.0322 -0.0377
25931W        W32381  18.807   4.560   4.337 -0.2194  0.2042 -0.2694
25932W        W32382  16.807   1.306  43.881  0.2047 -0.1590 -0.0255
25933W        W32383   2.285   6.082  27.905  0.0841  0.0882 -0.3101
25934W        W32384   2.789   3.610  26.385 -0.2435  0.1110 -0.1665
25935W        W32385  10.119   2.317  27.040  0.1196 -0.0065 -0.1229
25936W        W32386   8.554   3.113  26.738 -0.1617 -0.0973 -0.0354
25937W        W32387  10.275   4.462  38.437  0.2119  0.1336 -0.1109
25938W        W32388   4.351   0.209  30.047  0.0426 -0.1791  0.1781
25939W        W32389  10.754   0.353  16.874  0.0043  0.0085 -0.1663
25940W        W32390   0.720   6.593   6.570  0.2326 -0.2092  0.1220
25941W        W32391  14.651   5.955   8.700 -0.1246  0.0207  0.2174
25942W        W32392   5.044   5.970   6.753  0.1183  0.0970  0.2513
25943W        W32393   1.867   2.798  12.014 -0.2890 -0.0772  0.2350
25944W        W32394  20.130   2.777  36.128  0.0966 -0.2129 -0.0993
25945W        W32395  17.239   6.291  32.600  0.1687  0.1070 -0.3100
25946W        W32396  14.131   0.891   4.860  0.1141  0.0918  0.1401
25947W        W32397   2.559   3.197  44.771  0.0315 -0.1339 -0.0810
25948W        W32398   0.572   1.651   4.444 -0.2176 -0.1701  0.0685
25949W        W32399  15.905   2.407  29.480  0.0046 -0.0280 -0.2711
25950W        W32400   5.982   4.715  44.030 -0.0711  0.0259  0.1935
25951W        W32401  13.299   5.984  19.356 -0.1803 -0.1932 -0.0730
25952W        W32402   8.617   4.994   5.997 -0.0998  0.0391 -0.0573
25953W        W32403  12.998   2.910  13.374  0.2035  0.2027 -0.0928
25954W        W32404   2.051   1.635   1.465 -0.3198 -0.0477 -0.3280
25955W        W32405   5.380   1.403  39.643  0.0489  0.0213 -0.2053
25956W        W32406  10.102   4.840  31.233  0.1439 -0.0029 -0.0590
25957W        W32407   0.613   4.601  45.101 -0.0961 -0.2089 -0.1041
25958W        W32408   7.831   3.356  40.220  0.0312  0.0570  0.4998
25959W        W32409   2.302   1.555  42.442 -0.0699  0.0666  0.1584
25960W        W32410  19.376   5.026  33.717  0.2220 -0.1206  0.3983
25961W        W32411   2.658   4.063  31.259 -0.0982 -0.2963  0.1068
25962W        W32412  14.204   3.032  36.613  0.1950  0.0470  0.3811
25963W        W32413  14.862   0.616  28.674 -0.1237  0.2693 -0.0445
25964W        W32414  21.010   2.615   1.171  0.0798 -0.0763 -0.0791
25965W        W32415  11.669   1.376   6.223 -0.2775 -0.0017  0.2910
25966W        W32416  12.230   5.848   6.264  0.0513 -0.2173  0.1278
25967W        W32417   2.661   4.260  12.804  0.3101 -0.0547  0.0509
25968W        W32418  13.759   0.365  29.756 -0.1421 -0.2260 -0.4296
25969W        W32419  15.102   1.341  34.535  0.0925 -0.2998 -0.3053
25970W        W32420   4.600   4.493  34.658 -0.1458  0.3383  0.0065
25971W        W32421  18.444   0.974  12.184  0.2308 -0.0736  0.1963
25972W        W32422  17.691   1.952  40.343  0.0718  0.0214 -0.0717
25973W        W32423  10.333   1.474  15.224 -0.0083 -0.0235  0.3023
25974W        W32424  18.816   3.792   8.557  0.0080  0.3568 -0.1093
25975W        W32425  13.061   1.092   8.837  0.0133  0.2219 -0.0179
25976W        W32426  18.230   4.180  16.105  0.1552 -0.3389  0.0833
25977W        W32427  14.873   1.441  28.712 -0.0917 -0.2357  0.1365
25978W        W32428  15.516   2.782   3.361 -0.1195 -0.0706 -0.0318
25979W        W32429  19.259   0.498  14.394 -0.1024 -0.0109  0.1115
25980W        W32430  15.255   1.183  19.646  0.0462  0.0331  0.0852
25981W        W32431  16.263   2.899   1.604  0.1740 -0.2095  0.1019
25982W        W32432   4.331   5.323  22.231 -0.0728 -0.0831 -0.0653
25983W        W32433   8.304   4.821  30.007  0.3331 -0.1430 -0.2628
25984W        W32434  12.787   2.295  42.294 -0.2220 -0.3479  0.2057
25985W        W32435   5.477   3.022  35.537  0.2553 -0.2539 -0.0047
25986W        W32436   1.043   3.870  39.929 -0.1450 -0.1329  0.0669
25987W        W32437  20.839   2.972  38.241 -0.1412  0.0586 -0.0530
25988W        W32438   4.407   3.944  23.527 -0.2022 -0.1619 -0.0810
25989W        W32439   4.509   0.131   9.274 -0.0574 -0.0542 -0.2592
25990W        W32440  12.803   2.713   8.507  0.0275  0.0850 -0.0477
25991W        W32441  17.789   1.433  42.860 -0.1849  0.1216 -0.0608
25992W        W32442  11.784   2.995   0.314  0.0312 -0.0887 -0.3475
25993W        W32443   4.404   4.048   4.177  0.1475  0.0251  0.0126
25994W        W32444  14.590   3.909  31.009  0.0463  0.1346 -0.0035
25995W        W32445   5.721   2.124  30.634  0.1523 -0.1720  0.0093
25996W        W32446  14.937   3.148  17.638 -0.1842 -0.0251  0.1373
25997W        W32447  15.174   5.961   9.735  0.0699 -0.1981  0.1072
25998W        W32448  19.917   5.413  31.347 -0.1942 -0.2049 -0.1236
25999W        W32449  13.758   1.372  14.609  0.1910 -0.1701 -0.1071
26000W        W32450  13.002   2.394  18.078  0.1470  0.3272  0.2605
26001W        W32451   1.216   1.364  27.953  0.2109 -0.2484 -0.2417
26002W        W32452  20.399   3.583  13.463  0.2038 -0.2336 -0.2657
26003W        W32453  17.484   1.443  41.895 -0.1816 -0.0927  0.1125
26004W        W32454   1.695   1.239  27.664 -0.0852 -0.0683 -0.2692
26005W        W32455  13.571   2.403   0.932  0.1020  0.0933  0.0079
26006W        W32456  21.056   4.863   9.557  0.0485 -0.4336 -0.1853
26007W        W32457   8.746   5.557  23.945  0.0721 -0.2212  0.0512
26008W        W32458  18.134   4.681   5.610  0.0027  0.0140  0.1290
26009W        W32459   9.629   0.617  30.257 -0.1762  0.0066  0.0953
26010W        W32460  17.078   4.771  37.753  0.3730  0.0479 -0.0642
26011W        W32461   8.082   4.889  15.357  0.0921 -0.0038  0.1088
26012W        W32462  16.058   5.092   9.843  0.3202  0.2731  0.0896
26013W        W32463   0.582   1.489   7.952 -0.0573 -0.0739  0.1117
26014W        W32464   6.682   6.340   1.876 -0.0085 -0.1140  0.0879
26015W        W32465  11.723   5.463   4.403 -0.1450 -0.1453  0.3189
26016W        W32466   3.693   4.922   6.778 -0.0678  0.4152  0.2066
26017W        W32467   3.806   3.147  24.181  0.2673 -0.0158  0.1282
26018W        W32468   6.818   4.175  14.313  0.3612 -0.0802  0.3596
26019W        W32469  19.479   1.600   7.724 -0.2582 -0.1104 -0.0033
26020W        W32470  15.779   0.594  37.361  0.0699  0.0419 -0.1187
26021W        W32471  16.112   2.135  29.861 -0.1810 -0.0659  0.2039
26022W        W32472   2.745   2.372  30.031 -0.2603 -0.1286 -0.2937
26023W        W32473   5.396   1.298  13.261 -0.1163 -0.0852  0.0175
26024W        W32474   0.881   1.546  33.153  0.1071 -0.0396  0.1969
26025W        W32475   8.737   2.432  38.934 -0.0985  0.3124 -0.0335
26026W        W32476   9.511   2.008   8.387 -0.2979 -0.1430  0.1364
26027W        W32477  14.283   2.971  14.089 -0.3936 -0.1806  0.3512
26028W        W32478   3.081   3.778  11.630 -0.2027 -0.0713  0.1612
26029W        W32479   8.642   2.478  35.735 -0.1530  0.1754 -0.0135
26030W        W32480  12.794   2.958  41.773  0.1649 -0.1842  0.0353
26031W        W32481  14.488   0.864  20.611  0.1184  0.0442 -0.0624
26032W        W32482   9.892   3.192  33.600 -0.1851  0.0132 -0.0366
26033W        W32483  11.803   1.067  35.799 -0.3834  0.2082 -0.1782
26034W        W32484  19.496   5.463  19.435  0.2263 -0.0294 -0.1240
26035W        W32485   1.367   6.095  42.526 -0.0599  0.0498  0.0163
26036W        W32486  16.635   4.766  33.436 -0.0588 -0.2001 -0.0734
26037W        W32487  19.435   4.151  20.919 -0.2223  0.1124 -0.1783
26038W        W32488  19.991   5.264  10.455  0.2813 -0.1641  0.0136
26039W        W32489   9.786   6.075   6.646 -0.1656  0.2371  0.1271
26040W        W32490  15.514   3.572   0.519 -0.1259  0.2457 -0.0993
26041W        W32491   9.082   1.919  16.854  0.1099  0.1945 -0.0289
26042W        W32492   5.795   3.922   1.464 -0.1274 -0.0132  0.0803
26043W        W32493  17.961   0.775  10.968  0.2240  0.3455 -0.0305
26044W        W32494  17.092   4.046   0.339  0.0290  0.3379 -0.2268
26045W        W32495   3.333   5.015  10.679 -0.2549 -0.0529 -0.1217
26046W        W32496   5.586   2.387  37.412  0.1686 -0.2877 -0.1009
26047W        W32497  17.346   6.164  10.823  0.1096 -0.4291 -0.0587
26048W        W32498  18.755   5.840   8.082 -0.1387  0.0276 -0.1092
26049W        W32499   1.758   3.045  30.764 -0.1552 -0.3075  0.3969
26050W        W32500  17.934   0.647  29.665 -0.0781  0.2272  0.0044
26051W        W32501   7.759   1.963  31.607  0.0859  0.0213 -0.1478
26052W        W32502   5.151   6.172  36.025  0.0922 -0.3150  0.1770
26053W        W32503   8.265   0.757  41.413  0.2461 -0.2992 -0.0924
26054W        W32504  18.632   4.417   1.799  0.0116  0.4242 -0.0783
26055W        W32505  17.197   2.608   7.853  0.0598  0.0630  0.2495
26056W        W32506   6.007   5.137  42.340  0.0236  0.0872 -0.3252
26057W        W32507   1.331   1.034  26.046 -0.0235 -0.1083 -0.2540
26058W        W32508   9.557   4.870   3.589 -0.0391  0.0771  0.2517
26059W        W32509   1.704   3.417  44.985 -0.1030  0.1764  0.1957
26060W        W32510  20.091   0.329  35.407  0.0173  0.0123  0.2050
26061W        W32511  10.888   1.583  28.745 -0.2194  0.0809  0.0287
26062W        W32512  14.137   4.406  38.483  0.1220  0.2950 -0.3213
26063W        W32513   2.368   0.798  41.960  0.0665 -0.2138  0.0132
26064W        W32514  16.964   3.998   1.384  0.0497  0.3314 -0.2350
26065W        W32515  14.059   0.821   6.180  0.0225  0.0833  0.0327
26066W        W32516  16.279   4.532  29.149 -0.1532 -0.2195 -0.0898
26067W        W32517   4.516   5.751   2.909 -0.0250 -0.1331  0.0391
26068W        W32518   9.641   5.337   7.384 -0.1116  0.1364  0.2280
26069W        W32519  12.272   6.045  12.291 -0.2365  0.1645 -0.0168
26070W        W32520   8.061   6.529  29.674 -0.0495 -0.2027  0.0425
26071W        W32521   4.282   2.886  42.104  0.0986  0.0504  0.1901
26072W        W32522  15.943   6.304  16.439  0.0801 -0.2712 -0.2541
26073W        W32523   1.321   4.210   5.393  0.0575  0.3053  0.1183
26074W        W32524   2.039   5.597  26.031 -0.1908  0.2437 -0.2543
26075W        W32525   2.566   3.423  40.503  0.2716 -0.2014 -0.0976
26076W        W32526  13.708   2.998  34.569 -0.0385  0.0667  0.0270
26077W        W32527  13.323   2.566  30.443 -0.1027 -0.0086  0.5419
26078W        W32528   1.569   4.342  39.376  0.0638  0.1151  0.0204
26079W        W32529  10.800   5.397  16.236 -0.1957  0.1418 -0.0800
26080W        W32530  13.751   0.540  12.051  0.0564  0.0167  0.0812
26081W        W32531   0.070   4.371  33.598  0.3249  0.1918 -0.1056
26082W        W32532  20.602   4.881  42.988  0.0639 -0.1192 -0.0469
26083W        W32533  16.868   3.591  14.511  0.0972 -0.1596  0.0545
26084W        W32534  12.109   5.837   2.169 -0.2512  0.1908  0.0303
26085W        W32535  15.916   1.278  32.483  0.1853  0.1809  0.0194
26086W        W32536  21.092   3.236   4.892  0.0891 -0.1340 -0.0469
26087W        W32537   6.946   0.594  45.001 -0.0539 -0.0043 -0.2893
26088W        W32538   2.917   1.706  44.691 -0.1659  0.0183 -0.1122
26089W        W32539  18.280   3.493  43.245 -0.1308  0.4401  0.2845
26090W        W32540   6.525   1.875   5.411  0.0042  0.2347  0.3063
26091W        W32541  16.614   5.046  11.233  0.0785 -0.1137  0.0160
26092W        W32542  15.588   0.386  19.058 -0.2537 -0.5084 -0.0966
26093W        W32543   9.786   1.153  27.979 -0.0412  0.1029 -0.1416
26094W        W32544  16.667   0.809   6.051 -0.3695  0.2360 -0.0413
26095W        W32545   7.314   4.467  31.397  0.1045 -0.1941 -0.0289
26096W        W32546   6.978   4.758  37.343  0.1108  0.1338  0.3016
26097W        W32547  10.673   0.789  27.711 -0.0914  0.2087  0.1569
26098W        W32548  13.510   0.559  32.630 -0.0301  0.4372  0.5298
26099W        W32549   9.472   2.448   9.290  0.2383 -0.0547 -0.0526
26100W        W32550   7.776   5.933  38.179 -0.0290 -0.0358  0.0702
26101W        W32551   1.429   0.340  42.385  0.2204  0.0766 -0.3084
26102W        W32552  17.038   1.048  42.397 -0.2240 -0.2200 -0.3191
26103W        W32553   9.256   1.360   5.920  0.1709 -0.2597  0.2844
26104W        W32554   5.616   2.438   7.394  0.2558 -0.3416 -0.2840
26105W        W32555   6.396   5.059  26.591 -0.0304  0.0328  0.0688
26106W        W32556   8.538   1.764  15.696  0.0539  0.0574  0.2637
26107W        W32557   7.195   4.982  24.627  0.1495  0.0780 -0.1727
26108W        W32558  12.198   5.309   6.439  0.0579  0.2962 -0.0548
26109W        W32559  19.578   3.247  31.835 -0.1603 -0.0579  0.1615
26110W        W32560   5.755   1.039   2.563  0.1128 -0.4370  0.0156
26111W        W32561   6.418   3.498  32.127  0.1576  0.2991 -0.0652
26112W        W32562  13.312   4.411  10.983  0.1899 -0.0777 -0.3265
26113W        W32563  18.149   2.526  37.347  0.0332 -0.0359  0.0903
26114W        W32564   8.295   4.235  39.223  0.1051 -0.0537  0.2971
26115W        W32565  19.206   0.801  43.885  0.1192  0.0365 -0.0764
26116W        W32566  18.712   4.250  36.065  0.1087  0.1616  0.1769
26117W        W32567   2.394   3.211  42.332  0.3745 -0.1512  0.0408
26118W        W32568  20.129   5.107  20.344 -0.1355 -0.1154  0.1356
26119W        W32569  19.571   4.848  30.819 -0.0212 -0.2389  0.3167
26120W        W32570   0.747   0.820  15.725 -0.1133  0.0346 -0.0765
26121W        W32571   4.301   3.360   6.009  0.2722  0.1161 -0.2108
26122W        W32572  13.143   3.219  43.576 -0.2688 -0.3036  0.2389
26123W        W32573   3.505   6.422  29.108  0.1397  0.4695 -0.0027
26124W        W32574  19.436   3.956  44.895 -0.0841  0.2925 -0.0403
26125W        W32575   4.322   6.236   5.880  0.0236 -0.2207  0.3181
26126W        W32576  12.161   5.909  18.825  0.5680 -0.0501 -0.2171
26127W        W32577  19.555   1.937  41.230 -0.1639 -0.1188  0.0268
26128W        W32578   5.973   3.799   5.468 -0.0755  0.1481 -0.1360
26129W        W32579  18.708   3.215   8.476 -0.2155  0.0601 -0.1931
26130W        W32580   1.386   5.132  13.188 -0.2091 -0.1493 -0.1948
26131W        W32581  12.010   2.678  41.997 -0.2524  0.2712 -0.0173
26132W        W32582  19.379   0.732  19.002  0.2189  0.3136 -0.3179
26133W        W32583   6.808   3.259   7.659  0.1082 -0.2909 -0.1539
26134W        W32584  10.976   2.985   9.035 -0.1110  0.1317 -0.0524
26135W        W32585  19.463   2.460   2.953 -0.1359  0.1842 -0.2276
26136W        W32586   4.582   2.843  28.338 -0.0647  0.1203  0.2255
26137W        W32587   4.972   2.966   0.571  0.0596 -0.1097 -0.0345
26138W        W32588  10.393   5.084  29.311  0.1530 -0.1133 -0.0284
26139W        W32589   0.927   5.575  11.033 -0.0597  0.1900 -0.2244
26140W        W32590  19.951   1.574   6.153  0.1933 -0.0574 -0.1588
26141W        W32591  20.782   1.263  28.765 -0.2708 -0.1110 -0.0203
26142W        W32592  20.031   4.745   7.930 -0.0803 -0.1807  0.0176
26143W        W32593  11.721   0.870  28.986 -0.2223 -0.1395 -0.1483
26144W        W32594  13.551   0.937  30.346 -0.4776 -0.0946 -0.0983
26145W        W32595   9.640   1.477  15.547 -0.0011 -0.0254 -0.1608
26146W        W32596   7.304   2.452   1.936  0.0992 -0.0870  0.1017
26147W        W32597   3.234   0.529  40.917 -0.1561 -0.1490  0.0896
26148W        W32598  18.716   2.197  31.505 -0.5463 -0.1135 -0.1533
26149W        W32599   9.574   2.899  10.055 -0.1951  0.0778  0.0618
26150W        W32600   4.999   0.117  32.638  0.2817 -0.0623  0.5061
26151W        W32601  15.423   6.546  16.739  0.2181  0.0444  0.0454
26152W        W32602  15.636   3.297  11.412 -0.3044  0.1288 -0.1899
26153W        W32603  12.557   5.181  17.824  0.1009  0.3105 -0.3665
26154W        W32604   3.917   5.540  44.060  0.0135  0.1405 -0.0992
26155W        W32605  21.106   3.760  35.835  0.2590 -0.1315  0.3312
26156W        W32606  16.399   4.946  10.270 -0.0746  0.1717 -0.0957
26157W        W32607  17.748   3.318  29.852  0.0920  0.0424  0.1705
26158W        W32608  10.439   6.277  43.416  0.0748  0.1078 -0.0586
26159W        W32609  16.210   4.982  33.513  0.3598 -0.0862 -0.0073
26160W        W32610  18.112   3.510  35.199  0.1173  0.0660 -0.0317
26161W        W32611  20.795   4.504  34.709  0.0577  0.3492 -0.1883
26162W        W32612   7.441   1.062   0.318  0.1587  0.3862 -0.0390
26163W        W32613   6.114   6.344  34.312 -0.0011  0.0504 -0.1713
26164W        W32614   7.443   3.603  10.866 -0.0984 -0.3102 -0.0477
26165W        W32615  20.570   0.310  39.499 -0.2143  0.2193  0.0869
26166W        W32616  18.129   2.561  11.281 -0.0440 -0.0336 -0.2309
26167W        W32617  15.242   2.889   9.576 -0.0433  0.0833 -0.1330
26168W        W32618  19.090   3.809  35.103 -0.2225 -0.0707 -0.2652
26169W        W32619  18.866   2.160  42.825 -0.0156 -0.1989  0.2134
26170W        W32620  10.515   5.184   5.225 -0.0098  0.1517  0.2398
26171W        W32621  17.587   6.109  32.293 -0.2035  0.0584 -0.1763
26172W        W32622   3.744   0.557  13.002 -0.0492 -0.0081 -0.1162
26173W        W32623  19.834   1.030   5.163  0.2206  0.0943 -0.0044
26174W        W32624  10.685   4.416  28.721  0.1186 -0.0016  0.1187
26175W        W32625   7.236   5.444   4.156 -0.0629 -0.1576  0.2483
26176W        W32626  11.927   1.019   2.007 -0.2821 -0.0309  0.0695
26177W        W32627  13.086   1.616  19.583 -0.3207  0.1596  0.1353
26178W        W32628  18.937   3.566  30.371 -0.3256 -0.3105  0.0892
26179W        W32629  15.688   5.475  20.730 -0.1161 -0.1713  0.2166
26180W        W32630  11.965   6.203   8.258 -0.1102  0.1252  0.0539
26181W        W32631  14.354   3.319  31.257 -0.0368 -0.2843 -0.0356
26182W        W32632  11.190   0.437  40.173 -0.1155 -0.2484  0.0850
26183W        W32633  19.978   1.379  35.007 -0.1609  0.1664 -0.1954
26184W        W32634   8.697   6.596  33.855 -0.1261 -0.2453 -0.1351
26185W        W32635  16.722   3.488  33.286 -0.0162  0.0454 -0.1795
26186W        W32636  17.608   3.298   6.808  0.0200 -0.1701  0.1726
26187W        W32637  10.319   2.561  10.319 -0.4462  0.0993 -0.0017
26188W        W32638   8.182   3.511  29.043  0.1841  0.0956  0.0838
26189W        W32639   5.313   3.288  28.107 -0.0991 -0.1656  0.1643
26190W        W32640   2.176   1.310  40.693  0.0034 -0.0340  0.3375
26191W        W32641   6.726   4.247   6.764 -0.3383 -0.2054 -0.0425
26192W        W32642  15.867   3.005  37.599 -0.2033 -0.1754  0.1747
26193W        W32643   4.260   1.071   9.164 -0.3888 -0.0080 -0.1388
26194W        W32644   9.331   0.691  13.087  0.2095  0.3423  0.0202
26195W        W32645  13.849   5.882   4.512  0.0034 -0.3335 -0.1208
26196W        W32646  15.431   0.365   7.267 -0.0455  0.3157 -0.0703
26197W        W32647   6.905   2.539  41.142  0.0206  0.0151  0.0712
26198W        W32648  20.080   1.322   2.560  0.1758  0.0640  0.1753
26199W        W32649  18.913   3.746   0.627  0.0507 -0.2923  0.0588
26200W        W32650  14.861   5.864   3.321 -0.1834  0.2763  0.1512
26201W        W32651  11.141   5.538  29.591 -0.2106  0.1896  0.1296
26202W        W32652  20.117   3.128  15.480 -0.1352 -0.0945 -0.3047
26203W        W32653   3.930   4.864  24.581  0.1916  0.0931 -0.2095
26204W        W32654  20.450   5.621  41.842 -0.1557 -0.3406  0.2057
26205W        W32655  13.585   5.070  29.660  0.3007 -0.0706 -0.2304
26206W        W32656  12.764   0.683  29.143 -0.2494  0.1241  0.2813
26207W        W32657   9.103   1.759  24.356 -0.1187 -0.2409  0.2365
26208W        W32658  14.231   4.137  38.025 -0.1359  0.0794  0.3485
26209W        W32659   6.539   0.148  13.827  0.0032  0.2439  0.0073
26210W        W32660  11.167   4.429  42.880  0.0317  0.0455 -0.2098
26211W        W32661  10.263   1.215   5.469 -0.2076  0.0899  0.1432
26212W        W32662   9.796   0.646   5.771 -0.0054  0.0319 -0.2897
26213W        W32663   4.144   6.324  39.320  0.4600 -0.0670  0.1404
26214W        W32664   7.085   4.044  27.839 -0.0996 -0.1627  0.1815
26215W        W32665   0.495   1.948  45.001  0.2008  0.1102 -0.1028
26216W        W32666   3.935   2.332   3.888 -0.1229  0.2228 -0.1436
26217W        W32667   4.358   0.081  12.231 -0.0525  0.5025  0.2973
26218W        W32668  14.964   5.618  30.009 -0.0432 -0.1766 -0.3214
26219W        W32669  11.002   4.444  13.065  0.0830 -0.2281 -0.0641
26220W        W32670  19.052   5.154  32.373  0.2096  0.1094 -0.0614
26221W        W32671  13.994   0.236   4.249  0.1764 -0.1560 -0.1311
26222W        W32672  11.400   3.591  15.777  0.3717  0.0618 -0.2287
26223W        W32673   1.799   4.069  30.176 -0.1431  0.1517  0.0217
26224W        W32674  14.269   3.928  30.585  0.0025 -0.2331 -0.0523
26225W        W32675  14.298   6.172  33.899  0.1161  0.0372 -0.2412
26226W        W32676  19.377   5.622  29.184 -0.0807  0.2337 -0.4271
26227W        W32677   6.118   3.753  34.189 -0.0340 -0.2656 -0.3647
26228W        W32678  11.249   5.482   9.904  0.0433  0.0456  0.1015
26229W        W32679   1.904   1.053   3.400  0.1612  0.1607  0.0996
26230W        W32680   5.520   5.933  32.510  0.0997  0.3369  0.1963
26231W        W32681  16.756   1.279  15.676 -0.0278  0.0767  0.0266
26232W        W32682   3.545   5.093   8.940 -0.0476  0.0254  0.2949
26233W        W32683  10.025   5.944  38.869 -0.0483  0.0333  0.0109
26234W        W32684  10.079   0.562  11.036  0.0670 -0.3324 -0.0988
26235W        W32685  15.757   1.878   9.614 -0.2419  0.0116  0.3731
26236W        W32686  20.647   4.009  43.301  0.1997 -0.0045 -0.1550
26237W        W32687  18.264   5.723  33.370 -0.2132 -0.3607  0.5499
26238W        W32688  12.114   5.138  17.444  0.1410 -0.1294 -0.2004
26239W        W32689   2.742   1.892  41.397  0.2396  0.3876  0.1912
26240W        W32690  10.924   5.965   0.462 -0.0013 -0.0680 -0.0114
26241W        W32691  13.320   5.254  43.396  0.0281  0.0575 -0.1289
26242W        W32692   1.722   2.748  12.999 -0.3377 -0.1934  0.0068
26243W        W32693   4.253   6.143   0.925  0.3144  0.0096  0.1632
26244W        W32694  18.794   4.767  34.858  0.1578  0.0432 -0.0983
26245W        W32695   1.108   6.450   0.701  0.1848 -0.1211 -0.1054
26246W        W32696   1.115   5.970  40.007 -0.2548  0.2610  0.0084
26247W        W32697   5.000   1.472  32.849 -0.2813  0.0670 -0.1303
26248W        W32698   0.369   0.734  14.721 -0.1099 -0.1263  0.1644
26249W        W32699   7.060   3.904  11.081  0.3839 -0.0694 -0.2483
26250W        W32700  16.769   3.316  16.418  0.0564 -0.2522 -0.1516
26251W        W32701   7.013   2.127  26.533 -0.1961 -0.1669 -0.1618
26252W        W32702   4.329   1.842  28.948 -0.1957  0.2963 -0.0844
26253W        W32703  18.327   2.833   3.326 -0.0770  0.0088  0.1651
26254W        W32704   7.786   0.108  36.318  0.0691  0.3984  0.1153
26255W        W32705   3.291   4.231  31.898  0.0663  0.4019 -0.1231
26256W        W32706   3.433   5.040  41.238  0.2197  0.1291  0.1152
26257W        W32707  11.675   1.346  29.118 -0.1533  0.0420  0.2985
26258W        W32708   6.552   5.886  11.008 -0.1108  0.2490  0.0929
26259W        W32709   0.216   4.494  41.892  0.0775  0.1897  0.0127
26260W        W32710  16.854   1.513  12.756 -0.0250 -0.0732  0.2170
26261W        W32711  14.406   6.319  33.049 -0.2727  0.0910 -0.2909
26262W        W32712  20.099   3.479  34.269 -0.2157 -0.2013  0.2253
26263W        W32713   6.851   6.602  38.523 -0.1111 -0.1539  0.0399
26264W        W32714  16.345   1.907  10.008  0.1796  0.1167 -0.0865
26265W        W32715   6.893   4.003  10.352  0.0953 -0.1336  0.1599
26266W        W32716   9.460   0.268  36.929 -0.1243 -0.0817  0.0778
26267W        W32717  19.376   2.352  35.642 -0.1478 -0.0169 -0.0498
26268W        W32718  19.356   5.066  21.320  0.1136  0.1962  0.0827
26269W        W32719   5.292   1.303   3.986 -0.2485 -0.1092 -0.0986
26270W        W32720  19.750   3.053  32.272  0.2627 -0.5608  0.2270
26271W        W32721  14.883   4.547  29.261 -0.3160  0.1824  0.0834
26272W        W32722   1.445   4.009  30.862 -0.1342  0.1670 -0.0069
26273W        W32723   1.131   3.619  41.415  0.0811 -0.1735  0.4418
26274W        W32724  17.344   5.329  29.653  0.0416  0.1609  0.1895
26275W        W32725  18.166   4.891   2.605 -0.2197 -0.1314  0.1454
26276W        W32726   5.265   6.429  30.842 -0.0248 -0.1353  0.4178
26277W        W32727  18.716   5.049  41.132 -0.1164  0.0530  0.1624
26278W        W32728   0.644   2.154  37.234 -0.1570 -0.2366  0.2578
26279W        W32729  21.027   5.697  17.075 -0.1179 -0.0496  0.1640
26280W        W32730  18.784   2.912   8.927  0.2226 -0.1496 -0.1291
26281W        W32731   7.246   2.900  40.798 -0.0807  0.1800  0.2602
26282W        W32732   5.359   0.790  26.452 -0.1264  0.0723  0.1737
26283W        W32733  18.681   3.079   1.978  0.3450  0.0291  0.1935
26284W        W32734   3.076   6.188  36.383 -0.1265  0.1117 -0.2031
26285W        W32735   4.195   4.515  27.829  0.1691  0.0038 -0.0199
26286W        W32736  18.000   0.639  22.194 -0.0465 -0.0602 -0.0054
26287W        W32737  12.209   1.397  42.445 -0.2251 -0.0946 -0.2867
26288W        W32738  18.621   2.271  37.296  0.0021 -0.2916 -0.0927
26289W        W32739  16.934   0.942  18.352  0.1084  0.0659 -0.3992
26290W        W32740   8.290   1.357  29.864  0.1393 -0.0452 -0.2762
26291W        W32741  15.642   3.607  16.236  0.0864  0.0697  0.0536
26292W        W32742   0.913   2.231   2.630 -0.3883  0.2223 -0.1190
26293W        W32743  16.677   5.654  32.909  0.1325  0.1311  0.2720
26294W        W32744   3.773   5.192  15.093 -0.1040 -0.2241  0.1667
26295W        W32745  20.460   2.036  18.304 -0.1356  0.2744  0.1160
26296W        W32746  12.433   4.649  15.614 -0.0177  0.1663  0.0514
26297W        W32747   6.845   4.965   1.651 -0.0114 -0.0207 -0.1318
26298W        W32748  20.362   5.098  14.992  0.4279 -0.3016 -0.0558
26299W        W32749  10.820   0.929  39.238  0.1154 -0.0076  0.2648
26300W        W32750  10.261   4.012  36.345 -0.2215  0.0802 -0.1645
26301W        W32751   9.579   0.381   3.704  0.0278 -0.1929 -0.0227
26302W        W32752  16.571   0.565   5.021 -0.1600  0.1539 -0.1356
26303W        W32753  16.250   5.311  22.596 -0.0904  0.2299 -0.0916
26304W        W32754   0.956   3.796  36.322  0.1919 -0.1909 -0.1491
26305W        W32755  17.869   6.174  37.768  0.0932 -0.1118 -0.0399
26306W        W32756   2.255   5.358  44.815 -0.1921 -0.0190 -0.1583
26307W        W32757   4.399   4.902   0.956  0.2751 -0.2646  0.0738
26308W        W32758  16.343   0.339  15.999 -0.0579  0.1469 -0.1953
26309W        W32759   6.634   3.189   4.847  0.1879 -0.0968  0.1086
26310W        W32760  20.908   2.860  13.205  0.0852  0.2090 -0.1000
26311W        W32761  18.645   4.791  12.639  0.1911  0.0540  0.0016
26312W        W32762  14.232   1.641  30.369 -0.0804 -0.2731 -0.1097
26313W        W32763   0.293   6.524   1.128  0.0501  0.1666 -0.2711
26314W        W32764   0.401   4.070   7.334  0.1259  0.1060  0.1742
26315W        W32765   8.899   2.190  11.604  0.2708 -0.2026 -0.0528
26316W        W32766  19.622   2.932  37.244  0.1338 -0.0823 -0.0924
26317W        W32767  19.099   0.686  16.959 -0.0247 -0.0642 -0.0517
26318W        W32768  16.649   3.370  35.783 -0.1060  0.1430  0.0958
26319W        W32769   0.089   0.147   7.984 -0.0383  0.1763  0.2995
26320W        W32770  17.935   5.680   8.523  0.1544  0.0404 -0.3023
26321W        W32771   2.052   1.459  44.975  0.0369 -0.2008  0.2725
26322W        W32772  13.861   6.287  18.499 -0.0467  0.0251  0.2447
26323W        W32773   3.166   6.599   5.532  0.0970 -0.0022  0.0495
26324W        W32774   7.557   3.127  11.122  0.0111 -0.2991  0.4001
26325W        W32775   5.845   2.849  21.402  0.1588  0.3184  0.0883
26326W        W32776  19.214   1.506  20.628 -0.1105  0.1957  0.0471
26327W        W32777   5.913   1.118  38.988  0.1696 -0.1999  0.2700
26328W        W32778  12.187   1.527  35.927  0.4565  0.0062 -0.1201
26329W        W32779  14.157   1.226  18.658 -0.1015  0.0764  0.0209
26330W        W32780  16.039   5.356  19.254  0.1626  0.0098 -0.0780
26331W        W32781  10.962   1.945  16.544  0.0442  0.1447 -0.0146
26332W        W32782   6.553   1.486  26.675 -0.1437  0.0245  0.2698
26333W        W32783   3.176   5.409  12.427 -0.2356  0.0723  0.1206
26334W        W32784   9.021   1.855   4.071  0.0169  0.3159  0.1260
26335W        W32785  12.454   3.734  38.488 -0.0028 -0.0622 -0.0435
26336W        W32786   0.661   6.198  34.429 -0.4056  0.1190 -0.2462
26337W        W32787   7.246   0.325  11.637 -0.0341  0.1227  0.1920
26338W        W32788   9.855   1.396  29.604 -0.1439  0.2105  0.1688
26339W        W32789   1.972   5.814  16.404  0.1665 -0.0480 -0.1797
26340W        W32790   6.307   2.168   7.621 -0.0529 -0.1519  0.0320
26341W        W32791  10.952   5.815  30.542  0.2111 -0.1739  0.1928
26342W        W32792   0.154   1.252  33.608 -0.3147  0.2000 -0.1291
26343W        W32793  11.267   5.976  10.051 -0.3005 -0.1093 -0.2202
26344W        W32794   0.898   4.779  41.106 -0.0431  0.0490  0.1131
26345W        W32795  10.931   2.214   9.679  0.0671  0.1084  0.6163
26346W        W32796   4.046   0.901  39.822 -0.1865  0.0171  0.1373
26347W        W32797  17.384   0.670  28.987 -0.0404 -0.1578 -0.0624
26348W        W32798   5.953   4.984  34.870 -0.0017  0.0357  0.2665
26349W        W32799   6.580   5.375   1.506 -0.3092 -0.2307 -0.2161
26350W        W32800  16.137   4.572  31.045  0.1632  0.3365  0.1097
26351W        W32801  10.216   0.069  31.394  0.2003  0.0536  0.1591
26352W        W32802   9.100   2.657  40.259 -0.0246  0.3488 -0.4635
26353W        W32803   3.902   4.919  22.170 -0.0195  0.1041 -0.0371
26354W        W32804  14.788   3.882  10.409  0.0124 -0.2963  0.1368
26355W        W32805   1.247   3.193  43.593 -0.3324 -0.1428  0.0736
26356W        W32806  11.086   5.560   8.419 -0.0171 -0.1458  0.0228
26357W        W32807  18.365   1.560  43.169  0.0646 -0.1925  0.0321
26358W        W32808   8.126   2.040  28.988  0.3744 -0.0494  0.1544
26359W        W32809  19.771   6.181   8.801 -0.1454 -0.3011  0.0085
26360W        W32810  14.039   0.854  37.653  0.1045  0.0561 -0.2274
26361W        W32811  17.916   4.571  17.693 -0.1874  0.2143 -0.0716
26362W        W32812   9.570   2.694  30.520 -0.2666  0.0265  0.1406
26363W        W32813   3.666   0.247  43.996  0.1173 -0.4326  0.1525
26364W        W32814   9.223   0.842  43.743 -0.0461  0.3483  0.2669
26365W        W32815   6.661   4.954  34.261 -0.1193  0.0693  0.1126
26366W        W32816  15.678   1.184  15.781  0.2134  0.2736  0.2923
26367W        W32817  15.556   4.864  12.536  0.0962 -0.0801 -0.1497
26368W        W32818   9.244   0.349  28.321 -0.0697 -0.4217 -0.2094
26369W        W32819   9.251   1.638   3.607  0.1000  0.0398  0.0421
26370W        W32820  13.690   0.402   8.418  0.0101 -0.2146 -0.0145
26371W        W32821   8.621   4.413  31.491  0.1662 -0.0896 -0.0069
26372W        W32822  14.818   3.886  19.115  0.2061  0.0132 -0.1792
26373W        W32823  19.017   5.048  33.344  0.0084 -0.0767  0.0277
26374W        W32824  14.403   1.919  37.005 -0.1022  0.1018 -0.3004
26375W        W32825  12.348   4.380  29.581  0.3311 -0.1113  0.1748
26376W        W32826   1.356   2.225  43.259  0.2712  0.0713 -0.1126
26377W        W32827   1.834   1.832   6.799  0.1628  0.2680  0.1924
26378W        W32828  19.909   2.596  17.379  0.2251 -0.0058  0.0248
26379W        W32829  12.998   5.290   7.976  0.0426  0.0308  0.1434
26380W        W32830  17.123   4.464  43.281  0.0688 -0.0515 -0.1178
26381W        W32831   5.671   2.628  36.658  0.1719 -0.1269  0.0197
26382W        W32832  12.806   5.452  29.481  0.1546  0.3137 -0.1980
26383W        W32833   0.301   3.440   1.103 -0.2505 -0.0875 -0.1698
26384W        W32834  20.747   0.654  10.959 -0.1020 -0.1993  0.0081
26385W        W32835   6.344   0.334   8.949  0.0854  0.0000  0.1679
26386W        W32836   2.186   4.137  31.552  0.0159 -0.3032 -0.2542
26387W        W32837   7.677   0.644  28.832  0.1806 -0.3737 -0.0846
26388W        W32838   6.665   5.563  28.638 -0.0779 -0.1453  0.0795
26389W        W32839   6.181   1.955  44.655  0.3323 -0.2723  0.0852
26390W        W32840   4.392   5.060  21.838  0.1678  0.1211  0.3828
26391W        W32841   5.919   3.575  12.525  0.1787  0.0578  0.0574
26392W        W32842  11.981   1.552  11.915  0.0113 -0.0302 -0.1137
26393W        W32843  11.901   3.900  42.331  0.0959  0.0090  0.0328
26394W        W32844   7.696   4.207   0.658  0.0293 -0.2712 -0.0894
26395W        W32845  11.591   0.726  39.705 -0.0965 -0.0154  0.0188
26396W        W32846  11.167   3.618   7.328 -0.1701 -0.4025  0.2784
26397W        W32847   7.382   6.278  11.440 -0.1678 -0.0512 -0.2070
26398W        W32848  19.219   3.396   7.724  0.3234 -0.0093  0.3198
26399W        W32849  17.088   5.758  10.674 -0.2923  0.1904 -0.0450
26400W        W32850   8.138   0.310  26.642 -0.1953 -0.1552  0.0978
26401W        W32851   2.166   2.514  10.877  0.2380  0.1041  0.1858
26402W        W32852  13.581   2.335   5.226 -0.0224 -0.2289 -0.0167
26403W        W32853   3.845   6.190  33.271  0.0597 -0.0199  0.2640
26404W        W32854   4.822   5.914  27.961 -0.0234 -0.1554  0.0899
26405W        W32855  10.647   1.174  30.920 -0.1469 -0.1584  0.2735
26406W        W32856  15.151   6.514  19.283  0.1737  0.1049 -0.3059
26407W        W32857  11.666   0.344   0.535  0.1731  0.1799  0.1784
26408W        W32858  19.539   5.266  34.470 -0.0172  0.0952  0.0544
26409W        W32859  15.262   1.854  42.108  0.0277 -0.0130  0.0132
26410W        W32860   5.763   4.220   5.084 -0.0001  0.1876  0.0446
26411W        W32861  15.272   6.043  21.483 -0.2063 -0.0814 -0.0586
26412W        W32862   6.734   1.814  23.663 -0.0177 -0.0216 -0.1043
26413W        W32863   9.360   0.551  25.579 -0.0918 -0.1271 -0.1529
26414W        W32864  19.479   3.381  41.935 -0.0504 -0.0701 -0.0193
26415W        W32865   5.601   1.869  39.729 -0.2661  0.0646  0.1620
26416W        W32866   6.255   5.270  12.266  0.1610  0.1511 -0.1063
26417W        W32867  12.374   3.902  29.082 -0.0652  0.0289  0.1014
26418W        W32868  17.516   0.023  10.753  0.0431  0.0888  0.1427
26419W        W32869  11.427   0.775  35.589 -0.1530  0.0584 -0.0601
26420W        W32870  17.534   4.578  35.559 -0.1390 -0.1473 -0.2702
26421W        W32871  15.900   1.811  16.580  0.0957  0.0141  0.1132
26422W        W32872   3.760   1.899   2.174 -0.1905  0.0679 -0.1861
26423W        W32873   2.175   4.856  26.272  0.1773 -0.1114 -0.0762
26424W        W32874  21.021   3.891  38.854 -0.3371 -0.1520 -0.0827
26425W        W32875   8.290   3.852   5.392 -0.0163 -0.2486  0.0650
26426W        W32876  10.568   5.280  15.166 -0.0146  0.1078  0.1754
26427W        W32877   0.778   0.838  34.985 -0.1252  0.1588  0.1119
26428W        W32878   6.516   6.521  29.211 -0.0719 -0.2486 -0.1629
26429W        W32879   1.457   5.043  25.764  0.0394 -0.1086  0.2961
26430W        W32880  15.498   1.996   7.690  0.2141 -0.0871 -0.1969
26431W        W32881   5.179   3.470  24.340 -0.2563  0.0932  0.0493
26432W        W32882   1.164   3.803  37.811 -0.5459  0.4088 -0.2141
26433W        W32883  11.607   1.985  38.887  0.0847 -0.0407  0.2293
26434W        W32884  14.009   3.692   5.028  0.4511 -0.1358  0.3239
26435W        W32885  17.421   2.796  34.469  0.0411 -0.2715  0.1736
26436W        W32886   0.957   4.272  31.666 -0.2408 -0.0228  0.0541
26437W        W32887  16.434   6.028  35.075  0.1061  0.0718 -0.0270
26438W        W32888   4.152   2.748  13.058  0.2106  0.2191  0.0068
26439W        W32889  18.017   4.455  10.184  0.2199 -0.3410  0.0526
26440W        W32890  10.979   5.734  17.980  0.0641  0.0799  0.0713
26441W        W32891  10.470   3.885  29.621  0.5329 -0.2664 -0.0930
26442W        W32892   3.518   5.304  28.024  0.2416  0.2105 -0.0538
26443W        W32893   6.308   5.919  32.982 -0.1122 -0.1541  0.1527
26444W        W32894  14.658   1.325  14.930  0.0990  0.1430 -0.0636
26445W        W32895  21.124   0.185   5.591  0.3552 -0.1545 -0.1597
26446W        W32896  19.855   2.979  44.207 -0.2809 -0.1578 -0.3202
26447W        W32897   7.121   2.913  30.663  0.0727 -0.0275  0.0012
26448W        W32898  10.441   6.493  10.643  0.0070  0.0548  0.0698
26449W        W32899   6.660   2.529  30.024 -0.2619  0.2690 -0.1962
26450W        W32900  17.690   0.473  34.433  0.5173 -0.0731 -0.0626
26451W        W32901  20.948   3.504  15.451 -0.2486  0.0978  0.3288
26452W        W32902   8.241   3.575  39.934 -0.2863  0.0164 -0.0313
26453W        W32903   2.007   3.424   2.646  0.3234  0.1200 -0.0893
26454W        W32904   6.809   4.432  33.373  0.1229 -0.1178 -0.2152
26455W        W32905   7.612   4.371  10.521  0.1764 -0.2211 -0.1452
26456W        W32906   9.684   0.710   1.959 -0.1510  0.1659  0.1182
26457W        W32907  17.844   6.208  10.741  0.0135  0.1117  0.1282
26458W        W32908   6.022   0.723  15.077  0.0912  0.2683 -0.1618
26459W        W32909  14.161   6.405  13.253 -0.2009 -0.0896 -0.0994
26460W        W32910   2.425   4.492   3.072  0.0600  0.0956  0.1447
26461W        W32911   7.286   3.878  27.086 -0.1446 -0.0165 -0.1173
26462W        W32912  12.285   3.111   5.486 -0.4923 -0.3550  0.3906
26463W        W32913   3.228   5.558   6.610  0.1921 -0.0825  0.0796
26464W        W32914  12.212   3.486   5.885  0.2860  0.1432  0.0912
26465W        W32915  16.984   2.982  18.939  0.0394  0.1119  0.1233
26466W        W32916   1.233   3.987   8.305  0.2269  0.2582  0.2645
26467W        W32917  14.807   2.380  17.052 -0.0269 -0.1818  0.1286
26468W        W32918  15.775   5.389   9.137  0.0705 -0.0433  0.0206
26469W        W32919   2.867   2.499   4.310 -0.0195 -0.0593 -0.1126
26470W        W32920   1.224   4.334   6.619 -0.0441 -0.1062 -0.3043
26471W        W32921   8.846   3.754  34.208 -0.3786 -0.0415  0.2045
26472W        W32922   4.779   3.013  13.168  0.1862 -0.1897 -0.0303
26473W        W32923   1.611   2.747  42.533 -0.0036  0.2434 -0.0842
26474W        W32924  15.869   0.684  14.691  0.2217 -0.3206  0.2896
26475W        W32925   0.668   5.839  12.927 -0.3845  0.1030 -0.2073
26476W        W32926   6.616   1.092  26.961  0.1311  0.2331 -0.1315
26477W        W32927  19.944   4.243  18.712 -0.1504 -0.1193  0.1553
26478W        W32928   3.600   1.757  28.048  0.0617  0.1141 -0.2356
26479W        W32929  17.489   3.154  44.290  0.0484 -0.0308 -0.1336
26480W        W32930   6.944   2.854  13.984  0.0471 -0.0025 -0.0976
26481W        W32931   0.782   2.707   1.158 -0.2562  0.0778  0.0966
26482W        W32932   5.244   0.157  25.333  0.2763 -0.1628 -0.1485
26483W        W32933  10.563   3.034  40.783 -0.0523 -0.0557  0.0779
26484W        W32934   4.423   2.417  28.645  0.0458 -0.1394 -0.3470
26485W        W32935   7.066   3.532  16.353  0.2911  0.0743  0.2797
26486W        W32936   7.218   1.956  12.073  0.0793  0.2758  0.0948
26487W        W32937  19.034   0.878  43.239 -0.2040  0.2494 -0.0661
26488W        W32938  16.162   6.193  13.658 -0.3433  0.0085 -0.4115
26489W        W32939  15.320   5.835  12.297  0.2750  0.2385  0.0165
26490W        W32940   4.503   0.337  34.624 -0.0496 -0.0090  0.0515
26491W        W32941   2.492   2.542  23.773 -0.3534  0.2882 -0.0900
26492W        W32942  19.160   4.391   4.723  0.1334 -0.2977 -0.1012
26493W        W32943   0.747   4.903  39.027  0.2402  0.0544 -0.2984
26494W        W32944  10.560   2.193  43.772 -0.2248 -0.0888 -0.1572
26495W        W32945   8.351   0.375  14.042  0.2555  0.0486  0.5008
26496W        W32946  12.978   0.435  43.066 -0.1574  0.1793  0.1063
26497W        W32947  17.079   1.924  37.964 -0.1280  0.1191  0.1823
26498W        W32948   3.601   0.697  25.218  0.0504  0.0967 -0.1275
26499W        W32949   2.072   6.542  32.239 -0.1166  0.0595 -0.1767
26500W        W32950   3.365   2.978  31.982  0.2215  0.1676  0.1130
26501W        W32951   2.270   3.095  30.846  0.1895  0.0201 -0.1045
26502W        W32952  14.772   1.330  35.778  0.0363 -0.2169  0.1521
26503W        W32953  18.036   3.901  44.244  0.2657 -0.1008 -0.3395
26504W        W32954  18.364   2.220  30.153 -0.1394  0.2516 -0.1972
26505W        W32955  15.233   2.935   5.699  0.1678 -0.0264  0.1768
26506W        W32956   3.258   5.599  44.566  0.2979 -0.0426  0.0511
26507W        W32957   9.766   3.949  34.679  0.2946  0.3442  0.2358
26508W        W32958   9.841   2.211  25.268  0.0830  0.2417  0.0944
26509W        W32959   3.972   0.943  43.514 -0.0696  0.2533 -0.1140
26510W        W32960  12.311   4.986   4.075 -0.3227  0.0256 -0.1135
26511W        W32961   1.930   2.935  34.529  0.1901 -0.0208 -0.0484
26512W        W32962  19.161   4.919   6.944 -0.0274 -0.2442  0.1069
26513W        W32963   2.381   2.209  25.763  0.3084 -0.0624  0.0025
26514W        W32964  18.725   3.682  11.513 -0.0928  0.1285  0.3112
26515W        W32965  17.695   6.262  12.371 -0.2198  0.1281 -0.1065
26516W        W32966  14.778   6.210  12.725  0.0411 -0.1098  0.0057
26517W        W32967  21.140   4.764  12.851  0.4216 -0.1443 -0.1509
26518W        W32968  19.284   5.078  34.894  0.1808 -0.1226 -0.0567
26519W        W32969   4.633   0.666  42.335  0.2237  0.2687 -0.1621
26520W        W32970   8.205   0.916  37.466 -0.2162  0.0065 -0.1785
26521W        W32971  10.459   6.306   1.310 -0.2110 -0.0740  0.0304
26522W        W32972  11.735   2.522  27.300  0.2985 -0.1781  0.2513
26523W        W32973   3.163   2.651  43.764  0.0610 -0.2976  0.1796
26524W        W32974   2.111   5.207   0.981 -0.1655 -0.0599 -0.3114
26525W        W32975   4.633   1.440  38.872 -0.3525  0.2439 -0.2205
26526W        W32976  16.746   6.127  24.159  0.0903 -0.0340 -0.0515
26527W        W32977  16.087   3.940  11.612 -0.1622  0.0801  0.0516
26528W        W32978  14.038   5.612  35.844  0.0615 -0.0449 -0.0354
26529W        W32979  19.969   5.226  42.516  0.2994 -0.1118 -0.0525
26530W        W32980  12.028   5.405  10.211  0.1371  0.1845 -0.0708
26531W        W32981   4.395   0.420  14.296  0.1014 -0.0797 -0.2718
26532W        W32982  16.493   4.994  16.022  0.2356 -0.0653  0.2231
26533W        W32983   4.616   6.434  27.774  0.0099 -0.1927  0.1427
26534W        W32984   4.890   6.586   9.554 -0.0967  0.0042  0.0924
26535W        W32985   6.742   3.003  40.710 -0.3946 -0.0126  0.0322
26536W        W32986  15.132   1.318   3.472 -0.0973  0.0638  0.0628
26537W        W32987  13.571   1.972  40.438  0.1323  0.1638 -0.0699
26538W        W32988  13.942   3.312  41.531 -0.0091  0.0966  0.1055
26539W        W32989   4.180   1.148  45.035  0.1963  0.0500 -0.0428
26540W        W32990   7.398   2.524  28.898 -0.1706 -0.0618  0.1165
26541W        W32991  11.019   2.679  14.217  0.0343 -0.2237 -0.1151
26542W        W32992  18.604   5.787   4.838  0.1029 -0.0119  0.1052
26543W        W32993   1.971   0.061  44.704  0.0054  0.1197  0.0879
26544W        W32994  12.155   1.038   1.610  0.0202 -0.1205  0.1229
26545W        W32995   9.954   0.105  26.746  0.0615  0.1196  0.0022
26546W        W32996  17.121   2.422  42.101 -0.1192 -0.1274  0.0802
26547W        W32997   3.283   6.590  41.022  0.2065 -0.0695 -0.1114
26548W        W32998   1.947   5.293   1.871  0.0298 -0.1792  0.1115
26549W        W32999  11.341   1.945  44.922  0.1749  0.1021  0.0410
26550W        W33000  10.792   1.529  42.551 -0.2476 -0.2054 -0.2231
26551W        W33001  14.692   0.026  16.568  0.2066 -0.0236  0.2806
26552W        W33002   7.129   2.109  20.492  0.0428 -0.1679 -0.0058
26553W        W33003  16.689   0.622  15.112 -0.3765  0.1516  0.2033
26554W        W33004   1.670   2.875  43.420 -0.2990  0.2040  0.0484
26555W        W33005   9.631   3.488  43.524 -0.0918 -0.0730  0.0701
26556W        W33006   1.835   5.565   6.244 -0.2124  0.2475  0.2704
26557W        W33007   8.765   2.838  15.782 -0.0569  0.3936  0.1674
26558W        W33008   7.000   0.105  14.047  0.0742 -0.1771 -0.0674
26559W        W33009   7.664   6.023  30.123 -0.0365  0.0531 -0.1145
26560W        W33010  12.989   5.859  42.591 -0.1074 -0.1723  0.0634
26561W        W33011  19.216   2.442  29.735 -0.0801  0.1213  0.1665
26562W        W33012   7.084   2.931  34.571  0.0712 -0.0463 -0.2294
26563W        W33013   9.271   2.584  10.195  0.3643  0.4699  0.0349
26564W        W33014  20.700   2.645  41.601 -0.1644  0.0572 -0.0140
26565W        W33015   8.289   2.919  24.035  0.0400  0.1186  0.2340
26566W        W33016   5.744   6.101   6.994 -0.0057  0.0742  0.0784
26567W        W33017   7.210   2.781  37.154 -0.0165 -0.1174 -0.2766
26568W        W33018   9.183   4.414  13.964  0.1767  0.3025  0.1032
26569W        W33019   4.029   5.929  35.340 -0.1011  0.0613  0.2470
26570W        W33020  18.064   2.497   2.407 -0.2781 -0.1915 -0.3246
26571W        W33021  12.755   5.145  15.273 -0.1555  0.0011 -0.0950
26572W        W33022   3.703   5.282   3.057  0.1983 -0.0687 -0.4500
26573W        W33023  13.212   3.684   8.224  0.2453  0.0522 -0.1387
26574W        W33024  16.209   1.221  14.353  0.0398 -0.1547  0.0169
26575W        W33025   2.539   1.568  29.545 -0.0771 -0.0563  0.1379
26576W        W33026  12.532   6.118   2.033 -0.2804  0.5879  0.1603
26577W        W33027   7.633   3.160  35.207 -0.0301  0.0334  0.2383
26578W        W33028  12.377   0.682  28.744 -0.2394  0.0220 -0.2359
26579W        W33029  16.319   6.053   2.144  0.2766 -0.2607  0.0367
26580W        W33030  15.470   2.460  20.714  0.3024 -0.1255  0.1011
26581W        W33031   8.346   0.645  11.986 -0.2190 -0.0375 -0.1538
26582W        W33032   6.293   1.213  40.673 -0.0818  0.2652  0.0071
26583W        W33033  16.661   3.831  11.767  0.1821 -0.0138 -0.0328
26584W        W33034  16.295   2.475  13.411  0.0286  0.2645 -0.2556
26585W        W33035  15.588   4.741  43.765  0.1926  0.0793 -0.2524
26586W        W33036  17.263   3.865  38.162 -0.1436  0.0919 -0.3684
26587W        W33037  19.708   2.501  12.088  0.1206 -0.0172 -0.0453
26588W        W33038   3.755   5.072  11.065  0.1866  0.0516  0.0010
26589W        W33039   3.559   0.997  11.251 -0.1596  0.0191  0.1698
26590W        W33040  11.358   3.261  44.862  0.0685  0.1825  0.2928
26591W        W33041   2.034   4.932  15.691 -0.0391  0.0340 -0.1648
26592W        W33042  20.156   5.899  41.488 -0.1237 -0.2192 -0.3839
26593W        W33043   2.146   3.588  28.355 -0.1262 -0.1397  0.1679
26594W        W33044   5.372   2.069  26.257 -0.0508 -0.0682  0.0951
26595W        W33045  12.208   2.559  13.348 -0.0098  0.0704  0.0482
26596W        W33046   7.959   1.585  22.889  0.2620 -0.1075  0.1847
26597W        W33047   3.345   5.807  27.313  0.3313  0.1092 -0.1969
26598W        W33048   7.579   2.228  28.506 -0.2171  0.1245 -0.0731
26599W        W33049   6.937   5.555  35.039 -0.0322  0.0833  0.1108
26600W        W33050  12.493   2.342  42.697 -0.1305  0.4064  0.2266
26601W        W33051   7.117   2.863  45.021  0.1005 -0.0024 -0.0698
26602W        W33052   9.356   4.653  39.313  0.1510 -0.0119  0.1562
26603W        W33053  12.799   1.044  38.471 -0.0542  0.0161  0.2124
26604W        W33054  12.906   0.863  17.600 -0.2290  0.0950 -0.2244
26605W        W33055  10.101   2.853   5.374  0.0322 -0.0252 -0.2591
26606W        W33056  19.717   0.212   5.681  0.0273 -0.0730 -0.4879
26607W        W33057   1.957   3.840  13.913 -0.2036 -0.3115 -0.2043
26608W        W33058   3.328   0.274  30.827  0.0083  0.1336  0.1313
26609W        W33059  20.543   4.072  17.345  0.0856  0.4040 -0.0311
26610W        W33060   1.576   0.130  39.551  0.0898  0.1239 -0.0387
26611W        W33061   1.060   5.755  16.947  0.2428  0.2779  0.0395
26612W        W33062   1.113   1.261  39.923 -0.1468 -0.0284  0.2109
26613W        W33063  12.048   0.385  29.486 -0.0847 -0.1222  0.0268
26614W        W33064  10.740   3.051  32.124  0.1035  0.0024  0.1636
26615W        W33065   2.827   3.843   7.695 -0.3116 -0.0853  0.1506
26616W        W33066  13.778   0.270   9.759 -0.2765  0.1491 -0.0410
26617W        W33067  16.984   4.127  17.355 -0.2260  0.0176 -0.1436
26618W        W33068   7.013   5.296  24.010  0.0203  0.0099  0.2738
26619W        W33069  17.608   0.558   1.543 -0.1771 -0.1657 -0.1026
26620W        W33070  17.458   1.137  36.969  0.2468 -0.2215  0.1133
26621W        W33071  10.283   2.927  43.275 -0.0125 -0.1543 -0.0993
26622W        W33072  11.704   5.629  28.023 -0.0463  0.2512 -0.1200
26623W        W33073  13.392   2.850  32.345 -0.0225 -0.1287 -0.1229
26624W        W33074   4.948   6.137  42.851  0.2843  0.0562  0.0421
26625W        W33075  20.204   0.408  18.696  0.0847  0.0311 -0.0058
26626W        W33076  16.947   0.675  19.167 -0.2001 -0.1353  0.3657
26627W        W33077  10.475   4.501  35.182 -0.0146 -0.1476  0.1031
26628W        W33078   2.961   1.558  12.320 -0.0330 -0.2858 -0.0009
26629W        W33079   2.361   1.086   6.680 -0.0912  0.0345 -0.1532
26630W        W33080   3.863   5.299  38.270 -0.0235 -0.2916  0.1401
26631W        W33081  19.681   3.523  38.589 -0.0933  0.2536  0.0273
26632W        W33082  13.450   2.784   4.853 -0.1304 -0.2470 -0.1036
26633W        W33083  15.199   5.762  36.352  0.0444  0.1562  0.0826
26634W        W33084   0.335   0.760   6.697 -0.2003 -0.1360  0.2302
26635W        W33085   4.632   4.057  25.022  0.0562 -0.2638  0.0270
26636W        W33086  18.913   3.810  16.401 -0.1587 -0.0190 -0.0929
26637W        W33087   0.769   1.143   2.291 -0.2625 -0.0489 -0.0189
26638W        W33088  16.613   0.800  13.441 -0.1409  0.1663 -0.0975
26639W        W33089   4.326   4.807  37.637 -0.3199 -0.0925 -0.1212
26640W        W33090  19.071   3.893  29.517  0.0296 -0.1218 -0.1254
26641W        W33091   7.028   3.559  14.814  0.0997 -0.0890  0.2359
26642W        W33092  12.635   3.518  42.034 -0.0797 -0.1388  0.3356
26643W        W33093   7.168   0.589  12.781  0.1817 -0.1183 -0.2486
26644W        W33094  21.019   2.451  36.007 -0.1654 -0.3238 -0.3957
26645W        W33095   4.805   6.572   8.157  0.1710  0.0763  0.1378
26646W        W33096  14.653   5.151  10.351  0.0237 -0.0013  0.1601
26647W        W33097  20.636   5.245  16.052  0.2753 -0.0557  0.1819
26648W        W33098   9.996   5.451  40.232 -0.0511 -0.4139 -0.0251
26649W        W33099  11.261   0.806   1.336 -0.0985 -0.0603 -0.0520
26650W        W33100  15.036   5.464  41.993 -0.1213  0.0516 -0.2008
26651W        W33101   1.389   2.147  13.503 -0.3769 -0.2148 -0.2045
26652W        W33102  15.468   4.194  10.864  0.1294 -0.1602 -0.4228
26653W        W33103   1.298   2.332   4.122  0.0997 -0.1231 -0.2051
26654W        W33104   1.272   2.893  30.765 -0.2826  0.0547  0.1101
26655W        W33105  15.937   0.350   6.424  0.0257  0.1355 -0.0297
26656W        W33106  19.378   0.871  12.025  0.2752 -0.0920 -0.1380
26657W        W33107  11.843   3.718  14.090 -0.1736  0.2315  0.1244
26658W        W33108  10.425   0.541  38.356 -0.1590 -0.0485  0.2533
26659W        W33109  17.714   3.929   7.941  0.0673 -0.1905 -0.0576
26660W        W33110   5.886   6.461  15.272  0.1857  0.0332  0.0396
26661W        W33111  10.236   1.115  28.290 -0.1945 -0.0881 -0.5778
26662W        W33112   1.410   4.771  42.427  0.3269  0.2750  0.1814
26663W        W33113   3.541   0.098   2.976 -0.0071 -0.0233  0.2456
26664W        W33114  12.457   0.853  15.767 -0.0588  0.3925 -0.0757
26665W        W33115   7.671   1.726  26.572 -0.1867  0.4185 -0.1336
26666W        W33116   8.004   3.529  12.381  0.1215 -0.3408  0.3994
26667W        W33117  14.653   3.859   3.476 -0.1729  0.0728  0.1874
26668W        W33118  18.621   2.940   6.385  0.1140 -0.0010 -0.1021
26669W        W33119  15.439   3.470  21.694 -0.1173  0.2441 -0.0222
26670W        W33120  20.138   2.246  35.947 -0.4133  0.0028 -0.2105
26671W        W33121  18.367   1.725   5.276  0.0536  0.3867  0.1673
26672W        W33122   7.887   1.921  10.395 -0.2751  0.0855 -0.0682
26673W        W33123   2.555   4.570  38.753 -0.0902 -0.1284  0.2229
26674W        W33124   5.155   5.230  24.217  0.1346  0.0930 -0.0225
26675W        W33125  13.153   5.297  28.412  0.0253  0.1862  0.0879
26676W        W33126  14.978   1.943  40.627  0.3285  0.0198  0.2028
26677W        W33127  11.977   6.552  37.692  0.2619  0.2844  0.3094
26678W        W33128  14.497   5.117  41.686 -0.2442 -0.2328  0.0776
26679W        W33129  14.775   3.565   3.916  0.2150 -0.4352 -0.1241
26680W        W33130   0.531   3.191  29.418 -0.1599  0.0292  0.0817
26681W        W33131   6.167   3.755   5.930  0.3505  0.0950  0.2718
26682W        W33132  19.193   4.666  19.680 -0.4592  0.0506 -0.0470
26683W        W33133  11.269   6.578  33.294 -0.2335  0.0336 -0.1470
26684W        W33134   2.978   4.029  36.117  0.1765  0.1276 -0.2126
26685W        W33135   5.461   1.607  35.279 -0.1302  0.1177  0.1645
26686W        W33136   5.557   1.501   8.669 -0.1321 -0.1688  0.3097
26687W        W33137  21.040   6.599  18.709  0.2039 -0.4789  0.0187
26688W        W33138  19.517   5.154   0.714 -0.1697 -0.1963  0.0522
26689W        W33139   4.781   3.034  32.639  0.0743 -0.0680 -0.1009
26690W        W33140  10.815   4.400   5.498 -0.1050 -0.1744 -0.2292
26691W        W33141   2.892   2.033  31.237 -0.1306  0.2114  0.3299
26692W        W33142   6.924   5.402   5.705  0.0790  0.2292 -0.0063
26693W        W33143   2.358   5.244  40.314  0.2361 -0.1833  0.1025
26694W        W33144   1.366   0.728  15.574 -0.0471 -0.0353  0.0551
26695W        W33145  12.092   3.449  37.188  0.0921  0.0895 -0.0486
26696W        W33146   6.417   2.293  27.821 -0.0134  0.1808 -0.2261
26697W        W33147  13.746   5.891  45.098 -0.2409 -0.1981  0.0103
26698W        W33148   1.812   1.598  37.060  0.1321 -0.0979 -0.3299
26699W        W33149  10.554   0.803  17.712  0.1756 -0.1204 -0.1140
26700W        W33150   2.617   3.413  25.394  0.2964  0.0641  0.2086
26701W        W33151   1.058   1.415   7.195 -0.2047  0.0733  0.0472
26702W        W33152  16.147   4.344  15.737 -0.0672  0.1739 -0.0977
26703W        W33153   1.349   6.496   1.976  0.1683 -0.4059  0.2072
26704W        W33154  17.912   2.583  38.890  0.0635  0.0407 -0.1748
26705W        W33155  20.677   4.881   1.378 -0.1403 -0.0792 -0.0602
26706W        W33156   0.685   4.107  30.302 -0.4280 -0.0829 -0.0345
26707W        W33157   7.750   3.991  33.446 -0.4884 -0.0495  0.0241
26708W        W33158   8.405   4.294  43.402 -0.2944  0.0129  0.2005
26709W        W33159   8.096   1.983  26.665  0.1142 -0.3424  0.1826
26710W        W33160  18.595   2.345   0.208  0.1896 -0.1778  0.0353
26711W        W33161   2.768   0.185   5.932 -0.0571 -0.0126  0.1511
26712W        W33162   9.044   1.422  37.437  0.2101 -0.1055 -0.1776
26713W        W33163  20.797   2.554  28.555  0.1818 -0.1140 -0.1199
26714W        W33164   5.706   4.449  12.144 -0.3387  0.1846  0.3986
26715W        W33165   0.940   3.427  14.688  0.4033  0.2319 -0.1609
26716W        W33166  13.212   4.113   7.930  0.2291  0.0613 -0.0107
26717W        W33167  15.104   3.295  22.139 -0.0496 -0.3169 -0.3433
26718W        W33168  19.178   0.863  13.154 -0.2310  0.2020  0.2086
26719W        W33169   5.295   6.171  12.040 -0.0648 -0.0215 -0.0923
26720W        W33170  14.925   1.537  40.097 -0.3661  0.0568 -0.0704
26721W        W33171  19.223   1.925   5.708  0.1897  0.2303 -0.1194
26722W        W33172  14.127   5.754  32.195 -0.2753 -0.1475  0.1647
26723W        W33173  10.606   1.740  13.145  0.2234  0.1664  0.0427
26724W        W33174  11.235   6.221  38.789 -0.0145 -0.1116  0.0265
26725W        W33175   4.767   5.687  26.064  0.1164  0.0541  0.2405
26726W        W33176  14.777   1.811  45.015 -0.0664  0.0567  0.2127
26727W        W33177  10.560   5.223  35.444 -0.0690 -0.2064  0.2893
26728W        W33178  18.276   6.208   3.719  0.1359 -0.0919 -0.0571
26729W        W33179  16.558   3.991  43.347  0.1017 -0.0109 -0.2953
26730W        W33180   0.587   0.555   8.600  0.4279 -0.1757 -0.1465
26731W        W33181  20.062   0.413   7.409  0.2930 -0.1929  0.1979
26732W        W33182  10.501   6.471  41.134  0.1229  0.0625  0.3223
26733W        W33183  11.269   0.341   5.954 -0.0322  0.1695 -0.0249
26734W        W33184   4.515   0.099   5.963  0.1534 -0.0694  0.2457
26735W        W33185   8.819   5.508  16.117  0.2693  0.2626 -0.0722
26736W        W33186  16.820   3.694  32.492  0.0798  0.1848  0.3258
26737W        W33187   5.670   2.080  35.214  0.1661 -0.0322  0.1770
26738W        W33188  12.961   0.599  30.154 -0.1267  0.0074 -0.1687
26739W        W33189   5.835   2.412   0.474 -0.1609  0.0300 -0.0794
26740W        W33190  17.926   3.066  36.376  0.0873  0.2409 -0.1850
26741W        W33191  11.074   3.355  16.805  0.1487  0.0083  0.3582
26742W        W33192   2.384   4.625   1.832 -0.3483  0.2425  0.0591
26743W        W33193  15.458   4.439  20.424  0.0049 -0.1832 -0.1063
26744W        W33194   4.176   1.436   0.820 -0.1720 -0.1163 -0.0184
26745W        W33195  13.969   0.940  28.849 -0.0436 -0.2972  0.1921
26746W        W33196   4.925   0.148  42.351 -0.0672  0.2812 -0.0914
26747W        W33197   8.872   2.910  38.700  0.0108 -0.1619  0.0947
26748W        W33198   9.039   1.925  12.464 -0.0484  0.2152  0.0778
26749W        W33199   9.952   3.545   9.513  0.0078 -0.2181  0.1032
26750W        W33200   3.411   3.809   1.305  0.1206  0.0384  0.4054
26751W        W33201   0.268   4.120  18.465 -0.1652 -0.3582 -0.2361
26752W        W33202   5.559   6.390  35.703 -0.3416 -0.1287 -0.0377
26753W        W33203   7.511   6.287  26.375  0.0904 -0.4876 -0.0692
26754W        W33204  16.077   4.480  43.689  0.0194 -0.2292 -0.2026
26755W        W33205   8.535   4.027   6.365  0.0683 -0.3712  0.1357
26756W        W33206  11.413   2.307   3.163 -0.3944 -0.1139  0.0436
26757W        W33207  21.091   1.033   3.476 -0.2031 -0.1879 -0.1131
26758W        W33208  13.418   6.514  15.562  0.1379 -0.0545 -0.1894
26759W        W33209   6.388   3.131   0.488  0.1885  0.1312  0.2558
26760W        W33210  13.393   2.375  30.972  0.1780 -0.0850 -0.1763
26761W        W33211   8.507   4.486  15.435 -0.0037 -0.1124 -0.0143
26762W        W33212   7.186   0.412  35.191  0.4398 -0.0319 -0.0973
26763W        W33213  10.521   3.549  26.309 -0.0287  0.1267 -0.2081
26764W        W33214   7.933   1.987  23.115 -0.0128  0.0561  0.0613
26765W        W33215  11.500   0.418  43.943  0.4297  0.0015  0.1108
26766W        W33216   7.783   3.432  22.570 -0.0554  0.0020 -0.2870
26767W        W33217   9.587   0.170  32.204 -0.2230 -0.0769 -0.3197
26768W        W33218  17.037   1.679  15.509 -0.1021 -0.4008 -0.2788
26769W        W33219   0.920   4.053  37.384 -0.4095 -0.1683  0.1779
26770W        W33220  15.316   1.466  14.317 -0.1235 -0.1125 -0.1503
26771W        W33221  18.235   6.386  17.767 -0.0546  0.1180  0.0237
26772W        W33222   3.097   2.320   7.570 -0.1464  0.2351 -0.4126
26773W        W33223   5.961   6.302  28.279  0.0154  0.1029  0.0148
26774W        W33224  16.780   5.053   2.745  0.1969  0.1211  0.0216
26775W        W33225   9.771   0.012  33.441 -0.0144 -0.3985  0.0136
26776W        W33226   1.452   2.472  42.039  0.3552 -0.2928  0.1031
26777W        W33227   6.543   3.778  24.233  0.1259  0.0087 -0.0784
26778W        W33228   2.241   2.618  38.170 -0.2659 -0.2384  0.0252
26779W        W33229   2.727   3.821  33.595 -0.2688 -0.0592 -0.1912
26780W        W33230   2.989   6.603  31.202 -0.2714 -0.2158  0.1918
26781W        W33231  14.644   3.334  20.349 -0.0625  0.0060  0.1118
26782W        W33232   1.864   3.487   5.044  0.1348  0.1483 -0.1065
26783W        W33233  20.956   4.017  40.831  0.2595  0.1249 -0.2915
26784W        W33234   0.919   0.245   5.168  0.2923  0.3406 -0.0807
26785W        W33235   0.945   2.485  40.339  0.0542  0.0391 -0.2815
26786W        W33236  18.354   4.786  35.660 -0.2382  0.0071  0.1721
26787W        W33237  19.083   0.231  19.116  0.0994  0.2688 -0.0042
26788W        W33238   5.975   2.457  10.436  0.1712 -0.1634 -0.2436
26789W        W33239   4.501   1.771   1.707 -0.1678 -0.2341  0.1373
26790W        W33240   7.087   1.924  34.636 -0.0759  0.1761 -0.3700
26791W        W33241  15.758   4.662  15.566 -0.1908 -0.3021 -0.2063
26792W        W33242   6.479   2.322  14.107  0.1897  0.2570  0.2222
26793W        W33243  12.800   3.446  36.677  0.2915 -0.0676 -0.0082
26794W        W33244   1.528   0.501   8.516  0.2036 -0.1495  0.2824
26795W        W33245  13.094   1.059   3.247 -0.0133 -0.2005  0.5346
26796W        W33246  20.306   6.094  18.387 -0.1089  0.0730 -0.0888
26797W        W33247   9.905   6.379   9.013 -0.1148  0.3019  0.2554
26798W        W33248  12.107   0.802  34.730 -0.0550 -0.0366  0.0691
26799W        W33249  15.683   0.321  40.921 -0.0353  0.0068  0.1222
26800W        W33250   5.619   0.251  22.840 -0.5982  0.0198 -0.0440
26801W        W33251   8.514   2.668  23.656  0.0541  0.1890 -0.5544
26802W        W33252  13.330   3.557  17.197 -0.3296 -0.0251  0.2097
26803W        W33253   1.821   0.844  15.724  0.0634  0.2159  0.2247
26804W        W33254   0.848   6.241   8.500  0.0744  0.0654  0.0127
26805W        W33255  10.118   2.236  16.829 -0.2845 -0.0455 -0.4137
26806W        W33256  10.253   0.486   7.585 -0.1897  0.0525 -0.0556
26807W        W33257  10.016   1.126  12.751 -0.2868  0.1904 -0.1812
26808W        W33258   7.462   5.101  14.730 -0.0565  0.2526 -0.0726
26809W        W33259   9.701   5.852  40.215  0.0396  0.1332  0.1851
26810W        W33260  13.895   3.454  17.995  0.3611  0.3867  0.2773
26811W        W33261   1.804   0.370  15.368  0.3427 -0.1661 -0.2922
26812W        W33262   6.480   0.546  33.010  0.6196  0.0617  0.0282
26813W        W33263   6.666   4.417   2.270  0.0882 -0.0740  0.1586
26814W        W33264  11.515   4.753   0.832  0.0368  0.0179 -0.1430
26815W        W33265   0.107   0.208  32.488 -0.0212 -0.0553 -0.0549
26816W        W33266   6.367   6.595  10.516  0.2106 -0.0919  0.1469
26817W        W33267  17.645   2.642  41.502  0.2975 -0.2363 -0.0078
26818W        W33268  16.529   4.007  18.133  0.0001  0.0493 -0.0859
26819W        W33269   0.338   2.168  43.548 -0.1488 -0.3606  0.1618
26820W        W33270   8.659   3.369  10.379  0.0673  0.4155  0.1668
26821W        W33271  18.366   2.609   5.247 -0.4437 -0.2061 -0.2252
26822W        W33272   6.265   4.623  34.209 -0.0876  0.0306 -0.0619
26823W        W33273  11.066   5.627  10.358  0.0435 -0.0742 -0.1303
26824W        W33274   9.771   1.352   9.169 -0.2437  0.1299 -0.0421
26825W        W33275   8.409   5.757  39.891 -0.2277 -0.3538 -0.0180
26826W        W33276  10.694   4.344   4.988  0.0378  0.0453 -0.2489
26827W        W33277   9.698   4.267  25.496  0.0888  0.0585  0.1899
26828W        W33278   8.475   5.696  15.728 -0.0397  0.0413 -0.2655
26829W        W33279   1.866   3.925  39.355 -0.1284  0.3455 -0.0891
26830W        W33280  16.423   5.428   0.003 -0.1686 -0.0152 -0.3060
26831W        W33281  13.366   4.350  43.248 -0.2036  0.1102 -0.2235
26832W        W33282  17.158   5.552  41.230 -0.0947  0.1778  0.1587
26833W        W33283   8.749   5.529  26.652  0.0243 -0.0795  0.0944
26834W        W33284  15.514   2.157  10.029 -0.1216 -0.3324 -0.1341
26835W        W33285   4.984   2.059  21.019 -0.0125  0.1479 -0.0355
26836W        W33286  19.281   4.472   4.231 -0.1472 -0.0479 -0.1207
26837W        W33287  14.820   5.719  34.282 -0.1491  0.1763 -0.0918
26838W        W33288  11.602   1.093  43.184  0.0509 -0.0753 -0.0444
26839W        W33289  17.123   3.186   8.885 -0.0876 -0.1123 -0.1141
26840W        W33290   2.972   6.454  37.171  0.0342 -0.1221 -0.0122
26841W        W33291   3.282   4.163  26.543  0.0824  0.0111  0.1211
26842W        W33292  16.630   4.200   0.112 -0.3503  0.0082 -0.0604
26843W        W33293  11.186   4.768   1.252 -0.0426  0.0596  0.2231
26844W        W33294   8.147   0.518   1.545 -0.2482  0.0030 -0.2470
26845W        W33295  20.782   4.555   8.321 -0.1022 -0.0316 -0.2480
26846W        W33296  13.846   4.034  17.098 -0.1076 -0.0758  0.2352
26847W        W33297   6.261   5.392   9.522 -0.1725  0.0142 -0.2393
26848W        W33298  18.146   4.085  36.094  0.0760 -0.0385 -0.0960
26849W        W33299  15.373   4.852  22.744  0.0433 -0.1665  0.0855
26850W        W33300   9.522   0.641   5.305  0.0388 -0.1017 -0.0399
26851W        W33301  14.619   3.464  10.699 -0.1873  0.1173 -0.1692
26852W        W33302  15.003   4.031   1.374 -0.3626  0.1761 -0.2057
26853W        W33303   5.270   3.618   2.021 -0.2109 -0.0283  0.0250
26854W        W33304  20.746   1.738   0.759 -0.2819 -0.3297 -0.0678
26855W        W33305   2.203   1.190   8.608 -0.2059 -0.1497  0.1237
26856W        W33306  13.380   5.877  16.755 -0.0570  0.1518  0.1191
26857W        W33307   9.068   0.430  28.845  0.0657 -0.1196  0.2149
26858W        W33308  17.555   6.235  21.470 -0.0129  0.0721 -0.2634
26859W        W33309   3.950   0.676  32.524 -0.0728  0.2446  0.1837
26860W        W33310  16.854   5.685  33.381 -0.1678  0.0211 -0.2068
26861W        W33311   8.916   3.999   8.406  0.0420 -0.0153  0.0796
26862W        W33312  15.409   2.495  39.343  0.0509  0.0606  0.4538
26863W        W33313   5.678   6.104   6.029  0.0415 -0.3881 -0.0194
26864W        W33314  17.558   6.446  20.503 -0.1106  0.0445  0.0176
26865W        W33315  19.568   1.623  30.497 -0.0164  0.5369  0.1563
26866W        W33316  12.474   1.852  40.818  0.1325 -0.1367  0.1278
26867W        W33317   7.120   6.114   2.638  0.2284 -0.1558  0.1986
26868W        W33318   5.576   5.533  32.206 -0.1474 -0.0088 -0.0891
26869W        W33319   6.632   5.561   7.304  0.1127 -0.2286  0.0505
26870W        W33320   6.872   1.637  39.062 -0.0685  0.1701 -0.1895
26871W        W33321   8.979   4.342  41.331 -0.3759  0.0286  0.2087
26872W        W33322   6.286   2.546  23.604  0.1358 -0.0167  0.2932
26873W        W33323   6.050   6.176  35.783 -0.0107  0.0657 -0.0133
26874W        W33324  17.240   4.143  16.565 -0.1137 -0.2215 -0.0711
26875W        W33325   8.140   3.514  13.824 -0.1991 -0.1016  0.0195
26876W        W33326   6.856   4.869  33.562 -0.1890 -0.1144  0.1390
26877W        W33327   5.839   1.944  10.347  0.0875  0.3515  0.1326
26878W        W33328   9.686   0.301   6.107 -0.0254 -0.1285 -0.3735
26879W        W33329   1.531   1.199  29.203  0.1372  0.2533 -0.0361
26880W        W33330   0.598   4.883  13.636 -0.4020  0.0019 -0.0799
26881W        W33331   2.873   0.972   5.865 -0.1409 -0.1583 -0.4013
26882W        W33332  14.651   4.130  39.599 -0.3608  0.1454 -0.0478
26883W        W33333   1.185   5.450  39.848  0.1793 -0.2626  0.0744
26884W        W33334  18.438   3.244  36.052 -0.1440  0.0399  0.0588
26885W        W33335  17.903   5.693  39.281  0.1428  0.2428 -0.3377
26886W        W33336  13.281   4.478  28.599 -0.0980  0.0845 -0.0340
26887W        W33337  18.842   0.749  35.119 -0.1123  0.0334 -0.0067
26888W        W33338  12.662   0.398   3.032  0.1011 -0.2380 -0.1420
26889W        W33339   6.329   4.224  42.345  0.0626  0.0843 -0.0381
26890W        W33340   4.281   1.656  25.397 -0.2247  0.2440  0.3580
26891W        W33341  14.721   5.800  39.294  0.0172 -0.0980 -0.1730
26892W        W33342   2.273   0.560  41.530  0.1160 -0.1441 -0.0029
26893W        W33343  14.878   4.039   2.090 -0.2840  0.1278 -0.2532
26894W        W33344  15.282   2.459  16.196 -0.1566 -0.2450 -0.1011
26895W        W33345  10.081   1.128  11.702  0.2877  0.1380  0.1181
26896W        W33346  15.127   2.397   6.865  0.2764  0.1714 -0.2180
26897W        W33347  12.660   5.472   9.078 -0.0787  0.0119  0.0738
26898W        W33348  20.599   2.125  32.001 -0.0523 -0.2273  0.1481
26899W        W33349   2.991   1.792  13.196 -0.0735 -0.2079 -0.1374
26900W        W33350   6.137   5.909  23.425  0.2362 -0.1672 -0.1045
26901W        W33351   3.171   0.809  29.459 -0.1871 -0.0303 -0.4446
26902W        W33352   8.127   1.254   0.708  0.2934  0.0594  0.1789
26903W        W33353   8.872   3.356  42.332  0.2795 -0.2866  0.1192
26904W        W33354   7.583   2.269  44.324 -0.0840  0.0072 -0.1406
26905W        W33355  17.292   0.028  43.386 -0.0157  0.0715 -0.1213
26906W        W33356  20.706   0.887  13.810  0.1091  0.0626  0.0964
26907W        W33357   8.545   3.756  24.927  0.0146 -0.0967 -0.1371
26908W        W33358  18.678   2.489  17.985 -0.1251 -0.0438  0.0734
26909W        W33359   5.193   2.128  34.542 -0.0738  0.2579 -0.2569
26910W        W33360  16.082   5.057  14.047  0.1685 -0.2894  0.1979
26911W        W33361   8.736   4.116   2.858 -0.2016 -0.0445 -0.0928
26912W        W33362   9.695   1.978  28.970 -0.4025  0.1738  0.2483
26913W        W33363  14.623   2.069  19.870  0.0839 -0.1879  0.1823
26914W        W33364  14.044   0.763  11.683  0.0853  0.0753 -0.2604
26915W        W33365  13.223   0.987  43.993 -0.0889  0.0820 -0.1724
26916W        W33366   9.333   1.133  36.588 -0.1534  0.2004  0.0663
26917W        W33367   3.966   5.737   5.055  0.1448  0.1359 -0.1868
26918W        W33368  14.275   4.174  44.218  0.0676  0.0799  0.0598
26919W        W33369  10.197   5.730  25.814  0.1688  0.0871 -0.2375
26920W        W33370  16.163   4.253  13.845  0.0983 -0.1971 -0.6137
26921W        W33371  15.176   0.069  21.243 -0.1014 -0.2772  0.1323
26922W        W33372  11.946   2.998   8.252  0.2708  0.2398 -0.2401
26923W        W33373  19.110   2.985  15.666 -0.0926  0.1097 -0.0709
26924W        W33374   0.655   1.555   1.943  0.0068  0.0680  0.3347
26925W        W33375  12.529   2.605  37.649  0.0380  0.1634 -0.2674
26926W        W33376   0.154   4.838  38.247 -0.2096  0.0267  0.1339
26927W        W33377  14.555   6.499  20.448 -0.1511 -0.1277  0.3900
26928W        W33378   9.979   2.707  10.763 -0.1504  0.0443 -0.0543
26929W        W33379  10.442   0.941   6.202  0.3069 -0.1859 -0.0786
26930W        W33380   1.586   1.749   7.926  0.4030 -0.2102  0.1386
26931W        W33381   3.816   0.417  23.056  0.0975 -0.1592  0.1542
26932W        W33382   8.440   3.397  40.403 -0.0802 -0.1351 -0.0028
26933W        W33383  19.285   4.353  42.527  0.2256  0.2193  0.1302
26934W        W33384  14.926   1.489   0.965  0.0407  0.2737 -0.2209
26935W        W33385  17.562   1.566  30.567  0.3147 -0.1040 -0.2959
26936W        W33386   2.596   2.651  12.827 -0.1322  0.0511  0.3843
26937W        W33387  16.612   4.432  18.319 -0.1632 -0.1186 -0.0829
26938W        W33388   8.741   6.214   8.232 -0.3081 -0.1362  0.0916
26939W        W33389  13.591   6.021   0.404 -0.1186  0.0258 -0.1313
26940W        W33390   4.962   0.625  34.654 -0.2587 -0.0857 -0.1803
26941W        W33391  18.432   6.397  17.260  0.3087  0.5234 -0.0974
26942W        W33392   1.435   3.815   2.001  0.2382  0.1488  0.3067
26943W        W33393  11.761   0.204   6.031  0.3462  0.0320  0.0570
26944W        W33394  15.001   5.858   1.528 -0.0330  0.0608  0.3511
26945W        W33395   9.224   2.878  31.021 -0.0194 -0.0576 -0.2227
26946W        W33396  15.780   5.286  32.651 -0.0113 -0.2669 -0.0449
26947W        W33397  20.692   4.506   9.734  0.1704  0.2079 -0.2417
26948W        W33398   4.868   3.048  34.245 -0.0431 -0.0425  0.1122
26949W        W33399   7.224   2.440   3.807 -0.0148  0.1246 -0.0865
26950W        W33400   2.069   1.914   5.055 -0.0024 -0.1143 -0.1723
26951W        W33401  11.976   1.944  39.903  0.4150 -0.1098  0.1269
26952W        W33402  14.878   0.175   1.052  0.0858  0.3440  0.0390
26953W        W33403   9.963   1.370  44.680 -0.0629 -0.0133  0.0876
26954W        W33404  11.239   5.146   9.084  0.5095  0.1507 -0.2695
26955W        W33405   7.763   2.342  15.973  0.2660 -0.0619  0.2292
26956W        W33406   9.582   5.215  28.665  0.1454 -0.1235  0.0984
26957W        W33407   4.017   6.124  22.895  0.1885  0.1996  0.2820
26958W        W33408   8.164   5.988  37.312  0.0047 -0.0421 -0.0047
26959W        W33409  13.656   5.038   9.854 -0.0716 -0.0589  0.0781
26960W        W33410   5.702   1.392  41.633 -0.0808 -0.1022  0.0942
26961W        W33411  19.348   1.203   5.341 -0.3952 -0.1740 -0.1140
26962W        W33412   3.371   0.523   5.990 -0.2737  0.0122 -0.1156
26963W        W33413  17.085   2.621  11.544  0.2615 -0.0190 -0.0558
26964W        W33414   5.960   3.778   6.453 -0.0753  0.1495 -0.0937
26965W        W33415   1.693   2.309   5.008 -0.0083 -0.1930  0.2460
26966W        W33416   5.854   2.555  13.135  0.0591 -0.1947 -0.1986
26967W        W33417  12.342   5.088   6.863  0.0348  0.2226 -0.0940
26968W        W33418   9.178   4.890   5.668  0.0446 -0.0460  0.1306
26969W        W33419   2.447   5.417  37.679 -0.4163  0.1114 -0.0442
26970W        W33420  17.388   3.849  16.203 -0.0497 -0.1363  0.1960
26971W        W33421  17.658   2.732  16.677  0.1208 -0.0683  0.1612
26972W        W33422   2.181   5.636  35.136  0.0302 -0.4265 -0.3734
26973W        W33423  20.560   0.525  40.758 -0.0779  0.1762 -0.1177
26974W        W33424   9.790   5.455  25.850 -0.1214 -0.0350 -0.1588
26975W        W33425  18.176   0.659  37.735  0.1503  0.0926 -0.0057
26976W        W33426   4.753   1.491  23.917  0.0743 -0.0073 -0.1020
26977W        W33427   0.398   4.895  37.764  0.1150 -0.2945  0.2808
26978W        W33428  17.882   0.929  36.715 -0.0900  0.2742 -0.1789
26979W        W33429  17.066   6.281  43.008 -0.0285 -0.1577  0.0181
26980W        W33430  12.505   2.209  18.582  0.0252  0.0829 -0.0304
26981W        W33431  20.595   6.299  41.108  0.2170  0.0868 -0.0740
26982W        W33432   2.716   5.020   1.982  0.2186  0.2203  0.1858
26983W        W33433  14.775   5.232  36.343  0.1654 -0.2896 -0.0890
26984W        W33434   8.368   0.507  25.634  0.1771 -0.0492 -0.1073
26985W        W33435  14.555   6.545  34.707 -0.0502 -0.0207  0.0735
26986W        W33436   1.307   2.552   5.239 -0.0402  0.1204  0.0291
26987W        W33437   1.703   2.706  25.232  0.0637  0.0869  0.0073
26988W        W33438  16.096   0.296  14.399 -0.2488 -0.2163 -0.3047
26989W        W33439   6.498   0.501   2.098  0.0767  0.0172 -0.0996
26990W        W33440  19.251   3.173  42.852  0.0376  0.0039  0.1099
26991W        W33441   3.113   1.583  11.870 -0.1726 -0.0076  0.0233
26992W        W33442   2.553   3.585  13.448  0.3607  0.2771  0.0759
26993W        W33443   3.836   3.971   6.874  0.3488  0.1103 -0.1411
26994W        W33444  13.859   1.190  21.975  0.0659 -0.2429  0.0801
26995W        W33445  16.055   1.919  22.020 -0.0073  0.0960  0.0611
26996W        W33446  16.858   3.825  35.910  0.0636 -0.0904 -0.0458
26997W        W33447   0.719   5.369   8.081  0.2799  0.2071  0.2286
26998W        W33448  11.957   3.829  35.405 -0.1971 -0.1312  0.0220
26999W        W33449   5.762   3.184   4.238  0.3494  0.1548  0.2266
27000W        W33450   9.710   3.463   2.587  0.1737 -0.0766 -0.0783
27001W        W33451  12.839   3.535  36.144 -0.0430  0.0222 -0.2044
27002W        W33452  16.474   2.950   3.616 -0.2290  0.1854 -0.0874
27003W        W33453  15.992   4.635  14.763 -0.2557  0.2370  0.3564
27004W        W33454  12.369   4.676  29.983  0.1427 -0.0263 -0.2670
27005W        W33455  15.917   6.444  41.896  0.2742 -0.0389 -0.0370
27006W        W33456  12.496   6.464  43.231 -0.2868  0.1489 -0.0136
27007W        W33457  16.008   2.395   5.645  0.0598  0.0316  0.2310
27008W        W33458  17.416   1.644  22.646  0.0088  0.1431 -0.0730
27009W        W33459   9.672   4.548  29.296  0.0030 -0.2513  0.0905
27010W        W33460   7.971   1.367  37.472  0.2407  0.2752  0.2386
27011W        W33461  12.196   2.585  33.737  0.0795  0.0331 -0.3295
27012W        W33462   3.977   5.713   2.994  0.1457  0.3447 -0.1260
27013W        W33463  12.561   1.944   2.814  0.0908  0.0838 -0.1176
27014W        W33464   3.091   4.894  29.172  0.0832  0.1887  0.0505
27015W        W33465  18.483   1.877  17.258  0.0204 -0.0788 -0.0981
27016W        W33466  14.547   5.008   8.949  0.4244 -0.0434  0.2573
27017W        W33467   2.504   5.012  38.517 -0.2341  0.1198  0.1050
27018W        W33468  18.676   2.189  40.692  0.2800  0.4351 -0.0040
27019W        W33469   7.745   6.249   3.816  0.1622 -0.0105  0.2621
27020W        W33470   7.913   4.055  11.533  0.0362 -0.2152 -0.4523
27021W        W33471  15.175   2.590   4.184  0.1910 -0.3126  0.0208
27022W        W33472   3.287   1.120  14.413 -0.1596 -0.1435 -0.0041
27023W        W33473  19.095   2.246  37.524  0.0270  0.1690 -0.0566
27024W        W33474   7.573   4.359   3.399  0.0056  0.2012  0.0558
27025W        W33475   4.898   1.835  15.254 -0.1569  0.0542  0.3981
27026W        W33476   9.298   2.872  32.072 -0.1658 -0.0260 -0.0978
27027W        W33477  12.861   6.428  44.301  0.1541 -0.2291 -0.2982
27028W        W33478   4.544   0.636   7.151  0.1987  0.1280 -0.1875
27029W        W33479   0.856   4.253  15.923 -0.2858 -0.2667  0.2696
27030W        W33480   1.835   2.056  15.286  0.1270 -0.0421  0.1390
27031W        W33481   6.639   2.620  14.946 -0.0965 -0.2374  0.0386
27032W        W33482  15.482   5.675   4.800 -0.1503 -0.1578 -0.0623
27033W        W33483  18.250   1.246   4.036 -0.0313  0.2019 -0.0053
27034W        W33484   1.487   0.315  33.756 -0.3389 -0.0670 -0.3681
27035W        W33485   9.782   5.702   7.673  0.2193  0.1290  0.0293
27036W        W33486  15.384   4.179  19.993  0.0821 -0.3160  0.0405
27037W        W33487   5.011   0.355  33.452  0.0931 -0.0933  0.1684
27038W        W33488  15.261   0.332   6.784  0.0547  0.1561 -0.4149
27039W        W33489  19.021   2.791  19.793  0.0633  0.2248  0.2002
27040W        W33490   2.599   6.028   3.833  0.0331  0.1013  0.0700
27041W        W33491  11.585   4.679  39.619 -0.1020 -0.0480 -0.4403
27042W        W33492   4.434   3.036  11.127  0.2178 -0.2858  0.1201
27043W        W33493   0.450   2.846  29.913 -0.1331 -0.1681 -0.0692
27044W        W33494   1.495   6.147  41.420 -0.0394  0.1197  0.2257
27045W        W33495   7.579   3.178   6.917 -0.3807  0.2597  0.3936
27046W        W33496  17.745   6.282  22.471 -0.0830 -0.0471  0.1016
27047W        W33497  12.495   1.630  11.798  0.0647 -0.0612  0.2557
27048W        W33498   6.598   3.262  23.883  0.3587  0.0110 -0.1471
27049W        W33499   3.386   4.701  26.628 -0.1909 -0.1857 -0.1036
27050W        W33500   3.847   6.444  12.115  0.2218  0.0550 -0.4836
27051W        W33501  16.634   0.313  19.318  0.0783 -0.1963 -0.1254
27052W        W33502  17.107   2.586  22.786  0.5194  0.2270  0.3508
27053W        W33503  17.016   1.669  42.756  0.4337  0.2313 -0.0174
27054W        W33504   8.105   6.285  25.581  0.0837  0.0227 -0.0276
27055W        W33505  17.828   0.740  20.927  0.0446  0.0454 -0.0615
27056W        W33506  15.585   2.789  32.220  0.0938  0.1676 -0.0988
27057W        W33507   6.101   1.354  25.389  0.0311 -0.1497  0.1731
27058W        W33508   1.347   5.942  34.549 -0.1063  0.1414  0.0987
27059W        W33509  12.458   0.658  10.643  0.0043 -0.2533  0.2194
27060W        W33510   1.673   0.498  35.505  0.1667 -0.3023  0.0132
27061W        W33511   5.384   0.523  32.698 -0.3147 -0.0374 -0.0125
27062W        W33512   0.721   3.443  41.435 -0.0388 -0.0476  0.0264
27063W        W33513  12.454   6.116  13.377 -0.1110 -0.1408  0.0002
27064W        W33514  13.894   0.764  37.068  0.1722 -0.3759 -0.1415
27065W        W33515   3.857   1.736  26.280  0.0388 -0.4517  0.0553
27066W        W33516   8.260   5.734  33.911  0.2018  0.0008  0.0877
27067W        W33517  17.636   4.263  14.839  0.0395  0.1468  0.2879
27068W        W33518  12.506   3.038  36.525 -0.1142  0.0673  0.0576
27069W        W33519  18.440   0.790  15.209  0.1154  0.3306  0.1050
27070W        W33520  14.962   1.116  45.099 -0.0255 -0.0593  0.1627
27071W        W33521   5.397   5.205   3.612  0.3424  0.1861 -0.2851
27072W        W33522  17.228   4.464   2.107  0.0262  0.1754 -0.1175
27073W        W33523  10.719   2.706   9.340  0.0358 -0.1069  0.2020
27074W        W33524   2.696   5.908  36.152  0.0207 -0.2719  0.0203
27075W        W33525  12.943   6.300  18.411  0.0644 -0.3038 -0.0924
27076W        W33526   0.383   2.387  13.721 -0.2140  0.2067  0.3041
27077W        W33527  12.950   0.736  11.684 -0.0380 -0.0437 -0.0640
27078W        W33528   6.150   2.468  36.553 -0.0658 -0.2872 -0.0013
27079W        W33529   9.496   0.675  39.414 -0.0626  0.0425 -0.2339
27080W        W33530   2.238   5.630  42.006 -0.1669 -0.0211  0.0117
27081W        W33531  17.202   3.583  44.116 -0.2817 -0.1519  0.1346
27082W        W33532  17.651   0.382   6.799  0.2157  0.1772  0.1819
27083W        W33533  19.238   5.643  15.703 -0.2759 -0.0093  0.0935
27084W        W33534  13.816   0.071  17.589 -0.3649 -0.1209  0.1310
27085W        W33535   7.824   3.348  44.403 -0.0887 -0.1615  0.1655
27086W        W33536  10.754   0.424  12.834 -0.0777  0.3250  0.1054
27087W        W33537   4.576   1.064  28.097  0.0270  0.2268  0.1776
27088W        W33538  12.831   3.595  12.746  0.0125  0.1125 -0.1960
27089W        W33539  12.095   5.139   4.722 -0.1602  0.1826  0.2412
27090W        W33540   3.483   1.548  37.132  0.0696  0.1477 -0.1321
27091W        W33541   0.598   2.236  41.214  0.0455  0.1818  0.2620
27092W        W33542  13.289   5.712   7.233 -0.0440 -0.2556  0.0575
27093W        W33543  18.377   4.102   0.021 -0.0574 -0.2017 -0.1837
27094W        W33544  12.211   4.536   6.823 -0.1139  0.0556 -0.1516
27095W        W33545   4.357   0.333  22.827 -0.2670  0.0830  0.2829
27096W        W33546  14.662   5.187  42.161  0.1980 -0.0821  0.0840
27097W        W33547  13.274   0.589   3.822 -0.0932  0.0550 -0.0015
27098W        W33548  18.648   4.112  15.227 -0.0243  0.3674  0.0561
27099W        W33549  18.977   1.721  34.204 -0.1052 -0.1525  0.1613
27100W        W33550   4.274   2.300   8.005 -0.2855  0.0473  0.0476
27101W        W33551   9.243   2.797  29.631 -0.0930 -0.1400 -0.2354
27102W        W33552   1.987   2.241  25.320  0.0734 -0.1343 -0.1631
27103W        W33553  11.247   1.118  28.909  0.2473  0.1730 -0.0575
27104W        W33554  16.630   0.009  20.702 -0.1238 -0.1888  0.0409
27105W        W33555   0.036   1.726   4.111 -0.2956 -0.2924  0.0772
27106W        W33556  16.315   6.283  15.532 -0.0821  0.4146 -0.0411
27107W        W33557  11.754   3.962  13.218  0.4564 -0.1655 -0.0395
27108W        W33558  11.957   0.765  17.548 -0.2180 -0.2243 -0.1144
27109W        W33559   1.009   0.477   3.515  0.1343 -0.1836 -0.2966
27110W        W33560  14.195   4.503  18.584 -0.0388  0.2129  0.0968
27111W        W33561   8.974   5.209  34.904 -0.1753  0.0405 -0.1146
27112W        W33562  18.819   2.885  36.137  0.0731 -0.0639 -0.1397
27113W        W33563   0.072   6.098  14.126  0.0589 -0.0977  0.2201
27114W        W33564   7.845   5.097  36.264  0.0459 -0.1970  0.1846
27115W        W33565  19.099   6.167  43.110  0.0005  0.1342  0.1886
27116W        W33566  20.240   5.664  18.208  0.0238 -0.1615  0.4064
27117W        W33567   9.263   1.432   4.205  0.2261 -0.1144 -0.3566
27118W        W33568   4.726   4.118   7.184 -0.1616  0.1064 -0.0338
27119W        W33569   7.465   6.535   0.284 -0.0068 -0.0940  0.0999
27120W        W33570   7.980   4.441  40.962 -0.0968  0.1495 -0.0834
27121W        W33571  18.242   3.625  12.818  0.1710  0.0050 -0.0762
27122W        W33572  19.313   5.075  19.888 -0.1392 -0.3221  0.0658
27123W        W33573  20.907   2.760   2.019  0.1676 -0.0415 -0.0315
27124W        W33574  18.339   6.539  32.538  0.0596  0.0742  0.3255
27125W        W33575  20.817   2.805   5.965 -0.0249 -0.0357 -0.0859
27126W        W33576   1.856   2.069  25.789 -0.1268  0.0908 -0.2086
27127W        W33577  16.528   4.128  19.148 -0.3502 -0.0614  0.1356
27128W        W33578  14.221   4.436  21.194 -0.0772 -0.0189  0.0393
27129W        W33579  14.240   1.198  16.010 -0.1972  0.0280 -0.0085
27130W        W33580   5.527   1.745  16.256  0.0149  0.1769  0.3901
27131W        W33581   2.684   0.989  41.591 -0.2058 -0.0380  0.0997
27132W        W33582   7.000   1.659  21.799 -0.0245  0.1693 -0.1305
27133W        W33583  18.366   3.349  38.157  0.1490  0.2722 -0.1204
27134W        W33584  20.514   1.288  44.496 -0.0719 -0.0388  0.0042
27135W        W33585   9.843   0.202  25.678  0.1531  0.0903 -0.1770
27136W        W33586  13.370   0.187  31.046 -0.0865 -0.1308 -0.1240
27137W        W33587   3.231   2.366   9.381 -0.1614 -0.2405 -0.2223
27138W        W33588   6.587   6.254  42.126  0.0652 -0.1622 -0.0313
27139W        W33589   1.204   4.144  42.681  0.1442 -0.0246  0.0911
27140W        W33590  11.085   3.029  28.327  0.2117  0.1016 -0.1793
27141W        W33591  10.401   4.428   4.067 -0.4064  0.1261  0.0371
27142W        W33592  16.060   1.589  22.652 -0.0123  0.1186 -0.1065
27143W        W33593  12.026   0.114   1.572  0.1255 -0.2447 -0.1188
27144W        W33594   1.132   6.361  31.370  0.0003 -0.1286 -0.1981
27145W        W33595  16.295   3.581  41.262 -0.2278  0.0962 -0.0234
27146W        W33596   6.482   2.615  10.252 -0.1025  0.1926 -0.1949
27147W        W33597   3.423   1.891  13.947 -0.1017  0.0117 -0.0393
27148W        W33598  19.483   0.926  34.105  0.2643  0.0611  0.0089
27149W        W33599   9.191   1.898   4.689  0.1701 -0.1916 -0.2895
27150W        W33600  13.049   6.602  38.576 -0.0845 -0.0954 -0.0475
27151W        W33601   7.060   3.407  28.540  0.0124 -0.0564  0.1302
27152W        W33602   5.389   1.023  27.790 -0.1431  0.0202  0.0999
27153W        W33603  19.184   2.439  30.235 -0.1337 -0.1948  0.2404
27154W        W33604   5.646   0.166   8.759 -0.0195  0.1450  0.1441
27155W        W33605   8.929   1.714  14.380 -0.1459 -0.0610 -0.0389
27156W        W33606  17.309   0.430  12.145  0.2911  0.1558 -0.2176
27157W        W33607  21.144   2.610  38.405  0.1832  0.1271  0.3171
27158W        W33608   1.015   0.222  11.606  0.1943 -0.2239 -0.0311
27159W        W33609   2.651   0.440  43.905  0.0303  0.3309  0.0575
27160W        W33610   3.295   0.601  35.554 -0.0984 -0.2745  0.1284
27161W        W33611   1.186   3.121  43.112 -0.2839 -0.1820 -0.0326
27162W        W33612   9.282   4.977   0.810 -0.2924 -0.0757  0.1352
27163W        W33613  19.863   4.383   5.756 -0.0078  0.1200  0.0316
27164W        W33614   6.810   0.485   5.059 -0.0468  0.3318 -0.0115
27165W        W33615   8.170   6.268  41.402 -0.1114  0.2130  0.1864
27166W        W33616   5.666   1.611  26.325  0.0586 -0.1064 -0.4778
27167W        W33617   6.601   2.055  16.449  0.2093  0.1627  0.1135
27168W        W33618  15.121   0.533  13.897  0.1028 -0.3078 -0.0397
27169W        W33619   0.223   5.926   2.764  0.2295  0.0938  0.2631
27170W        W33620  13.063   3.420  19.432  0.3206  0.1024 -0.0058
27171W        W33621  16.471   3.779  36.307 -0.0095 -0.0715  0.1844
27172W        W33622   6.915   2.188  43.616  0.2843  0.3211  0.0920
27173W        W33623  14.209   1.825  13.044  0.1184 -0.1134  0.1145
27174W        W33624   8.408   0.337  43.009 -0.0218  0.0376 -0.0612
27175W        W33625  10.804   1.734  32.873  0.1189  0.0085 -0.0721
27176W        W33626  12.352   0.173   5.988 -0.0720  0.1442  0.3286
27177W        W33627   7.036   5.458  13.401  0.0324 -0.2148  0.0572
27178W        W33628   5.335   5.311  36.606  0.0351 -0.1792  0.3063
27179W        W33629  13.685   5.853   2.358  0.0483 -0.0374 -0.0617
27180W        W33630   4.563   4.508  10.651  0.0145 -0.0505 -0.0362
27181W        W33631   2.404   2.350  43.470 -0.1529 -0.1487  0.0502
27182W        W33632  16.648   2.007  14.750 -0.1107 -0.0053 -0.1270
27183W        W33633   6.129   1.206   6.825  0.1202 -0.0902  0.0090
27184W        W33634  14.036   2.748  31.278  0.1735 -0.0607 -0.1256
27185W        W33635  16.350   6.516  12.393  0.0912 -0.1401 -0.1914
27186W        W33636  13.718   1.334  20.191  0.1083  0.0774  0.0761
27187W        W33637  18.970   0.296  32.789 -0.0317 -0.0831 -0.3687
27188W        W33638  15.043   3.247  18.534  0.4903 -0.2816 -0.1919
27189W        W33639  16.217   5.915   8.663 -0.2975 -0.5870  0.1471
27190W        W33640  19.298   1.092  13.566 -0.3904 -0.2316 -0.1840
27191W        W33641  12.177   2.191   7.265  0.1592 -0.1441 -0.0885
27192W        W33642   4.184   4.926  29.218 -0.1647 -0.2503 -0.1257
27193W        W33643  11.827   0.692  36.883  0.1353 -0.0076 -0.1502
27194W        W33644   8.576   3.995  12.617 -0.0520  0.2142  0.5088
27195W        W33645  13.764   4.467  42.447 -0.0635  0.0676 -0.1532
27196W        W33646  17.445   4.960   3.272  0.1391 -0.2961 -0.1350
27197W        W33647  16.952   2.959  20.308 -0.0824 -0.2370 -0.0579
27198W        W33648  20.579   1.550  44.096 -0.2554 -0.0441  0.1357
27199W        W33649   4.925   3.502   8.056  0.1486 -0.1843 -0.1937
27200W        W33650   4.947   1.485   8.872 -0.0639 -0.1438 -0.2051
27201W        W33651  19.257   0.409  20.723  0.0754  0.3092  0.2876
27202W        W33652  20.955   0.083   3.810  0.0380 -0.1401 -0.0331
27203W        W33653  17.439   5.891  22.359 -0.1002 -0.2986  0.0948
27204W        W33654  12.231   1.908  43.300  0.2763  0.0284 -0.2532
27205W        W33655   1.054   3.377  38.011  0.0853  0.0704  0.2094
27206W        W33656  15.218   2.055  35.417  0.0025 -0.2495  0.2402
27207W        W33657  16.059   3.103   8.381  0.0486  0.0691 -0.0128
27208W        W33658  16.974   2.613   3.685  0.1195  0.2907  0.2669
27209W        W33659  19.208   3.808   7.370  0.1268  0.1465  0.0119
27210W        W33660   7.216   5.847  24.636  0.0217 -0.1691 -0.2390
27211W        W33661   8.265   2.350  23.974 -0.0028 -0.2246  0.2068
27212W        W33662  12.534   2.027  17.520  0.0344  0.3444  0.1610
27213W        W33663  18.861   3.179  33.896 -0.0177  0.0457 -0.2728
27214W        W33664  15.590   2.113  35.001 -0.1464 -0.3009 -0.2179
27215W        W33665  14.439   2.343  40.661 -0.2724 -0.0090  0.1064
27216W        W33666  11.440   3.963  17.586  0.0389  0.0050 -0.0336
27217W        W33667  19.016   0.152  43.848  0.0175  0.0680  0.0843
27218W        W33668   5.435   1.581  15.387 -0.1569  0.0616 -0.0761
27219W        W33669  12.102   2.576  29.578  0.1225 -0.1220  0.2095
27220W        W33670  13.156   4.954   3.631  0.1849 -0.0351  0.0423
27221W        W33671   5.316   3.749  38.672 -0.2544  0.0909  0.1899
27222W        W33672   6.995   1.736  10.632  0.1544  0.2214 -0.1091
27223W        W33673  14.510   0.716  32.309 -0.1990  0.3360  0.3049
27224W        W33674  13.766   4.492  19.504  0.2597 -0.0801  0.2926
27225W        W33675   2.136   6.600  27.914 -0.1565  0.1236  0.1525
27226W        W33676  11.142   0.082  34.026  0.1421  0.0073 -0.1112
27227W        W33677  12.911   1.248   4.847 -0.0851 -0.1201 -0.1968
27228W        W33678  13.119   2.807   7.352 -0.1242  0.0499 -0.1060
27229W        W33679  19.564   5.436  37.359  0.2692 -0.0902  0.2753
27230W        W33680   7.525   1.037   3.598 -0.1979  0.2727 -0.0872
27231W        W33681   8.134   2.836  31.509  0.0831  0.2737  0.0319
27232W        W33682  12.361   6.420  28.980 -0.0472  0.0586 -0.1251
27233W        W33683   2.872   5.744  10.422 -0.1390 -0.3278 -0.0896
27234W        W33684  12.578   2.124   4.953  0.2512  0.1503  0.1794
27235W        W33685  20.244   0.680   3.626  0.2636  0.2592  0.0227
27236W        W33686   9.393   4.592  16.095 -0.1730  0.1783 -0.0991
27237W        W33687   3.143   1.548  40.137 -0.0164  0.0218 -0.0819
27238W        W33688  20.090   3.388  32.107 -0.1534  0.0892 -0.1249
27239W        W33689  13.284   1.979  13.853  0.2730  0.1258  0.1114
27240W        W33690  17.204   5.994   4.419 -0.1183 -0.0611  0.2442
27241W        W33691   8.534   2.050  25.721  0.2322 -0.0261  0.0450
27242W        W33692   0.594   4.380  34.188 -0.2333 -0.0220  0.0845
27243W        W33693   9.786   5.519  37.777  0.0711  0.0351  0.1478
27244W        W33694  18.006   0.014  41.316  0.0050  0.0200 -0.0069
27245W        W33695  13.838   4.202   7.839 -0.0697 -0.2376  0.1203
27246W        W33696  11.977   2.542  11.195 -0.1519  0.0672  0.0307
27247W        W33697  18.314   5.219  15.286 -0.1292  0.1542  0.0273
27248W        W33698  17.931   5.990   0.173  0.1077 -0.0297  0.1399
27249W        W33699   4.943   0.118   1.504 -0.1444 -0.1727 -0.0337
27250W        W33700  14.091   2.040   7.911  0.3018  0.1203 -0.1269
27251W        W33701  13.912   1.207  35.520 -0.0886 -0.1057 -0.1189
27252W        W33702  15.257   2.620  23.842  0.1603 -0.0454  0.3219
27253W        W33703   1.628   6.007   6.582  0.0412  0.0123 -0.1042
27254W        W33704   5.867   4.707   0.886 -0.1303  0.2796 -0.4231
27255W        W33705  15.497   4.137  39.905 -0.2440  0.0882  0.0459
27256W        W33706  17.650   2.166  34.035 -0.0866  0.0315  0.0549
27257W        W33707   1.364   5.936  33.494  0.2373  0.1773  0.0040
27258W        W33708  15.799   3.334  13.785  0.2503 -0.0078  0.0397
27259W        W33709   6.767   6.584   5.115  0.1302  0.1284 -0.1322
27260W        W33710  12.488   6.105  44.178 -0.1740  0.2854 -0.2473
27261W        W33711  14.316   6.508   4.597  0.2843  0.0721  0.1987
27262W        W33712  15.496   0.398  43.009 -0.0541 -0.1429  0.3071
27263W        W33713   2.616   5.742  30.351 -0.0161  0.1606  0.0479
27264W        W33714   1.458   4.634  29.212  0.1718 -0.1118  0.0609
27265W        W33715   1.935   5.994   4.728 -0.0235  0.0823 -0.1509
27266W        W33716   1.241   5.745  31.383 -0.0377  0.2782  0.6789
27267W        W33717  12.092   1.978  40.435 -0.0071 -0.0683  0.0235
27268W        W33718  21.057   1.617  42.816  0.0376  0.2024  0.1756
27269W        W33719  15.817   2.682  44.814  0.0431  0.0477 -0.1071
27270W        W33720   9.489   6.339   4.846 -0.0546  0.2760 -0.2528
27271W        W33721   6.323   0.665  30.250  0.1537 -0.0289 -0.3883
27272W        W33722  12.887   6.130   6.236 -0.1777 -0.2055 -0.0349
27273W        W33723   0.651   5.241   0.214 -0.2883  0.0337 -0.1785
27274W        W33724  14.803   1.897   4.906  0.2386  0.0332 -0.2460
27275W        W33725  14.265   5.626  39.914 -0.2303  0.1993 -0.1886
27276W        W33726  20.650   6.206  42.727 -0.2337 -0.1383  0.1019
27277W        W33727   3.179   0.925  42.565 -0.0214  0.2414 -0.0376
27278W        W33728   8.805   3.895  10.413  0.0797 -0.2330  0.1928
27279W        W33729  17.636   3.629   1.266  0.0593 -0.3209 -0.0621
27280W        W33730  15.910   1.114   1.381  0.1136 -0.0630 -0.2302
27281W        W33731   3.257   5.791  37.531 -0.0770  0.0216 -0.2936
27282W        W33732   1.792   5.135  27.781  0.1531  0.0357 -0.0995
27283W        W33733   7.984   4.905  39.536 -0.5242 -0.2071  0.1510
27284W        W33734  18.681   1.131   0.480  0.1296 -0.0638  0.2088
27285W        W33735  16.865   5.823   0.734  0.1168  0.2231  0.2400
27286W        W33736  20.014   0.841  12.959  0.0680  0.1495  0.1739
27287W        W33737  16.727   2.873  35.792 -0.2734  0.0725 -0.2705
27288W        W33738  10.998   0.260  42.197 -0.1892 -0.0440 -0.4672
27289W        W33739   5.718   1.808  41.307  0.0679  0.0327 -0.0444
27290W        W33740   7.387   2.912  26.152 -0.1053  0.0117  0.5500
27291W        W33741  17.634   1.806  15.337  0.1117  0.1844 -0.1421
27292W        W33742   7.366   4.062  10.186 -0.2575  0.2982 -0.0109
27293W        W33743   2.290   4.812   8.414 -0.0030  0.1450 -0.0004
27294W        W33744   1.273   2.773   1.003  0.0261 -0.1186 -0.1901
27295W        W33745   4.693   3.849  11.523 -0.1597 -0.1833  0.4145
27296W        W33746  20.929   1.518   2.787  0.3090  0.2676 -0.0165
27297W        W33747  16.110   6.357   8.196 -0.0010  0.1977 -0.1818
27298W        W33748   2.813   2.881  42.289  0.1310  0.0837  0.1305
27299W        W33749   5.723   2.029  27.724  0.1115 -0.1822 -0.2016
27300W        W33750   1.339   1.720  17.559  0.2472  0.0255 -0.2474
27301W        W33751  11.830   4.711   7.693 -0.4203 -0.2276  0.2056
27302W        W33752   1.809   4.465  36.892 -0.2872 -0.0940 -0.1285
27303W        W33753  14.815   1.083  22.412  0.1028  0.0625 -0.0395
27304W        W33754   7.444   0.234  27.612  0.4476  0.0226 -0.2365
27305W        W33755   3.065   6.143  41.134  0.0115 -0.1602 -0.2856
27306W        W33756  13.761   4.954  39.872 -0.1127  0.1486  0.0937
27307W        W33757   4.643   5.487  29.554 -0.0683 -0.1291  0.2322
27308W        W33758   7.000   0.088  31.042 -0.2438 -0.3978 -0.0292
27309W        W33759  16.342   3.046   4.886  0.0075 -0.2661  0.2144
27310W        W33760  19.712   1.627  43.917 -0.0666  0.1390  0.2226
27311W        W33761   5.628   3.846  12.862  0.1551  0.0057  0.4833
27312W        W33762   9.601   1.828  41.828 -0.1336  0.1174  0.0344
27313W        W33763   4.472   1.988   7.178  0.0978  0.0886  0.0143
27314W        W33764  20.146   5.686   0.933  0.0261 -0.1054  0.0302
27315W        W33765   5.351   1.865  33.737 -0.1321  0.1549 -0.0536
27316W        W33766  15.338   4.663  10.205 -0.1688 -0.0027 -0.1631
27317W        W33767   8.572   6.512  38.530  0.2209  0.1411  0.0428
27318W        W33768   9.189   4.406  33.630 -0.1036 -0.0712 -0.1546
27319W        W33769  18.901   1.032  12.801  0.1504  0.1899  0.0722
27320W        W33770   8.026   4.874  39.054 -0.1194 -0.0588  0.1177
27321W        W33771  19.989   1.003   3.931 -0.2118 -0.1266 -0.3003
27322W        W33772   6.167   6.595  27.866 -0.1504  0.2890 -0.1415
27323W        W33773   3.064   5.860   6.977 -0.1551  0.2084 -0.0700
27324W        W33774  19.636   3.783  35.442  0.2320 -0.3611 -0.1335
27325W        W33775  13.344   6.402  35.721 -0.3078  0.1308  0.1216
27326W        W33776  11.348   0.182  43.465 -0.2661 -0.1549  0.1573
27327W        W33777  15.489   0.918  19.149  0.1707  0.1356 -0.0395
27328W        W33778  11.752   3.894  28.205  0.1275  0.2325  0.1103
27329W        W33779   4.312   3.117  22.794  0.0387  0.0696 -0.1636
27330W        W33780  16.173   2.671  37.062  0.0530  0.1818  0.0387
27331W        W33781  11.287   4.541   8.611 -0.0316  0.0031  0.1114
27332W        W33782   7.971   4.282   4.420 -0.3471  0.2817 -0.2286
27333W        W33783  19.325   4.811   8.915 -0.0892 -0.0359 -0.1212
27334W        W33784   3.004   2.714  10.586  0.1589  0.1918 -0.0752
27335W        W33785   4.026   6.008  26.444 -0.2031 -0.0814  0.0470
27336W        W33786   7.338   6.205  33.826 -0.1031  0.0993 -0.0989
27337W        W33787  11.905   2.025   0.765  0.2093  0.1824 -0.1010
27338W        W33788  16.644   5.501  16.157  0.1480  0.1416  0.0122
27339W        W33789  21.050   3.324  35.514 -0.0224 -0.1741 -0.3147
27340W        W33790  16.920   2.436  32.300 -0.0666 -0.0639 -0.1503
27341W        W33791   1.505   4.761  11.606 -0.0423  0.1143  0.0182
27342W        W33792  15.727   1.168  19.529 -0.0826 -0.0743 -0.2159
27343W        W33793  18.858   2.834  41.253 -0.0642  0.0742 -0.1181
27344W        W33794   0.212   4.837   9.059 -0.2097  0.2324  0.0647
27345W        W33795   6.824   0.163  36.413  0.3583  0.1283  0.2761
27346W        W33796   0.069   1.636  35.330 -0.0116  0.0692  0.2885
27347W        W33797   7.446   3.659   1.471 -0.2425  0.0666  0.1309
27348W        W33798   5.621   0.714  37.364  0.0458  0.4335  0.2657
27349W        W33799   8.474   0.719  42.570 -0.0326  0.1008 -0.1670
27350W        W33800  17.356   1.259  34.185  0.0403 -0.1561 -0.0053
27351W        W33801   1.405   2.103  14.421 -0.0037 -0.1028 -0.2388
27352W        W33802  16.875   2.026   2.144 -0.0314  0.0317 -0.2585
27353W        W33803  19.906   3.177  42.224 -0.3852 -0.0670 -0.2277
27354W        W33804   5.382   3.577   1.466 -0.2125 -0.0761  0.0211
27355W        W33805  17.950   3.336   5.735  0.0332 -0.2214 -0.1072
27356W        W33806   3.195   2.049  12.085 -0.0571 -0.2997 -0.1516
27357W        W33807   1.746   1.468   9.340 -0.0562  0.0594 -0.0280
27358W        W33808   3.019   4.445  45.123  0.1155 -0.2340  0.0796
27359W        W33809  11.963   2.989  28.587  0.3162  0.1184 -0.1514
27360W        W33810   1.064   4.085  34.878 -0.0927 -0.2708  0.1547
27361W        W33811   5.606   5.113  44.864 -0.0271  0.0017  0.1411
27362W        W33812   6.052   6.370  44.230 -0.2239 -0.0357  0.5336
27363W        W33813   1.996   2.381  35.754 -0.0365  0.1822 -0.0535
27364W        W33814  13.278   2.387   6.189  0.2441  0.2279  0.0047
27365W        W33815  18.519   3.551   2.151  0.1971 -0.1563 -0.0893
27366W        W33816  19.052   0.649  19.347  0.0150  0.0961 -0.1186
27367W        W33817  15.399   4.337   4.486 -0.0078  0.1763 -0.0517
27368W        W33818   4.432   6.114   2.129 -0.0808  0.1701 -0.0231
27369W        W33819   6.688   2.680  22.605  0.0428  0.2402 -0.2941
27370W        W33820  10.288   0.666   6.545  0.0196  0.0195  0.1751
27371W        W33821  20.558   0.459   0.001 -0.1279 -0.0143 -0.1887
27372W        W33822   4.452   0.438  10.264 -0.0507 -0.0219  0.1105
27373W        W33823   9.975   4.861  30.690 -0.2929 -0.1378 -0.2339
27374W        W33824  19.601   4.372  13.728 -0.1513  0.1539 -0.3194
27375W        W33825   1.242   1.531   9.523 -0.2545  0.0357  0.0683
27376W        W33826  16.558   1.740  24.915 -0.0255  0.2707  0.0206
27377W        W33827   7.576   3.953  40.783  0.0523  0.3575  0.0918
27378W        W33828  12.636   5.527  38.026 -0.0960 -0.3839 -0.1042
27379W        W33829   5.693   1.764  22.331 -0.2917  0.0281  0.2021
27380W        W33830  15.928   2.019  34.641  0.0496 -0.2140  0.4059
27381W        W33831  17.484   5.229  16.036 -0.0147  0.2479 -0.2989
27382W        W33832  20.288   2.630   6.051  0.0248 -0.0280  0.0648
27383W        W33833  20.908   5.498   8.209 -0.1596  0.0690 -0.0950
27384W        W33834  12.062   1.562  13.298  0.0207 -0.0536 -0.0842
27385W        W33835   0.525   3.780   0.758  0.1964  0.3796  0.1514
27386W        W33836  14.720   2.586   9.762 -0.0361  0.2957 -0.1608
27387W        W33837  10.675   1.189  40.613  0.1265  0.1876  0.3906
27388W        W33838  12.823   0.282  16.386 -0.2588  0.0998 -0.0943
27389W        W33839  14.408   5.119   6.842 -0.1858  0.0671  0.0886
27390W        W33840  16.886   1.265   8.916  0.1267 -0.1630 -0.0158
27391W        W33841   9.067   5.646  14.833 -0.0203 -0.2376  0.1752
27392W        W33842  11.177   2.228  40.375  0.3048  0.0186 -0.0654
27393W        W33843   5.185   5.714   6.255  0.2504  0.2089  0.1972
27394W        W33844   7.036   3.701  32.116 -0.3561 -0.1024  0.0150
27395W        W33845  18.361   0.093  20.530  0.1623 -0.0796  0.1102
27396W        W33846   7.925   0.086  33.946  0.2338  0.0728  0.1213
27397W        W33847  14.602   6.606  13.350  0.3854  0.3125 -0.1798
27398W        W33848   5.603   3.829  20.310  0.0072  0.1327 -0.1901
27399W        W33849   4.397   0.370  15.380  0.1634  0.0976  0.0221
27400W        W33850  11.061   1.237  17.867 -0.0694  0.2070 -0.0478
27401W        W33851   2.269   2.332  27.675 -0.0045 -0.0894 -0.1679
27402W        W33852  10.137   3.657  25.497 -0.1343 -0.0111 -0.2104
27403W        W33853   7.178   6.232  36.860 -0.2081 -0.2149  0.1346
27404W        W33854  15.458   5.868   1.676 -0.0890  0.0566 -0.1713
27405W        W33855   3.306   0.476   9.758  0.1604 -0.1015 -0.0563
27406W        W33856  10.274   5.710   7.782  0.0952  0.0430  0.2425
27407W        W33857   0.110   0.397   6.391 -0.0667  0.2930 -0.0922
27408W        W33858  19.924   3.088  19.326 -0.2391 -0.0857  0.0455
27409W        W33859  18.367   4.203  33.069 -0.0639 -0.0117  0.2088
27410W        W33860   9.791   5.585  32.306 -0.0140  0.1586  0.2842
27411W        W33861   2.522   4.559   7.423 -0.0601  0.0718  0.1410
27412W        W33862  16.274   6.107  43.898  0.1496 -0.2847  0.0092
27413W        W33863  10.828   3.346  27.451  0.1631  0.0540  0.2932
27414W        W33864   9.795   2.760   9.516  0.1849  0.1886  0.2102
27415W        W33865  20.206   5.384  15.738 -0.2209  0.1859  0.1948
27416W        W33866  14.141   2.892  41.281  0.2123 -0.0151  0.3981
27417W        W33867  10.245   1.914  38.006 -0.0286  0.1556 -0.0162
27418W        W33868   4.028   5.830   9.255 -0.1938 -0.1246 -0.2570
27419W        W33869  16.654   3.577   0.990  0.1340 -0.0947 -0.0199
27420W        W33870  18.780   3.255   2.456  0.0961  0.1108  0.1239
27421W        W33871  11.654   5.073  10.066 -0.0959  0.0937 -0.1478
27422W        W33872   5.325   3.384  15.766 -0.1557 -0.0966 -0.0727
27423W        W33873   8.218   5.007  32.151  0.4375 -0.0833 -0.0076
27424W        W33874   2.888   1.525  37.614 -0.1864  0.0518  0.1942
27425W        W33875  20.288   2.377  41.333 -0.2616 -0.2635  0.0462
27426W        W33876   2.590   5.953  28.813  0.0404  0.0965  0.2758
27427W        W33877  16.142   2.299  18.445 -0.1383  0.0760  0.1558
27428W        W33878  13.023   0.551  32.811  0.3419  0.1307  0.2554
27429W        W33879  18.610   6.191  38.986 -0.0963  0.0533  0.0349
27430W        W33880  15.471   6.534  21.628 -0.0164 -0.3824 -0.0367
27431W        W33881  13.081   4.829   2.816  0.2741 -0.1000 -0.4522
27432W        W33882   8.980   5.185  40.246  0.4135  0.0306 -0.0822
27433W        W33883   8.500   3.096  14.574 -0.1347  0.3231 -0.3061
27434W        W33884   6.216   1.747  40.570 -0.1611  0.2372  0.0093
27435W        W33885   1.206   2.238   1.814 -0.0297 -0.1957  0.1839
27436W        W33886  19.656   3.790  18.729 -0.1462  0.0923  0.1643
27437W        W33887   5.027   6.134  13.764  0.1097  0.2024  0.0152
27438W        W33888  10.963   3.577   4.599  0.3799  0.0565 -0.0094
27439W        W33889  10.332   3.670   9.187  0.2214 -0.0643  0.0567
27440W        W33890   5.785   4.633  14.475  0.1494  0.0336  0.1317
27441W        W33891  20.278   1.830  31.179 -0.0686  0.3252  0.2252
27442W        W33892  11.816   3.379   3.553 -0.0769 -0.1335 -0.0386
27443W        W33893  19.836   1.144  39.574  0.3064  0.1227 -0.0398
27444W        W33894   6.358   1.508  27.160  0.0468  0.0101 -0.0390
27445W        W33895   9.453   0.721   0.602 -0.1195  0.0181 -0.1566
27446W        W33896   9.234   0.114   6.088  0.0063  0.0497  0.1383
27447W        W33897  11.874   6.326  17.565  0.1070 -0.1641 -0.0134
27448W        W33898  13.891   1.014   5.274 -0.2361 -0.0844 -0.1613
27449W        W33899  13.853   2.926  44.107 -0.2924  0.2393  0.0604
27450W        W33900  19.035   3.713   6.076 -0.2010  0.2531  0.0124
27451W        W33901   2.558   0.407  31.198  0.0070 -0.2343 -0.1358
27452W        W33902   0.076   5.759   1.070  0.2354  0.3000 -0.0633
27453W        W33903  19.571   3.012  17.995 -0.0059  0.0101  0.1178
27454W        W33904   6.884   0.646  40.997  0.0167 -0.0186  0.2863
27455W        W33905  17.395   4.447  14.290  0.1320 -0.3295  0.1013
27456W        W33906   3.888   4.711   7.928  0.0019 -0.0999 -0.0462
27457W        W33907  19.943   5.642  41.076 -0.0412 -0.0803  0.1670
27458W        W33908  17.264   3.156  18.546 -0.1368  0.1824  0.0921
27459W        W33909  11.779   3.342  16.203  0.0780 -0.0512 -0.1026
27460W        W33910  18.079   2.650  16.917  0.2454  0.2057  0.2706
27461W        W33911  17.344   5.879  30.503  0.2904 -0.0431  0.0768
27462W        W33912  10.995   4.664  13.508  0.0057 -0.0974 -0.1773
27463W        W33913   1.627   1.075   7.224 -0.3038  0.1111  0.2134
27464W        W33914   9.605   3.583  33.628 -0.2385  0.0997 -0.1408
27465W        W33915   3.539   3.629   2.741 -0.2214 -0.1583 -0.0868
27466W        W33916   1.270   2.200  37.905  0.5147 -0.0668  0.2343
27467W        W33917   3.824   4.735  42.025 -0.1949 -0.2848  0.2064
27468W        W33918   1.825   5.054  29.404 -0.2122  0.0251 -0.0243
27469W        W33919  13.985   4.914   0.066 -0.0147  0.1467  0.0240
27470W        W33920  17.011   5.407   8.744 -0.0576  0.0186  0.1855
27471W        W33921   2.979   0.485  10.127 -0.0974  0.3004 -0.2482
27472W        W33922  20.136   4.852  16.533  0.0625 -0.2468  0.0051
27473W        W33923   9.451   1.951  40.479 -0.0018 -0.0990 -0.2555
27474W        W33924   3.559   3.128  31.001  0.0695 -0.2264 -0.2018
27475W        W33925   8.871   2.271  13.196 -0.0097  0.0996 -0.1663
27476W        W33926   0.158   0.823  42.802  0.2017 -0.2110  0.2407
27477W        W33927  10.841   2.274  36.224  0.1881  0.1594  0.2683
27478W        W33928   8.643   4.626   2.800 -0.0785 -0.1070 -0.1221
27479W        W33929  20.511   0.956  19.414  0.0275 -0.1453 -0.2949
27480W        W33930   5.804   2.111  36.527  0.3227  0.0353  0.0807
27481W        W33931  19.562   5.468  21.084  0.1137 -0.0363  0.1686
27482W        W33932  12.325   5.552   2.570 -0.2272 -0.6243  0.3822
27483W        W33933  14.529   6.224  40.218  0.0222 -0.0600  0.0150
27484W        W33934  18.925   5.464   9.480 -0.2929  0.0296  0.0152
27485W        W33935   8.436   4.282   1.543 -0.1109 -0.1244  0.0101
27486W        W33936   2.512   5.863  25.233  0.0859  0.0074 -0.0068
27487W        W33937   8.647   0.609  17.057 -0.1637  0.0199 -0.3643
27488W        W33938   2.984   1.924   0.522 -0.0677  0.5111  0.1052
27489W        W33939  17.646   3.166   4.960 -0.2489  0.1475 -0.3310
27490W        W33940  16.864   2.940   7.995  0.0982  0.1006  0.1769
27491W        W33941   2.549   0.087  15.193 -0.0421 -0.0317 -0.0608
27492W        W33942  14.482   5.780   9.463 -0.0099 -0.2569 -0.2056
27493W        W33943   4.397   4.916  24.707 -0.0480 -0.3541 -0.3460
27494W        W33944  20.486   5.678  38.875 -0.0388  0.3866  0.0448
27495W        W33945  11.532   2.898   9.903 -0.1620 -0.1251  0.0524
27496W        W33946   4.751   3.044  15.181 -0.1610  0.1506  0.3473
27497W        W33947   4.152   2.901   5.245  0.0455  0.2376 -0.3203
27498W        W33948  16.097   1.152   8.290 -0.1511 -0.2481 -0.0575
27499W        W33949   8.520   3.970  15.511 -0.0379  0.1433 -0.3801
27500W        W33950  11.709   4.853  14.549  0.0822  0.1094 -0.0019
27501W        W33951  16.424   4.690   6.655 -0.1380  0.1722 -0.1672
27502W        W33952  17.913   2.079  10.075 -0.2348 -0.2019 -0.1873
27503W        W33953   0.942   5.018  28.528 -0.1193 -0.1200  0.0178
27504W        W33954  20.865   0.975  44.454 -0.1725  0.1585 -0.0434
27505W        W33955   4.837   4.849  43.375  0.1647 -0.0770  0.1761
27506W        W33956   3.675   5.440  37.267 -0.0434  0.1852  0.2904
27507W        W33957  15.197   1.696  35.032 -0.2659  0.1548 -0.0980
27508W        W33958   4.543   2.588  44.522 -0.3139 -0.0628  0.1845
27509W        W33959  13.522   3.570  39.698 -0.0910 -0.0339 -0.3416
27510W        W33960  20.906   4.605  39.523 -0.2964 -0.3050 -0.0151
27511W        W33961   9.171   4.389  31.037  0.0392 -0.1397  0.0655
27512W        W33962  12.341   1.566  42.895  0.2392 -0.0138 -0.0458
27513W        W33963  19.364   6.565  19.978 -0.2377  0.1073  0.2772
27514W        W33964  14.211   3.365   8.292  0.1119  0.1458 -0.0831
27515W        W33965   9.653   5.305  42.636  0.4913 -0.0833  0.1616
27516W        W33966  17.683   6.524  42.005  0.0296 -0.1419 -0.1256
27517W        W33967  19.540   5.165  28.427  0.2101 -0.1397  0.1626
27518W        W33968   8.926   6.602   9.168 -0.0780 -0.1473  0.1087
27519W        W33969   2.213   5.774   8.015  0.0251  0.0196  0.0378
27520W        W33970  17.790   5.828  31.847  0.1353 -0.0662 -0.3105
27521W        W33971  13.692   1.114   7.997 -0.3171 -0.0209 -0.2597
27522W        W33972  12.957   4.207  35.254  0.1014  0.0167 -0.1375
27523W        W33973  20.434   2.562  38.984  0.0103 -0.1590  0.3646
27524W        W33974   8.547   2.624   6.560 -0.4162  0.0545 -0.1900
27525W        W33975   9.902   0.742  44.914  0.1649 -0.4351 -0.1040
27526W        W33976   6.762   1.824  22.182  0.0339 -0.1492 -0.0091
27527W        W33977  15.413   0.588  30.131 -0.1310 -0.0707  0.1554
27528W        W33978  12.398   0.063  44.175 -0.2038 -0.0559 -0.2737
27529W        W33979   0.070   4.287  39.220  0.4919 -0.2125 -0.0636
27530W        W33980   7.657   0.456  13.414  0.0882  0.0146  0.2080
27531W        W33981  18.906   3.586  38.763 -0.0690 -0.1959 -0.0192
27532W        W33982  16.927   0.520  18.639  0.0365  0.0344  0.1348
27533W        W33983  14.741   0.166  41.076 -0.1083 -0.3269  0.0267
27534W        W33984   9.996   5.437  32.832 -0.2176 -0.1099  0.0804
27535W        W33985  16.260   4.675   7.562  0.0759 -0.0334  0.2025
27536W        W33986   3.223   2.957  30.683  0.3367 -0.0269  0.2130
27537W        W33987  10.487   5.918  39.700  0.0508 -0.1844 -0.2944
27538W        W33988  20.489   6.448   3.672  0.1532  0.3707  0.1344
27539W        W33989  16.567   4.763  34.756 -0.1689 -0.2332 -0.1512
27540W        W33990   9.948   0.975  40.480 -0.2046  0.4052  0.3267
27541W        W33991  18.674   6.264   4.071 -0.0203  0.1444  0.2249
27542W        W33992   7.816   4.564  13.205 -0.1794 -0.2502 -0.0168
27543W        W33993  18.204   3.768   4.089 -0.0889 -0.0518 -0.0796
27544W        W33994  16.897   4.718   1.792  0.4324  0.0675 -0.0403
27545W        W33995   3.204   0.070  37.639 -0.4130  0.1038 -0.2579
27546W        W33996  14.511   4.753  22.428 -0.1505 -0.0718 -0.0082
27547W        W33997  11.725   1.349  42.731  0.0550  0.1299 -0.1448
27548W        W33998   8.026   4.055   9.469 -0.0512  0.1364 -0.0541
27549W        W33999  18.615   5.813  11.250  0.1416  0.1693 -0.1920
27550W        W34000  10.749   2.791  33.807 -0.0360  0.0218 -0.2559
27551W        W34001   5.290   2.340  27.962  0.0128 -0.0826 -0.3550
27552W        W34002   3.361   4.044  45.022  0.0951 -0.2230  0.3413
27553W        W34003   6.642   4.522  34.522 -0.1480  0.0520  0.2729
27554W        W34004  14.100   5.775  17.903  0.0349  0.0717 -0.2624
27555W        W34005  18.971   3.661  42.684 -0.0139 -0.1813  0.2075
27556W        W34006  19.291   5.120  16.692  0.1548  0.0584 -0.1443
27557W        W34007  14.524   3.262  44.856 -0.0359 -0.0559 -0.0486
27558W        W34008   9.936   5.405  44.734  0.1078  0.1054  0.3278
27559W        W34009   1.142   4.841  43.051  0.0724 -0.0200  0.0724
27560W        W34010   3.651   5.799   5.533  0.1201  0.0923 -0.0776
27561W        W34011  16.813   0.321   1.681  0.1435  0.1427 -0.4022
27562W        W34012  17.103   0.578  29.382 -0.2515 -0.0820  0.2550
27563W        W34013  14.682   4.534  32.481 -0.2298 -0.0368  0.0348
27564W        W34014  10.059   6.430  13.077 -0.1141 -0.0405 -0.1352
27565W        W34015  11.674   1.059  35.254  0.0366 -0.0159 -0.0014
27566W        W34016   8.237   6.092  11.870 -0.1127  0.1781  0.3338
27567W        W34017   6.522   4.075  34.931  0.1753  0.2356 -0.0411
27568W        W34018   9.786   2.336  44.906 -0.0309 -0.2232  0.0721
27569W        W34019  14.977   5.157   8.794  0.2007  0.0800  0.0185
27570W        W34020   5.177   4.674  39.646 -0.0446 -0.2246  0.0154
27571W        W34021  19.487   4.276   9.609 -0.1275  0.1194 -0.0568
27572W        W34022   2.268   1.182  35.004  0.0653 -0.2895 -0.0432
27573W        W34023  12.015   4.187  44.680  0.0540 -0.3330  0.3386
27574W        W34024  10.448   1.618  31.845  0.0329  0.1918  0.1226
27575W        W34025  17.671   4.819   6.772  0.2077  0.2510  0.0883
27576W        W34026   3.551   5.698   1.324 -0.1118 -0.2017 -0.0252
27577W        W34027  13.951   2.491   7.683  0.1438 -0.2414  0.2639
27578W        W34028   5.174   5.208   4.108  0.0325 -0.2081 -0.1666
27579W        W34029  11.612   4.916  12.299 -0.0575 -0.2177 -0.3812
27580W        W34030  12.347   1.336  41.643 -0.0875  0.1550  0.0842
27581W        W34031   3.847   0.261  15.038 -0.0864 -0.2112 -0.0565
27582W        W34032  18.516   4.598  41.001  0.2234 -0.1616  0.2767
27583W        W34033  17.384   1.948  35.896  0.0660 -0.0612 -0.0958
27584W        W34034  15.970   3.663  11.245  0.0949  0.0464  0.2430
27585W        W34035  19.964   5.787  36.690  0.1701 -0.0861  0.1099
27586W        W34036  15.578   0.558  39.061 -0.2140 -0.2637  0.0773
27587W        W34037  15.182   0.291   8.915 -0.1769  0.1585  0.3960
27588W        W34038   5.736   3.114  40.395  0.2453 -0.0092  0.2832
27589W        W34039  13.988   3.490  18.532  0.3487  0.5010 -0.1940
27590W        W34040  13.616   0.937   1.240 -0.1737  0.0833  0.0432
27591W        W34041  18.772   1.067  17.980  0.1170  0.2231  0.0102
27592W        W34042  10.379   0.828  12.445 -0.0113  0.0744  0.1910
27593W        W34043   0.536   6.502   7.786  0.0592 -0.0614  0.0864
27594W        W34044  11.688   0.729  19.459 -0.0215 -0.0418  0.0288
27595W        W34045  20.024   2.837  33.660  0.0283  0.0624 -0.2723
27596W        W34046   9.902   5.823  15.247 -0.1683  0.0138 -0.0109
27597W        W34047   9.190   2.442  10.684  0.1923  0.0052 -0.0876
27598W        W34048  16.815   3.154  31.799 -0.1453 -0.3369 -0.2651
27599W        W34049   8.411   6.396   2.275  0.1330 -0.1375 -0.1641
27600W        W34050  10.618   3.432   4.263  0.1022 -0.1266 -0.1215
27601W        W34051  15.022   0.332  36.705  0.0218  0.1414  0.0553
27602W        W34052  19.077   6.165  40.797 -0.1703 -0.0570  0.1907
27603W        W34053  17.738   5.210  34.229 -0.4482 -0.1336  0.1256
27604W        W34054   1.634   5.483  33.381 -0.0492  0.0899  0.0198
27605W        W34055  15.433   2.518  43.357  0.0576  0.0703 -0.2899
27606W        W34056  15.115   5.463   1.937 -0.0396 -0.0813  0.1117
27607W        W34057  12.471   1.284  35.092  0.1912  0.3174 -0.0369
27608W        W34058   5.120   6.378  40.595  0.0687  0.0857  0.4100
27609W        W34059   9.452   1.013  35.320 -0.1583 -0.3442  0.3534
27610W        W34060   7.547   3.214  36.146  0.0018 -0.0902  0.4137
27611W        W34061  19.626   3.104  38.259 -0.0724 -0.1349  0.2072
27612W        W34062  20.775   4.146  19.006 -0.1867 -0.0243  0.1167
27613W        W34063  20.685   2.883  39.982  0.1346  0.1775 -0.1007
27614W        W34064   3.877   4.276  37.014 -0.0447 -0.1573 -0.0406
27615W        W34065  19.592   4.216   7.400  0.0294  0.3243 -0.1508
27616W        W34066   8.471   3.927   7.140 -0.1333 -0.1713  0.0554
27617W        W34067   4.936   6.318  24.787  0.1041  0.0315 -0.1243
27618W        W34068  16.715   3.241   5.201  0.1038 -0.1174  0.0638
27619W        W34069  18.944   4.902   2.042 -0.1223 -0.2021 -0.3161
27620W        W34070  18.244   5.157  34.394 -0.0210 -0.2398 -0.0846
27621W        W34071   3.467   4.289  32.459 -0.0242  0.0637  0.0684
27622W        W34072   7.604   1.541  43.373  0.1135 -0.0869 -0.0537
27623W        W34073   1.198   6.332  44.339  0.2704  0.3265 -0.0274
27624W        W34074   8.421   2.018  40.702 -0.1550  0.1244 -0.1430
27625W        W34075   9.847   4.943  27.432  0.0617 -0.1001  0.0419
27626W        W34076   8.675   4.739  36.890  0.3432  0.2855 -0.1899
27627W        W34077   1.228   0.011  43.346 -0.1550  0.0340  0.0698
27628W        W34078  14.420   5.674  42.032 -0.1330  0.0332 -0.0471
27629W        W34079   5.633   4.310  14.102 -0.1664 -0.1922 -0.2540
27630W        W34080   6.245   0.333  35.208 -0.1667 -0.1708 -0.3614
27631W        W34081   8.438   6.046  43.353 -0.0453 -0.0427  0.0214
27632W        W34082   3.012   2.289   8.544 -0.2171  0.1790 -0.2764
27633W        W34083   7.227   1.484  12.455  0.0012  0.1254  0.0101
27634W        W34084   0.532   0.891   2.680  0.0535  0.0474  0.4938
27635W        W34085  15.737   4.237  34.839  0.0442 -0.2468 -0.0611
27636W        W34086   0.007   3.191  30.779 -0.1258 -0.0156 -0.2151
27637W        W34087  17.148   1.223   2.731 -0.1371  0.1036  0.0096
27638W        W34088  16.251   0.258  25.201  0.1397 -0.1588 -0.0283
27639W        W34089  15.437   6.331  41.658  0.2025  0.0513 -0.0504
27640W        W34090  17.956   4.298  23.346 -0.0101  0.0654 -0.2527
27641W        W34091  20.052   2.666  15.919 -0.0691  0.3128  0.1219
27642W        W34092   4.527   2.734  22.510  0.3963  0.0995  0.0915
27643W        W34093  17.927   4.365  44.124 -0.4654 -0.0771 -0.1504
27644W        W34094  16.665   0.831  40.250 -0.2521 -0.1336  0.1655
27645W        W34095  10.869   2.309  16.244 -0.2687  0.0429 -0.1137
27646W        W34096   3.263   2.139  32.251 -0.1346  0.4186  0.3037
27647W        W34097   7.577   0.847   5.754  0.0987  0.0035 -0.0062
27648W        W34098   4.199   3.932   7.727 -0.2351  0.3050  0.0663
27649W        W34099  10.958   1.975  30.901 -0.0308 -0.0001  0.3636
27650W        W34100   6.623   2.082  34.573 -0.2111  0.1319 -0.1075
27651W        W34101  10.896   0.030  12.565  0.0577  0.0329  0.0249
27652W        W34102   9.368   5.038   7.638 -0.2766  0.0397 -0.0575
27653W        W34103  21.044   2.447  12.891 -0.0450 -0.0659 -0.3738
27654W        W34104   3.544   1.945  14.961 -0.0463 -0.2594  0.0975
27655W        W34105  13.158   5.811  38.894  0.2763  0.0858  0.0634
27656W        W34106   4.983   4.929  35.219  0.1895  0.2177 -0.0545
27657W        W34107   3.691   3.803   8.062 -0.0959  0.1217 -0.1677
27658W        W34108  14.103   6.160   1.085  0.1187  0.0575 -0.0764
27659W        W34109   0.334   2.867   1.985 -0.1301 -0.3191  0.2995
27660W        W34110  12.895   2.743   6.061  0.3915  0.0977 -0.1498
27661W        W34111   6.037   3.089  29.445  0.0747 -0.0093 -0.2301
27662W        W34112   8.991   4.086  38.563 -0.1027 -0.0361 -0.0363
27663W        W34113   3.740   4.311  38.011  0.1112 -0.2514 -0.3200
27664W        W34114  17.870   2.587  36.496 -0.2651  0.0511 -0.0623
27665W        W34115  18.166   4.816  36.790  0.0244  0.2760  0.1872
27666W        W34116   8.389   1.192  41.920 -0.0847 -0.0614 -0.0559
27667W        W34117  10.459   4.721  40.319  0.3883  0.2821  0.2098
27668W        W34118   7.431   2.869  31.917  0.1444 -0.3347  0.1439
27669W        W34119  17.083   2.865  13.773 -0.0939 -0.1468  0.3780
27670W        W34120  12.303   4.753   7.701 -0.2218 -0.0618  0.2059
27671W        W34121  14.591   0.976  10.485 -0.5679  0.2655 -0.0881
27672W        W34122   2.836   1.175  11.924  0.0496  0.0132 -0.2396
27673W        W34123  16.559   2.407  35.066 -0.2908  0.0316 -0.1276
27674W        W34124   5.104   3.010  42.262  0.1876  0.2071  0.1623
27675W        W34125   7.994   0.653  32.877 -0.1833 -0.1272  0.0975
27676W        W34126  16.643   2.684   5.216 -0.0119 -0.1041  0.1701
27677W        W34127  20.072   6.197  35.370  0.0643  0.1184 -0.0114
27678W        W34128   9.848   3.271  10.866 -0.0644 -0.0724 -0.1510
27679W        W34129  14.361   0.911  36.858  0.1925 -0.1687  0.0531
27680W        W34130  11.538   3.376  17.025 -0.2475 -0.0042  0.1829
27681W        W34131  20.403   1.585  32.193 -0.1272  0.3173  0.1103
27682W        W34132  18.639   1.020  33.249 -0.2353  0.2414  0.1914
27683W        W34133   5.482   4.666  19.659 -0.1529 -0.0612 -0.1391
27684W        W34134   5.137   2.534  41.939  0.0829  0.0420  0.2678
27685W        W34135  14.828   2.131  21.353  0.0871 -0.3570 -0.3342
27686W        W34136  11.473   1.564  43.219  0.1314  0.1521 -0.0314
27687W        W34137  16.159   5.780  32.905  0.3400 -0.4672 -0.0699
27688W        W34138  14.706   4.088   6.304  0.0601 -0.0453 -0.2703
27689W        W34139   4.022   0.959  34.520 -0.1012  0.1748  0.0694
27690W        W34140   2.440   2.997  27.307  0.0792  0.1569 -0.0387
27691W        W34141   3.524   3.618   3.239 -0.3291 -0.2398 -0.1481
27692W        W34142  11.663   0.765   3.492  0.1082  0.1632  0.1440
27693W        W34143  13.058   2.260  39.665  0.2438 -0.2870  0.1970
27694W        W34144   3.393   2.058  40.046 -0.3119 -0.1640 -0.0660
27695W        W34145  13.592   4.908  42.398 -0.0290  0.1042  0.3776
27696W        W34146  13.312   5.801   0.966 -0.0452 -0.3433 -0.0951
27697W        W34147   7.610   4.483   7.365  0.0683  0.2652  0.0477
27698W        W34148   3.936   0.427   8.675 -0.2090  0.3094 -0.0223
27699W        W34149   7.335   3.419   8.899  0.5632  0.1500  0.0458
27700W        W34150   4.046   2.291  10.759 -0.0047 -0.1568 -0.0050
27701W        W34151   0.366   2.835  15.173  0.0655 -0.1336 -0.1745
27702W        W34152   3.907   6.513  26.335 -0.1263 -0.0905  0.0613
27703W        W34153   9.114   2.307   4.391  0.1074 -0.0774  0.3208
27704W        W34154  18.636   4.466  33.495 -0.0537 -0.0206 -0.1322
27705W        W34155   1.625   2.433  30.196 -0.0630  0.1913 -0.3592
27706W        W34156  20.707   1.199  29.294 -0.2098  0.0960  0.2153
27707W        W34157   3.753   3.359  32.682 -0.0820  0.2759 -0.0923
27708W        W34158  17.885   2.110  30.879 -0.0198  0.0000  0.0049
27709W        W34159  15.069   2.204  12.138 -0.0079 -0.0854 -0.0119
27710W        W34160   6.623   1.814  37.684 -0.0923 -0.1817  0.2362
27711W        W34161  20.395   2.819  30.047  0.0449 -0.0330  0.0897
27712W        W34162   2.325   4.315  27.938  0.3670  0.1357 -0.2379
27713W        W34163  12.288   2.685   7.808  0.0908  0.0037 -0.0690
27714W        W34164   6.099   3.269  41.404  0.0373 -0.0336  0.0390
27715W        W34165  12.672   5.845  35.457  0.0106  0.0382  0.2197
27716W        W34166  11.796   6.583  13.797 -0.0281  0.2944 -0.3873
27717W        W34167  18.637   4.077  41.122  0.3025 -0.3459  0.0107
27718W        W34168   6.031   5.654  35.679  0.0273  0.0623 -0.1727
27719W        W34169  10.138   6.406   0.949  0.0393 -0.1620  0.1551
27720W        W34170   0.335   0.942   7.573  0.2758 -0.2756 -0.1536
27721W        W34171  17.329   0.325  42.515  0.0358 -0.0344  0.2007
27722W        W34172  16.714   3.719  12.689  0.2723  0.1247 -0.1429
27723W        W34173   8.791   0.430  39.145 -0.0005  0.2043  0.0234
27724W        W34174   9.853   3.402  29.198 -0.4953  0.0839 -0.0276
27725W        W34175   6.412   0.405  24.496  0.0700 -0.1347 -0.2128
27726W        W34176   4.690   2.088  42.940 -0.0822 -0.0084 -0.2700
27727W        W34177   2.923   1.538   7.384 -0.2555  0.3642  0.1519
27728W        W34178  17.508   4.873  39.677 -0.0090  0.0147 -0.0781
27729W        W34179  19.770   4.586  41.880 -0.0877 -0.0724 -0.0119
27730W        W34180  11.925   5.199  15.734  0.0595  0.3287  0.0519
27731W        W34181  20.262   3.411  31.647  0.0488  0.1008 -0.0857
27732W        W34182   7.894   3.526  40.691 -0.0913 -0.0481 -0.3700
27733W        W34183   7.706   1.262  33.283  0.2868  0.2746 -0.1115
27734W        W34184   9.481   5.851  34.121 -0.1855  0.2615  0.4507
27735W        W34185   6.650   1.140  34.100  0.0025 -0.0197  0.1122
27736W        W34186   9.347   3.999  13.456 -0.2215 -0.0903 -0.1729
27737W        W34187  15.622   0.695   6.940 -0.0520 -0.2889  0.0754
27738W        W34188  14.479   0.682  36.288 -0.1490  0.2700 -0.0770
27739W        W34189   9.436   2.360  37.030 -0.0833 -0.0123 -0.1353
27740W        W34190   2.834   4.621  13.230 -0.2803  0.3376  0.0457
27741W        W34191   5.287   4.361  38.695  0.0649  0.0050 -0.0659
27742W        W34192   7.815   3.777  16.219 -0.0841 -0.2663  0.0487
27743W        W34193  13.607   3.638  19.629 -0.1500  0.0970 -0.0142
27744W        W34194  14.381   6.595  15.416 -0.0847  0.0563  0.2809
27745W        W34195  10.841   2.422  39.580 -0.0167  0.0275 -0.4111
27746W        W34196   6.624   3.426  43.945  0.0688  0.1509 -0.0937
27747W        W34197   5.859   2.761  22.834 -0.0081 -0.0275  0.0615
27748W        W34198   9.912   0.819  35.518  0.0810 -0.2271 -0.0263
27749W        W34199   4.792   5.405  36.446  0.1294  0.2277 -0.1734
27750W        W34200  17.781   0.858  41.120 -0.0396 -0.0058  0.2677
27751W        W34201   4.814   1.322  36.382  0.1104 -0.0528 -0.0710
27752W        W34202   4.440   3.033  22.083 -0.1586 -0.1625 -0.0885
27753W        W34203   7.442   4.218  36.092  0.0439 -0.0926 -0.1444
27754W        W34204  17.406   2.205  14.337  0.1036 -0.1287  0.2724
27755W        W34205   9.980   6.209  28.450 -0.0124  0.1881  0.1381
27756W        W34206  15.132   0.237  37.179 -0.2241 -0.1644 -0.2814
27757W        W34207   6.648   6.380  41.197  0.0262 -0.0333  0.2131
27758W        W34208  17.901   2.819  34.189  0.1032 -0.1478 -0.0212
27759W        W34209   7.964   0.144  13.107 -0.1138  0.1215  0.0531
27760W        W34210  12.198   4.295   7.870 -0.2012  0.0485  0.0411
27761W        W34211  18.561   0.844  21.679 -0.3246  0.1979 -0.1711
27762W        W34212   0.186   2.724  45.076 -0.2766 -0.1927 -0.1321
27763W        W34213  12.988   1.043  42.283 -0.1379 -0.2533  0.0617
27764W        W34214  19.734   6.356  42.402  0.0362 -0.2300  0.0872
27765W        W34215   1.091   2.700  16.215  0.2127 -0.0453 -0.1095
27766W        W34216   1.596   4.178  38.892  0.0954  0.1068  0.1961
27767W        W34217  10.938   2.757   7.103  0.0714  0.1119 -0.2492
27768W        W34218  11.935   4.317  30.225 -0.3480  0.2057 -0.2053
27769W        W34219   0.562   0.550  40.940 -0.0468  0.3078  0.1478
27770W        W34220  19.980   4.522  32.966 -0.2678 -0.0663  0.4300
27771W        W34221  10.849   0.740  43.974  0.0052 -0.2591  0.1305
27772W        W34222  20.588   0.190  34.210  0.0166 -0.4328  0.0791
27773W        W34223  16.924   1.757  33.152  0.2346 -0.0908  0.2139
27774W        W34224  18.895   1.419  33.201 -0.0984 -0.0423 -0.0596
27775W        W34225   4.856   5.530   5.814  0.0171  0.0596  0.1910
27776W        W34226  19.765   0.628  39.978 -0.0432 -0.2869  0.2129
27777W        W34227   1.366   6.512  40.697 -0.1731 -0.1543  0.3113
27778W        W34228   5.278   5.934  30.824 -0.0189 -0.0249  0.3652
27779W        W34229  17.657   1.873  12.441 -0.0705  0.2913  0.1572
27780W        W34230  13.380   3.130  31.833  0.3644  0.1350 -0.0331
27781W        W34231  19.491   6.252  38.378 -0.1214 -0.0336  0.1697
27782W        W34232  15.222   2.804  40.112  0.1071  0.0461 -0.0082
27783W        W34233  11.957   4.712  17.652  0.1528 -0.1734  0.0414
27784W        W34234   3.466   6.473  36.371 -0.1371 -0.0967 -0.1669
27785W        W34235   8.201   5.345   4.926  0.2325 -0.0521 -0.2689
27786W        W34236  15.207   0.356   9.873  0.1780  0.0405 -0.0728
27787W        W34237   2.389   2.704  30.569 -0.2071  0.0535 -0.0839
27788W        W34238  10.180   5.008  32.394 -0.0232 -0.2794  0.0444
27789W        W34239  10.648   2.634  36.477  0.3479 -0.0177  0.0696
27790W        W34240  16.556   0.026  11.958  0.1202 -0.0450  0.1634
27791W        W34241   0.525   2.689  12.293 -0.3649  0.1572  0.0277
27792W        W34242   2.555   2.066   4.971 -0.1598 -0.0663  0.1050
27793W        W34243  10.440   0.721  28.713 -0.1543  0.3231 -0.0081
27794W        W34244   6.588   3.043  39.606  0.0011 -0.1410  0.0411
27795W        W34245  13.704   4.701  14.727  0.0899 -0.3047  0.0164
27796W        W34246   7.946   2.838  36.165 -0.1354  0.0138 -0.0374
27797W        W34247   2.377   6.008  26.145  0.0706 -0.0420  0.0349
27798W        W34248   6.753   4.131   7.554  0.1099 -0.1326 -0.0010
27799W        W34249  18.119   2.518  17.957  0.1599 -0.1027  0.1847
27800W        W34250   1.396   5.774  35.073  0.1841  0.0439  0.1351
27801W        W34251  19.698   1.203  18.119  0.0545 -0.2077 -0.0006
27802W        W34252  20.354   3.172  33.919  0.0206 -0.3601 -0.0850
27803W        W34253  10.626   6.490   3.834  0.0775  0.0803 -0.0609
27804W        W34254   0.244   6.521  10.265 -0.0457  0.1305  0.0550
27805W        W34255   9.671   1.720  36.015  0.2479  0.1032 -0.1411
27806W        W34256  17.699   2.080  11.490  0.1521 -0.0760 -0.0664
27807W        W34257   2.399   1.517  41.463  0.0121  0.0884  0.0471
27808W        W34258   2.352   3.866  13.032 -0.0191  0.1114 -0.4434
27809W        W34259  20.595   3.504  42.603  0.1851 -0.3703 -0.1961
27810W        W34260  13.420   0.302   5.739  0.0986  0.1890  0.2334
27811W        W34261  10.721   0.653  35.116  0.0869 -0.0357 -0.2363
27812W        W34262  14.784   6.573  40.488 -0.2538  0.1409 -0.0293
27813W        W34263  17.859   4.050  30.148 -0.1107 -0.2597  0.0468
27814W        W34264  18.963   3.346   4.988 -0.2092 -0.1910  0.1521
27815W        W34265   2.955   1.945  25.838  0.1139  0.1558  0.1506
27816W        W34266  16.730   5.816  15.310 -0.1139 -0.4522 -0.0889
27817W        W34267   4.741   5.998  10.974 -0.0399 -0.1725  0.1710
27818W        W34268   9.448   6.368  37.825  0.1857  0.0657  0.2501
27819W        W34269  18.253   6.383  13.003 -0.0349 -0.1212  0.1295
27820W        W34270   6.166   0.073  14.240 -0.0041 -0.0373 -0.1996
27821W        W34271  12.483   0.385   9.318 -0.2501 -0.0342 -0.0735
27822W        W34272  15.350   2.961   6.179 -0.0270 -0.2188  0.0561
27823W        W34273   0.315   2.279  39.808  0.1589 -0.5098 -0.1970
27824W        W34274   3.084   1.431  22.131  0.1465  0.1484 -0.2133
27825W        W34275  14.853   0.487  13.321 -0.0170  0.1322  0.0876
27826W        W34276   7.326   4.432  36.527 -0.0254 -0.1532 -0.0604
27827W        W34277   8.917   1.432  13.362 -0.1271  0.0387  0.1522
27828W        W34278   4.314   2.003  28.296  0.1736  0.0660 -0.3352
27829W        W34279  16.878   3.620  22.828 -0.1276 -0.1116 -0.0589
27830W        W34280   6.777   6.549  43.211  0.0961  0.0802 -0.1834
27831W        W34281   9.096   1.677   3.043 -0.0626 -0.1770 -0.0172
27832W        W34282   1.877   4.702   4.884  0.0034  0.2218  0.2131
27833W        W34283  16.922   5.735  22.126 -0.0859 -0.0373  0.1384
27834W        W34284   4.627   3.638   8.422  0.0075  0.0988 -0.1305
27835W        W34285  14.291   5.769  36.706  0.1975 -0.3200  0.0237
27836W        W34286  13.769   5.269  20.042 -0.1156 -0.5577  0.2066
27837W        W34287   5.645   5.979  37.358 -0.3358  0.2343 -0.1603
27838W        W34288  10.862   3.674  32.931  0.0179 -0.0568  0.3152
27839W        W34289   6.296   4.038  40.756 -0.2677 -0.0665  0.0817
27840W        W34290  17.314   0.671  37.224  0.1384  0.1335  0.2192
27841W        W34291   4.170   5.576  43.590  0.1397 -0.2143 -0.0386
27842W        W34292   4.719   0.851  23.622 -0.2695 -0.0438  0.0075
27843W        W34293   0.572   0.565  16.731  0.2865  0.1033  0.1699
27844W        W34294  12.628   5.201   3.630 -0.0975 -0.0563 -0.1750
27845W        W34295   2.404   2.248   4.169  0.0081 -0.0948  0.2155
27846W        W34296   7.816   1.380   7.211  0.2413 -0.1275  0.1836
27847W        W34297   1.535   5.027  17.741 -0.2658  0.1137  0.1986
27848W        W34298   0.283   4.460  11.904 -0.0005 -0.4020 -0.0762
27849W        W34299   5.575   1.442  37.435 -0.0062  0.0799  0.1450
27850W        W34300  18.860   4.023  33.156  0.1519 -0.2714  0.1588
27851W        W34301  13.501   5.151  44.341  0.3232  0.2673  0.0521
27852W        W34302   2.737   4.642   2.324 -0.1159 -0.0218  0.0905
27853W        W34303  18.201   6.286   8.657 -0.0930  0.0038  0.2802
27854W        W34304  11.666   3.749   1.831 -0.0527  0.4060 -0.1014
27855W        W34305   2.258   5.540  34.515  0.0015 -0.0493 -0.0895
27856W        W34306  12.438   4.578  44.499  0.3844 -0.0140  0.2221
27857W        W34307  15.513   4.893   2.401  0.3729 -0.2612 -0.3361
27858W        W34308   8.060   2.366  17.100 -0.1781 -0.0752 -0.1423
27859W        W34309   1.711   3.386  40.444  0.1258  0.1252  0.0432
27860W        W34310  18.822   5.357  39.637  0.1387  0.0050 -0.2238
27861W        W34311   5.440   3.870  22.635  0.2020 -0.1351 -0.0166
27862W        W34312   6.309   3.036  21.464 -0.0624  0.1206 -0.0731
27863W        W34313   0.702   2.152  44.546 -0.0644  0.0174  0.0549
27864W        W34314  13.643   6.348   3.545  0.0300  0.0806  0.1795
27865W        W34315   1.677   5.233  44.530 -0.1644  0.0777  0.0327
27866W        W34316   6.822   0.592  13.135 -0.2623 -0.1956  0.2072
27867W        W34317   4.354   3.979   8.705  0.0712 -0.0605 -0.0076
27868W        W34318   2.168   4.848  38.832  0.0634 -0.1951 -0.2727
27869W        W34319   9.968   0.569   3.449 -0.0979  0.0267  0.1092
27870W        W34320  17.495   4.876  34.037 -0.0070  0.1380  0.0758
27871W        W34321   8.731   4.209  27.174  0.2004  0.2009  0.3406
27872W        W34322  18.515   3.547  22.512  0.1091 -0.0073 -0.0668
27873W        W34323   2.378   1.177  14.187 -0.0638 -0.0743 -0.1274
27874W        W34324   7.035   2.904  24.001 -0.0097  0.1528 -0.0826
27875W        W34325  16.442   5.889   2.659  0.0449 -0.0923  0.0229
27876W        W34326   4.956   4.970   9.628  0.3328 -0.1306  0.0190
27877W        W34327   6.852   3.707   8.951  0.2085 -0.1358 -0.0694
27878W        W34328  10.220   0.791  27.909  0.2370  0.1759  0.1525
27879W        W34329  19.501   6.176  28.742  0.1933  0.0240  0.0746
27880W        W34330  10.103   2.624  17.109  0.1861  0.0778 -0.1776
27881W        W34331   9.560   4.276  31.470  0.0557 -0.0837  0.3545
27882W        W34332   3.765   5.701  29.346 -0.1248  0.3631 -0.0563
27883W        W34333   1.250   1.514  36.860  0.0832  0.0857 -0.2543
27884W        W34334   4.453   4.835   2.165  0.0625 -0.0109 -0.0211
27885W        W34335  10.838   5.020  35.073  0.2212  0.2265 -0.1762
27886W        W34336  20.749   3.274  39.660 -0.0476  0.4131 -0.4491
27887W        W34337   8.669   3.989  31.112 -0.2010  0.5254 -0.1817
27888W        W34338   2.587   4.147  38.937 -0.0035 -0.2241  0.0474
27889W        W34339   7.632   0.256  40.511 -0.2510 -0.1514  0.0547
27890W        W34340  10.914   0.821  36.301  0.2164  0.3269  0.0212
27891W        W34341   8.222   1.747  10.738  0.0600  0.0728  0.0574
27892W        W34342   5.577   5.891   5.139 -0.1932  0.1789  0.3776
27893W        W34343   4.060   6.509  45.042  0.0561  0.1156  0.5274
27894W        W34344  16.246   4.878  37.342  0.0966  0.2484  0.3000
27895W        W34345  11.116   3.594  16.228 -0.3859 -0.1780  0.0874
27896W        W34346   2.933   2.824  25.395  0.2661 -0.1847  0.0654
27897W        W34347  14.764   2.031  22.353 -0.0687 -0.0231  0.2827
27898W        W34348  10.770   4.307  27.859 -0.0205 -0.0328  0.1680
27899W        W34349   6.331   1.970  25.418 -0.0338 -0.0807  0.1950
27900W        W34350  20.910   1.065  12.864 -0.1885  0.3135 -0.1854
27901W        W34351   6.977   6.479  29.302 -0.0503 -0.2104 -0.0878
27902W        W34352  19.305   6.246  41.614 -0.1712 -0.0831 -0.0913
27903W        W34353   0.524   3.709  29.404  0.0106 -0.5373 -0.1316
27904W        W34354   6.686   1.104  35.781 -0.0258  0.4236  0.2625
27905W        W34355  13.041   5.450  17.852  0.0285  0.0089  0.0519
27906W        W34356   8.222   1.651  30.228 -0.3145  0.0110 -0.0515
27907W        W34357   6.150   4.385  34.813 -0.0608  0.1728  0.0985
27908W        W34358   4.895   3.085  22.361 -0.0470  0.0390 -0.1047
27909W        W34359  19.242   2.827  19.321  0.0311 -0.0954 -0.2154
27910W        W34360   0.655   2.442  34.204  0.1242  0.0020  0.0652
27911W        W34361  15.698   4.603  19.981  0.0651  0.1162 -0.1641
27912W        W34362   6.851   4.892  11.081 -0.0922  0.0031 -0.1571
27913W        W34363   1.215   4.813  32.586 -0.0861  0.0895  0.0729
27914W        W34364   9.030   5.976  30.800 -0.2068 -0.0125 -0.0407
27915W        W34365  14.944   2.412  37.620  0.1813 -0.0847 -0.0527
27916W        W34366   3.252   2.461  37.105 -0.0864 -0.0861  0.0944
27917W        W34367   6.263   1.717   2.007 -0.1265 -0.1724  0.0489
27918W        W34368  15.175   5.317  42.524 -0.0581  0.4152 -0.2152
27919W        W34369   9.358   6.065  14.151 -0.0976 -0.0565 -0.3156
27920W        W34370   0.293   6.196   2.358  0.1212  0.0072 -0.0620
27921W        W34371   1.405   1.360  42.383 -0.1293 -0.1322 -0.2417
27922W        W34372  12.522   2.615   1.363 -0.1510 -0.1386 -0.1454
27923W        W34373   5.365   5.620   4.427  0.1242 -0.0324  0.1918
27924W        W34374   1.146   3.542  15.635  0.1682 -0.2026  0.2040
27925W        W34375  20.702   0.625   1.828  0.0440  0.0566 -0.2575
27926W        W34376   3.159   1.514   0.819  0.1491  0.2061 -0.0076
27927W        W34377  16.339   4.723  16.491  0.0450 -0.2693  0.2409
27928W        W34378   6.769   6.387   3.439 -0.0976  0.1306 -0.1673
27929W        W34379  14.834   2.909   6.019  0.1059 -0.0563 -0.0641
27930W        W34380   1.217   3.745   6.917 -0.0421  0.1188 -0.4632
27931W        W34381   8.423   2.948  10.679  0.3618  0.1942 -0.4618
27932W        W34382  11.104   2.275   7.251  0.1936  0.0817  0.3675
27933W        W34383  17.572   0.416  42.081 -0.0801 -0.0236 -0.0477
27934W        W34384   6.850   1.944  25.403 -0.2729  0.0409 -0.0183
27935W        W34385   9.930   4.611  44.103 -0.1866 -0.2420 -0.3024
27936W        W34386   3.260   0.782   3.491  0.0732  0.0544 -0.2589
27937W        W34387  10.896   4.181  13.522 -0.1131 -0.0085 -0.2122
27938W        W34388  20.921   4.550   9.160 -0.0724 -0.2282 -0.1439
27939W        W34389  16.865   1.570  22.612 -0.0862 -0.4036 -0.2561
27940W        W34390   5.557   6.299  27.458 -0.0206  0.2354 -0.1465
27941W        W34391  11.779   3.318  11.346 -0.0716 -0.1098 -0.0687
27942W        W34392  17.372   0.876  19.245 -0.0670 -0.0586 -0.1014
27943W        W34393   2.050   6.046  29.064 -0.0178  0.1594  0.0090
27944W        W34394   7.333   1.245  38.157  0.0276  0.1331 -0.0649
27945W        W34395  10.101   1.076   4.239 -0.1663 -0.0523  0.1760
27946W        W34396   1.141   4.564  37.274  0.3574 -0.1367 -0.1494
27947W        W34397   7.671   2.764   8.343  0.0611  0.3798  0.2559
27948W        W34398  20.611   6.249   0.698 -0.3270 -0.0020 -0.0622
27949W        W34399  12.931   0.247   8.230  0.2872 -0.0061  0.1671
27950W        W34400  14.037   1.196  40.316  0.0261  0.2452 -0.0681
27951W        W34401  16.634   1.012   5.622 -0.2759  0.0527 -0.1468
27952W        W34402   7.911   6.066  26.583 -0.1302 -0.2641  0.1060
27953W        W34403   8.932   1.888  42.526 -0.1293 -0.0337  0.2329
27954W        W34404  17.586   5.913  21.089  0.1241 -0.0044 -0.3793
27955W        W34405  16.636   3.394  37.705  0.2388 -0.1602 -0.3027
27956W        W34406  11.324   3.295  11.566 -0.3997  0.3344  0.1617
27957W        W34407   8.760   1.681   0.888  0.0668  0.1008 -0.2397
27958W        W34408   2.439   6.514  14.597  0.2952 -0.1463  0.1473
27959W        W34409  15.492   5.421  42.061  0.1151  0.2508 -0.2566
27960W        W34410   9.246   5.103  41.585 -0.0754  0.1230  0.3346
27961W        W34411  14.064   0.225  10.194  0.2206 -0.1958 -0.1201
27962W        W34412   0.200   4.800  32.006 -0.0617  0.3340 -0.0436
27963W        W34413  10.870   3.592  44.117 -0.1255  0.0178 -0.1402
27964W        W34414   5.546   6.171   1.073 -0.0628 -0.0046  0.3452
27965W        W34415   4.095   3.207   8.142  0.1700 -0.0653 -0.0920
27966W        W34416  17.213   0.089  20.145  0.1359 -0.0324 -0.1395
27967W        W34417  19.842   2.196   2.052  0.1723  0.2233 -0.0546
27968W        W34418  16.997   5.306   0.092  0.0359  0.0574  0.1018
27969W        W34419  20.977   0.734  27.436  0.1391  0.0710 -0.0606
27970W        W34420   4.036   2.614   1.579  0.0518  0.0114 -0.0044
27971W        W34421   9.390   2.841   0.456  0.0210  0.2252 -0.0959
27972W        W34422   0.224   0.641  10.513  0.0365 -0.0567  0.2060
27973W        W34423   8.262   1.869   1.790 -0.0328 -0.0576 -0.1218
27974W        W34424   7.563   1.272  13.320 -0.2836  0.0535  0.1512
27975W        W34425  11.057   0.880  40.404  0.2982  0.1539 -0.3328
27976W        W34426   5.258   4.532  43.324 -0.1111  0.2410  0.2932
27977W        W34427  19.888   5.925  43.200 -0.0333 -0.0763  0.1731
27978W        W34428   1.833   0.277   7.635  0.0836 -0.1766 -0.0938
27979W        W34429   8.783   5.668   2.380 -0.1197  0.2327  0.1344
27980W        W34430  16.050   3.148  12.712 -0.2164 -0.3482 -0.3184
27981W        W34431  14.421   0.106  10.685  0.0581  0.2365 -0.1435
27982W        W34432  10.376   0.914   8.468  0.0483  0.2896  0.1159
27983W        W34433   6.310   0.804   4.522  0.2717 -0.1026 -0.1289
27984W        W34434  12.453   0.859   1.994  0.0305 -0.0720  0.0910
27985W        W34435  14.811   5.425  44.127  0.2427 -0.1207 -0.1730
27986W        W34436  13.635   6.080  33.287  0.0344  0.4124  0.0589
27987W        W34437  18.551   4.079   9.492  0.1679  0.1122 -0.2083
27988W        W34438   2.688   0.029   4.856  0.0317 -0.1508 -0.4202
27989W        W34439  14.210   5.154   9.887  0.3633  0.0182 -0.1345
27990W        W34440  17.165   3.750  39.005 -0.1650 -0.2949  0.1216
27991W        W34441  18.349   6.169  30.595  0.0175 -0.0070  0.1212
27992W        W34442  17.191   0.570   1.246 -0.2314 -0.0778 -0.1504
27993W        W34443  20.670   1.558  14.973 -0.0949  0.3728  0.0954
27994W        W34444   0.566   0.072  17.021  0.1522  0.0944  0.1586
27995W        W34445   4.091   0.050  36.894  0.0154  0.2577 -0.0760
27996W        W34446   3.290   5.770  26.025  0.0558 -0.0786 -0.3004
27997W        W34447   8.670   5.232   6.840 -0.3531 -0.2802  0.0523
27998W        W34448  18.026   0.139  22.118 -0.2206 -0.1029 -0.2856
27999W        W34449   4.556   0.117  26.853 -0.1317  0.0212 -0.1060
28000W        W34450  19.955   3.359  18.939 -0.0659  0.0719 -0.3364
28001W        W34451   5.121   2.748  16.178  0.1578  0.0491  0.0949
28002W        W34452   3.962   3.693   3.520  0.0722  0.1142  0.0457
28003W        W34453   9.099   3.554  37.440  0.0071  0.0330 -0.2183
28004W        W34454   5.172   0.579  43.213 -0.3450  0.0363 -0.3125
28005W        W34455  11.358   1.972   1.057 -0.0128  0.1431  0.0494
28006W        W34456  16.677   6.565  23.353  0.1743 -0.3385 -0.4982
28007W        W34457   8.319   2.087  41.618  0.1338 -0.1562 -0.1528
28008W        W34458  16.024   4.742  41.696  0.2005 -0.2069  0.0915
28009W        W34459  11.578   5.065  18.104  0.1326 -0.2097  0.0787
28010W        W34460  11.437   5.939  39.749 -0.0091 -0.3112 -0.0954
28011W        W34461   9.512   0.767  36.908 -0.1591  0.0358 -0.0065
28012W        W34462   2.542   0.189  25.606 -0.2843  0.3639 -0.2638
28013W        W34463  15.121   6.278   0.595  0.1848  0.1837 -0.0965
28014W        W34464   3.391   2.539   7.864 -0.0729  0.1122  0.0848
28015W        W34465  13.198   3.245   0.616 -0.3087 -0.1530 -0.0148
28016W        W34466  17.271   0.782  32.204  0.0873 -0.0495  0.0263
28017W        W34467  17.319   6.216  41.912 -0.0417  0.1100 -0.1806
28018W        W34468  16.628   5.878  13.732  0.0907  0.3253 -0.1805
28019W        W34469   0.231   0.230  40.594  0.0601 -0.0225  0.1253
28020W        W34470  10.391   6.274  44.777 -0.0170 -0.3285 -0.0495
28021W        W34471  16.007   4.180  38.243 -0.2216 -0.1603 -0.0772
28022W        W34472  15.335   4.521  28.966 -0.1990  0.0395 -0.2117
28023W        W34473  10.000   2.069  32.573  0.2821 -0.3731 -0.2870
28024W        W34474   8.788   1.897  12.006  0.0585 -0.2960  0.0018
28025W        W34475   4.749   6.541  13.693 -0.1535  0.2333 -0.0862
28026W        W34476  16.561   5.523  16.657  0.0855  0.0760  0.2527
28027W        W34477   3.947   6.569  43.175 -0.3313  0.0353 -0.0610
28028W        W34478  11.811   4.257  10.456  0.1070  0.0305  0.0083
28029W        W34479   4.960   0.037   4.108 -0.1076  0.1672  0.0866
28030W        W34480  15.058   3.358   7.086 -0.0965 -0.1710 -0.0046
28031W        W34481   2.698   5.635   0.316  0.1403  0.0778  0.1370
28032W        W34482   5.534   0.558   6.792  0.3043  0.1778  0.1834
28033W        W34483   4.643   6.478  21.575 -0.0717  0.2143  0.0195
28034W        W34484  17.125   2.682  21.385  0.1516 -0.0037 -0.1811
28035W        W34485  11.812   2.332  34.106 -0.3673 -0.0080 -0.4985
28036W        W34486  14.184   2.566   2.384  0.0395  0.1198  0.1956
28037W        W34487   1.978   2.304  11.839  0.0956  0.3755  0.3768
28038W        W34488   1.313   1.030  41.465 -0.0716 -0.0064 -0.1715
28039W        W34489  19.243   6.220  37.139 -0.2714 -0.0175 -0.1736
28040W        W34490   9.692   3.828  25.770  0.0044 -0.0124  0.0293
28041W        W34491   2.405   6.408   4.536  0.3344  0.2924 -0.0281
28042W        W34492   4.717   6.027  25.715 -0.0592  0.2055 -0.1312
28043W        W34493  11.142   3.303   4.973 -0.0144 -0.0853  0.0509
28044W        W34494   2.516   5.416  35.977 -0.0995 -0.1480 -0.1257
28045W        W34495  13.232   0.777  29.051  0.0043 -0.1313 -0.1442
28046W        W34496   1.151   5.244  17.519 -0.1014 -0.3521 -0.1544
28047W        W34497   4.367   5.682  22.974  0.1600 -0.2623  0.1282
28048W        W34498   4.582   4.585  35.174 -0.0317  0.1909 -0.1139
28049W        W34499  19.276   1.925  16.953 -0.0183  0.0225  0.0550
28050W        W34500  12.123   2.717  36.342 -0.2148  0.0440 -0.1291
28051W        W34501   1.182   4.622   1.167 -0.1110 -0.1197  0.0677
28052W        W34502  19.355   3.236  44.376  0.0065  0.0937 -0.1508
28053W        W34503   8.262   5.012   9.312 -0.0006 -0.0748 -0.0095
28054W        W34504  11.958   3.258   6.854 -0.4607  0.1221 -0.1677
28055W        W34505  16.818   5.380   1.488  0.2444 -0.0986  0.1191
28056W        W34506  19.474   1.559  36.989  0.0271  0.2662 -0.1440
28057W        W34507  13.536   1.774  19.792  0.0445  0.1163 -0.1021
28058W        W34508   1.555   6.474  29.807 -0.1910 -0.1449  0.0890
28059W        W34509   0.711   6.313  41.370  0.2468  0.1558 -0.0126
28060W        W34510   5.129   5.926  23.509 -0.0637 -0.0730 -0.0953
28061W        W34511  13.762   4.517   9.287 -0.2979  0.0940  0.3799
28062W        W34512   7.339   3.081   9.905  0.0735  0.1078 -0.2219
28063W        W34513   5.930   5.031  43.123 -0.2105  0.0976 -0.4534
28064W        W34514  14.655   1.745  12.560 -0.3168 -0.0537  0.0080
28065W        W34515  12.475   6.458  42.200 -0.2353  0.0574  0.1002
28066W        W34516   7.157   2.860  40.275  0.1378  0.1446 -0.1029
28067W        W34517  15.817   1.984  43.731 -0.1288  0.1052  0.0363
28068W        W34518   6.691   2.308  15.930  0.1317  0.3441 -0.2098
28069W        W34519  17.734   1.194   7.798 -0.2850 -0.0234 -0.0062
28070W        W34520  14.277   4.931  39.179  0.2557  0.0746  0.1709
28071W        W34521   7.469   3.099   5.402  0.0465  0.0658 -0.2982
28072W        W34522  15.653   5.215  17.482 -0.1096 -0.0134 -0.1049
28073W        W34523   2.322   4.163  39.379  0.1437  0.2851  0.0434
28074W        W34524   8.605   6.545   6.356 -0.0082  0.2565 -0.1502
28075W        W34525   1.630   0.858  38.486 -0.2075  0.0240 -0.0839
28076W        W34526   7.721   6.073   9.678  0.0674  0.2674  0.1756
28077W        W34527  12.579   1.895  33.555 -0.0535  0.0313 -0.0036
28078W        W34528   4.357   6.016   3.301  0.0773  0.1306  0.0469
28079W        W34529   9.817   4.635  15.841  0.0304 -0.1155  0.0896
28080W        W34530  20.363   3.182  38.381 -0.0747 -0.1596  0.0943
28081W        W34531   1.508   5.023   4.985  0.2163  0.0836  0.2814
28082W        W34532  10.218   6.279  12.235 -0.0129 -0.3789 -0.0651
28083W        W34533   8.452   6.311  40.512 -0.1002 -0.1238 -0.1310
28084W        W34534  13.483   2.715  29.976  0.2255  0.1466  0.0928
28085W        W34535  11.868   6.242  33.210 -0.0463 -0.0692 -0.0548
28086W        W34536  12.355   6.409   0.220  0.1560  0.0594 -0.0446
28087W        W34537  10.332   1.561  43.125 -0.0605 -0.0850  0.1523
28088W        W34538  17.092   5.418  10.291 -0.4223  0.1414 -0.1837
28089W        W34539   8.485   0.071   4.007 -0.0253  0.2079  0.2035
28090W        W34540  10.675   4.390   8.560 -0.0656 -0.1926 -0.0529
28091W        W34541   3.664   1.449  15.194 -0.0905 -0.2743  0.1625
28092W        W34542   6.278   0.444  36.812 -0.0817  0.0937  0.0388
28093W        W34543   3.514   5.611  35.840  0.2738  0.2084  0.2105
28094W        W34544   4.520   4.931  27.926  0.3094  0.0916 -0.0478
28095W        W34545  15.391   1.885  15.159 -0.0284 -0.0741 -0.1414
28096W        W34546   9.494   0.427   2.431 -0.0861  0.0547 -0.0906
28097W        W34547  14.218   2.703  44.526  0.0834 -0.2801 -0.0006
28098W        W34548  19.742   0.563  16.422  0.1955 -0.1836  0.1563
28099W        W34549   5.125   0.060  43.340  0.1758 -0.3861  0.2085
28100W        W34550   8.379   1.470  14.197  0.3351 -0.0224 -0.1510
28101W        W34551  13.932   5.628   0.403  0.2593  0.0560 -0.3005
28102W        W34552  13.391   6.029  20.659  0.0058 -0.0507  0.1726
28103W        W34553   9.579   0.469  35.384 -0.1514  0.0680  0.2879
28104W        W34554   6.527   5.846  44.878  0.2368  0.0794  0.1462
28105W        W34555  11.145   0.030  26.903  0.3686 -0.1919  0.2394
28106W        W34556   4.600   3.629  15.780 -0.0330  0.3995  0.1298
28107W        W34557  16.510   1.879   0.477  0.0443 -0.3140 -0.3778
28108W        W34558   5.785   1.024  28.746 -0.0831 -0.3939  0.0024
28109W        W34559  10.265   6.389   3.453  0.0823 -0.0529  0.0350
28110W        W34560  11.630   1.437   5.700  0.1626  0.0296  0.2915
28111W        W34561   4.183   0.718  26.000  0.1340  0.1087 -0.0675
28112W        W34562   0.149   1.232  44.405  0.1386  0.1915  0.1613
28113W        W34563   6.227   4.749  32.413 -0.2860 -0.3709  0.0870
28114W        W34564  13.309   6.598  41.006 -0.2650  0.1939 -0.2342
28115W        W34565   7.303   2.673  13.601 -0.3559  0.0274 -0.0622
28116W        W34566   7.253   0.770  36.472 -0.3546  0.1994 -0.1464
28117W        W34567   7.805   3.611  32.632  0.2050 -0.1105  0.0226
28118W        W34568  17.586   1.912   6.111  0.2185 -0.1439 -0.2006
28119W        W34569   1.291   0.729  29.184  0.0831  0.1562  0.2466
28120W        W34570   8.433   6.313   9.185  0.0515 -0.1479  0.0625
28121W        W34571   0.487   4.652  18.429 -0.1056  0.2114 -0.1396
28122W        W34572   5.771   3.922  38.536 -0.2116  0.0153 -0.0219
28123W        W34573   4.507   4.768  28.833 -0.1941  0.1075 -0.1882
28124W        W34574   8.493   2.167  12.290  0.1479 -0.0272  0.1986
28125W        W34575  10.787   2.510   3.994  0.0060  0.0873  0.3534
28126W        W34576  20.631   4.975  41.143  0.0672  0.2565  0.0521
28127W        W34577  16.212   5.598  13.876 -0.0060  0.0357  0.0528
28128W        W34578  11.616   5.791  15.079 -0.3075  0.1738 -0.1307
28129W        W34579  12.506   3.850  28.398  0.2655 -0.2019 -0.0920
28130W        W34580   5.106   4.054  36.708 -0.0439 -0.4728 -0.3219
28131W        W34581  17.080   0.046  13.471 -0.2874  0.2999  0.0750
28132W        W34582  21.130   0.013  39.011  0.3568  0.1966  0.2173
28133W        W34583   7.439   1.311   7.968  0.0116 -0.1358 -0.0444
28134W        W34584   0.019   6.481  41.948 -0.1189 -0.1260 -0.1364
28135W        W34585   2.516   5.925   7.073  0.1581 -0.0138  0.1603
28136W        W34586   7.431   2.859  24.737 -0.1972 -0.3080 -0.1326
28137W        W34587  14.815   1.066  29.089  0.1530 -0.2990  0.0248
28138W        W34588   1.346   2.686  13.666  0.1063  0.2020 -0.2254
28139W        W34589  10.426   5.298  36.157  0.0714  0.3142  0.0337
28140W        W34590  18.894   6.160  14.202 -0.2373  0.1388 -0.1267
28141W        W34591  10.099   3.766  32.458  0.4190 -0.1056  0.0407
28142W        W34592   5.284   5.995  35.426 -0.1045  0.0614 -0.2313
28143W        W34593  11.813   1.587  37.957  0.2585  0.2018 -0.3626
28144W        W34594  17.450   4.594  41.303  0.0118 -0.0676 -0.2298
28145W        W34595  19.506   3.907  38.280 -0.0229 -0.1508  0.0502
28146W        W34596  19.758   5.237  38.531 -0.1151  0.1620 -0.0647
28147W        W34597   1.858   6.528   4.160 -0.1921 -0.0405 -0.0462
28148W        W34598   5.152   5.736  37.439 -0.0761 -0.0225  0.1754
28149W        W34599   7.477   0.729  30.269  0.0300  0.0476 -0.1147
28150W        W34600  16.003   0.650   3.559 -0.1410 -0.1298  0.4169
28151W        W34601   0.978   3.355  30.833  0.3957 -0.1009  0.0031
28152W        W34602   2.245   3.858   8.534 -0.4562 -0.1362  0.2263
28153W        W34603   9.761   3.941  34.179 -0.1940  0.1230  0.0314
28154W        W34604   3.304   1.232  37.406  0.1516 -0.1523  0.0536
28155W        W34605   8.252   0.542  29.644 -0.0285 -0.1731  0.1803
28156W        W34606  12.925   4.914   0.657 -0.2496  0.0359  0.2763
28157W        W34607  18.197   2.821  40.346 -0.1525 -0.0902 -0.0165
28158W        W34608  10.582   5.341  34.111  0.0183 -0.0540  0.1637
28159W        W34609   9.354   5.236  12.830 -0.1681  0.0583 -0.3446
28160W        W34610   7.487   1.593   1.272 -0.3125 -0.0986 -0.0676
28161W        W34611  19.319   3.330  13.580 -0.0255 -0.0085 -0.1142
28162W        W34612  19.031   0.111  41.534 -0.1251  0.0454 -0.0078
28163W        W34613  19.304   0.499  20.170 -0.2445 -0.0728  0.0550
28164W        W34614   9.453   4.540  32.746 -0.1649 -0.1489 -0.4910
28165W        W34615  17.359   1.135  33.636  0.0907  0.0586  0.4185
28166W        W34616  13.919   3.180   5.934  0.2565  0.0442  0.1336
28167W        W34617  15.202   2.298  37.100 -0.2541 -0.3356  0.0427
28168W        W34618  18.579   5.221  35.702 -0.0216  0.2397  0.0088
28169W        W34619  15.681   4.350  15.934  0.2040  0.1040 -0.1742
28170W        W34620  19.254   5.540  43.874 -0.0583  0.0727 -0.2464
28171W        W34621  19.589   3.357  16.541  0.1334  0.0008  0.1362
28172W        W34622  13.922   5.559   7.988 -0.0711  0.0585 -0.0154
28173W        W34623  16.331   5.689  37.088  0.0815  0.0300  0.0709
28174W        W34624  14.318   5.345  19.286  0.2937  0.0711 -0.0240
28175W        W34625  17.033   3.502  43.273  0.0409 -0.2912 -0.2097
28176W        W34626   5.378   5.864  30.235  0.2615 -0.0516 -0.3658
28177W        W34627   2.709   4.668  24.758  0.1336 -0.3623 -0.1540
28178W        W34628  18.303   5.225   5.714 -0.2193 -0.1009  0.4085
28179W        W34629   6.130   4.603  25.423  0.2663  0.0119 -0.1462
28180W        W34630  20.631   3.990   1.624 -0.0284  0.0251 -0.1110
28181W        W34631  13.048   0.161   5.335  0.2382 -0.1850  0.1569
28182W        W34632  14.095   4.471  35.755  0.0807  0.3719 -0.0004
28183W        W34633   0.720   4.995  12.350  0.1234  0.2304  0.2468
28184W        W34634  15.930   2.498  22.018 -0.1089 -0.1861 -0.2787
28185W        W34635  17.605   1.399   3.665  0.2812 -0.2681  0.0380
28186W        W34636   2.768   1.276  30.628  0.0556  0.1044  0.0709
28187W        W34637   3.857   5.395   7.287  0.0810 -0.0180 -0.0037
28188W        W34638   6.008   1.732   9.890 -0.2263  0.0825 -0.2220
28189W        W34639   9.337   6.391  10.331 -0.2636 -0.1111 -0.1561
28190W        W34640   5.431   0.264  42.929 -0.0735 -0.1737  0.5154
28191W        W34641   7.534   6.573  28.461 -0.0141 -0.2430 -0.0030
28192W        W34642   0.526   0.017  16.535 -0.1928 -0.1929  0.2079
28193W        W34643  19.835   3.562  17.470  0.0739  0.0409 -0.1276
28194W        W34644   5.665   4.726   8.152 -0.0405 -0.0230 -0.1418
28195W        W34645  16.330   4.079   1.524 -0.1941  0.0272 -0.0758
28196W        W34646  15.831   0.200  13.204  0.0924  0.1436  0.4517
28197W        W34647   7.951   1.880   9.158 -0.1765 -0.1938  0.0504
28198W        W34648   1.069   6.341  26.471 -0.1689  0.2611  0.0382
28199W        W34649  13.650   4.098  33.490  0.0821 -0.0429 -0.1656
28200W        W34650   3.233   2.477  15.807  0.1215 -0.0442 -0.0324
28201W        W34651  17.136   4.901  19.283  0.0802  0.1095  0.0340
28202W        W34652  14.295   3.109  36.080  0.0273 -0.2198  0.2443
28203W        W34653   1.875   0.549  12.286  0.2580 -0.0080  0.3716
28204W        W34654   5.463   2.058  13.842  0.5464 -0.1518 -0.3660
28205W        W34655   2.008   2.576  34.866 -0.1439  0.1941  0.1142
28206W        W34656   4.272   0.571  23.247 -0.2135 -0.1439  0.0003
28207W        W34657  11.176   0.013  39.288  0.0329 -0.2521 -0.2844
28208W        W34658   2.478   0.674   5.756 -0.0184  0.1592 -0.1557
28209W        W34659   9.712   5.851  34.951  0.2186  0.0676 -0.2745
28210W        W34660  10.351   4.601  36.335  0.1812  0.3632 -0.0076
28211W        W34661  15.220   6.377  40.755  0.1225  0.0353  0.0291
28212W        W34662  12.107   5.613   1.720 -0.2350 -0.0182  0.4393
28213W        W34663  13.604   2.732  40.111  0.3167  0.1892 -0.2052
28214W        W34664  18.268   5.536  32.485  0.0306  0.0851 -0.0933
28215W        W34665  14.634   0.884  16.250 -0.2209 -0.2294  0.0410
28216W        W34666  10.397   3.896   9.709 -0.1444  0.1308 -0.2617
28217W        W34667  12.527   4.395   8.443  0.1174 -0.3746  0.2841
28218W        W34668  11.434   6.538  17.883 -0.0127 -0.0130  0.0156
28219W        W34669   4.038   0.493  30.207  0.2207  0.0846  0.0367
28220W        W34670   7.793   3.498  36.482  0.1312  0.0293  0.4571
28221W        W34671  17.582   4.577  35.025  0.2267  0.0948 -0.0679
28222W        W34672  16.673   4.723  38.214  0.0084  0.4806 -0.0986
28223W        W34673  13.450   1.839   6.320 -0.0623  0.1504  0.0594
28224W        W34674   3.394   3.436  31.363 -0.1434  0.2426 -0.2576
28225W        W34675   5.955   1.692  21.874  0.2008  0.4561  0.1241
28226W        W34676   6.745   4.115   3.922 -0.0002  0.4482  0.1677
28227W        W34677  20.671   1.541  16.467 -0.1868 -0.0189 -0.0614
28228W        W34678   2.932   4.350  41.073 -0.0499  0.2424 -0.1572
28229W        W34679  11.986   3.064  19.665  0.1561  0.3631  0.1468
28230W        W34680   3.631   0.825  33.627 -0.0200  0.0374 -0.1764
28231W        W34681  20.190   6.147   4.548  0.0974  0.3117 -0.0202
28232W        W34682  12.851   6.273  19.398  0.1151  0.0883  0.0849
28233W        W34683   1.188   2.252   9.659  0.2647  0.2578 -0.2748
28234W        W34684   4.033   1.855  15.178 -0.0128 -0.0534  0.0686
28235W        W34685   7.130   1.151  23.652  0.2552  0.1554  0.0638
28236W        W34686   4.038   0.838  11.304 -0.0490 -0.0975  0.1024
28237W        W34687   6.403   5.194  27.760  0.2749  0.2750  0.0753
28238W        W34688  13.928   5.470  32.555 -0.0736 -0.3478  0.2956
28239W        W34689  13.112   0.065  16.789  0.0511 -0.0579 -0.5319
28240W        W34690  15.084   3.647   2.603 -0.3701 -0.0167  0.1179
28241W        W34691   3.486   1.712  28.562 -0.0217  0.1028  0.2431
28242W        W34692  12.521   2.655  35.991  0.1162 -0.2483  0.0802
28243W        W34693  16.332   4.511   0.879  0.0339  0.1479 -0.0666
28244W        W34694   5.732   0.025  32.780  0.1221  0.0752  0.0550
28245W        W34695  17.680   1.081  28.961  0.2434  0.2260 -0.0676
28246W        W34696  18.199   6.360  12.088 -0.0111 -0.2957 -0.1952
28247W        W34697  11.513   0.358  30.611 -0.0979 -0.2308 -0.0245
28248W        W34698  12.144   0.556   2.268  0.0567  0.1496 -0.0524
28249W        W34699  12.500   5.952  28.346 -0.0812  0.0951 -0.0380
28250W        W34700   4.838   0.567   1.714  0.0315 -0.2053  0.4074
28251W        W34701  19.583   3.149   5.176 -0.1932 -0.0896  0.2063
28252W        W34702  15.585   0.753  33.980 -0.0351 -0.1394 -0.0187
28253W        W34703   1.507   1.634  28.992 -0.3061 -0.2730 -0.1246
28254W        W34704  20.964   3.441  12.348 -0.0194 -0.1080  0.0358
28255W        W34705  11.677   3.729  11.773  0.1366 -0.2084 -0.2839
28256W        W34706  11.361   2.314   5.994  0.0935  0.0273 -0.0592
28257W        W34707  15.498   3.656  39.706 -0.0352 -0.5188  0.0605
28258W        W34708   6.959   4.971  26.564 -0.2767 -0.0006 -0.1390
28259W        W34709  12.671   1.581  38.547  0.0828 -0.0408  0.2606
28260W        W34710   8.682   2.143  12.718 -0.3653  0.0838 -0.1670
28261W        W34711   9.660   0.326  44.850 -0.0841 -0.2877  0.0932
28262W        W34712  13.927   4.481   3.860 -0.1455  0.1785 -0.0747
28263W        W34713  11.637   5.384  13.102  0.2097  0.2057 -0.2734
28264W        W34714  16.204   0.446  43.844 -0.0926 -0.2809 -0.1337
28265W        W34715  16.553   3.367  12.287  0.4885  0.3124  0.1163
28266W        W34716  15.654   6.078  20.158 -0.0607 -0.0865  0.2511
28267W        W34717   4.998   4.932   1.982 -0.0194 -0.2389 -0.2539
28268W        W34718  14.724   0.158  13.833  0.0608  0.1862  0.2349
28269W        W34719  18.448   4.270  12.605  0.1371 -0.1689  0.1980
28270W        W34720  17.625   3.072   9.086  0.0732  0.2742 -0.0738
28271W        W34721   5.368   0.345  34.883  0.0681 -0.0011  0.1379
28272W        W34722   6.002   4.774  11.717  0.1376  0.1362 -0.2664
28273W        W34723   7.996   0.943   3.377 -0.3330 -0.1596 -0.1093
28274W        W34724  15.638   1.164  40.627  0.0593 -0.0839  0.0236
28275W        W34725  20.159   5.671  34.281 -0.0815  0.1066  0.0546
28276W        W34726  10.160   1.923   6.066 -0.1258  0.2782 -0.2622
28277W        W34727   7.975   5.831  40.620  0.0214 -0.0335 -0.0516
28278W        W34728  12.869   1.220  44.734 -0.1247  0.2945  0.1144
28279W        W34729   2.656   5.046   7.595 -0.2427  0.2013  0.1075
28280W        W34730   0.409   1.235  34.070  0.2059  0.0556 -0.3239
28281W        W34731   2.751   2.680   9.667  0.1788 -0.4729 -0.1320
28282W        W34732   5.605   4.045  13.554  0.0458  0.0084 -0.0895
28283W        W34733   4.027   5.337  11.428 -0.2149  0.0592 -0.2454
28284W        W34734  10.231   4.066  39.845 -0.1526  0.1946  0.2885
28285W        W34735  10.208   5.237  10.191  0.1413  0.0567 -0.3334
28286W        W34736  17.478   0.424  23.709 -0.0276  0.4878  0.0880
28287W        W34737   2.623   5.888  35.158  0.5603  0.1982  0.0034
28288W        W34738  20.359   1.760  43.331  0.2217 -0.2269 -0.3938
28289W        W34739   9.564   3.177  34.008 -0.0826 -0.0589 -0.0908
28290W        W34740  18.514   1.814  37.240 -0.2458 -0.0501 -0.2445
28291W        W34741  12.191   0.521  36.517 -0.3373 -0.2946  0.0659
28292W        W34742   7.144   1.776  42.085 -0.0924 -0.1203 -0.2477
28293W        W34743  14.791   1.964   1.072  0.0277  0.1859  0.0535
28294W        W34744  17.049   4.557  15.580  0.0410  0.0249  0.0501
28295W        W34745  14.031   5.895  10.275 -0.0366 -0.1320 -0.0241
28296W        W34746  16.731   3.074  35.000  0.0854 -0.0231  0.2317
28297W        W34747   0.764   2.998  37.846  0.1563 -0.0357  0.0410
28298W        W34748   7.127   1.121  11.936 -0.0914  0.1353 -0.0201
28299W        W34749   0.977   2.128  10.194  0.1407 -0.1946  0.1460
28300W        W34750  11.174   0.308   8.255 -0.1069  0.1387  0.0850
28301W        W34751  17.874   4.746  33.720  0.1266  0.2303 -0.2748
28302W        W34752   6.760   3.749   8.123  0.1959 -0.1887  0.0625
28303W        W34753   7.967   2.020   8.578  0.1693 -0.0739 -0.1338
28304W        W34754  15.539   0.861   0.638 -0.0623  0.0317 -0.0991
28305W        W34755  13.113   3.872  10.618  0.1433  0.0949 -0.1095
28306W        W34756  11.594   0.049  15.054  0.0154 -0.0657  0.0825
28307W        W34757  10.452   1.735  40.854  0.3877 -0.0540 -0.0166
28308W        W34758   6.490   3.640   1.867 -0.1713  0.1273 -0.0039
28309W        W34759   8.475   4.914   5.009 -0.1531 -0.2031 -0.1773
28310W        W34760   7.507   0.801   9.761 -0.0429 -0.1655 -0.0352
28311W        W34761  13.035   0.307   4.258 -0.0248 -0.3542 -0.1161
28312W        W34762  16.060   3.524  39.470  0.0783 -0.0551  0.0476
28313W        W34763   6.735   5.423  41.549  0.0794  0.3221  0.2442
28314W        W34764  17.221   1.907  35.415  0.3196  0.0007  0.5112
28315W        W34765  12.465   5.981  37.348  0.3461 -0.1778 -0.2370
28316W        W34766   2.986   3.851  25.465 -0.1011  0.0056 -0.0011
28317W        W34767  14.013   2.594  12.745 -0.0332 -0.4050  0.1218
28318W        W34768   2.268   4.407   5.029 -0.1483  0.3199  0.0921
28319W        W34769   5.490   2.938  33.720 -0.0127  0.1800  0.1211
28320W        W34770  20.975   1.959  18.444 -0.1339 -0.2897  0.3204
28321W        W34771   3.717   4.334  27.687  0.0786  0.0342 -0.0733
28322W        W34772  13.513   0.451  40.453  0.0616 -0.0492  0.2432
28323W        W34773   4.777   0.805  31.534 -0.0824 -0.1097 -0.1633
28324W        W34774  13.032   4.690  10.674 -0.0908  0.0617 -0.1234
28325W        W34775   0.772   0.455   6.838  0.1413 -0.0308 -0.1884
28326W        W34776  14.862   1.942  10.825 -0.1870 -0.2193  0.0675
28327W        W34777  19.597   1.530  44.968 -0.0866  0.1470 -0.1125
28328W        W34778  11.218   1.811   4.069  0.1641 -0.0613  0.0079
28329W        W34779   7.959   3.882  11.998 -0.0280 -0.0879 -0.2283
28330W        W34780   6.339   5.593  20.597  0.4038 -0.2543  0.0941
28331W        W34781  18.226   4.340  43.705 -0.0939  0.0654 -0.0283
28332W        W34782   8.396   2.083  36.096 -0.0748  0.0745  0.1359
28333W        W34783  16.552   2.455  15.588 -0.2015 -0.1861  0.1543
28334W        W34784   9.541   5.401  11.766 -0.1196  0.2026 -0.1209
28335W        W34785   1.056   0.878  44.748  0.2646 -0.1751  0.0913
28336W        W34786   4.805   6.299  34.332  0.1513 -0.1491  0.0104
28337W        W34787   2.227   1.293  16.812 -0.0297 -0.0716  0.1705
28338W        W34788   3.182   0.285  41.770  0.2145  0.2213 -0.0072
28339W        W34789   2.855   5.951  37.201 -0.3050 -0.0924 -0.3345
28340W        W34790   2.242   0.054   5.040  0.0318 -0.0160 -0.3458
28341W        W34791  15.033   0.667  39.764 -0.0295  0.2434 -0.1131
28342W        W34792   4.890   4.328   4.574  0.2026 -0.1399 -0.1634
28343W        W34793  14.841   1.702   4.400 -0.1168  0.0684 -0.1139
28344W        W34794  11.419   4.236  12.882  0.0413  0.1417 -0.2872
28345W        W34795  18.962   1.350  14.698  0.0134 -0.1874  0.1441
28346W        W34796   3.409   2.855  31.406  0.1475  0.0877 -0.4182
28347W        W34797  13.485   3.692   8.875  0.2327  0.1476 -0.1258
28348W        W34798   8.510   4.765  41.974 -0.0364  0.1481 -0.0819
28349W        W34799  16.778   1.666  19.319 -0.0089 -0.2465  0.0228
28350W        W34800   4.899   3.985   6.730  0.1639 -0.2470 -0.0761
28351W        W34801  20.792   1.000   5.468  0.2347  0.0280 -0.1262
28352W        W34802  15.340   5.321  16.070  0.3640 -0.3351  0.0836
28353W        W34803  10.617   4.208  43.601  0.5216 -0.0023  0.2996
28354W        W34804  19.768   4.838   2.306 -0.2097 -0.3153 -0.0482
28355W        W34805  20.136   0.620   9.373  0.0924 -0.1957 -0.5620
28356W        W34806   2.098   6.529  34.971  0.0237  0.0654 -0.3668
28357W        W34807  12.411   1.859  13.080 -0.2883  0.0303  0.0260
28358W        W34808  14.299   0.015  19.995 -0.0663 -0.0777 -0.2284
28359W        W34809  19.283   1.443  34.564  0.0863  0.0752 -0.4231
28360W        W34810  15.602   6.444   2.829  0.1227  0.1198  0.1745
28361W        W34811   7.921   1.669  36.988 -0.0368  0.0022  0.2268
28362W        W34812  12.418   2.148  33.945 -0.0022 -0.3844 -0.0056
28363W        W34813   8.498   3.021   6.804 -0.2559  0.1883  0.1451
28364W        W34814  15.152   0.562  41.722  0.4851  0.0165 -0.2479
28365W        W34815  17.248   3.698  36.216 -0.0822  0.2349 -0.1115
28366W        W34816  15.115   2.783  32.354 -0.3056  0.1193  0.0040
28367W        W34817  17.516   5.124  22.705  0.0106 -0.0728 -0.3229
28368W        W34818  15.824   3.720  14.822 -0.1441  0.1486 -0.0378
28369W        W34819  19.782   5.725   0.604 -0.1381 -0.2751 -0.0098
28370W        W34820   7.497   5.060   4.287 -0.3160  0.2375  0.1827
28371W        W34821  17.856   4.296   4.782  0.1846  0.0892 -0.1005
28372W        W34822  11.086   4.099  36.334 -0.0127 -0.1281  0.0098
28373W        W34823  17.005   1.615  17.107 -0.1136  0.1810 -0.1072
28374W        W34824  16.296   1.499  11.009 -0.0425  0.0750 -0.3095
28375W        W34825  21.069   3.031  36.854  0.0905 -0.1754  0.0008
28376W        W34826  19.320   2.033   0.670 -0.1922  0.1840  0.0783
28377W        W34827  14.762   2.964   8.681  0.3641 -0.0795 -0.0819
28378W        W34828   7.282   2.862  41.819 -0.1756 -0.1541 -0.0277
28379W        W34829   8.858   3.793  33.144  0.2707  0.0205  0.1809
28380W        W34830  13.055   2.728  40.288 -0.0559  0.0491  0.1427
28381W        W34831   1.152   5.079  11.464 -0.1809  0.3770 -0.1147
28382W        W34832  17.873   6.518  15.079  0.1227 -0.2018 -0.1088
28383W        W34833  13.381   1.317  42.194  0.4647  0.2471  0.1167
28384W        W34834   8.527   1.024  11.621 -0.1165 -0.2902  0.1357
28385W        W34835  19.857   1.688  11.726  0.1730  0.0838 -0.2805
28386W        W34836  16.471   0.005   0.138  0.2091  0.1076  0.1387
28387W        W34837  16.297   4.769  40.303 -0.0221 -0.2095 -0.1649
28388W        W34838   3.075   4.156  44.194  0.1142 -0.2346 -0.1054
28389W        W34839   8.344   1.386  36.554 -0.2451 -0.2045 -0.0686
28390W        W34840   3.880   1.032   7.388 -0.2561 -0.2055  0.0116
28391W        W34841  12.812   0.817   0.850 -0.0838  0.1937  0.1382
28392W        W34842  19.151   5.978  11.258 -0.0828 -0.2117  0.1294
28393W        W34843   0.203   0.378  30.987 -0.1171 -0.4970 -0.2292
28394W        W34844  11.709   1.279   5.215 -0.2386  0.0067  0.1553
28395W        W34845  14.029   2.413   3.523 -0.0100  0.0383 -0.3065
28396W        W34846  11.114   0.468   6.849 -0.0070  0.0698  0.1939
28397W        W34847   9.022   0.799   0.162 -0.1189  0.2052 -0.1211
28398W        W34848   4.434   1.031  14.142  0.0547 -0.0701  0.3942
28399W        W34849  17.974   3.063  31.679 -0.1648 -0.0923  0.0122
28400W        W34850  13.819   3.847  28.860 -0.1233 -0.1471 -0.0439
28401W        W34851  15.864   5.685  36.933 -0.0100  0.1404  0.0235
28402W        W34852   5.525   1.790  40.375 -0.0893 -0.1497  0.1149
28403W        W34853  13.996   4.902  36.001  0.0680  0.1164 -0.1778
28404W        W34854  12.886   0.044  18.936  0.0741 -0.1038 -0.1641
28405W        W34855  15.822   1.493   3.618 -0.1509 -0.0602 -0.0033
28406W        W34856   3.670   4.047  30.771 -0.0482  0.5555 -0.0157
28407W        W34857  16.994   6.598  31.525 -0.0310  0.0629 -0.1431
28408W        W34858   8.953   2.598   0.594  0.0610 -0.0270 -0.1685
28409W        W34859  19.037   4.998  31.422  0.1178 -0.0844  0.2245
28410W        W34860   8.229   4.544  14.316 -0.0039 -0.1092  0.0258
28411W        W34861   2.787   1.316  12.908  0.1479  0.1451 -0.1263
28412W        W34862  13.270   1.569  19.068  0.0167 -0.0539  0.1153
28413W        W34863   6.898   3.723  44.294 -0.1977  0.2884  0.3476
28414W        W34864  19.516   2.734  43.955  0.1467 -0.0494 -0.1189
28415W        W34865   0.601   1.860  17.951  0.0773  0.2401 -0.1663
28416W        W34866  16.631   0.573  36.946 -0.1817 -0.2918 -0.2284
28417W        W34867  10.430   0.981  36.393  0.1912  0.0226 -0.2289
28418W        W34868   8.450   5.982  40.945  0.0699 -0.0389 -0.0450
28419W        W34869   4.104   5.105  40.061 -0.1690 -0.1165  0.1856
28420W        W34870   4.497   2.962  40.138 -0.1091 -0.3358 -0.0505
28421W        W34871   9.812   5.070  25.544 -0.1224  0.2057  0.1314
28422W        W34872   7.217   3.578  29.220 -0.2041  0.0488  0.1687
28423W        W34873  18.086   3.572  36.220  0.0740  0.1025  0.0170
28424W        W34874   4.261   5.832  23.830 -0.2533  0.1832 -0.3483
28425W        W34875  10.860   5.055   6.197 -0.2015  0.0722  0.2899
28426W        W34876   7.707   3.164  38.244  0.0351 -0.1836  0.0148
28427W        W34877   4.487   2.792  21.559  0.3747 -0.3800  0.0764
28428W        W34878  17.092   5.501   3.660 -0.2581 -0.0701  0.0889
28429W        W34879   5.580   1.480  33.418 -0.1031 -0.1729 -0.0867
28430W        W34880  17.099   0.623  35.751 -0.0878 -0.1488  0.2572
28431W        W34881  16.993   5.151  38.930  0.0220  0.0193  0.1175
28432W        W34882   1.069   4.293  29.314  0.1144  0.0163 -0.3073
28433W        W34883  10.855   5.537   5.421  0.1179  0.2208  0.0468
28434W        W34884  17.749   3.207  21.553  0.0648  0.1319  0.0233
28435W        W34885  13.888   4.243  11.055  0.0662  0.1680  0.1199
28436W        W34886  19.321   0.065  12.803 -0.2940  0.0581  0.0694
28437W        W34887   5.787   1.206  35.360  0.1566  0.1073 -0.1148
28438W        W34888   6.162   4.147  37.340  0.1788 -0.0104  0.0757
28439W        W34889  20.097   2.801  10.364 -0.1375  0.2342 -0.1141
28440W        W34890  16.422   2.740  13.012 -0.0358 -0.0412  0.0418
28441W        W34891  14.729   4.582   2.902  0.0149  0.0866  0.3671
28442W        W34892   9.292   4.982  35.231  0.0458 -0.1946 -0.3248
28443W        W34893  19.665   5.583   1.083 -0.0772 -0.0214 -0.1618
28444W        W34894  15.993   3.559  24.091 -0.0561 -0.2434  0.2015
28445W        W34895   0.735   0.208   7.306  0.1362  0.2068 -0.1852
28446W        W34896  20.893   5.061  17.892 -0.2883  0.2026  0.0154
28447W        W34897   0.785   0.050  36.437  0.0598 -0.2134 -0.2970
28448W        W34898  11.100   1.146  30.647  0.0931 -0.0420 -0.1419
28449W        W34899  13.312   1.639  30.542  0.1949  0.0807 -0.2485
28450W        W34900  12.455   1.313  36.326  0.2662  0.1250 -0.0382
28451W        W34901   7.152   2.511   8.651 -0.2527 -0.1175 -0.2166
28452W        W34902  13.509   5.490   7.670  0.1676  0.1359 -0.0777
28453W        W34903   6.699   3.010   6.059 -0.1943  0.0736  0.1013
28454W        W34904   4.865   0.216  24.955 -0.0767  0.0538 -0.0001
28455W        W34905  17.861   4.191  34.267 -0.0470  0.0543 -0.0105
28456W        W34906   8.150   0.259   7.998  0.5098 -0.0440  0.0289
28457W        W34907   6.607   2.678  30.461  0.0365  0.0327 -0.3645
28458W        W34908  15.718   1.405  35.800 -0.0203  0.0717 -0.0848
28459W        W34909  14.268   1.259  34.239  0.0277  0.1213  0.2310
28460W        W34910  10.425   3.799   3.770  0.0752 -0.1587 -0.3331
28461W        W34911  12.882   0.523  38.599 -0.3003  0.1369 -0.0961
28462W        W34912   3.877   3.065   9.060  0.3902 -0.2153  0.1032
28463W        W34913   5.789   4.386  26.243  0.0334 -0.0257  0.2222
28464W        W34914  17.250   3.053   3.412  0.2357 -0.2060 -0.3942
28465W        W34915  17.788   6.167  35.266 -0.0444  0.1132  0.1187
28466W        W34916  19.699   6.410  32.401  0.0427  0.1391 -0.0611
28467W        W34917  17.686   3.978  39.837 -0.1972  0.3414  0.1265
28468W        W34918  15.290   0.977   6.659  0.1026 -0.1897  0.1673
28469W        W34919  14.055   2.592  19.972  0.0241  0.0874 -0.1852
28470W        W34920  10.835   4.124  44.902  0.0799  0.0733  0.0222
28471W        W34921  19.799   5.255  19.858  0.0958  0.0789  0.0833
28472W        W34922   6.075   4.520   3.393 -0.1429 -0.1682  0.0354
28473W        W34923  10.422   4.464  31.000 -0.2982 -0.1207  0.0546
28474W        W34924  11.603   4.679  10.613 -0.2589 -0.0484 -0.0108
28475W        W34925   5.749   3.389   5.957 -0.0270  0.0180  0.1579
28476W        W34926   7.386   2.693  10.928  0.2939  0.2157 -0.0401
28477W        W34927  19.402   3.342  38.947  0.2341 -0.0186 -0.0040
28478W        W34928  17.932   0.278  17.665 -0.0820  0.0449 -0.2138
28479W        W34929   2.812   0.287  14.378 -0.4293 -0.0836  0.1212
28480W        W34930  10.730   5.598  13.167 -0.1142 -0.2036  0.2836
28481W        W34931   8.498   2.095   2.624  0.4730 -0.4559 -0.2419
28482W        W34932   2.527   6.441   3.627 -0.0593 -0.1148 -0.2080
28483W        W34933  13.849   3.861  17.649 -0.1273 -0.1982 -0.1183
28484W        W34934   3.152   6.573  40.176  0.2086 -0.0030  0.0814
28485W        W34935  20.395   1.814  17.677 -0.0424  0.0418  0.1339
28486W        W34936   9.997   5.375   2.770  0.0986  0.2178 -0.1103
28487W        W34937   4.551   2.225  29.125  0.0013 -0.1865  0.2346
28488W        W34938   2.476   5.583  44.104 -0.0355 -0.0306  0.1101
28489W        W34939   6.481   1.181  22.491 -0.2270 -0.1352 -0.2986
28490W        W34940  12.482   3.069  30.356 -0.0463 -0.1834 -0.0711
28491W        W34941  21.005   6.374   8.627  0.0034 -0.4711  0.0205
28492W        W34942  11.801   1.838  16.183 -0.2065 -0.1358  0.0382
28493W        W34943  12.270   0.659   3.322  0.2494  0.0929 -0.0646
28494W        W34944   6.139   5.352   7.307 -0.0340 -0.1934  0.0405
28495W        W34945   8.262   0.636   2.068  0.4341  0.0391  0.1764
28496W        W34946   3.378   1.626  43.137 -0.1045 -0.0858  0.2544
28497W        W34947   9.777   4.264  38.416  0.1788 -0.0940  0.1224
28498W        W34948   4.783   0.102  26.386  0.2734 -0.0456 -0.0751
28499W        W34949  15.016   4.987   1.457  0.0177  0.0355 -0.1973
28500W        W34950  20.068   1.753  16.909  0.2594  0.1580  0.0223
28501W        W34951   2.363   5.120  41.612 -0.0711 -0.1120  0.2877
28502W        W34952   0.352   1.171  14.454  0.1589  0.3280  0.3523
28503W        W34953  15.996   1.278  19.951 -0.1620  0.0532 -0.0199
28504W        W34954  15.645   4.500  38.199 -0.1057 -0.0510 -0.2046
28505W        W34955  10.326   4.818   3.344 -0.0276 -0.0891  0.1471
28506W        W34956   2.459   5.889  38.845 -0.3253 -0.0336 -0.0813
28507W        W34957  11.636   1.602  11.511  0.0456  0.0050  0.2280
28508W        W34958   7.302   0.260  37.254  0.0239 -0.1492  0.0729
28509W        W34959  16.472   5.377   2.554 -0.0051  0.0520  0.2395
28510W        W34960  20.786   3.634  31.252  0.0918  0.0201  0.2105
28511W        W34961  14.013   6.585   1.312  0.2167  0.2557 -0.1034
28512W        W34962   1.173   0.547  28.723 -0.0086 -0.1540 -0.3027
28513W        W34963  17.689   5.944   4.872 -0.2608 -0.2508  0.0145
28514W        W34964   8.764   5.733  35.686 -0.1161  0.1381 -0.0052
28515W        W34965  15.846   1.729  15.664  0.2884  0.1190  0.2025
28516W        W34966  17.003   4.058  37.316  0.1479 -0.0032  0.3676
28517W        W34967   2.829   0.950   6.563 -0.0399  0.2420 -0.1122
28518W        W34968   6.295   5.001   5.168 -0.1246  0.0263  0.2230
28519W        W34969  19.315   4.090  20.445 -0.0527  0.0329 -0.0501
28520W        W34970   9.911   3.541  35.645  0.1169  0.1072 -0.0026
28521W        W34971   3.435   5.465  38.738 -0.0251 -0.1792  0.0775
28522W        W34972  16.353   3.689   7.704  0.2333  0.0752 -0.1778
28523W        W34973   1.264   5.323  38.495  0.4548  0.0904  0.1611
28524W        W34974   3.522   4.495   7.518 -0.0250 -0.0226 -0.2001
28525W        W34975  13.402   0.262  39.940 -0.1229 -0.0540  0.2531
28526W        W34976   0.755   3.221  43.390 -0.1072  0.3496 -0.2386
28527W        W34977   1.072   0.779   7.107 -0.0127 -0.2350 -0.3578
28528W        W34978   7.462   4.342  22.748  0.1158  0.1838  0.0429
28529W        W34979  17.596   3.175  34.080 -0.0127 -0.1984 -0.1937
28530W        W34980  19.609   4.853  32.236 -0.1606 -0.1520 -0.1855
28531W        W34981  12.857   3.932  38.386 -0.1788 -0.3459 -0.1634
28532W        W34982  20.425   4.683  32.521 -0.0449  0.1383 -0.2502
28533W        W34983  20.469   5.689  19.607 -0.3632  0.2608 -0.0370
28534W        W34984   0.564   1.615  32.763 -0.1300  0.0509  0.0343
28535W        W34985  10.330   3.378   6.420 -0.0751  0.2489  0.0991
28536W        W34986  16.631   0.988  22.221 -0.1151 -0.1981 -0.1821
28537W        W34987  10.803   1.623   3.193  0.0054  0.1040  0.3241
28538W        W34988   9.357   1.516  25.164 -0.0357  0.1589  0.1698
28539W        W34989   5.318   1.869  41.044  0.0934 -0.1901 -0.0840
28540W        W34990  11.495   5.180  27.920  0.1984  0.2286  0.1286
28541W        W34991   7.589   5.817  10.310  0.0734  0.1197 -0.0429
28542W        W34992  15.079   1.328  32.566  0.0202  0.0388 -0.0989
28543W        W34993   8.964   5.629   6.049 -0.0843  0.2305  0.2853
28544W        W34994  15.678   6.387   1.629  0.0161  0.0380 -0.1456
28545W        W34995   5.652   0.640  42.669  0.3765 -0.2646 -0.0947
28546W        W34996   8.357   2.795  24.503  0.0510  0.0199  0.2153
28547W        W34997   5.862   4.944  12.221 -0.2454  0.2368 -0.1245
28548W        W34998   9.563   6.416  41.733  0.0976 -0.0230  0.0789
28549W        W34999   9.932   3.467  39.459 -0.4269 -0.1724 -0.1795
28550W        W35000  10.312   5.326   3.514 -0.2737 -0.0235  0.0186
28551W        W35001  19.810   2.583   5.817 -0.1795  0.0033  0.0618
28552W        W35002  10.698   3.674  13.475 -0.1619 -0.0679 -0.1970
28553W        W35003  20.714   0.691   3.761 -0.3243 -0.1555 -0.0722
28554W        W35004   2.211   4.196  26.810  0.2241  0.0743  0.0244
28555W        W35005  14.844   5.496  42.877 -0.1400  0.1828  0.2201
28556W        W35006  13.429   3.882   9.667  0.2377 -0.0317 -0.3938
28557W        W35007   0.711   5.654  35.102 -0.1805  0.2432  0.3156
28558W        W35008  16.476   0.248  32.897 -0.2333 -0.0895  0.0171
28559W        W35009  13.617   5.267  13.421 -0.2591 -0.1182 -0.1236
28560W        W35010  11.328   1.918  44.380  0.0508  0.0313  0.1303
28561W        W35011  12.673   2.887  35.127  0.1599 -0.1008 -0.2950
28562W        W35012   5.762   3.904  37.547 -0.4475 -0.0107  0.1598
28563W        W35013   1.577   0.070  26.298 -0.1723 -0.3179 -0.2553
28564W        W35014   8.006   4.998   0.009  0.1108 -0.1803 -0.1141
28565W        W35015   2.177   5.537  34.037  0.2588  0.0098 -0.2580
28566W        W35016  15.958   3.113  44.940  0.1075  0.0019  0.0240
28567W        W35017   8.452   2.585  40.161 -0.0093 -0.0056 -0.3015
28568W        W35018  13.745   2.410  20.368 -0.1169 -0.0551 -0.1027
28569W        W35019  11.962   0.031  36.755 -0.2143  0.0254  0.0470
28570W        W35020  10.722   4.849  42.065  0.0147 -0.3481 -0.2608
28571W        W35021   1.664   4.388   8.853 -0.0071  0.0257 -0.1257
28572W        W35022  13.031   1.915  43.936  0.0830 -0.0710  0.0204
28573W        W35023   3.849   4.323   5.752 -0.0148 -0.1377  0.0807
28574W        W35024  18.145   0.008   0.225  0.0357  0.3084  0.3022
28575W        W35025  11.313   1.482  44.723  0.5317 -0.1260 -0.1820
28576W        W35026  15.259   6.332  32.666 -0.1945  0.3283  0.3459
28577W        W35027  19.285   3.316   3.396  0.3289 -0.0386  0.3592
28578W        W35028   6.974   3.141  38.792 -0.1424  0.1955 -0.0938
28579W        W35029   1.574   1.791  27.667  0.1102  0.0072 -0.0205
28580W        W35030   7.642   5.901  11.807 -0.0366 -0.1723  0.2766
28581W        W35031  17.231   2.656  33.555 -0.1356  0.1070 -0.0593
28582W        W35032   5.871   3.907  45.108 -0.0030 -0.1254 -0.1485
28583W        W35033  20.514   0.202  30.269  0.1680 -0.1118  0.1342
28584W        W35034  12.551   6.207  15.270 -0.0027  0.1875 -0.1268
28585W        W35035   8.368   2.701  33.569  0.1420 -0.2160  0.1703
28586W        W35036   0.698   2.086  26.629 -0.1044 -0.0008 -0.0823
28587W        W35037   4.306   5.843   7.395  0.0186 -0.3581 -0.2553
28588W        W35038   4.936   0.952  15.317  0.0828  0.2575  0.0284
28589W        W35039  14.257   2.279   3.911 -0.2512 -0.3109 -0.0872
28590W        W35040  19.424   2.166  11.019 -0.0045  0.1311 -0.3678
28591W        W35041   9.115   4.424   4.906 -0.3319 -0.0504  0.0139
28592W        W35042  20.761   6.535  40.307 -0.4329 -0.1498 -0.0215
28593W        W35043   3.554   3.339   9.503 -0.1060 -0.1205 -0.2382
28594W        W35044  11.556   3.088   3.142 -0.1320 -0.0403  0.2690
28595W        W35045   1.201   2.219  16.153  0.1716 -0.2779 -0.1743
28596W        W35046   1.505   2.469  10.970  0.1640  0.0979  0.2233
28597W        W35047   6.442   4.619  28.664 -0.1942 -0.1692  0.0588
28598W        W35048   5.183   1.030  37.417 -0.2852 -0.4782  0.0608
28599W        W35049   6.296   1.094  44.811  0.1888  0.1191  0.0802
28600W        W35050  14.025   3.309  34.739  0.2856 -0.4275 -0.0466
28601W        W35051   8.916   5.710  43.809  0.2580 -0.1170 -0.1906
28602W        W35052  13.078   5.787  40.689  0.0266  0.3490  0.2553
28603W        W35053   1.336   2.334  44.303 -0.4947 -0.2127  0.0214
28604W        W35054  15.824   2.517  33.076  0.0223 -0.1340 -0.1652
28605W        W35055   7.699   5.020  10.548  0.0590 -0.0190  0.2337
28606W        W35056  15.980   6.574  11.019 -0.1153 -0.0813  0.1267
28607W        W35057   2.398   3.432  24.253  0.0433  0.0496 -0.0891
28608W        W35058  13.150   5.989  19.863  0.0146  0.0960  0.0713
28609W        W35059   1.173   0.676  12.834 -0.0286 -0.0106 -0.5180
28610W        W35060   2.103   2.879   8.413 -0.0418  0.3687 -0.0738
28611W        W35061  12.370   1.593   2.476  0.1942  0.2821 -0.0076
28612W        W35062   9.813   6.190   3.657 -0.2656 -0.0169 -0.1504
28613W        W35063  17.860   5.240  39.049  0.0977  0.0077  0.0628
28614W        W35064  20.101   4.998  14.496  0.0245 -0.2076 -0.0090
28615W        W35065   3.776   2.692  30.097 -0.1218 -0.1344 -0.0336
28616W        W35066  12.136   3.689   7.736  0.1505 -0.0221 -0.1120
28617W        W35067  18.633   3.366  31.530 -0.3390  0.1333 -0.0252
28618W        W35068   7.639   2.263  30.385  0.5105 -0.1249  0.0717
28619W        W35069   9.356   1.061  39.820 -0.0163 -0.0945  0.0285
28620W        W35070  12.348   6.315  17.654 -0.4446 -0.1300  0.1743
28621W        W35071  18.576   5.075  36.608  0.0284  0.1517 -0.1516
28622W        W35072  19.590   2.909  10.614 -0.1006 -0.2055 -0.1395
28623W        W35073   9.733   3.661  30.568  0.4538 -0.1623 -0.2159
28624W        W35074  11.792   5.946  18.428  0.1361 -0.2048  0.0471
28625W        W35075  10.103   3.344   5.440  0.1004  0.1452 -0.3731
28626W        W35076  15.087   0.922  37.456  0.1481  0.1572 -0.0462
28627W        W35077   2.859   5.246   5.869  0.2496  0.1189 -0.1124
28628W        W35078  20.170   5.621   6.972  0.0437 -0.1419  0.2764
28629W        W35079   8.786   2.972  12.450  0.0505 -0.0875 -0.1068
28630W        W35080  21.051   5.511  12.185 -0.2955  0.0371  0.0857
28631W        W35081  18.334   3.464  30.697 -0.2864 -0.1129 -0.0441
28632W        W35082   9.215   6.588  42.055 -0.2546 -0.0202 -0.2820
28633W        W35083  15.759   6.417  36.400  0.2500 -0.1468  0.2302
28634W        W35084  18.783   3.375  20.803 -0.0922 -0.4461 -0.0100
28635W        W35085  13.695   5.573  28.059  0.2226  0.0071  0.0271
28636W        W35086   2.581   2.846  14.631 -0.1000  0.3090 -0.1488
28637W        W35087   2.441   4.766  13.503  0.0007 -0.1188 -0.0865
28638W        W35088  11.696   2.293  32.535  0.1639  0.1018  0.2173
28639W        W35089  14.489   2.945  17.544 -0.5263  0.0789 -0.1714
28640W        W35090   2.117   3.871  39.743 -0.0160  0.1665  0.0941
28641W        W35091  17.774   2.902  43.410 -0.0228  0.0428 -0.1205
28642W        W35092  20.419   6.157  33.113  0.4319  0.0626  0.0607
28643W        W35093   2.771   4.549  32.768 -0.1323 -0.0849 -0.0542
28644W        W35094  16.707   2.511   2.341  0.0410  0.2167  0.2252
28645W        W35095  12.056   5.786  16.926 -0.2505  0.1934  0.0314
28646W        W35096   1.770   2.086  12.307  0.1525  0.1695 -0.3199
28647W        W35097   4.795   2.183  32.491 -0.1485  0.3228  0.1526
28648W        W35098   2.386   1.863   1.745 -0.0294 -0.1059 -0.0469
28649W        W35099   2.402   4.428  40.822 -0.2142  0.1073  0.2001
28650W        W35100   4.517   4.345  15.095 -0.1477 -0.1993  0.0080
28651W        W35101   7.688   1.424  44.331 -0.0636 -0.0834  0.3362
28652W        W35102   2.263   1.230  39.263  0.0600  0.0139 -0.1886
28653W        W35103  12.653   5.143   2.761  0.0716 -0.2607  0.0064
28654W        W35104  11.902   0.025  39.149  0.0273  0.0590 -0.0123
28655W        W35105   4.225   2.627  12.010 -0.0410 -0.3226  0.3675
28656W        W35106  16.072   0.865  20.782  0.3376 -0.0647 -0.2875
28657W        W35107   1.438   4.157  38.396  0.0957  0.1473  0.0100
28658W        W35108  19.577   1.522  13.556 -0.0305 -0.1167 -0.0424
28659W        W35109  13.416   2.241  38.502  0.0844  0.0753 -0.1498
28660W        W35110   7.399   3.854  42.623 -0.0915 -0.3311  0.0866
28661W        W35111   6.067   2.077   5.685  0.0123  0.0976 -0.0454
28662W        W35112  16.561   0.472  32.475  0.0030  0.2517 -0.2437
28663W        W35113  12.713   1.433   8.918  0.1789  0.0923 -0.1092
28664W        W35114   3.965   2.608  26.781 -0.0086  0.2207  0.3167
28665W        W35115  13.497   0.694   9.666  0.0027  0.0236  0.0329
28666W        W35116   6.117   3.540   2.380  0.1429  0.0099 -0.0632
28667W        W35117  11.056   0.420  38.597 -0.1730  0.1078  0.1567
28668W        W35118  20.443   5.097  32.840  0.0902 -0.2155  0.1551
28669W        W35119   0.093   4.995  41.756  0.0935 -0.0635 -0.2395
28670W        W35120   6.981   2.406  34.738 -0.0187  0.0511 -0.1558
28671W        W35121  15.161   5.360   8.258 -0.2266  0.0488 -0.0867
28672W        W35122  18.384   1.341  38.369  0.1616 -0.0405 -0.0025
28673W        W35123  11.404   1.876  36.598 -0.1646 -0.2328  0.1255
28674W        W35124  12.579   0.008   5.567 -0.1913 -0.2428  0.1503
28675W        W35125  16.587   6.247  18.682 -0.0196 -0.1214  0.0509
28676W        W35126  16.859   4.502   9.428  0.4530  0.0261 -0.2088
28677W        W35127  12.235   3.364  13.370 -0.1241  0.1842  0.1182
28678W        W35128  14.063   5.673  39.455 -0.2626 -0.2873 -0.0648
28679W        W35129   1.787   4.642  34.794  0.3247  0.2751  0.1773
28680W        W35130  20.720   0.258  41.191 -0.0188 -0.0845  0.0643
28681W        W35131  16.900   3.684  16.085  0.0283 -0.2931  0.0493
28682W        W35132  17.932   1.019  30.725  0.1542 -0.1608  0.3702
28683W        W35133  18.190   2.263  22.736 -0.0854  0.0801  0.0355
28684W        W35134   4.347   2.789  26.463  0.1654  0.0729 -0.3032
28685W        W35135  19.941   0.885  11.170  0.0836  0.0653 -0.3204
28686W        W35136  20.500   0.067   6.425 -0.1510 -0.0864  0.2361
28687W        W35137   0.892   5.231   7.596 -0.2262 -0.1741 -0.2798
28688W        W35138  17.143   0.272  37.523  0.0567 -0.0308 -0.1214
28689W        W35139  13.563   3.759  31.094 -0.2206  0.0411 -0.2233
28690W        W35140  15.469   1.804   0.180 -0.1893  0.1522  0.2058
28691W        W35141  18.192   0.398  38.786  0.2470  0.2551  0.0945
28692W        W35142   2.130   2.267   8.577 -0.0038  0.2607 -0.0349
28693W        W35143   5.840   3.954  37.008 -0.1853  0.0887  0.0019
28694W        W35144  12.049   4.545   2.417 -0.0230  0.3253  0.1559
28695W        W35145  10.930   1.003  29.717 -0.0228  0.1905  0.1866
28696W        W35146  13.301   3.395   1.192 -0.2349  0.1520 -0.1386
28697W        W35147   2.764   5.146  13.428 -0.1673  0.1364  0.0374
28698W        W35148  15.459   4.002   9.663 -0.0514 -0.0153 -0.1693
28699W        W35149   5.456   4.578  39.217 -0.1024  0.0728 -0.2031
28700W        W35150  17.212   1.364  18.541 -0.0139 -0.0525  0.2201
28701W        W35151   7.240   6.244  29.684  0.2347 -0.0519 -0.3533
28702W        W35152   2.163   3.392   0.021  0.1604 -0.0851 -0.0766
28703W        W35153   0.616   6.494  32.657 -0.0130 -0.0778  0.4197
28704W        W35154   3.350   4.702  39.282 -0.2612 -0.0366 -0.2064
28705W        W35155   0.706   4.631  16.591  0.3018  0.1096  0.0687
28706W        W35156   4.175   0.497   6.117 -0.0896 -0.3181 -0.1591
28707W        W35157  14.987   4.378  11.817 -0.3566  0.0863 -0.0643
28708W        W35158   9.330   1.150   3.805  0.1054 -0.3010  0.0059
28709W        W35159   2.253   1.222  30.584  0.4095 -0.0102 -0.3283
28710W        W35160   0.747   2.610  31.382  0.1373  0.2848 -0.0661
28711W        W35161   8.363   3.450   7.020  0.0719  0.2743  0.0965
28712W        W35162   1.133   2.329  13.933 -0.2340  0.0064 -0.1164
28713W        W35163  17.451   3.169  19.017 -0.0797  0.1518 -0.0903
28714W        W35164   1.193   0.876  34.589 -0.1641 -0.5955 -0.1656
28715W        W35165  17.264   4.977  37.348 -0.0546  0.1789 -0.1916
28716W        W35166  14.456   4.694   0.398 -0.0018 -0.1092 -0.0784
28717W        W35167   4.113   1.407  15.403  0.0596 -0.0983  0.0478
28718W        W35168  19.930   6.416   0.324 -0.0911  0.0243 -0.1679
28719W        W35169  20.679   2.602  39.524 -0.0420  0.1655  0.1769
28720W        W35170  13.900   2.104   6.860 -0.0489 -0.2199 -0.3574
28721W        W35171   0.286   5.691  38.913  0.0725  0.0514 -0.2200
28722W        W35172  15.851   5.526   8.606  0.3756 -0.0266 -0.2263
28723W        W35173  18.055   2.941  10.916  0.1124 -0.1369 -0.3785
28724W        W35174  16.357   0.847  16.060  0.1124  0.0698  0.0751
28725W        W35175  13.249   3.019   3.081  0.0047 -0.2716 -0.0318
28726W        W35176  13.043   2.567  32.519 -0.3601  0.2154  0.2376
28727W        W35177   6.770   4.316  11.807 -0.1613 -0.2421 -0.0367
28728W        W35178  11.416   4.231  41.484  0.0875 -0.3175 -0.0936
28729W        W35179  13.746   4.386  15.168  0.0927 -0.0385  0.1298
28730W        W35180  18.161   5.100  33.855 -0.1115  0.1398 -0.0045
28731W        W35181   9.936   0.056  32.547 -0.0884 -0.0657  0.1846
28732W        W35182  11.836   5.582  42.177 -0.0814  0.1953 -0.1414
28733W        W35183  11.335   6.163   6.008 -0.0312  0.0423 -0.0570
28734W        W35184   0.412   4.722  13.174 -0.1395 -0.1471 -0.0661
28735W        W35185  20.956   1.697  41.517  0.3457  0.1485  0.3483
28736W        W35186   6.415   0.454  34.247 -0.1221 -0.3134 -0.0148
28737W        W35187  10.061   2.363  42.531 -0.0510 -0.0495 -0.0943
28738W        W35188  14.930   0.123  31.317  0.0793  0.0547 -0.2183
28739W        W35189   8.896   6.074  29.779  0.0682  0.1295 -0.0128
28740W        W35190   0.175   4.602  29.052  0.1442 -0.0885  0.3391
28741W        W35191  21.144   6.530  42.457 -0.0371 -0.0359 -0.0754
28742W        W35192  18.613   1.578   0.667 -0.0065 -0.0183  0.1450
28743W        W35193  13.153   6.399   4.988  0.1025  0.0462  0.1325
28744W        W35194   3.374   6.213  37.278 -0.1071 -0.0236 -0.1305
28745W        W35195   2.849   5.297   7.028 -0.1463 -0.0602  0.1737
28746W        W35196  16.514   1.857  16.504 -0.0897  0.2101  0.1127
28747W        W35197   2.279   3.797   5.656  0.3621  0.1537  0.1389
28748W        W35198  17.901   6.437  33.967 -0.0304  0.0392  0.1903
28749W        W35199   2.399   5.468   6.801 -0.0755  0.0915 -0.0889
28750W        W35200   6.648   3.650  44.759 -0.0849 -0.0399  0.0355
28751W        W35201  17.972   3.852  40.353 -0.1167 -0.0940 -0.0884
28752W        W35202   0.862   4.318   4.683 -0.2678 -0.1439 -0.0510
28753W        W35203   6.742   3.337   0.131  0.0934  0.2031 -0.0584
28754W        W35204   2.943   5.029   4.607 -0.0407  0.1544 -0.0987
28755W        W35205  11.859   4.932  28.341 -0.2102 -0.2506 -0.2259
28756W        W35206   5.946   1.161  39.652  0.1784 -0.0234 -0.1776
28757W        W35207   6.808   6.042   9.299  0.1924  0.1315 -0.0939
28758W        W35208  11.728   3.670  15.279 -0.2847 -0.2850  0.1461
28759W        W35209  14.932   5.351  15.250 -0.0503 -0.0033 -0.0796
28760W        W35210   1.026   6.171  27.002 -0.1576  0.0335  0.0044
28761W        W35211   8.780   1.287   7.169 -0.2579  0.2833  0.2316
28762W        W35212  16.211   0.110  29.697  0.0872 -0.1224 -0.0250
28763W        W35213   5.991   1.421  20.682 -0.0279 -0.0976 -0.0866
28764W        W35214   1.083   4.892  10.372  0.1966 -0.0961  0.0265
28765W        W35215  11.766   4.441   9.429 -0.0123 -0.1680  0.2242
28766W        W35216  19.032   1.939  29.726  0.0516 -0.0647  0.2255
28767W        W35217   1.465   0.479  12.025 -0.1210 -0.5134 -0.0051
28768W        W35218  19.129   5.448  39.242 -0.2312 -0.1453  0.0562
28769W        W35219   6.417   6.542  11.783  0.3909 -0.0428 -0.0607
28770W        W35220  19.458   1.104  12.793 -0.2420  0.1487 -0.1008
28771W        W35221  16.377   1.507  17.125  0.0193  0.0149 -0.0798
28772W        W35222   0.645   5.298   4.808 -0.1867 -0.0432 -0.3275
28773W        W35223  21.142   3.129   7.374  0.3199 -0.0302  0.2479
28774W        W35224  17.829   0.562  18.119 -0.1078  0.1361  0.0897
28775W        W35225  16.988   2.824  14.809 -0.0099  0.1012  0.0162
28776W        W35226   0.548   0.457   3.650  0.2593  0.2470 -0.1267
28777W        W35227  20.316   0.617   6.285 -0.0087  0.3867  0.2030
28778W        W35228   1.530   4.715   4.551 -0.0223  0.2150 -0.3990
28779W        W35229   7.385   5.942  36.450  0.2851  0.1552 -0.0849
28780W        W35230   6.320   3.250  41.875  0.0105 -0.0208  0.4421
28781W        W35231   0.953   2.808  13.982  0.0589  0.0812 -0.0514
28782W        W35232   7.638   5.972   7.802 -0.1358 -0.0263 -0.1185
28783W        W35233  18.090   5.650   5.920  0.0026  0.1751 -0.0088
28784W        W35234   1.155   0.790   1.107 -0.0687  0.0775  0.0190
28785W        W35235   5.875   0.689  26.642  0.2074  0.0781 -0.2317
28786W        W35236   4.412   6.169  42.955  0.0979 -0.0887  0.0067
28787W        W35237   5.889   1.909  37.146  0.0920  0.0699 -0.2016
28788W        W35238  15.463   3.438  13.344  0.0825 -0.3535 -0.0024
28789W        W35239  21.071   2.076  28.727  0.1752  0.0058  0.0771
28790W        W35240   8.863   3.133  35.256  0.2006 -0.0540 -0.3978
28791W        W35241   4.555   0.097  37.817 -0.1094 -0.2094 -0.2049
28792W        W35242   5.533   1.134  42.000 -0.0796  0.2140  0.0379
28793W        W35243   5.013   2.600  41.497  0.2272 -0.0011  0.0318
28794W        W35244   5.931   1.557   2.391  0.0324 -0.2231  0.2272
28795W        W35245  13.444   3.355  32.506  0.3320  0.1039 -0.2964
28796W        W35246  14.677   4.968  43.770 -0.2030 -0.2770 -0.3999
28797W        W35247   8.249   2.979  15.535 -0.1738 -0.0673 -0.0364
28798W        W35248   1.736   6.523  13.232  0.2025 -0.1750 -0.1270
28799W        W35249  19.181   1.864   4.706 -0.1447  0.2572  0.2658
28800W        W35250  20.598   6.242   7.636 -0.0034  0.0059 -0.0802
28801W        W35251  12.326   0.492  30.636 -0.0093  0.1592 -0.1031
28802W        W35252  14.861   5.290  13.416  0.0946 -0.2838 -0.1024
28803W        W35253   2.157   4.080  11.402 -0.0097  0.1750 -0.1255
28804W        W35254  13.051   5.698   0.138 -0.1072 -0.1100 -0.1352
28805W        W35255   8.578   4.002  44.284 -0.0549 -0.4122  0.0331
28806W        W35256   2.883   5.272  14.435  0.0632 -0.4748 -0.1721
28807W        W35257  14.744   3.504   2.956 -0.2956 -0.3171  0.0187
28808W        W35258   6.088   0.646  24.883 -0.0525 -0.3698 -0.0466
28809W        W35259   7.495   2.073   0.521 -0.0206  0.0155 -0.2179
28810W        W35260  18.469   3.201  34.841  0.0133 -0.2835 -0.0391
28811W        W35261  15.147   2.692  29.327 -0.0469 -0.1752  0.4441
28812W        W35262  19.836   1.341  14.867 -0.3420  0.2490  0.2480
28813W        W35263   9.275   3.224  44.919  0.3416 -0.1975  0.0344
28814W        W35264  20.482   3.894  16.575 -0.0749 -0.1042  0.0550
28815W        W35265   4.445   6.596  24.987  0.1900  0.2531 -0.0550
28816W        W35266   6.093   1.610   4.434  0.1261  0.0335 -0.1824
28817W        W35267   5.745   4.561  22.950 -0.0810  0.2770 -0.2953
28818W        W35268  14.882   1.293   8.651  0.2237 -0.1705  0.0713
28819W        W35269  11.272   4.709  35.952  0.3213 -0.0066  0.1234
28820W        W35270  14.543   2.712  36.478  0.2010 -0.0305 -0.2152
28821W        W35271   3.558   0.072  13.736  0.0796  0.1312  0.4218
28822W        W35272   5.672   6.429  25.343 -0.3663 -0.3331  0.1537
28823W        W35273  12.582   1.925  44.193  0.1936  0.0866 -0.3584
28824W        W35274   0.803   1.661  38.531 -0.4877  0.1040 -0.1603
28825W        W35275   8.134   0.032   5.437  0.2321  0.0452 -0.2306
28826W        W35276  15.983   1.095   3.848  0.1407  0.0930 -0.1947
28827W        W35277   8.788   2.050   3.067  0.1573 -0.1166  0.2019
28828W        W35278   0.983   2.650   3.913  0.0734 -0.3386 -0.0592
28829W        W35279   1.726   4.595  29.633 -0.1188  0.2547  0.1852
28830W        W35280  19.546   0.899  19.454  0.3524 -0.0547 -0.1159
28831W        W35281   0.686   1.007  45.065  0.3328  0.2859 -0.3422
28832W        W35282  16.922   1.358  17.557 -0.1980 -0.1893 -0.5119
28833W        W35283  12.221   0.789  13.447  0.2141 -0.0665  0.1761
28834W        W35284  11.172   1.584   2.623  0.0100  0.4776  0.2148
28835W        W35285  16.379   0.191  22.240  0.1391 -0.1126 -0.4296
28836W        W35286  20.474   1.526  41.468  0.1247  0.1926  0.0755
28837W        W35287  16.320   5.195  31.620 -0.0430 -0.2075  0.1366
28838W        W35288  15.298   2.936  14.972  0.1459  0.2543 -0.0969
28839W        W35289  10.306   4.797   7.532  0.0123  0.0863  0.1316
28840W        W35290  11.504   5.644  36.965  0.1421 -0.0993 -0.0782
28841W        W35291   9.535   4.057  44.135 -0.0910 -0.0522  0.2512
28842W        W35292   3.157   0.428  11.642  0.2930  0.1748 -0.4111
28843W        W35293  10.854   4.076  10.846  0.0516 -0.1151 -0.2588
28844W        W35294  12.014   2.092  33.632  0.1958  0.2112  0.0005
28845W        W35295   1.096   1.248  32.728  0.1263  0.2866 -0.0451
28846W        W35296  18.592   5.741  18.352 -0.0833 -0.1387  0.0939
28847W        W35297   3.635   4.885  31.330 -0.0515  0.0221 -0.1789
28848W        W35298  11.573   4.986   4.533  0.0446  0.1518 -0.0348
28849W        W35299  16.870   2.205  39.351 -0.2154 -0.1035 -0.0962
28850W        W35300   0.399   5.163  11.376  0.1740  0.0007 -0.1577
28851W        W35301  13.707   4.048  13.730 -0.1436  0.0974  0.2918
28852W        W35302  18.555   4.253  39.324  0.0207 -0.2473 -0.0503
28853W        W35303   2.824   0.937   1.470 -0.1534 -0.0306  0.1089
28854W        W35304  15.236   1.501  29.964  0.2185  0.0228 -0.0121
28855W        W35305   2.704   2.752   7.819  0.1189  0.1907  0.3561
28856W        W35306  15.895   5.614  17.288 -0.0515  0.1504 -0.2886
28857W        W35307  18.057   5.876  17.995 -0.2949 -0.0836 -0.0182
28858W        W35308  18.879   3.555  32.475  0.1617  0.0197 -0.0678
28859W        W35309   8.440   5.437   6.062 -0.2175  0.1423 -0.0153
28860W        W35310  18.170   1.135  41.324  0.0161  0.0892 -0.1033
28861W        W35311  14.313   3.439  39.950 -0.0246  0.2718  0.1095
28862W        W35312  10.456   2.248  17.206 -0.3616  0.1282  0.2845
28863W        W35313  16.595   3.530  30.752 -0.1431  0.0579 -0.0677
28864W        W35314   2.132   0.679   6.595 -0.0227  0.2064  0.0221
28865W        W35315  16.308   1.069  44.520  0.0991 -0.3090 -0.4257
28866W        W35316   5.944   3.743   4.491 -0.0016 -0.0417  0.0739
28867W        W35317   9.318   4.059  16.487 -0.0262  0.3929  0.0362
28868W        W35318  18.829   1.572  33.745 -0.3066  0.1314 -0.1955
28869W        W35319  16.255   5.285   7.622  0.1031  0.0894  0.5121
28870W        W35320   5.651   6.518   7.259 -0.0741  0.0761  0.0297
28871W        W35321  16.510   5.990  41.577  0.1484 -0.0752 -0.1943
28872W        W35322  14.282   4.364  21.692 -0.2633  0.3680 -0.0709
28873W        W35323  14.405   1.041   3.333  0.1691 -0.1970 -0.2711
28874W        W35324  19.378   0.158   9.479 -0.0283 -0.0096 -0.2561
28875W        W35325  13.653   4.487  35.935 -0.0783 -0.1800  0.2965
28876W        W35326   1.152   3.861   4.916 -0.1884  0.0940 -0.0839
28877W        W35327   7.850   2.642  33.654  0.0798 -0.1814  0.0868
28878W        W35328  17.129   3.475  38.456  0.1360  0.4492 -0.0413
28879W        W35329   6.911   1.341  15.721 -0.2140 -0.0428 -0.1500
28880W        W35330  11.615   2.588  29.643 -0.2137  0.2815  0.1945
28881W        W35331  14.017   5.163   8.937  0.1943  0.0733 -0.1267
28882W        W35332  19.125   5.528  34.426  0.4160  0.1458 -0.1448
28883W        W35333   2.575   1.550  37.231  0.0693 -0.2507 -0.2214
28884W        W35334  11.317   6.546  14.153  0.2934 -0.2386  0.1304
28885W        W35335  13.251   4.424  34.516 -0.3636 -0.1491 -0.0548
28886W        W35336  11.180   5.595  34.524  0.1899  0.2823  0.0829
28887W        W35337  11.313   4.542   5.071  0.0953  0.0818  0.0582
28888W        W35338   9.030   3.801  31.924  0.0867  0.0755 -0.0804
28889W        W35339   9.614   1.029  15.212 -0.0758  0.0754 -0.0807
28890W        W35340  15.807   1.022  23.866  0.2476 -0.0029  0.0345
28891W        W35341   4.845   5.995  28.586 -0.0739 -0.2701 -0.2918
28892W        W35342   6.080   0.785  16.330 -0.0890 -0.1577 -0.2905
28893W        W35343  10.483   2.151  31.197 -0.1421  0.3019 -0.0488
28894W        W35344  21.136   4.574  17.213  0.1343  0.0316  0.0181
28895W        W35345   3.131   5.420   4.851 -0.0585 -0.0928 -0.2416
28896W        W35346   8.859   4.401  39.390  0.0927 -0.1482 -0.1924
28897W        W35347  10.662   4.433  16.939  0.0814  0.2105 -0.1292
28898W        W35348   0.748   3.284  27.316  0.3167 -0.1900 -0.1257
28899W        W35349   5.457   4.938  11.302  0.1922  0.1547  0.0908
28900W        W35350   5.409   5.146  14.783 -0.1741 -0.0336  0.0381
28901W        W35351   3.212   2.897   9.737  0.1831  0.3593  0.0857
28902W        W35352   5.465   2.417  35.568 -0.2277 -0.3276 -0.0897
28903W        W35353  19.639   2.753  29.694  0.1170  0.0331 -0.1761
28904W        W35354  16.332   3.522  25.528 -0.3363 -0.1502  0.1418
28905W        W35355  17.364   3.096  19.854 -0.0648  0.1660 -0.0617
28906W        W35356  12.874   1.032  10.571  0.0121 -0.4745 -0.0302
28907W        W35357  17.738   5.679  30.781  0.0013 -0.2559 -0.2536
28908W        W35358   0.724   3.609  17.130  0.0720  0.0483 -0.2232
28909W        W35359   4.074   2.423  36.901 -0.1438 -0.2790 -0.0187
28910W        W35360  20.841   3.042  33.929 -0.0726  0.1203  0.1493
28911W        W35361  15.332   5.563  17.834  0.1301  0.2168 -0.0835
28912W        W35362   6.539   5.695   1.939 -0.1817 -0.0005 -0.0379
28913W        W35363  19.837   1.325  39.012 -0.3221  0.2385 -0.0403
28914W        W35364  16.504   3.886   8.244  0.0264  0.0481 -0.0386
28915W        W35365   4.532   2.729  27.801  0.0668 -0.0506  0.0057
28916W        W35366   1.488   5.573  12.985  0.1563 -0.0220  0.3237
28917W        W35367  15.932   4.143  12.775 -0.0944  0.0473  0.2151
28918W        W35368  11.446   4.776   6.789 -0.0722  0.0465 -0.1707
28919W        W35369   2.249   3.592  11.102 -0.1919  0.1412  0.2570
28920W        W35370   3.409   4.259  40.047 -0.1207  0.0949 -0.1513
28921W        W35371  19.988   1.960   3.496  0.1505  0.0832 -0.1449
28922W        W35372   1.502   1.445   3.525  0.2164 -0.2074 -0.1510
28923W        W35373  19.252   6.492  34.151 -0.1464  0.0266 -0.0090
28924W        W35374   4.936   2.461  39.873 -0.1234  0.0696 -0.0191
28925W        W35375  16.389   2.263  19.002  0.0722  0.3315 -0.0185
28926W        W35376  12.463   0.666  12.865 -0.2541 -0.1828 -0.0169
28927W        W35377  10.257   5.646  28.625 -0.2063  0.4837  0.2258
28928W        W35378   7.744   4.237  32.087  0.2679 -0.3086  0.2330
28929W        W35379   3.361   3.534  15.127 -0.0215  0.1943  0.0106
28930W        W35380   7.033   6.051  12.531  0.0513 -0.2497  0.1420
28931W        W35381  13.157   4.157  31.148  0.0337 -0.0225  0.4174
28932W        W35382   8.588   0.083  23.217 -0.1114  0.0667  0.0018
28933W        W35383  20.120   1.010  18.413  0.1221  0.0005 -0.0962
28934W        W35384  12.845   4.341  44.607  0.1148 -0.0018 -0.1204
28935W        W35385   6.519   3.922  34.028 -0.2570  0.0890  0.0210
28936W        W35386   6.498   5.578   2.489  0.2676 -0.1074 -0.2098
28937W        W35387  12.847   5.102  35.867  0.1393 -0.2899 -0.1709
28938W        W35388   2.944   1.095   3.721  0.1369  0.1777  0.0741
28939W        W35389   0.539   2.006  14.796 -0.1119 -0.0899  0.0258
28940W        W35390  18.634   3.396  18.868 -0.1183 -0.0344  0.0113
28941W        W35391   1.133   0.646   9.336 -0.0555  0.0395 -0.1502
28942W        W35392   3.208   0.671   0.111  0.0106  0.1804  0.0445
28943W        W35393  14.450   3.599  33.262  0.0118  0.0089  0.3081
28944W        W35394  10.018   5.333  44.185 -0.0670  0.2847 -0.2337
28945W        W35395   6.097   6.390  40.930  0.1048  0.0603 -0.2178
28946W        W35396   9.370   4.784  15.607 -0.0991 -0.2566  0.1347
28947W        W35397   8.850   3.208  29.932  0.3912 -0.5680 -0.0312
28948W        W35398   5.052   1.010  39.501 -0.1079 -0.0225  0.1731
28949W        W35399  12.699   0.177   6.931 -0.0429  0.1560 -0.1731
28950W        W35400   7.154   6.182  28.371 -0.1832  0.1869 -0.3063
28951W        W35401  11.507   1.878  19.504 -0.2445  0.0514 -0.0836
28952W        W35402  19.263   1.551  15.256  0.2509 -0.1455 -0.1466
28953W        W35403   7.542   0.768  38.636 -0.0035 -0.1377  0.4388
28954W        W35404  20.295   2.544   5.082  0.0104  0.1475  0.3570
28955W        W35405   8.578   5.895  37.056  0.1246  0.0274  0.1147
28956W        W35406  17.679   1.882  11.001 -0.2417 -0.1413  0.2576
28957W        W35407  12.437   6.058  15.844  0.5259  0.0807 -0.2896
28958W        W35408  16.077   4.353  32.603  0.2890  0.2693  0.2216
28959W        W35409   4.205   5.903  33.410  0.2777 -0.1880 -0.1518
28960W        W35410   2.715   0.851  15.674 -0.0611  0.0094  0.6550
28961W        W35411   2.745   4.258  44.697 -0.0068 -0.0424  0.2468
28962W        W35412  13.504   5.878  29.025  0.0301  0.2025  0.1074
28963W        W35413  21.015   5.877  12.507 -0.2222 -0.1337  0.0066
28964W        W35414  13.034   6.602  17.344  0.3733  0.0560  0.1147
28965W        W35415  10.330   0.448  40.308  0.0354  0.1774  0.0813
28966W        W35416  15.081   0.922  13.501 -0.1380  0.1789  0.0502
28967W        W35417   2.259   0.229   6.741 -0.1640  0.3087  0.0361
28968W        W35418  19.733   4.711  34.016 -0.1059  0.4175 -0.1551
28969W        W35419  12.465   4.415  38.623  0.1216 -0.1223 -0.0138
28970W        W35420   6.352   2.743   2.165  0.1420  0.3548  0.0301
28971W        W35421  16.221   1.040  30.709 -0.1669  0.3279 -0.1775
28972W        W35422  17.175   5.399  16.965 -0.0645  0.1855 -0.1598
28973W        W35423  16.213   1.245   7.040 -0.0835  0.0097 -0.2124
28974W        W35424  19.136   4.310   1.158 -0.1466  0.1033 -0.1215
28975W        W35425   1.872   2.390  38.015  0.1845  0.2078 -0.0455
28976W        W35426  15.917   5.340  42.885 -0.2150 -0.3764  0.0010
28977W        W35427   3.420   1.475  26.465  0.1719  0.3252  0.0943
28978W        W35428  19.544   4.980   9.665  0.1665  0.4718  0.0429
28979W        W35429  17.661   4.806   5.642  0.2765 -0.2157 -0.3067
28980W        W35430  17.771   4.932  18.641  0.0528  0.0386 -0.2351
28981W        W35431   9.391   0.688   9.831  0.0761  0.3759  0.1396
28982W        W35432  10.451   3.577  12.273 -0.2197  0.0808  0.2128
28983W        W35433  17.446   4.770  29.748  0.5115  0.1756 -0.0725
28984W        W35434   9.479   0.073   4.131  0.1108  0.1238  0.0758
28985W        W35435   8.180   0.229  40.563  0.3784  0.1782  0.2912
28986W        W35436  18.892   2.685   0.027 -0.0029  0.0041 -0.0137
28987W        W35437  15.992   6.195   2.536 -0.1597  0.1350  0.2947
28988W        W35438   7.393   0.694  42.412  0.0660  0.1080 -0.3395
28989W        W35439  12.289   5.083  15.421  0.0432 -0.1578  0.1944
28990W        W35440   6.477   4.333  42.875  0.0522  0.1307  0.0438
28991W        W35441  14.172   4.012  34.539 -0.1256  0.0261  0.0589
28992W        W35442  10.336   6.095  43.978  0.0713  0.0735 -0.0126
28993W        W35443   4.404   4.523  13.289 -0.1122 -0.0413 -0.1145
28994W        W35444   7.840   1.639   4.624  0.1029  0.2292  0.1556
28995W        W35445  12.878   3.195   8.635 -0.1453  0.1089 -0.1263
28996W        W35446  19.281   1.275  19.755 -0.1576 -0.2870 -0.1202
28997W        W35447  16.466   5.421  18.181 -0.1551  0.3420 -0.0819
28998W        W35448  14.819   1.338   3.104 -0.3419 -0.0243  0.0015
28999W        W35449  19.580   4.245  28.738  0.1900  0.0046 -0.0318
29000W        W35450  12.052   4.072  34.990  0.1206  0.2265  0.0661
29001W        W35451   2.576   1.921  24.553 -0.1178  0.1477 -0.3772
29002W        W35452   5.284   0.104  22.458 -0.2378  0.0365 -0.3186
29003W        W35453   7.344   0.102  41.676  0.2632 -0.0098 -0.3458
29004W        W35454  12.040   3.015  38.945  0.0524  0.1153  0.1699
29005W        W35455  13.471   2.962  38.481 -0.0787  0.0222  0.1323
29006W        W35456  17.296   4.536  39.368 -0.3024 -0.2556  0.0724
29007W        W35457   7.847   5.607   3.157  0.0711  0.2697 -0.1367
29008W        W35458  11.931   0.483  30.958  0.0781  0.1109  0.1809
29009W        W35459  11.383   5.142  12.712 -0.1320  0.1556 -0.0086
29010W        W35460  15.668   3.221  32.549 -0.2054  0.2058 -0.1357
29011W        W35461   9.178   2.267  24.230  0.1110 -0.2840 -0.2452
29012W        W35462  17.400   0.253   1.906 -0.2397 -0.2275 -0.1459
29013W        W35463  12.047   1.176   4.779 -0.2509 -0.0440  0.1187
29014W        W35464  11.215   5.423   2.439 -0.1742  0.0994  0.2952
29015W        W35465   4.017   0.453  31.123  0.1140  0.3128  0.0400
29016W        W35466   0.182   5.753  44.465 -0.1593  0.0375  0.0405
29017W        W35467  12.199   6.190  36.807  0.0643 -0.1803 -0.1932
29018W        W35468  11.010   5.764   7.242  0.2127  0.0068 -0.2837
29019W        W35469   6.643   1.184  24.785  0.1484  0.1764  0.1601
29020W        W35470   9.490   2.287   6.861 -0.1770 -0.0441 -0.0105
29021W        W35471  19.309   1.133  15.027  0.1220 -0.1408  0.0625
29022W        W35472   2.086   0.673  24.267  0.1209  0.4389 -0.3049
29023W        W35473  12.259   3.595  42.455 -0.2080  0.4522  0.2280
29024W        W35474  11.103   4.129   4.758  0.0661  0.0034 -0.4140
29025W        W35475   6.331   2.681   8.492  0.2941 -0.1337 -0.0953
29026W        W35476  10.647   0.728  13.709 -0.0294  0.5637  0.1744
29027W        W35477  15.498   4.403  22.971  0.2706 -0.2947 -0.4000
29028W        W35478   9.592   0.148  17.438  0.1031  0.0240 -0.0856
29029W        W35479  12.502   5.884   5.066 -0.0028 -0.2839  0.2255
29030W        W35480  11.691   2.948  35.042 -0.1788 -0.0055 -0.4004
29031W        W35481   0.668   1.892  32.350 -0.2809  0.0626  0.2006
29032W        W35482   9.007   6.180  44.609 -0.2048 -0.0990  0.0873
29033W        W35483  11.408   1.901   7.578  0.0564 -0.0925 -0.2340
29034W        W35484  13.593   1.878   7.698 -0.2119  0.0741  0.0457
29035W        W35485  10.367   5.665  13.444 -0.1132  0.0905 -0.0514
29036W        W35486   2.588   2.080  39.614  0.3506  0.0894  0.1259
29037W        W35487   4.915   3.599   3.315  0.3953 -0.1594 -0.1897
29038W        W35488   4.689   2.772  10.760  0.0343 -0.0970  0.0841
29039W        W35489   1.176   2.193  35.856  0.2317  0.1082 -0.0432
29040W        W35490   3.080   4.126  13.061 -0.3414  0.0117  0.1621
29041W        W35491  11.091   1.427  31.059  0.1008  0.1123  0.0426
29042W        W35492   6.604   0.689  24.969  0.1193  0.0154 -0.2401
29043W        W35493  18.897   2.663   5.086 -0.2709 -0.1819  0.2669
29044W        W35494   8.106   5.382  14.943  0.1437 -0.1276  0.0447
29045W        W35495  20.889   4.122  35.071  0.4191 -0.0680  0.0817
29046W        W35496  15.491   1.811  37.816  0.0293 -0.0924  0.2458
29047W        W35497  20.980   5.646  10.303  0.1914 -0.0622 -0.0677
29048W        W35498  13.081   6.366  39.035 -0.0517 -0.0882 -0.0465
29049W        W35499   6.930   6.238  24.660 -0.3502  0.2034 -0.3358
29050W        W35500  17.952   0.178   9.792  0.1401  0.1285  0.3837
29051W        W35501  10.196   5.173  30.381  0.0584 -0.1444  0.3277
29052W        W35502   3.021   1.378  40.664 -0.0080  0.1507  0.0235
29053W        W35503   1.960   0.640   9.316 -0.1547  0.1209  0.2776
29054W        W35504   1.543   5.217   5.569 -0.0744  0.0827 -0.0437
29055W        W35505   7.588   3.320   8.415  0.0467 -0.3131 -0.0672
29056W        W35506   8.181   0.600  39.205 -0.1467  0.1242 -0.1282
29057W        W35507  14.575   0.228   8.369  0.2306 -0.1278 -0.1249
29058W        W35508  19.860   4.395  10.720 -0.0484 -0.0840 -0.0122
29059W        W35509   1.926   5.971   3.234 -0.0492 -0.2381  0.1051
29060W        W35510  17.105   6.149  10.113 -0.2513 -0.2293 -0.1891
29061W        W35511  13.942   3.890  14.500  0.1315  0.0364  0.2912
29062W        W35512   0.352   2.829  13.380  0.0288 -0.0823 -0.1488
29063W        W35513   8.966   2.824  43.020 -0.2596 -0.2212 -0.1772
29064W        W35514   0.086   4.105  16.108 -0.0047  0.0869 -0.0797
29065W        W35515   5.848   2.171  22.087 -0.0271 -0.2375 -0.2101
29066W        W35516   0.215   5.072   6.472 -0.0894 -0.2527 -0.0856
29067W        W35517   8.526   4.334  30.537 -0.1126 -0.1762 -0.0654
29068W        W35518  11.278   0.662  43.067 -0.3010  0.1218 -0.1037
29069W        W35519  12.312   4.192  33.302 -0.4184  0.3336  0.1957
29070W        W35520  18.381   3.912  21.620  0.0365  0.3372 -0.0925
29071W        W35521  17.826   0.080   4.512 -0.3697 -0.0657 -0.0900
29072W        W35522  17.875   0.823  20.126  0.0195  0.0486 -0.0225
29073W        W35523   7.706   2.723  11.319 -0.1217  0.0856  0.1256
29074W        W35524   5.870   2.215  40.482  0.2403  0.2005  0.2391
29075W        W35525  13.235   1.455   0.734  0.0082 -0.0355  0.0165
29076W        W35526  11.203   6.258  12.277 -0.2909 -0.3892 -0.0723
29077W        W35527  16.923   0.849  34.703  0.1257 -0.0694 -0.0619
29078W        W35528  18.409   0.834  35.722 -0.2219  0.0527 -0.0187
29079W        W35529   0.604   0.784  31.478 -0.1868  0.2588  0.4366
29080W        W35530  18.823   2.227  13.838 -0.0645  0.0419  0.0543
29081W        W35531   8.178   4.198  33.330 -0.0721 -0.0288  0.1065
29082W        W35532  18.520   2.061  12.081 -0.1524 -0.0680 -0.0442
29083W        W35533   6.249   5.674  27.999  0.3663  0.0502 -0.1705
29084W        W35534   7.613   2.797  26.607  0.3345 -0.2655  0.0245
29085W        W35535   0.966   5.210   9.534 -0.0128 -0.1021 -0.0519
29086W        W35536   4.116   5.789  15.725  0.2265  0.0658  0.1449
29087W        W35537   2.762   5.741   4.846  0.0229 -0.0627  0.2169
29088W        W35538  18.775   1.293  21.477  0.1314  0.2917  0.0006
29089W        W35539   5.329   4.866  37.316  0.1672  0.3245 -0.0559
29090W        W35540  13.401   1.126  44.518 -0.1025 -0.0458  0.0724
29091W        W35541  16.620   0.100   4.011  0.0182  0.1917 -0.0710
29092W        W35542  18.145   4.888  43.743 -0.0655  0.1809 -0.1641
29093W        W35543  18.577   1.293   1.132  0.3087  0.2667  0.0625
29094W        W35544  16.075   3.407   5.903  0.1097  0.0938  0.0870
29095W        W35545   4.571   5.664  12.310 -0.0126  0.2776 -0.2653
29096W        W35546  14.010   4.450  12.999 -0.1349 -0.0017  0.2645
29097W        W35547   6.860   4.793   5.052 -0.0658  0.1779 -0.1781
29098W        W35548  20.560   3.414  15.838  0.0556  0.1025 -0.3064
29099W        W35549  15.080   5.127  41.654 -0.2729  0.0181  0.1172
29100W        W35550  10.534   1.153  10.686  0.0601  0.0325  0.1312
29101W        W35551  12.547   2.022   0.822  0.1168 -0.1191  0.1173
29102W        W35552  11.200   1.759  16.164 -0.1172  0.0086  0.2560
29103W        W35553  17.606   5.092  33.445  0.1035  0.3846 -0.1269
29104W        W35554   9.564   2.021  26.360 -0.2463 -0.2158 -0.1171
29105W        W35555   5.079   5.635   1.025 -0.0511  0.0791  0.1457
29106W        W35556  17.855   5.479  15.110 -0.3788 -0.0975  0.0220
29107W        W35557  17.979   4.470   7.756 -0.3967 -0.1159 -0.1487
29108W        W35558  18.451   4.129  28.739 -0.1415 -0.1348  0.3582
29109W        W35559  13.613   5.330  15.458  0.3258  0.0475 -0.3395
29110W        W35560  14.448   3.599   4.747 -0.0212  0.3168  0.1953
29111W        W35561  19.151   4.046   5.270  0.3125 -0.0572 -0.3136
29112W        W35562   5.635   2.656  25.454 -0.1766 -0.2436  0.2665
29113W        W35563   8.411   5.808   5.746  0.3841  0.0297 -0.1295
29114W        W35564   8.898   6.279   7.718 -0.0867  0.0614 -0.0991
29115W        W35565  17.066   4.640  40.950  0.1510  0.0796  0.3826
29116W        W35566   8.829   4.266  15.074  0.0520  0.0816 -0.0225
29117W        W35567  20.921   4.865  37.279 -0.5143  0.1164 -0.2623
29118W        W35568  10.008   1.621  12.464  0.0379  0.2877  0.1513
29119W        W35569   8.298   0.853  14.900  0.1337 -0.0257 -0.0592
29120W        W35570  19.560   4.287  38.550  0.2257  0.0381  0.0133
29121W        W35571   5.345   5.470   4.903 -0.0950  0.0731 -0.0823
29122W        W35572   2.922   0.610  39.680  0.0617  0.0179 -0.1516
29123W        W35573  12.348   0.007  42.759  0.1685 -0.0340  0.1398
29124W        W35574  11.678   2.224  41.590  0.0457  0.0367  0.1011
29125W        W35575   7.121   3.740  42.233  0.0690 -0.1436  0.0844
29126W        W35576   7.638   0.700  12.478 -0.1009 -0.3682  0.2372
29127W        W35577  12.845   1.880  37.150 -0.0092  0.1727 -0.1276
29128W        W35578   0.399   2.476  38.850  0.3600 -0.2303 -0.3819
29129W        W35579  11.236   3.607   2.118  0.2491  0.1248 -0.2260
29130W        W35580  19.954   6.370  31.156  0.1497  0.0187 -0.2056
29131W        W35581   5.044   2.889  33.066  0.3951 -0.0198 -0.0216
29132W        W35582   6.114   1.785  42.468  0.0369  0.1113  0.4037
29133W        W35583   7.177   0.145  32.109 -0.0294  0.0754  0.2332
29134W        W35584   9.365   0.412  27.798 -0.3724 -0.2332 -0.2266
29135W        W35585   7.134   3.933  28.474 -0.0717 -0.1041  0.2193
29136W        W35586  16.187   4.375   3.779 -0.1417 -0.0304  0.0181
29137W        W35587   5.577   5.514  44.024 -0.0222 -0.2269  0.0260
29138W        W35588  13.329   4.473  37.976 -0.1453  0.1003  0.0029
29139W        W35589  10.002   5.295  15.123  0.2024  0.0163 -0.0471
29140W        W35590  19.234   0.862   9.228 -0.1505  0.3178  0.2046
29141W        W35591  12.125   2.975  18.305 -0.1019  0.1059  0.0628
29142W        W35592   7.463   1.521  15.164  0.0431  0.2977 -0.2528
29143W        W35593  11.113   5.591  30.115  0.0630 -0.2785  0.2024
29144W        W35594  20.044   2.168  37.898 -0.0038  0.0323 -0.2609
29145W        W35595   6.978   4.895   9.769 -0.0190  0.1045  0.2470
29146W        W35596   8.715   4.902  12.194  0.0648 -0.0493  0.4323
29147W        W35597  13.128   2.667  21.479  0.0138  0.0188  0.0665
29148W        W35598   5.199   3.724  10.816  0.1038 -0.1698 -0.2171
29149W        W35599  17.757   3.610  34.299 -0.1079  0.0756  0.1949
29150W        W35600  14.927   1.007  31.549 -0.0810  0.3830  0.2412
29151W        W35601  17.465   5.169  42.949  0.1118  0.0303 -0.3406
29152W        W35602  16.295   6.479  11.482  0.0167 -0.1201  0.0266
29153W        W35603  10.794   0.507  16.247 -0.1679  0.0722  0.0436
29154W        W35604  14.716   2.025   9.394 -0.1565  0.0556 -0.0334
29155W        W35605  19.148   1.156  41.767  0.1338 -0.1670  0.3519
29156W        W35606   0.285   6.285  44.172 -0.1366 -0.0266 -0.0433
29157W        W35607  16.354   5.449  10.182 -0.1319  0.0810  0.0965
29158W        W35608  20.718   3.644  33.817  0.2585  0.1921  0.0937
29159W        W35609   5.184   3.567  21.310 -0.3166  0.0374  0.0143
29160W        W35610   4.176   6.093  41.718  0.0517  0.2074 -0.1399
29161W        W35611   8.064   3.005  26.701  0.1758 -0.1645  0.1311
29162W        W35612  14.478   5.339  35.845 -0.1263 -0.0048  0.0880
29163W        W35613  18.502   2.582  19.874  0.0562  0.1341  0.2412
29164W        W35614   5.461   0.130  33.595 -0.0834 -0.0595  0.1253
29165W        W35615  12.522   1.684  28.794  0.0087 -0.0319  0.1855
29166W        W35616  19.469   5.747  35.844  0.0472  0.0530  0.0533
29167W        W35617   9.266   6.255   8.432 -0.0287  0.5427 -0.0570
29168W        W35618  16.497   4.433  39.863  0.0639 -0.2133  0.1518
29169W        W35619  17.515   4.351  31.353 -0.1198  0.0727 -0.0705
29170W        W35620   7.909   1.040  25.282  0.0695  0.0571  0.1539
29171W        W35621  11.585   2.817  14.436 -0.3427  0.0522  0.1591
29172W        W35622   8.586   2.893  34.441 -0.0850  0.0527  0.1710
29173W        W35623  14.835   6.371  30.687 -0.0210  0.1869  0.2832
29174W        W35624   4.926   5.792  15.434  0.0964  0.2511 -0.0568
29175W        W35625  20.942   1.488   5.531 -0.0173 -0.2278 -0.1047
29176W        W35626  16.420   2.846  17.830  0.1351  0.0107 -0.3869
29177W        W35627   4.581   1.679  27.721  0.0380  0.0599 -0.1453
29178W        W35628  17.730   5.820  40.693  0.0571 -0.0361  0.0003
29179W        W35629   2.845   2.877  27.073  0.0443 -0.1132  0.0346
29180W        W35630  19.544   0.675  33.135  0.1976 -0.0237  0.1175
29181W        W35631   6.941   5.828  36.018  0.0971  0.0881 -0.2810
29182W        W35632  17.244   6.140  31.345  0.0053 -0.2948 -0.0516
29183W        W35633   5.208   4.371  42.062 -0.0202 -0.0072  0.1917
29184W        W35634  10.733   6.444   4.624 -0.3356 -0.0880 -0.1720
29185W        W35635   3.038   0.119   8.995 -0.0468 -0.1349  0.0923
29186W        W35636  17.435   2.626   5.831 -0.0729 -0.3012  0.1261
29187W        W35637  10.680   5.242  13.586  0.0421  0.0835  0.2098
29188W        W35638   8.110   4.484  27.861 -0.0078  0.0867 -0.2575
29189W        W35639   3.186   1.019  32.802  0.1804 -0.1472 -0.0784
29190W        W35640   6.216   1.466  42.084  0.3446 -0.1363 -0.2219
29191W        W35641  20.042   6.573  30.385 -0.2490 -0.3857  0.2395
29192W        W35642  13.015   0.356  39.681  0.1915  0.3061  0.0357
29193W        W35643   7.271   1.083  31.303  0.0691  0.1644 -0.1811
29194W        W35644  20.307   2.679  40.233  0.1420 -0.1179 -0.0117
29195W        W35645   8.574   2.648  13.337 -0.0473 -0.2072  0.1122
29196W        W35646   1.378   1.713   6.525 -0.2252 -0.0478 -0.1672
29197W        W35647   3.924   6.112   2.161  0.1120  0.0144  0.3388
29198W        W35648  13.767   1.819  33.181  0.4299  0.2177  0.1594
29199W        W35649   0.148   2.087  30.049 -0.1964 -0.0229 -0.3049
29200W        W35650  10.927   6.035   8.243  0.0144  0.0819 -0.0955
29201W        W35651  15.595   6.341  12.995  0.0445 -0.3404 -0.3102
29202W        W35652  20.757   5.208   3.127  0.4036  0.2447 -0.0464
29203W        W35653   8.260   6.159  14.502  0.0250 -0.0207  0.0035
29204W        W35654  13.510   2.522  13.874  0.2446 -0.1781 -0.0541
29205W        W35655  12.210   5.055   0.520 -0.2784  0.3291  0.0579
29206W        W35656  18.581   4.209   8.647 -0.2042  0.2073 -0.1140
29207W        W35657  12.087   2.509  35.675 -0.1346  0.2835  0.1501
29208W        W35658   7.866   2.203  12.889 -0.1974 -0.3740  0.2031
29209W        W35659  14.661   1.684   8.936  0.1797  0.0789 -0.2782
29210W        W35660  13.284   0.941   9.258  0.0491 -0.1020  0.1863
29211W        W35661  14.937   0.015  34.326  0.4261 -0.1815 -0.0477
29212W        W35662  20.692   3.082  15.265 -0.0361  0.0424  0.1072
29213W        W35663   6.745   1.006   4.718 -0.1478 -0.2739  0.1455
29214W        W35664  19.467   3.244   6.322  0.2418 -0.1601  0.1449
29215W        W35665  20.923   3.123  32.074  0.0065  0.2811 -0.2071
29216W        W35666   1.324   4.274   3.930 -0.1052 -0.2284 -0.2018
29217W        W35667  16.967   5.331  11.501  0.0230  0.0076 -0.0167
29218W        W35668   0.137   0.677  36.228 -0.2919  0.0009 -0.0989
29219W        W35669  15.591   4.573   1.682 -0.1224  0.1368  0.1659
29220W        W35670  10.239   2.394  25.784 -0.3341 -0.1486 -0.2661
29221W        W35671  10.690   0.249   9.193  0.0396  0.2631 -0.2170
29222W        W35672   7.681   3.551  33.744 -0.0774  0.0297 -0.1268
29223W        W35673   7.515   5.142   0.075 -0.0090  0.2681  0.0126
29224W        W35674  13.652   3.081  39.518 -0.1946  0.0271 -0.2231
29225W        W35675  17.104   3.435  12.722  0.0715 -0.2757  0.0237
29226W        W35676  14.240   4.713   3.515 -0.2484 -0.0753 -0.0821
29227W        W35677  16.658   4.175  44.447 -0.2712 -0.0021 -0.0025
29228W        W35678   4.394   0.617  28.349  0.3071  0.1052  0.0533
29229W        W35679   8.960   3.985   6.911  0.1459 -0.1458 -0.1361
29230W        W35680   0.603   3.177   9.719 -0.2034  0.2057 -0.0986
29231W        W35681  19.664   5.484   4.137  0.3238 -0.1415 -0.1424
29232W        W35682  19.119   2.488  12.759 -0.1345  0.0130 -0.0830
29233W        W35683   7.605   0.548  22.320  0.1246 -0.1044  0.1778
29234W        W35684   9.436   2.510  16.286  0.4882  0.3434  0.0574
29235W        W35685   0.502   6.502  40.228 -0.1943 -0.1567 -0.1563
29236W        W35686   7.716   2.729  11.858  0.1055  0.1453 -0.0303
29237W        W35687   6.070   5.476  43.291 -0.2003  0.0127 -0.1602
29238W        W35688   5.560   1.432  35.893 -0.2333  0.4545 -0.3257
29239W        W35689   3.592   4.291   3.831 -0.0909  0.1088  0.1288
29240W        W35690   4.539   3.212  26.797 -0.0904  0.1171  0.2388
29241W        W35691   1.971   2.088  31.792  0.1165  0.0725 -0.1526
29242W        W35692   4.093   4.445   7.551  0.0418  0.2474  0.0715
29243W        W35693  12.479   1.874  40.160 -0.1431 -0.2178  0.3855
29244W        W35694  14.944   6.367  29.216 -0.0261  0.1386 -0.4226
29245W        W35695  18.731   3.421  34.335  0.2306  0.0981  0.0329
29246W        W35696  19.546   4.309  32.696  0.0187 -0.1340  0.3967
29247W        W35697   6.308   4.146   5.399 -0.2137  0.0829  0.1030
29248W        W35698   0.140   1.473  32.922 -0.1817  0.0447  0.2332
29249W        W35699  18.343   0.375  30.095  0.0857 -0.2484 -0.3315
29250W        W35700  10.211   6.169  37.596 -0.0860  0.0431  0.0320
29251W        W35701   7.557   4.914   3.355 -0.2074  0.1277  0.1172
29252W        W35702  18.362   6.097  20.666 -0.2021 -0.1878  0.0196
29253W        W35703   5.259   3.049  26.303 -0.0516  0.0023 -0.1390
29254W        W35704  18.675   2.656  40.593  0.1252 -0.1739 -0.0314
29255W        W35705   3.825   1.211  23.555  0.2829 -0.2223 -0.0942
29256W        W35706  19.868   6.060  33.118  0.0114 -0.0762  0.2481
29257W        W35707   7.789   4.909   2.547 -0.0471 -0.1512 -0.0659
29258W        W35708  13.944   0.592  35.713  0.1018 -0.1002 -0.1251
29259W        W35709   1.565   3.069   8.179  0.0882  0.4336  0.4112
29260W        W35710  17.839   3.610  30.923 -0.0367 -0.1082  0.0206
29261W        W35711  15.248   6.534  18.789 -0.2654  0.2531 -0.2661
29262W        W35712  13.691   6.285   2.067 -0.0954  0.1015  0.1072
29263W        W35713   7.589   4.442  11.583  0.0938  0.4026 -0.0935
29264W        W35714   6.942   1.577   2.420  0.2697 -0.0340  0.1455
29265W        W35715  10.444   1.879  37.536  0.2140  0.2515  0.1405
29266W        W35716   8.908   2.680   3.544 -0.1612 -0.2995 -0.1962
29267W        W35717  16.731   3.947   9.357 -0.0351  0.4558  0.2658
29268W        W35718   1.345   0.520  41.335 -0.0632  0.0303 -0.3721
29269W        W35719  18.042   6.315  43.345 -0.0974  0.0814 -0.2089
29270W        W35720  16.043   3.314  12.230 -0.0912 -0.2330 -0.0881
29271W        W35721  11.717   3.416   8.055  0.1764 -0.0288  0.0989
29272W        W35722  18.511   2.987  39.636 -0.0859 -0.1252 -0.2799
29273W        W35723  15.024   2.411  31.580 -0.1387 -0.1165  0.0862
29274W        W35724   4.828   0.488  27.121  0.1745 -0.0189  0.1123
29275W        W35725   7.330   2.614  42.503  0.0926  0.3995  0.2837
29276W        W35726  14.553   3.398  10.167  0.3162  0.0957 -0.0457
29277W        W35727   4.250   1.740   2.195 -0.0442 -0.0819  0.1361
29278W        W35728  14.329   1.238  17.004  0.2285 -0.0628 -0.0069
29279W        W35729  17.168   4.931  35.588  0.0804 -0.1165  0.2659
29280W        W35730   5.117   4.955  44.741 -0.1430  0.3266  0.1883
29281W        W35731  12.826   5.036  43.686  0.0229  0.1181 -0.2702
29282W        W35732  13.963   6.418  38.765 -0.3379  0.0442 -0.2338
29283W        W35733   8.133   3.933   4.082 -0.1073  0.0390 -0.0735
29284W        W35734   5.549   6.391   9.065 -0.1112 -0.1472 -0.0170
29285W        W35735  14.486   5.830  13.580  0.0091 -0.2224 -0.1126
29286W        W35736   9.180   0.743  41.854 -0.1312  0.0314 -0.1198
29287W        W35737   2.094   3.242  42.762 -0.0195 -0.1643  0.0767
29288W        W35738  15.421   5.671  20.343  0.3231 -0.0043  0.0356
29289W        W35739  16.481   3.246  32.229 -0.0335 -0.0530 -0.1184
29290W        W35740  18.443   3.604  37.197  0.0043 -0.1625  0.0985
29291W        W35741  16.314   4.891  35.580  0.2748  0.0212  0.0333
29292W        W35742   0.604   5.161  32.977 -0.2346  0.0415  0.0562
29293W        W35743   2.501   2.658  44.559  0.1454 -0.0465 -0.0333
29294W        W35744  16.682   5.574  14.146  0.0760 -0.2279 -0.2433
29295W        W35745  17.896   2.097  14.344  0.1023 -0.2279  0.1838
29296W        W35746   4.357   0.461   1.913 -0.1014  0.3476 -0.3103
29297W        W35747  20.488   4.189  29.992 -0.0573  0.2577 -0.3667
29298W        W35748   2.825   4.222   9.457 -0.3068  0.0641  0.1177
29299W        W35749   2.135   1.610  25.252  0.1727  0.3462 -0.0022
29300W        W35750  12.751   4.694   2.508  0.2336 -0.4308 -0.2787
29301W        W35751   3.304   5.299  31.230  0.1470  0.0748  0.1804
29302W        W35752  12.203   5.550  14.317  0.6802  0.0885 -0.0880
29303W        W35753  14.966   6.500  41.850  0.1198  0.0225  0.2420
29304W        W35754  14.083   6.219  14.362 -0.0965  0.1015 -0.2768
29305W        W35755  11.887   2.902   2.814  0.1163 -0.4086  0.1646
29306W        W35756   9.357   5.646  38.027  0.0912 -0.0414  0.4613
29307W        W35757  13.728   3.385   1.840 -0.1824  0.0046 -0.1855
29308W        W35758  17.208   3.625  14.082 -0.1144  0.0028 -0.0282
29309W        W35759   0.964   5.639   1.294  0.0119  0.2840  0.0996
29310W        W35760  16.532   3.243   6.884 -0.1497  0.1686  0.1843
29311W        W35761  12.674   2.578  13.690  0.1775  0.1381 -0.0829
29312W        W35762   5.284   0.454  42.337 -0.1168  0.0261 -0.2532
29313W        W35763   8.531   2.603   9.421  0.1535 -0.1248  0.1351
29314W        W35764  12.268   0.273  16.201 -0.1125  0.1641 -0.0374
29315W        W35765  20.617   1.899  10.248 -0.3409 -0.2951  0.0370
29316W        W35766   6.561   2.229  12.596 -0.2468 -0.0411  0.0908
29317W        W35767  14.234   4.025  12.801  0.1215 -0.0922  0.1413
29318W        W35768   0.216   0.428  12.976 -0.1066  0.0090  0.1164
29319W        W35769   9.277   6.360  26.426  0.0523  0.0368  0.1824
29320W        W35770  13.011   1.013   6.933 -0.2714  0.0542  0.0446
29321W        W35771   1.407   1.562   4.376  0.1469 -0.1852 -0.2375
29322W        W35772   7.628   5.748  23.912  0.0684  0.1493 -0.0759
29323W        W35773   5.227   5.355  28.471 -0.1142  0.3396  0.1979
29324W        W35774   8.082   6.263  34.450 -0.2605 -0.1119 -0.1133
29325W        W35775   0.753   0.442  39.391 -0.2066 -0.1514  0.1609
29326W        W35776   4.778   5.134  38.497 -0.1047 -0.0355  0.0035
29327W        W35777   5.658   0.304  10.084 -0.3040  0.4085  0.0520
29328W        W35778   5.571   1.166  20.691  0.1293  0.0699 -0.1487
29329W        W35779  10.213   2.714  14.456 -0.0156 -0.0993  0.0477
29330W        W35780   3.579   2.952  33.331  0.2003 -0.3244 -0.3453
29331W        W35781   5.907   1.957   4.003 -0.1081  0.0418  0.1745
29332W        W35782  15.252   5.900  22.774 -0.0091  0.4684  0.0186
29333W        W35783   4.331   2.796   0.329  0.0389 -0.0968 -0.0861
29334W        W35784  11.606   2.116  12.848  0.1514  0.2612 -0.1292
29335W        W35785   2.756   2.973   3.635  0.5355 -0.0931  0.1387
29336W        W35786   8.601   4.532  31.018  0.2740 -0.1102  0.0949
29337W        W35787   0.805   1.823   3.007 -0.0849 -0.3179  0.2045
29338W        W35788  12.721   5.332  38.820 -0.2669 -0.1028 -0.1989
29339W        W35789   3.633   3.473  26.818 -0.2813 -0.1835  0.1767
29340W        W35790   4.909   4.132  26.785 -0.0707 -0.0705  0.2008
29341W        W35791   4.967   1.056   9.130  0.1459 -0.0699  0.0228
29342W        W35792   2.828   3.456  34.006 -0.1683 -0.1003 -0.2389
29343W        W35793   6.690   2.113   6.094 -0.4329  0.1207 -0.0555
29344W        W35794  17.487   3.384  13.194  0.1548  0.0426 -0.0072
29345W        W35795   1.961   4.657   0.780 -0.0011 -0.0521 -0.3367
29346W        W35796  12.452   0.778  32.915  0.1635  0.2945  0.0140
29347W        W35797   8.022   0.990  38.965 -0.0038 -0.3218  0.2661
29348W        W35798   6.118   1.969  16.334  0.1305 -0.2268 -0.3816
29349W        W35799  20.503   1.202   8.426 -0.1714 -0.0051 -0.0348
29350W        W35800   8.604   1.093  12.164 -0.2524 -0.4063  0.1199
29351W        W35801  19.046   1.420  39.837  0.0287  0.0794  0.2351
29352W        W35802   5.682   3.963  33.802  0.1317 -0.2323 -0.1564
29353W        W35803   8.907   5.230  13.780 -0.4849  0.1635 -0.1235
29354W        W35804   9.994   5.568  38.472  0.0169 -0.2022  0.3837
29355W        W35805   3.083   1.877  23.918  0.1144  0.1234 -0.2330
29356W        W35806  14.146   1.203  41.284  0.0687 -0.0977  0.0866
29357W        W35807   1.698   1.398  28.549  0.2902 -0.0045 -0.1191
29358W        W35808   5.543   2.685  35.118  0.2080 -0.2075  0.0062
29359W        W35809  17.368   2.275  39.403  0.1179 -0.3324 -0.1128
29360W        W35810   1.009   4.682  16.228  0.0044  0.0422 -0.1744
29361W        W35811  19.790   4.557  13.269  0.0305  0.0051  0.2892
29362W        W35812   8.949   0.441  32.944  0.3919  0.0197 -0.1699
29363W        W35813  18.238   6.065   8.168  0.0685 -0.1077  0.0144
29364W        W35814   4.087   4.776  25.581 -0.1713  0.1758  0.2412
29365W        W35815   4.900   6.552  22.028 -0.0319 -0.0824  0.3906
29366W        W35816   2.182   4.752  15.235  0.2171 -0.3816  0.0889
29367W        W35817  15.649   0.414  21.622 -0.1904  0.0317 -0.0927
29368W        W35818  19.246   3.636  41.540 -0.1133 -0.0615 -0.0689
29369W        W35819  11.974   5.538  33.762  0.1401  0.2295 -0.0903
29370W        W35820  10.235   2.678   0.443  0.0235  0.0619 -0.2035
29371W        W35821   5.421   5.076  26.838 -0.0798  0.2366  0.1500
29372W        W35822   6.356   4.440  29.111  0.1244  0.0959 -0.0528
29373W        W35823  13.044   2.758  29.737 -0.3078 -0.1394 -0.2951
29374W        W35824  13.027   2.454   1.849  0.1038  0.1561  0.0674
29375W        W35825   4.898   5.505  23.907  0.0325  0.1051  0.0089
29376W        W35826   2.127   0.491   3.500  0.0080  0.0629 -0.1036
29377W        W35827   3.685   0.524   7.614 -0.0254  0.0220 -0.0347
29378W        W35828   2.364   1.610  37.754 -0.0790 -0.2788 -0.1756
29379W        W35829  17.959   2.888   3.829 -0.1142  0.0442  0.0204
29380W        W35830   7.179   6.308   6.992  0.0190 -0.2516  0.1909
29381W        W35831  14.541   5.776  21.515  0.1677 -0.1117 -0.0100
29382W        W35832  10.487   0.785  34.315 -0.0860  0.2758  0.0612
29383W        W35833   9.358   2.512  33.101  0.1395  0.4478  0.0511
29384W        W35834   4.631   6.035  22.629  0.4610 -0.0407 -0.2646
29385W        W35835  13.065   1.550   7.170 -0.0226 -0.2128  0.2007
29386W        W35836   2.488   2.406   2.463  0.1632  0.0954  0.2997
29387W        W35837   3.995   1.193   8.742  0.3070 -0.2065 -0.1379
29388W        W35838  17.951   0.334  21.216  0.2069 -0.1213 -0.1424
29389W        W35839  12.464   0.457   1.678  0.0593  0.2116 -0.3038
29390W        W35840   3.609   6.399  15.090  0.0383  0.1049 -0.0602
29391W        W35841   6.789   0.645  32.498 -0.1848  0.1491  0.1924
29392W        W35842  14.805   6.178  32.848  0.1105  0.0812 -0.0472
29393W        W35843   7.946   5.904  39.697 -0.1204  0.0577  0.0952
29394W        W35844  17.802   6.286  40.951 -0.0841  0.2964 -0.0473
29395W        W35845  19.314   4.961  37.549 -0.1957 -0.2969  0.2447
29396W        W35846   8.825   2.534   7.858  0.0889  0.1522  0.0483
29397W        W35847   5.165   0.604  15.739 -0.0526  0.3388  0.0497
29398W        W35848  14.692   6.306   4.265  0.0373  0.1154  0.2589
29399W        W35849   1.206   2.605  33.394 -0.0321  0.0554 -0.0518
29400W        W35850   6.120   4.681  15.241 -0.5897 -0.2900  0.1027
29401W        W35851   3.712   2.994  14.982  0.1060  0.5443 -0.0507
29402W        W35852  19.136   0.403   8.896  0.2595  0.0619  0.2750
29403W        W35853  20.445   0.243  17.417  0.1392  0.0733  0.0391
29404W        W35854   6.460   4.852   9.681 -0.0236 -0.2183  0.2283
29405W        W35855  19.779   3.666  16.101 -0.0715 -0.2573  0.0135
29406W        W35856  14.420   5.890   1.532 -0.0439 -0.1756 -0.0046
29407W        W35857  12.747   6.073   7.698  0.1037 -0.1574  0.0162
29408W        W35858  20.211   3.527  10.370 -0.0239 -0.0520  0.2370
29409W        W35859   7.653   5.568  28.681  0.0612 -0.1576 -0.1695
29410W        W35860  10.605   2.619  33.011  0.1643  0.0852  0.1323
29411W        W35861   1.059   6.416  38.439  0.2015 -0.0571  0.0849
29412W        W35862  12.946   2.118   1.464 -0.0164 -0.0020  0.3442
29413W        W35863  12.326   5.050  30.472  0.1341 -0.1040 -0.0140
29414W        W35864   2.879   3.564  33.219  0.1791  0.2661  0.1349
29415W        W35865  17.783   6.061  12.844 -0.3965 -0.2287  0.0429
29416W        W35866  15.427   1.093  36.258  0.1349 -0.1608 -0.2270
29417W        W35867  14.538   0.946  12.407 -0.1000  0.0095  0.2705
29418W        W35868  20.870   5.370  32.760  0.2769  0.0442 -0.2157
29419W        W35869   0.347   6.435   8.860  0.1557 -0.0548 -0.0059
29420W        W35870  10.235   0.342   9.232  0.1015 -0.1143  0.0689
29421W        W35871  20.277   6.323   8.015 -0.1872 -0.1323  0.1068
29422W        W35872   7.096   6.062  34.878  0.2993  0.1131  0.1509
29423W        W35873   0.957   2.689  28.124  0.2741 -0.2297 -0.0313
29424W        W35874   0.581   3.332  13.077  0.2472  0.0178 -0.1210
29425W        W35875   7.916   2.826  10.655 -0.1331 -0.1867  0.0551
29426W        W35876   7.064   2.402  39.556 -0.3947  0.0390  0.1128
29427W        W35877   0.872   4.310  29.779  0.0511 -0.2000 -0.2726
29428W        W35878   6.943   6.210  27.930  0.1774 -0.0779 -0.0167
29429W        W35879   6.652   0.458  26.371  0.0590  0.0861  0.0875
29430W        W35880  19.622   0.489  41.832  0.0631 -0.2554 -0.0325
29431W        W35881   3.845   6.262  38.587  0.1395 -0.2771 -0.1117
29432W        W35882  15.637   1.789  21.253 -0.0215  0.3652 -0.0551
29433W        W35883  19.773   6.295   9.275  0.2475 -0.0618 -0.2262
29434W        W35884   1.441   2.010  33.810  0.0024 -0.2536  0.0117
29435W        W35885   7.553   2.478   3.403 -0.0447 -0.1980 -0.1481
29436W        W35886   5.724   2.211  37.967  0.0633 -0.0579 -0.3571
29437W        W35887  16.181   2.505  33.471  0.0549 -0.0587 -0.3755
29438W        W35888   8.589   5.362  14.825 -0.2878 -0.0934 -0.0881
29439W        W35889  10.515   4.665  13.214  0.2099 -0.1216 -0.0655
29440W        W35890   4.690   6.429   1.780  0.1473  0.3430  0.1465
29441W        W35891  10.277   0.947   1.818 -0.0047  0.0228  0.1805
29442W        W35892   5.368   1.868  37.265 -0.3522 -0.1183  0.3146
29443W        W35893   9.622   0.715  34.931  0.1327 -0.1034 -0.0636
29444W        W35894  18.548   2.727   2.362  0.1075 -0.1116 -0.3706
29445W        W35895   4.282   4.055   5.742  0.2822 -0.0910  0.0338
29446W        W35896  14.265   1.316  42.117  0.1054 -0.3210  0.2308
29447W        W35897   1.958   5.391  43.964 -0.2268 -0.0124 -0.0426
29448W        W35898  14.091   6.300  12.777  0.1339 -0.2709  0.0265
29449W        W35899   7.831   5.496  43.980  0.0266 -0.1159  0.2521
29450W        W35900   3.771   3.418  28.447  0.2311 -0.2100  0.0567
29451W        W35901   1.765   5.792  36.027  0.0643 -0.2228  0.1545
29452W        W35902   6.019   5.544  30.953 -0.1537  0.1200 -0.0283
29453W        W35903   5.338   5.042  25.157  0.1804  0.2017 -0.0299
29454W        W35904  18.072   0.605  11.469 -0.1289 -0.0382 -0.0244
29455W        W35905  10.681   0.753  32.453 -0.2546 -0.0995 -0.1035
29456W        W35906  19.915   5.514  41.749  0.2794  0.2581  0.0487
29457W        W35907   0.771   4.328  11.717 -0.0944 -0.2137 -0.0090
29458W        W35908   8.730   5.761  26.172  0.1290 -0.3061 -0.2118
29459W        W35909  18.357   0.007   9.053  0.2445 -0.0702 -0.1004
29460W        W35910   0.785   6.559  31.129 -0.1060  0.0523  0.0466
29461W        W35911   9.636   0.872   9.037  0.3184 -0.1559  0.1826
29462W        W35912   1.120   1.574  27.486 -0.3451 -0.3342 -0.1645
29463W        W35913   7.140   0.383  27.169  0.0204 -0.1759 -0.0092
29464W        W35914  13.422   5.405   1.364 -0.2115 -0.1463 -0.0528
29465W        W35915  12.652   3.055  34.328  0.1285  0.2322 -0.2362
29466W        W35916   3.430   1.586   2.384 -0.0421  0.0595  0.1088
29467W        W35917  15.517   1.976  12.276 -0.2415 -0.2965  0.0216
29468W        W35918  14.130   3.949  33.073  0.2925 -0.1829 -0.1941
29469W        W35919   5.165   5.039  39.357  0.2320  0.3982 -0.0790
29470W        W35920  16.383   2.169   2.520 -0.5092 -0.2860  0.4009
29471W        W35921   1.401   6.580   7.477  0.1942  0.1294  0.1770
29472W        W35922  11.303   5.755   4.716 -0.0535 -0.0770 -0.2127
29473W        W35923  10.631   3.783   2.004 -0.1384  0.0224 -0.3288
29474W        W35924   6.558   1.284   8.203 -0.2065 -0.0473 -0.0151
29475W        W35925   5.951   4.417   2.924 -0.1113  0.1045 -0.0899
29476W        W35926   6.673   3.358   1.367 -0.2211 -0.1642 -0.1487
29477W        W35927   1.476   5.630  10.236 -0.1008 -0.4431  0.1820
29478W        W35928   2.488   1.555  27.338  0.4468  0.2492  0.1115
29479W        W35929  16.663   2.925  17.242  0.0703 -0.1159 -0.1216
29480W        W35930  10.107   0.431  30.468 -0.0692 -0.0669 -0.1197
29481W        W35931   3.558   0.882  43.294 -0.1401 -0.0154  0.1692
29482W        W35932   1.806   4.505   4.154  0.0566  0.4740 -0.0605
29483W        W35933  17.187   1.087   7.787 -0.2592  0.1353  0.1708
29484W        W35934  19.088   0.259   9.894 -0.1605 -0.2301  0.0048
29485W        W35935   1.152   2.735  40.752 -0.1111  0.0791  0.0563
29486W        W35936  13.661   2.402  42.665 -0.0887  0.1803  0.0271
29487W        W35937  20.261   3.807   1.335 -0.1649 -0.0608  0.2390
29488W        W35938   0.001   3.109   8.284 -0.1109 -0.0616  0.0829
29489W        W35939  16.073   3.848  23.517  0.0400  0.1328  0.0936
29490W        W35940  13.542   1.696  44.251 -0.0178 -0.1526  0.0461
29491W        W35941  13.426   5.386   9.130  0.2292 -0.0135 -0.0446
29492W        W35942   8.403   4.615   1.085 -0.0856  0.2179  0.0646
29493W        W35943  13.322   5.761  12.882  0.1675 -0.1434 -0.0604
29494W        W35944   0.054   2.732   7.792 -0.1174 -0.2061  0.0837
29495W        W35945   0.809   6.537   1.941 -0.0354 -0.5357 -0.0889
29496W        W35946  17.741   1.404  32.881 -0.1950 -0.2584 -0.1331
29497W        W35947  15.593   3.264   7.162  0.1142  0.0792  0.0153
29498W        W35948   3.720   0.063  28.311  0.2002 -0.2946  0.1041
29499W        W35949   5.039   0.058  32.092  0.2529  0.2812 -0.0135
29500W        W35950  12.904   4.516   1.591 -0.1541 -0.1788  0.1525
29501W        W35951  16.242   3.434  38.968 -0.4404  0.3010  0.2843
29502W        W35952  14.483   6.020  43.552  0.1341  0.1429 -0.1080
29503W        W35953  12.743   1.003   9.720  0.3929 -0.1204 -0.1071
29504W        W35954   7.555   2.261  29.665  0.4295 -0.1114  0.0579
29505W        W35955  15.274   5.462   5.912  0.2220 -0.1961  0.1671
29506W        W35956   1.384   5.012   2.864  0.2589  0.0663 -0.0047
29507W        W35957   0.244   3.651  34.504  0.0939 -0.0117  0.1839
29508W        W35958   8.937   1.295  25.014  0.0978  0.3532 -0.2932
29509W        W35959  13.117   5.909  32.708 -0.1569 -0.1245 -0.0678
29510W        W35960  21.083   1.726  14.165  0.1738  0.2022  0.1036
29511W        W35961   0.424   4.501  32.401 -0.0911 -0.0536 -0.1748
29512W        W35962  19.095   5.299   8.777  0.0821  0.0759 -0.2469
29513W        W35963  10.243   3.682   5.864 -0.4477  0.1202 -0.2103
29514W        W35964   5.413   0.720  28.513  0.0440  0.3841  0.0826
29515W        W35965  14.850   4.081  29.500  0.0483 -0.0400  0.2234
29516W        W35966   7.842   5.700   8.918 -0.3043 -0.1019  0.2384
29517W        W35967   8.169   0.113  14.450  0.0856 -0.0692 -0.0857
29518W        W35968  19.334   2.049  39.470 -0.2287  0.1255 -0.2278
29519W        W35969   9.740   2.230  42.101  0.2799  0.0983 -0.3285
29520W        W35970  16.426   1.763  42.586  0.0359 -0.0408  0.2544
29521W        W35971   9.114   4.909   9.481 -0.0128  0.0023  0.0321
29522W        W35972   9.124   3.822   7.896  0.1613  0.2612  0.1084
29523W        W35973   7.571   1.842  25.781  0.0620  0.1435 -0.0708
29524W        W35974  10.032   3.350  31.561  0.2171  0.0904 -0.0221
29525W        W35975  15.157   5.503  35.085  0.0237 -0.2947 -0.0125
29526W        W35976  20.747   3.018  39.236 -0.0773 -0.1526 -0.1801
29527W        W35977   4.680   5.047   7.002  0.2376  0.0657 -0.3070
29528W        W35978   4.709   0.399  10.703  0.0465  0.2895  0.3744
29529W        W35979   2.679   3.151   9.674 -0.0753 -0.0941 -0.2345
29530W        W35980  19.933   0.777  31.659 -0.0476  0.1260  0.2962
29531W        W35981   9.404   1.461  15.028  0.1640  0.1418  0.0055
29532W        W35982   4.258   6.153   2.827  0.3355 -0.1274  0.0550
29533W        W35983  15.281   4.731  33.095 -0.1350  0.2396 -0.2005
29534W        W35984   2.624   0.661  11.084  0.1906  0.2885  0.0103
29535W        W35985  14.517   3.542  39.262 -0.0936 -0.0536  0.2830
29536W        W35986  15.625   1.542  36.287 -0.2573 -0.0511  0.0193
29537W        W35987  15.937   0.535  10.954 -0.0827 -0.2584  0.0996
29538W        W35988   6.676   5.823  34.144 -0.0113 -0.2172 -0.0470
29539W        W35989   7.999   0.369   1.075 -0.2091 -0.0152  0.0364
29540W        W35990   3.602   0.026  37.361  0.3519 -0.2813 -0.2107
29541W        W35991  11.759   3.958  29.780  0.0557  0.0568  0.1808
29542W        W35992   7.433   4.026  33.858  0.0057  0.1572  0.1117
29543W        W35993   6.411   5.208  32.224 -0.2320 -0.1742  0.2618
29544W        W35994  13.594   0.641  41.486  0.1947  0.0641 -0.4151
29545W        W35995  11.869   1.771  41.743  0.1611  0.2062 -0.1073
29546W        W35996  20.608   0.076   1.082  0.0091 -0.3834 -0.2127
29547W        W35997   1.435   5.907  27.694  0.0810  0.0172  0.1622
29548W        W35998   8.211   5.477  12.457 -0.0111  0.1365 -0.2276
29549W        W35999  12.648   3.804  10.928  0.0163  0.4325 -0.0120
29550W        W36000   1.807   6.289  13.723  0.0866 -0.3040  0.1524
29551W        W36001  16.762   1.755   4.706  0.0622  0.1833 -0.0360
29552W        W36002  14.358   3.823  28.665  0.0236  0.0430  0.1196
29553W        W36003  20.572   5.561  15.120  0.0258 -0.0047  0.3557
29554W        W36004   9.114   5.445  36.771  0.1211 -0.0106  0.1247
29555W        W36005   0.503   0.632  29.933  0.0516  0.0654  0.0755
29556W        W36006   4.251   3.995  44.308 -0.2348  0.0389  0.2206
29557W        W36007   0.562   2.187   6.405  0.0573  0.0960  0.0345
29558W        W36008  13.953   5.676  11.115 -0.0666  0.1664  0.0607
29559W        W36009  15.518   4.053  17.664  0.1302 -0.2224  0.0263
29560W        W36010   3.625   5.156  39.139 -0.1004 -0.1866 -0.2425
29561W        W36011  16.430   6.471  10.549 -0.0866 -0.1456  0.0800
29562W        W36012   7.538   5.034  22.511  0.1329 -0.2290  0.0188
29563W        W36013   6.904   5.766   6.098  0.0905 -0.1598 -0.2212
29564W        W36014   7.929   2.283  11.463 -0.0388 -0.0827 -0.3875
29565W        W36015  12.131   1.497   1.464 -0.0342 -0.2040 -0.0085
29566W        W36016  16.716   2.443   6.688  0.0268 -0.0783  0.6084
29567W        W36017   4.794   3.757  14.125  0.0058 -0.0703  0.0288
29568W        W36018   7.028   3.963   5.869  0.0106  0.2165  0.2940
29569W        W36019  14.363   6.339  15.845 -0.2688  0.0253 -0.0657
29570W        W36020   7.571   5.542  44.421  0.3413 -0.2688  0.2164
29571W        W36021  18.822   1.900  43.394  0.1270  0.2970  0.3302
29572W        W36022  15.677   1.472  20.469  0.0447 -0.0137  0.0094
29573W        W36023   5.386   4.152  26.079 -0.0502  0.1399  0.1043
29574W        W36024   2.819   5.892   7.513 -0.1811 -0.1520  0.0092
29575W        W36025  20.432   2.240  11.143  0.3627 -0.0929 -0.0554
29576W        W36026  17.823   4.912   2.939  0.0155  0.1700 -0.2269
29577W        W36027  16.295   4.343  33.570 -0.0008 -0.0316  0.2156
29578W        W36028  12.278   5.297  43.073  0.0253  0.1193 -0.2294
29579W        W36029   7.248   1.232  39.575 -0.0492  0.1200  0.1890
29580W        W36030  15.489   4.379  35.612  0.0177  0.1051 -0.1037
29581W        W36031   9.341   1.003  44.214 -0.0069  0.1182  0.1390
29582W        W36032  14.314   3.123  20.650 -0.1211 -0.1410  0.1721
29583W        W36033  17.754   0.965  42.129  0.2999 -0.2332  0.0179
29584W        W36034  20.917   2.061   3.826  0.3781 -0.2851  0.0430
29585W        W36035   3.386   1.964  25.119  0.0321  0.2692  0.0720
29586W        W36036   3.485   2.069  22.964  0.1429 -0.2158 -0.0239
29587W        W36037  16.069   1.013   0.865  0.1922 -0.1389  0.3144
29588W        W36038   9.497   4.533   4.113 -0.0047 -0.1113 -0.0519
29589W        W36039   2.360   6.426  31.799  0.1447  0.1975 -0.1786
29590W        W36040   3.358   3.701  25.757  0.2891  0.2985 -0.0558
29591W        W36041   2.947   3.212  28.017 -0.0584  0.1847  0.2338
29592W        W36042   4.316   0.527  26.881  0.0608  0.0633 -0.1320
29593W        W36043   8.764   0.527  14.953 -0.1760 -0.0196  0.1323
29594W        W36044  10.797   5.831  41.676 -0.1101  0.1735 -0.3026
29595W        W36045  11.615   6.412  41.648  0.0644  0.1629  0.0134
29596W        W36046  12.804   5.989  39.255 -0.1272 -0.0432  0.2237
29597W        W36047   2.355   1.590  31.510  0.2192 -0.0337 -0.1538
29598W        W36048   0.642   4.674  44.005  0.0472  0.0093 -0.3599
29599W        W36049   0.981   5.221  28.997  0.1546 -0.0903  0.1051
29600W        W36050  11.754   5.112  36.301 -0.0361  0.0443 -0.1109
29601W        W36051   5.155   4.552   3.514 -0.0382  0.0874 -0.1504
29602W        W36052  21.132   5.980  30.498 -0.2503  0.0657  0.0166
29603W        W36053   4.697   2.065  23.866  0.1529 -0.1421  0.0250
29604W        W36054   5.909   4.300   0.495 -0.0691 -0.0222  0.1328
29605W        W36055  18.740   3.152  29.407  0.2605  0.1228 -0.1080
29606W        W36056  21.099   5.578  33.257  0.0599 -0.0231  0.0755
29607W        W36057   8.716   5.658  12.662 -0.1882 -0.3149  0.3463
29608W        W36058   6.665   1.527   8.916 -0.1045 -0.2227 -0.1022
29609W        W36059   4.924   1.444  30.625  0.0503  0.3854  0.2781
29610W        W36060  20.697   3.231  17.723 -0.1296 -0.0647 -0.0917
29611W        W36061  18.157   3.181  19.081  0.1966 -0.0618  0.0905
29612W        W36062  19.598   5.430  32.217 -0.0638  0.0528  0.1854
29613W        W36063  19.486   3.741  28.618  0.1338  0.0745 -0.1067
29614W        W36064  18.317   0.131  11.395 -0.1256  0.0015 -0.0617
29615W        W36065   5.057   2.983  30.297  0.3986 -0.1515 -0.2072
29616W        W36066   9.736   1.738  25.498 -0.4506 -0.0145  0.1760
29617W        W36067  19.690   5.940   9.704  0.0654 -0.3428  0.1088
29618W        W36068   4.918   4.974  36.650 -0.2059 -0.5665  0.1071
29619W        W36069   7.315   0.019   6.589 -0.0488  0.0951 -0.0690
29620W        W36070  16.425   3.051  36.879  0.0446  0.1628  0.0745
29621W        W36071   1.227   6.061  34.064 -0.1008  0.0195 -0.0888
29622W        W36072  14.174   2.647  15.140  0.1260 -0.2683  0.2728
29623W        W36073  13.644   1.482  11.102  0.2791 -0.0660 -0.3039
29624W        W36074   7.869   3.008  36.670 -0.0450 -0.0740 -0.3077
29625W        W36075  18.813   5.994   6.818 -0.1776 -0.0486  0.1146
29626W        W36076  18.359   1.411  17.298  0.2793  0.2338  0.1938
29627W        W36077   1.932   4.583  26.642  0.0283 -0.1579 -0.2054
29628W        W36078  14.603   0.469  39.830 -0.0050  0.1581 -0.0445
29629W        W36079  11.692   3.486  29.769 -0.1817  0.1999 -0.0383
29630W        W36080  20.459   2.530  37.324  0.2450  0.0665 -0.1805
29631W        W36081   0.235   5.173  29.215  0.3043 -0.0925  0.0711
29632W        W36082  11.683   2.775   4.258 -0.3758  0.1311  0.1148
29633W        W36083   8.929   0.656  31.393  0.0271 -0.3123 -0.4885
29634W        W36084   5.426   5.860  14.695 -0.3353 -0.1692 -0.1149
29635W        W36085   8.446   0.663  15.793 -0.1642  0.0671 -0.1660
29636W        W36086  14.468   4.594  33.503  0.2341  0.2416  0.0715
29637W        W36087  20.836   3.754   4.670  0.2813  0.0145 -0.1728
29638W        W36088  19.307   1.708   8.840  0.0354 -0.1045  0.0587
29639W        W36089  12.319   3.126  43.232 -0.0002  0.1209 -0.0253
29640W        W36090   6.871   3.521  34.166 -0.1679 -0.0563 -0.2945
29641W        W36091   9.564   4.908   6.013  0.2736  0.0034  0.2124
29642W        W36092  18.687   1.914  20.778  0.1229  0.0194  0.1092
29643W        W36093  14.545   3.509  36.263 -0.2844  0.0821  0.1494
29644W        W36094  13.645   6.124  13.217  0.0857  0.0195  0.0629
29645W        W36095   5.147   0.179  40.929 -0.1928 -0.0874 -0.3579
29646W        W36096   1.053   4.309   2.673 -0.1363  0.3760  0.3615
29647W        W36097   4.643   5.896  26.508 -0.1758 -0.0239 -0.2261
29648W        W36098  16.023   3.904   3.516 -0.2276 -0.2510 -0.3375
29649W        W36099   7.305   4.499  28.629 -0.0482 -0.0021 -0.0399
29650W        W36100   4.414   4.080   6.724  0.0571 -0.0367 -0.0379
29651W        W36101  18.587   5.890  39.809 -0.0642 -0.0921 -0.0445
29652W        W36102  16.167   1.948  17.652 -0.0691  0.4317 -0.3502
29653W        W36103   7.831   2.767  39.248  0.0890 -0.1053 -0.0067
29654W        W36104   8.380   4.482  39.643  0.2997  0.0831  0.0086
29655W        W36105  17.458   6.561  39.532  0.0491  0.2590  0.1375
29656W        W36106   9.736   5.814   0.844  0.0812  0.1577  0.0735
29657W        W36107   5.848   3.991   8.102  0.2858  0.1612  0.1591
29658W        W36108  12.996   3.176  15.527  0.2368  0.1277 -0.1966
29659W        W36109   3.200   6.567   8.109  0.0316 -0.2505  0.0030
29660W        W36110  15.623   5.064   0.385 -0.0517  0.2028  0.1118
29661W        W36111   3.853   5.834  41.469  0.1142  0.0953  0.0910
29662W        W36112   8.868   3.463   8.120  0.3783 -0.1171  0.1242
29663W        W36113  12.036   3.473  18.385 -0.1762  0.1378 -0.1948
29664W        W36114  20.293   5.054  10.054 -0.0243 -0.1232  0.0521
29665W        W36115   0.368   4.991   2.333  0.3308 -0.0591  0.3687
29666W        W36116   0.099   2.282  18.697  0.3619 -0.2722  0.1431
29667W        W36117  17.080   3.494  10.166 -0.0496 -0.1424  0.3540
29668W        W36118   2.785   5.829   6.612  0.3967  0.0602 -0.2073
29669W        W36119   1.543   0.587   9.597 -0.0363  0.0337 -0.2265
29670W        W36120  11.041   2.888  32.928  0.0032 -0.2034  0.2230
29671W        W36121   6.286   2.982  42.704  0.2722  0.1564 -0.1215
29672W        W36122   3.243   3.361  30.198 -0.3105  0.0219 -0.0084
29673W        W36123  11.929   4.313  41.938 -0.0206 -0.1734  0.4442
29674W        W36124  15.984   3.258  29.489  0.0029  0.3024  0.1301
29675W        W36125  19.340   5.911  18.673  0.2001  0.2601 -0.1701
29676W        W36126  13.629   1.348  10.567 -0.0556  0.2245 -0.0526
29677W        W36127  15.714   4.872  18.682 -0.3197 -0.0229 -0.0100
29678W        W36128  10.762   4.921   7.353 -0.2591  0.2290  0.0824
29679W        W36129  13.859   5.509  40.613  0.0324 -0.0528 -0.0293
29680W        W36130   2.492   5.212  26.549 -0.2174 -0.1135 -0.1057
29681W        W36131  17.850   4.000  43.779  0.1154  0.3123  0.2850
29682W        W36132   4.103   3.210  25.393  0.0044  0.1093 -0.0284
29683W        W36133  18.412   4.494  15.752 -0.0204  0.2693  0.1180
29684W        W36134  15.378   1.204  35.004  0.3787 -0.2831  0.0378
29685W        W36135  15.974   4.557  20.388  0.0972  0.1958  0.2159
29686W        W36136   1.122   1.877   8.451  0.0229  0.2140 -0.0403
29687W        W36137  13.056   4.579   0.250  0.2572  0.1730 -0.1474
29688W        W36138  20.787   5.275  44.693  0.2997  0.3953 -0.3937
29689W        W36139  16.561   6.095  36.364  0.1795  0.0768 -0.0411
29690W        W36140   6.554   3.209  23.134  0.1149 -0.1171  0.1838
29691W        W36141  10.683   5.958  11.439 -0.1303 -0.0536  0.0398
29692W        W36142   1.244   1.275   2.664  0.0846 -0.0385 -0.1482
29693W        W36143  19.344   2.415  19.586  0.0500  0.0314 -0.0889
29694W        W36144   7.930   4.341  37.199 -0.0779 -0.0079  0.1663
29695W        W36145  17.238   5.063   9.135 -0.2724 -0.3925  0.1422
29696W        W36146  19.403   6.187   5.795  0.1491 -0.0294  0.0091
29697W        W36147  10.155   2.643  26.579 -0.1014  0.3950  0.0810
29698W        W36148  17.429   1.764  33.073 -0.0918 -0.1312  0.0767
29699W        W36149  17.467   3.135  42.730  0.0212  0.3940 -0.0745
29700W        W36150   4.253   4.871   8.268 -0.1583 -0.1415  0.0853
29701W        W36151  16.356   1.312   5.197 -0.0369  0.0673 -0.1714
29702W        W36152  18.713   0.889  43.573 -0.0409 -0.0686  0.1290
29703W        W36153  18.062   3.714   1.491 -0.0647  0.3281 -0.2069
29704W        W36154  14.848   3.771  18.541  0.0743  0.0482 -0.0326
29705W        W36155  17.218   3.563  20.895  0.7301  0.1851  0.0422
29706W        W36156  12.987   4.727  16.985 -0.1753 -0.4171  0.1399
29707W        W36157  15.833   3.963   6.899  0.1179 -0.1503 -0.6203
29708W        W36158   2.574   6.010   3.270  0.1842 -0.0145  0.3400
29709W        W36159  16.187   1.262   2.106  0.0912  0.1451 -0.3603
29710W        W36160  17.655   0.125  40.604 -0.3104  0.0414 -0.1257
29711W        W36161  15.660   2.505  19.763 -0.0884  0.2666 -0.0902
29712W        W36162  17.570   2.604   9.306 -0.0595 -0.1221  0.0521
29713W        W36163   8.863   5.200   0.725  0.1075  0.0381  0.2476
29714W        W36164  15.543   6.571  36.805  0.3033 -0.0108 -0.0563
29715W        W36165  18.293   4.476  22.514  0.1363  0.0680 -0.2459
29716W        W36166   1.399   6.507  26.891  0.2197  0.2430 -0.1317
29717W        W36167  10.645   1.397   2.677  0.1791 -0.0928  0.0867
29718W        W36168   3.442   1.748   8.236  0.0678  0.3918  0.0331
29719W        W36169   8.401   4.333  30.029 -0.1123 -0.2298  0.0850
29720W        W36170  16.093   2.669   5.236  0.1888 -0.1102 -0.0112
29721W        W36171  20.351   2.924  42.455 -0.1056 -0.0354  0.2425
29722W        W36172  11.520   2.709   5.615  0.1948 -0.3252  0.2726
29723W        W36173   3.278   6.289  31.401  0.0069  0.0294  0.1668
29724W        W36174  11.446   4.042  14.127 -0.3122 -0.3625  0.2349
29725W        W36175   2.665   3.832  24.204  0.1561 -0.2197  0.1790
29726W        W36176  15.118   2.940   5.157  0.2462  0.0865 -0.4077
29727W        W36177   7.189   2.087   2.905 -0.0712  0.1643  0.0654
29728W        W36178   4.252   5.403  24.460  0.1345  0.0345  0.1047
29729W        W36179   3.321   0.387  36.455 -0.1598 -0.1472 -0.0064
29730W        W36180  19.688   2.574  10.177  0.0585  0.2017 -0.1181
29731W        W36181  11.689   5.463   8.416  0.2511  0.1771  0.0473
29732W        W36182   6.270   4.296  10.926  0.1037  0.0532 -0.0241
29733W        W36183  11.274   5.049  35.428  0.3132  0.0200  0.0108
29734W        W36184  17.000   2.567  43.272 -0.2213  0.2044 -0.0435
29735W        W36185   1.511   4.637   7.942 -0.2084  0.0899  0.1599
29736W        W36186  13.334   0.222  37.842 -0.2440 -0.1245  0.0633
29737W        W36187   4.651   4.302  27.658  0.0121 -0.3590 -0.1501
29738W        W36188  10.944   3.958  28.803  0.3570 -0.2889 -0.4060
29739W        W36189   7.211   0.990  30.650 -0.0660 -0.0691  0.2416
29740W        W36190   2.175   6.006  29.526  0.1274  0.3117  0.0396
29741W        W36191  20.881   5.355  42.160  0.1633 -0.0043 -0.1172
29742W        W36192   6.598   1.826  42.012  0.0134  0.0246  0.0245
29743W        W36193  16.352   5.197  43.383 -0.0346  0.2992 -0.1561
29744W        W36194   9.068   3.870   4.835 -0.0355  0.0880  0.1803
29745W        W36195  10.391   2.350  32.382  0.0372 -0.1302  0.0056
29746W        W36196  15.791   2.111  36.295  0.0523  0.1448  0.1065
29747W        W36197  21.002   1.141   1.601  0.2194 -0.0251  0.0462
29748W        W36198   5.549   0.340  40.674 -0.0326  0.0339 -0.0909
29749W        W36199  10.787   0.015  41.861  0.3169 -0.1711 -0.1772
29750W        W36200   0.801   6.091  35.841  0.0031  0.1604 -0.0681
29751W        W36201   2.870   3.953  41.316  0.1610  0.2634  0.1523
29752W        W36202  15.405   6.599  34.441 -0.4579 -0.1550 -0.0370
29753W        W36203  18.910   3.605   0.143  0.0047 -0.1353  0.2193
29754W        W36204  20.307   4.634  38.163 -0.3941  0.0715  0.0239
29755W        W36205   7.947   0.159  28.762 -0.0578  0.1792 -0.0704
29756W        W36206   7.819   4.425  24.977  0.2765  0.2572  0.1454
29757W        W36207   1.657   6.567  16.729  0.0379 -0.1242  0.0167
29758W        W36208  15.221   0.549   5.453 -0.1932 -0.1388  0.1849
29759W        W36209  13.432   1.626  34.494  0.1043 -0.4142 -0.0182
29760W        W36210   5.046   6.259  23.014 -0.0036  0.2080  0.2217
29761W        W36211   5.206   6.124  29.671 -0.2043 -0.0883  0.1317
29762W        W36212  12.157   3.735  16.780 -0.3785 -0.1389  0.0930
29763W        W36213  12.962   3.423  43.977 -0.0721 -0.0785  0.1038
29764W        W36214  20.332   6.162  34.922 -0.5480  0.0828  0.0732
29765W        W36215   4.689   3.827  33.045  0.3240 -0.0025  0.1987
29766W        W36216   2.597   3.826   3.754  0.0019  0.2083 -0.1640
29767W        W36217  20.070   0.174   6.255 -0.0318  0.3660 -0.1184
29768W        W36218  13.262   6.025  39.444  0.0522  0.1550  0.1883
29769W        W36219  16.259   6.352  32.828  0.2274  0.4703  0.1562
29770W        W36220  16.127   0.219   4.201  0.1612  0.3351  0.1457
29771W        W36221   1.223   1.590  13.658  0.1662 -0.1264 -0.1103
29772W        W36222  18.784   3.443  11.930  0.2254 -0.0012 -0.1981
29773W        W36223  13.860   3.535  12.576 -0.0827 -0.0494 -0.0268
29774W        W36224   0.180   0.068   2.351 -0.2271  0.0814 -0.1817
29775W        W36225   7.792   2.876  28.831 -0.1409 -0.0615  0.0262
29776W        W36226  19.133   5.295   1.777  0.2349 -0.0244  0.1596
29777W        W36227   4.678   4.579   2.546 -0.1159 -0.2544 -0.1770
29778W        W36228  10.681   1.886  17.973  0.1691  0.0084  0.0181
29779W        W36229   2.668   2.836  38.868 -0.0207  0.1860  0.1133
29780W        W36230  12.438   6.483  37.491 -0.1639 -0.0483  0.0928
29781W        W36231   1.118   5.370   3.123  0.0732  0.0601  0.0137
29782W        W36232   5.616   2.527  32.431  0.3153 -0.4602 -0.5869
29783W        W36233   2.671   5.189  13.926  0.1139  0.2981 -0.0063
29784W        W36234   2.382   4.981  43.948 -0.1381 -0.1614 -0.3057
29785W        W36235   5.007   3.349  31.123  0.0596  0.1179  0.0632
29786W        W36236   5.219   4.115  31.462  0.0238  0.2229 -0.0973
29787W        W36237   0.323   3.876  32.988  0.1888 -0.0558  0.1894
29788W        W36238  14.372   3.469  21.531  0.0885 -0.0594  0.3065
29789W        W36239  19.125   4.218  20.006  0.1589  0.2150 -0.0040
29790W        W36240  17.278   0.987  42.005 -0.0989 -0.0493 -0.0951
29791W        W36241   8.066   4.979   5.289 -0.3026  0.0055 -0.2318
29792W        W36242   1.039   1.911  17.175  0.0288 -0.1441 -0.2578
29793W        W36243   1.750   6.033  29.841 -0.1082 -0.0852  0.1652
29794W        W36244  20.496   3.999  35.363  0.0743 -0.1007 -0.1097
29795W        W36245  15.132   6.355  16.339 -0.0425  0.1986  0.2213
29796W        W36246  10.796   5.192  32.900 -0.2309 -0.1249  0.0436
29797W        W36247  18.571   5.389   3.307  0.1407  0.2052 -0.2452
29798W        W36248  20.026   2.502  35.449  0.1520  0.0879  0.2456
29799W        W36249  15.204   4.615  14.053  0.0007  0.1345  0.0302
29800W        W36250  17.227   3.178  22.555 -0.0728  0.2817  0.0719
29801W        W36251   9.551   1.445   7.375  0.0373  0.1499 -0.2683
29802W        W36252   1.869   6.472   4.747  0.1586 -0.1337  0.1349
29803W        W36253  15.929   5.830  12.739  0.3690 -0.0031 -0.0231
29804W        W36254   6.457   4.175  21.935  0.1979  0.1905 -0.2189
29805W        W36255  16.458   1.240  30.237 -0.0838  0.1053 -0.1247
29806W        W36256   1.517   6.313  10.124  0.0577  0.2221  0.1159
29807W        W36257  16.147   1.499  33.339  0.1951 -0.0151 -0.1852
29808W        W36258  20.331   4.293   6.104  0.1585  0.1632 -0.0286
29809W        W36259  17.692   2.812  37.974  0.2850 -0.0009 -0.0161
29810W        W36260   2.288   0.614  25.136 -0.4098  0.2832 -0.0614
29811W        W36261  11.441   4.897   5.470  0.0769 -0.3180  0.1109
29812W        W36262  20.042   4.428   5.224  0.0484  0.1804  0.1428
29813W        W36263   3.205   4.860  32.991 -0.1145 -0.1006  0.1473
29814W        W36264   5.505   2.970  42.516  0.0424 -0.3008  0.1230
29815W        W36265  12.429   2.002  14.897 -0.0291 -0.1203 -0.1827
29816W        W36266   5.962   1.984  12.362  0.1155 -0.1068  0.0564
29817W        W36267  18.322   1.142  36.672 -0.2180 -0.0458 -0.1257
29818W        W36268  16.082   2.594  43.241 -0.2415 -0.0654  0.1179
29819W        W36269  17.883   0.227  39.587  0.2146 -0.2817  0.1121
29820W        W36270  19.465   3.634  28.099  0.1796 -0.0623  0.0291
29821W        W36271   8.776   1.833  44.038  0.1262 -0.0187 -0.0490
29822W        W36272  19.832   1.465  37.888  0.3098 -0.0126 -0.0977
29823W        W36273  18.167   0.535  41.370 -0.0137  0.1517  0.1740
29824W        W36274   0.076   3.332  29.251  0.1978  0.1020 -0.0827
29825W        W36275   2.550   0.387  26.089 -0.0519  0.3150  0.0894
29826W        W36276   1.800   1.278  33.491  0.1716  0.0474 -0.0658
29827W        W36277  16.361   6.177  40.435  0.1375  0.3241 -0.1573
29828W        W36278   3.867   6.536  11.602 -0.1192 -0.1575 -0.3839
29829W        W36279   9.472   1.974  12.895 -0.3047 -0.1157  0.0363
29830W        W36280  16.391   2.557   4.787  0.3285 -0.0959  0.2168
29831W        W36281  10.052   2.850  12.890 -0.2820 -0.0770  0.0169
29832W        W36282   0.400   5.987   7.892 -0.0731  0.4092 -0.2066
29833W        W36283   5.429   5.491  42.719 -0.2994  0.1257  0.1414
29834W        W36284  12.252   2.225   0.477 -0.1589 -0.1091  0.2114
29835W        W36285   6.713   6.053  22.740 -0.3934 -0.0839 -0.1264
29836W        W36286   4.722   3.012   3.107 -0.1476 -0.2786 -0.2191
29837W        W36287   1.569   3.419  14.206 -0.0740 -0.0182 -0.1132
29838W        W36288   2.394   3.544  41.651 -0.1340  0.2384  0.0326
29839W        W36289  14.705   5.366   2.212  0.0562  0.0229  0.0062
29840W        W36290  10.280   3.695  42.405 -0.0854  0.0594  0.1718
29841W        W36291  17.436   5.905  24.081 -0.2553 -0.0039  0.0626
29842W        W36292   8.765   5.247  11.726 -0.2033 -0.2133 -0.2155
29843W        W36293  18.948   3.065   5.533 -0.0738  0.1523 -0.1762
29844W        W36294  19.816   6.310  38.965  0.2145  0.1229  0.0395
29845W        W36295   9.131   5.764  24.321 -0.0721  0.0143  0.0801
29846W        W36296   7.142   4.187  24.611  0.0243  0.1155 -0.0407
29847W        W36297   0.052   2.277   7.528  0.1785 -0.2562 -0.0591
29848W        W36298  20.445   6.528  16.485  0.3566 -0.0183  0.0600
29849W        W36299   9.787   6.360  11.920  0.0175  0.0299  0.0579
29850W        W36300   5.389   4.547  44.705  0.0614 -0.2678 -0.2335
29851W        W36301   7.262   3.643  13.562  0.1548  0.0079  0.0075
29852W        W36302   8.420   1.739   3.066  0.3338  0.0137 -0.4078
29853W        W36303   8.667   3.696  43.898  0.0313 -0.3216 -0.0603
29854W        W36304  16.842   5.731  37.888 -0.1401 -0.0111 -0.0520
29855W        W36305   4.860   4.877  32.519  0.3060  0.1709 -0.1652
29856W        W36306  17.189   6.533  15.259  0.3023  0.0950 -0.0107
29857W        W36307  17.683   0.198   0.089 -0.0401  0.2420  0.3532
29858W        W36308  16.015   1.924  30.744  0.0323 -0.0865  0.0052
29859W        W36309  15.477   4.274   5.922  0.0744  0.1215  0.0802
29860W        W36310  20.131   3.238   4.433  0.0545 -0.0498  0.2882
29861W        W36311   1.765   1.291  29.701 -0.0924  0.0682 -0.1216
29862W        W36312   4.661   4.806  15.227 -0.1336  0.0405 -0.2046
29863W        W36313  13.874   1.537  21.460  0.1260  0.0029 -0.0794
29864W        W36314   1.145   4.233  35.488 -0.0390 -0.0148 -0.2755
29865W        W36315   1.531   0.067  34.531 -0.2853 -0.4427 -0.0322
29866W        W36316   8.703   2.518  10.687  0.0717  0.2130 -0.0992
29867W        W36317   3.110   3.486   4.201 -0.0536  0.0603 -0.3047
29868W        W36318  11.195   5.976   2.529  0.1748  0.1693 -0.1592
29869W        W36319   2.903   1.509   0.229 -0.0986  0.3290  0.2027
29870W        W36320  10.128   2.621   7.281 -0.2501 -0.1683 -0.1871
29871W        W36321   6.986   2.058  32.109 -0.1064  0.2455  0.0910
29872W        W36322  13.511   0.166  16.439 -0.2109  0.0476  0.0468
29873W        W36323  20.672   2.882   5.066 -0.1256 -0.0231 -0.0848
29874W        W36324  13.210   3.145  17.469  0.2070  0.1237 -0.1269
29875W        W36325  19.052   2.727  42.593 -0.0066 -0.0619  0.2228
29876W        W36326   2.441   1.732  16.644  0.0015 -0.0304  0.2302
29877W        W36327   2.728   6.229  10.292 -0.2399 -0.4038 -0.1271
29878W        W36328   5.384   3.340  31.904  0.0210  0.1034  0.0308
29879W        W36329  15.658   2.351  18.155  0.0412  0.0675 -0.2208
29880W        W36330   6.106   2.906  11.946  0.0593  0.1040  0.1592
29881W        W36331  15.350   1.105  33.520  0.1891 -0.0482  0.2010
29882W        W36332   7.505   4.848  39.663 -0.0371 -0.1954 -0.0753
29883W        W36333  16.275   5.377   1.442  0.0307 -0.0208  0.2200
29884W        W36334  20.564   6.582  31.198 -0.1019  0.2099  0.0252
29885W        W36335   7.279   2.884  43.710  0.0641  0.1097 -0.2380
29886W        W36336  11.749   0.822  13.596  0.1215  0.1184  0.2170
29887W        W36337   5.986   0.815  35.170  0.0256 -0.1448 -0.1018
29888W        W36338  10.736   5.363  37.373  0.1038  0.0936  0.0855
29889W        W36339   2.661   4.359   0.917  0.0632 -0.3603  0.0445
29890W        W36340   6.004   5.772   9.281  0.0807  0.1592  0.0147
29891W        W36341  17.699   0.920  42.965  0.1012  0.0609  0.1014
29892W        W36342  17.193   3.204   9.388 -0.1269 -0.1993  0.0768
29893W        W36343   2.589   4.273  40.348  0.1548  0.0033 -0.2233
29894W        W36344  11.569   1.877  13.309 -0.0830 -0.0308 -0.2793
29895W        W36345   4.002   3.333  44.306  0.2806 -0.6318  0.3843
29896W        W36346  11.489   2.095   2.700 -0.2648 -0.2583  0.1662
29897W        W36347   6.764   5.969   2.310  0.1047  0.0427  0.2833
29898W        W36348   1.125   5.151   2.101  0.1989  0.1870 -0.1122
29899W        W36349  20.577   3.931  11.321 -0.0130  0.0100  0.0333
29900W        W36350  19.505   4.775  34.533 -0.2136 -0.0435  0.2810
29901W        W36351  20.998   2.670   9.527 -0.3386  0.2278 -0.1546
29902W        W36352  11.486   4.461  16.607 -0.1571  0.1230 -0.2444
29903W        W36353  20.588   6.092  28.666  0.1082  0.1892 -0.1846
29904W        W36354   6.605   2.709   2.568  0.0311  0.0722  0.0175
29905W        W36355   5.303   0.739  11.317  0.0560  0.2380  0.1997
29906W        W36356  20.622   4.370  14.885  0.1401 -0.4087 -0.0283
29907W        W36357   9.021   3.631   0.552 -0.0168 -0.0520  0.1339
29908W        W36358  16.455   1.936  41.013  0.0335 -0.0201  0.1471
29909W        W36359   8.599   1.108   9.247  0.2857  0.1099 -0.0300
29910W        W36360   4.017   0.006  28.747 -0.0577  0.0647  0.1642
29911W        W36361  13.506   2.881  43.490  0.1964 -0.4155 -0.2202
29912W        W36362   1.923   2.428  28.111 -0.1662  0.1265  0.1662
29913W        W36363  12.642   5.053   7.403  0.0579  0.1416 -0.2391
29914W        W36364  15.786   4.189  33.729  0.3368 -0.2440 -0.0606
29915W        W36365  12.822   6.370   2.938 -0.1797  0.0272  0.2860
29916W        W36366   8.563   3.814   9.424 -0.1568  0.0552  0.0844
29917W        W36367   9.839   0.676  16.090 -0.1362  0.2106 -0.2071
29918W        W36368  14.062   2.658   5.172  0.0545 -0.0702  0.0886
29919W        W36369   5.843   2.726  37.708 -0.0068  0.0671 -0.0812
29920W        W36370  16.131   2.808  38.391 -0.0684 -0.1360 -0.1945
29921W        W36371   0.286   6.045  28.331 -0.1620 -0.1684 -0.2876
29922W        W36372  12.122   4.464  19.730 -0.2383 -0.1283  0.0370
29923W        W36373  15.133   6.535  13.586 -0.2073  0.1298 -0.3723
29924W        W36374   1.809   1.762  11.475  0.1702  0.1257 -0.0276
29925W        W36375  21.059   6.211  29.558  0.1777  0.0436 -0.0249
29926W        W36376  15.266   1.267  21.179  0.0606 -0.0825 -0.1294
29927W        W36377   8.237   1.840  28.044 -0.1585  0.1551  0.2588
29928W        W36378  16.717   0.450  19.821 -0.2983 -0.0514 -0.2173
29929W        W36379  16.422   5.125  32.752  0.1054 -0.0131 -0.0283
29930W        W36380  20.659   0.244  18.410 -0.1822 -0.0648  0.1918
29931W        W36381  11.595   5.155  36.827  0.2330  0.0823  0.4578
29932W        W36382   5.154   1.422  33.979  0.0188 -0.4864  0.1195
29933W        W36383   2.979   5.734  24.893 -0.0266  0.3019  0.2980
29934W        W36384   0.825   2.417   9.264  0.1737  0.1894 -0.0227
29935W        W36385   9.538   1.147  32.983 -0.2948  0.0659  0.0780
29936W        W36386  11.626   3.438   2.733 -0.1853 -0.0286  0.1424
29937W        W36387   6.172   0.396  21.971 -0.2903  0.0014  0.0633
29938W        W36388   8.349   0.888   3.748 -0.0340  0.0966  0.0044
29939W        W36389  16.090   5.402   6.723  0.0492  0.0006 -0.0065
29940W        W36390  18.217   1.320  10.481 -0.2432  0.0467 -0.0123
29941W        W36391  11.788   4.991  29.153 -0.0032 -0.1261  0.1359
29942W        W36392  14.605   2.671  35.957  0.1750  0.0393  0.0742
29943W        W36393  12.261   6.317   6.368  0.1464 -0.1092  0.0830
29944W        W36394  17.004   4.819  18.777  0.1759 -0.1686  0.3754
29945W        W36395   9.373   6.081  34.576 -0.1712  0.2551  0.0595
29946W        W36396  13.756   2.453  41.034 -0.1706 -0.4056  0.1276
29947W        W36397  15.252   6.355  35.551  0.0735 -0.0273 -0.0176
29948W        W36398  16.105   2.096   3.332 -0.1131 -0.0792 -0.0149
29949W        W36399  12.431   2.058  19.886  0.1319  0.0737  0.2974
29950W        W36400  18.416   2.766  33.957 -0.2250 -0.1014 -0.0052
29951W        W36401  12.324   6.271   0.728  0.1047  0.0988 -0.0464
29952W        W36402   4.657   0.441   9.804  0.0316 -0.1234 -0.0298
29953W        W36403   0.762   5.353  36.707 -0.1359 -0.2641 -0.4610
29954W        W36404   3.131   0.122  27.822  0.0424  0.1216 -0.2223
29955W        W36405  19.202   5.267   0.369 -0.0456  0.0147 -0.0088
29956W        W36406  15.722   3.470   2.294  0.0406 -0.0834  0.0419
29957W        W36407  14.751   2.310  30.549 -0.0807  0.1037 -0.0497
29958W        W36408   2.958   5.741  36.605  0.4470 -0.0243  0.0273
29959W        W36409  14.846   2.587   7.831 -0.0660 -0.3026 -0.2219
29960W        W36410  10.481   3.656  40.313 -0.1534 -0.4543  0.1942
29961W        W36411   8.062   0.585  13.695 -0.0810 -0.2806  0.1265
29962W        W36412  20.721   4.498  11.264 -0.1684  0.1068 -0.2051
29963W        W36413   7.932   0.634  15.739 -0.0784  0.0840 -0.2616
29964W        W36414  13.752   1.533  35.198 -0.1245 -0.0851  0.1393
29965W        W36415  15.270   2.890   7.342  0.0300  0.1080  0.1713
29966W        W36416  12.892   5.730  43.415 -0.2610  0.0515  0.0492
29967W        W36417   3.269   0.031  31.749 -0.2302  0.1373 -0.1900
29968W        W36418  19.657   6.541  13.132  0.0066  0.0516  0.0168
29969W        W36419  15.885   1.311  30.097  0.0035 -0.1975 -0.3395
29970W        W36420  14.741   3.245  12.928  0.1396  0.0391 -0.2465
29971W        W36421  17.085   4.832  33.214  0.1335  0.2540 -0.0138
29972W        W36422   4.814   6.368  25.303 -0.1075  0.2755  0.0697
29973W        W36423   1.729   3.332  44.438 -0.1304  0.0944  0.1682
29974W        W36424   5.167   1.617  24.761 -0.1090 -0.3139  0.0792
29975W        W36425   3.737   2.966  22.649  0.1059  0.0482 -0.1965
29976W        W36426  20.886   5.648  30.196  0.0075 -0.2605  0.0251
29977W        W36427   4.743   2.238   3.166 -0.0789  0.3772  0.0331
29978W        W36428   9.372   1.471   0.762 -0.1615  0.0524 -0.1554
29979W        W36429   6.126   2.145   6.627 -0.0986 -0.3090  0.1943
29980W        W36430   0.146   6.465  11.315  0.2254 -0.0854  0.2210
29981W        W36431  19.220   4.734  14.872  0.1452 -0.0813 -0.3169
29982W        W36432  17.846   0.042  37.170  0.1448 -0.2203 -0.1728
29983W        W36433  16.738   1.020   4.141  0.3280  0.2211 -0.2872
29984W        W36434  17.726   2.479  18.381 -0.0140  0.3727 -0.0171
29985W        W36435  12.868   0.489  31.919  0.2028  0.1594  0.0406
29986W        W36436  19.399   3.675  42.991 -0.1180 -0.1595  0.1837
29987W        W36437  11.332   3.715  44.592 -0.0316  0.1340  0.0238
29988W        W36438  19.106   4.668  36.748  0.2168  0.3135 -0.1099
29989W        W36439  13.370   3.395   6.080  0.0316  0.0320 -0.1362
29990W        W36440   6.587   0.584  25.566 -0.0540 -0.0940  0.3205
29991W        W36441  19.901   4.542  31.789 -0.0576 -0.0133  0.2055
29992W        W36442   1.072   5.770   2.824 -0.2382 -0.2365 -0.0767
29993W        W36443  19.388   0.350   1.515 -0.0094  0.1573 -0.1342
29994W        W36444   0.917   3.405  38.529  0.2664 -0.1085 -0.1514
29995W        W36445  16.513   4.509   9.027  0.0699 -0.1388  0.3093
29996W        W36446   1.854   6.597  33.576  0.0569 -0.1169  0.0163
29997W        W36447  20.608   6.092  19.305 -0.1012 -0.0722  0.2449
29998W        W36448   0.650   3.285  15.186 -0.3445 -0.0074 -0.4501
29999W        W36449  15.007   5.483  10.637 -0.1060  0.0441 -0.4028
30000W        W36450  20.023   0.441  18.176  0.0756  0.0380 -0.0691
30001W        W36451  13.572   3.853  12.208  0.0177 -0.2518 -0.0865
30002W        W36452  12.804   2.360   5.770 -0.0987  0.2241 -0.4405
30003W        W36453   3.750   3.815  25.533 -0.2430  0.1002  0.1986
30004W        W36454   1.866   1.736  35.964 -0.3010 -0.1955 -0.2422
30005W        W36455  11.351   4.149  32.663  0.1346 -0.2470 -0.2492
30006W        W36456   4.787   5.578  31.005 -0.0847  0.6653  0.2305
30007W        W36457  18.842   5.258  21.507  0.2556  0.2736 -0.0850
30008W        W36458  11.902   1.669  15.453 -0.3611  0.1944  0.1375
30009W        W36459  20.321   3.114  44.210  0.1277 -0.2552 -0.1411
30010W        W36460   9.284   3.811   6.494  0.0852  0.2548 -0.1129
30011W        W36461   8.704   3.698  23.934 -0.2229 -0.1987  0.2455
30012W        W36462  17.399   0.421  39.770  0.0269 -0.5866 -0.1569
30013W        W36463   0.490   3.158  14.685  0.1561  0.0710 -0.0366
30014W        W36464  10.960   2.114   7.691 -0.1898  0.0353 -0.1968
30015W        W36465   8.445   0.893  11.083 -0.0301 -0.0977  0.0216
30016W        W36466  16.905   6.449  31.069  0.1517 -0.2343 -0.2029
30017W        W36467   8.335   2.832  36.586  0.1970 -0.1871  0.3338
30018W        W36468   2.910   3.038  12.649  0.0074 -0.0813 -0.0515
30019W        W36469   1.742   4.068   8.472  0.0351 -0.0809 -0.0652
30020W        W36470  20.511   5.020  30.134 -0.2371  0.1765 -0.2538
30021W        W36471   6.606   6.586  40.695  0.1990  0.1706 -0.3299
30022W        W36472   1.581   2.419  12.646  0.0094 -0.1552  0.1004
30023W        W36473   7.939   1.986   1.352 -0.2350 -0.0550  0.2386
30024W        W36474   5.642   4.934  40.259 -0.1146 -0.0890  0.0653
30025W        W36475  16.588   0.652  38.795  0.2969 -0.2327 -0.4548
30026W        W36476  12.306   4.043  10.660 -0.1743 -0.1391 -0.2463
30027W        W36477  10.790   5.239  42.390 -0.1714 -0.1409 -0.0507
30028W        W36478  17.297   0.485   0.233  0.0446 -0.0001 -0.0164
30029W        W36479  11.664   1.488   9.665  0.1348  0.1145  0.1440
30030W        W36480  18.097   0.727   6.932 -0.2896  0.1365  0.2052
30031W        W36481  20.501   5.690  37.953  0.0853 -0.0305  0.1590
30032W        W36482  13.886   5.084   7.735  0.3583 -0.2511  0.1409
30033W        W36483  15.429   2.179  13.832  0.0961 -0.1635  0.1748
30034W        W36484   1.744   4.436   3.513 -0.0359  0.0242 -0.1895
30035W        W36485  15.090   5.982  18.541 -0.3170  0.1280  0.2759
30036W        W36486  19.616   4.206   8.578  0.5419  0.3285 -0.1234
30037W        W36487  15.283   5.217   9.245  0.0479 -0.1173 -0.0499
30038W        W36488  10.032   1.574   8.867 -0.2582  0.1381 -0.0100
30039W        W36489  17.270   4.215  37.743  0.0774  0.2013  0.1767
30040W        W36490   0.382   1.548   5.598 -0.0913  0.0669  0.4093
30041W        W36491  17.798   5.295  31.554  0.0245  0.0977  0.1869
30042W        W36492   5.723   1.813  44.342 -0.2340 -0.1672  0.0920
30043W        W36493  10.063   4.442   2.087  0.0922 -0.0752 -0.2392
30044W        W36494  16.534   4.255  38.857 -0.0269 -0.4248  0.1563
30045W        W36495   6.867   3.576  26.087 -0.1272 -0.1074 -0.0909
30046W        W36496   7.011   1.092  24.344  0.2558  0.1650 -0.0574
30047W        W36497   2.377   6.309  28.324  0.1610 -0.2067 -0.3086
30048W        W36498   7.838   1.150   2.347 -0.2403  0.1995 -0.0184
30049W        W36499   5.481   3.736  36.746  0.1502 -0.1844 -0.0510
30050W        W36500   0.454   3.821  12.778 -0.0920 -0.1087 -0.1279
30051W        W36501  20.275   3.623  16.189  0.2387  0.3247 -0.3207
30052W        W36502  20.959   0.682  41.505  0.1248 -0.2758  0.0719
30053W        W36503   2.994   3.128  44.566 -0.0887  0.3225 -0.1892
30054W        W36504   3.163   5.938  14.864 -0.2145  0.1081 -0.1364
30055W        W36505  14.698   3.025  22.240 -0.0056  0.0195  0.3324
30056W        W36506  14.064   1.737  14.104  0.0068  0.1236  0.0241
30057W        W36507  17.118   3.329  41.412 -0.1549 -0.0895 -0.0322
30058W        W36508  12.832   4.323  37.876 -0.0926  0.1172  0.1874
30059W        W36509   1.541   5.510  32.801 -0.0865 -0.0557  0.5320
30060W        W36510   7.974   4.726  38.406 -0.1740  0.1360  0.0700
30061W        W36511  10.903   2.105  27.570 -0.4613  0.1055  0.1162
30062W        W36512  10.618   5.948  10.798 -0.0610  0.0882 -0.1279
30063W        W36513   6.405   5.726  24.071 -0.1499 -0.0167  0.0633
30064W        W36514  12.058   5.466  16.432 -0.1387  0.0999  0.0273
30065W        W36515   0.284   1.011  16.591  0.0471 -0.1315  0.1187
30066W        W36516  11.623   2.784  40.388 -0.2551 -0.0989  0.0187
30067W        W36517  14.082   4.091  37.525 -0.0140  0.3619  0.0960
30068W        W36518   1.526   2.012  40.081  0.2443 -0.3168  0.0625
30069W        W36519   0.001   0.989  34.769 -0.1361  0.2156 -0.0369
30070W        W36520   0.066   6.126  18.773  0.1732 -0.1461 -0.0951
30071W        W36521   2.200   6.250  37.727  0.1232  0.2643 -0.1021
30072W        W36522   8.998   5.772  31.304 -0.1278 -0.2390 -0.0115
30073W        W36523  12.555   0.453  12.424 -0.0792 -0.0963 -0.1955
30074W        W36524  15.871   1.061  44.181 -0.0600  0.0231  0.1109
30075W        W36525   1.699   2.009   1.449 -0.1495 -0.0900 -0.3113
30076W        W36526   2.487   1.656  31.044  0.1722 -0.3024  0.3122
30077W        W36527  20.425   1.771  41.898  0.1560 -0.2871  0.2692
30078W        W36528  10.785   2.720  44.029 -0.0958 -0.2088 -0.1788
30079W        W36529  21.073   2.322  43.861 -0.0288 -0.0478  0.0487
30080W        W36530  18.767   1.411  18.319 -0.0438 -0.2210 -0.4627
30081W        W36531  15.936   0.492  39.412 -0.0413  0.2525  0.2548
30082W        W36532  16.580   2.478  35.574 -0.1683  0.2766 -0.0246
30083W        W36533  12.167   3.409  29.917  0.0068  0.0149  0.1477
30084W        W36534  16.447   0.205  31.148 -0.1997 -0.0590 -0.2941
30085W        W36535  19.851   0.373  44.133 -0.0721  0.1307 -0.1837
30086W        W36536  16.177   4.442  36.930  0.1853  0.0307  0.1345
30087W        W36537  16.939   2.159  42.850  0.1263  0.0948  0.0045
30088W        W36538  10.086   4.144  38.818 -0.0181  0.0924  0.0827
30089W        W36539   9.438   5.551   2.244 -0.0719 -0.0096  0.4493
30090W        W36540  13.200   0.684  39.285  0.2122  0.1448  0.1131
30091W        W36541   5.830   2.353   1.005  0.3754  0.4676  0.0081
30092W        W36542  12.383   0.595  27.720 -0.1640  0.2712 -0.0280
30093W        W36543  19.912   4.198  14.130  0.0987  0.0122 -0.3090
30094W        W36544  20.083   3.797   2.195  0.0549 -0.0474  0.3746
30095W        W36545   6.390   0.670  14.002  0.0477  0.1421  0.1017
30096W        W36546   8.898   0.060  15.010 -0.0873  0.1454  0.0255
30097W        W36547  10.865   2.378  11.807 -0.0903  0.2413 -0.1403
30098W        W36548  11.052   0.570  30.479  0.1337  0.1545  0.2240
30099W        W36549   4.990   5.581  14.517 -0.2039  0.3266  0.0570
30100W        W36550  19.268   0.822  39.693 -0.2523  0.2146 -0.2267
30101W        W36551   9.349   5.173  31.404  0.0271  0.1472 -0.2198
30102W        W36552  12.017   4.305  30.800  0.2994 -0.0689  0.0289
30103W        W36553   5.416   5.415  21.449 -0.1246  0.2381 -0.1105
30104W        W36554   7.746   5.629   8.456 -0.2970  0.2178  0.1551
30105W        W36555  14.476   1.368  41.612  0.2109 -0.0572 -0.3084
30106W        W36556  13.532   3.309  45.018  0.2572  0.2287 -0.1372
30107W        W36557  13.318   6.131  15.957 -0.1955  0.0834 -0.0853
30108W        W36558  20.236   1.743  10.558  0.0445  0.0467 -0.0221
30109W        W36559  19.691   0.706  13.645  0.0712 -0.0939  0.3516
30110W        W36560  14.758   2.872  44.476 -0.0879 -0.3774 -0.2282
30111W        W36561   1.277   3.045   8.577 -0.1726 -0.0409  0.0737
30112W        W36562  12.661   0.953   1.570  0.1787  0.1249  0.0476
30113W        W36563  15.751   1.750  14.638  0.2122 -0.2557  0.1710
30114W        W36564   7.662   2.207   9.946  0.0009 -0.0713 -0.1491
30115W        W36565  12.523   5.653  42.833  0.4485  0.2628 -0.2528
30116W        W36566  18.219   5.887  43.029 -0.1512 -0.0379  0.1718
30117W        W36567  10.771   0.604  35.769 -0.0514 -0.2774  0.0307
30118W        W36568  18.532   1.516   7.515 -0.0531  0.0002  0.0374
30119W        W36569   6.636   1.594  39.574 -0.2078  0.2063 -0.0912
30120W        W36570  17.082   3.362  23.215  0.1320 -0.1410  0.3111
30121W        W36571   0.589   3.410  34.794 -0.0334 -0.1577  0.1214
30122W        W36572   0.837   5.114  39.536  0.1247 -0.1633 -0.0224
30123W        W36573  15.420   5.514  43.887  0.2055  0.4152 -0.2214
30124W        W36574  11.129   5.141  29.898  0.2587 -0.1821 -0.0220
30125W        W36575  11.675   1.279   1.451 -0.0544  0.3202  0.2526
30126W        W36576  13.740   6.587  39.689 -0.1539  0.0009  0.1308
30127W        W36577   1.405   0.116  13.514  0.1925  0.1373 -0.3905
30128W        W36578   7.442   3.448  40.891 -0.0766  0.3872 -0.0991
30129W        W36579  11.046   1.726   0.166 -0.1476  0.3515 -0.0796
30130W        W36580   4.189   2.013  36.039  0.3425 -0.0855 -0.1962
30131W        W36581   3.502   2.474  40.443 -0.0358 -0.0372  0.1316
30132W        W36582   6.204   5.416  41.322  0.0339  0.2856  0.0997
30133W        W36583  20.447   3.184  19.339 -0.2703 -0.0505  0.1894
30134W        W36584   0.464   0.734  33.746  0.2554 -0.1703  0.2655
30135W        W36585  18.603   6.450  36.091 -0.0500 -0.0704  0.1499
30136W        W36586  10.891   2.981   8.431  0.0076  0.0126  0.0789
30137W        W36587  10.232   2.855  32.230 -0.1008 -0.1477  0.2355
30138W        W36588   8.314   0.951   2.492  0.1487  0.1209  0.1031
30139W        W36589  17.672   5.749   6.204  0.4119 -0.1430 -0.1264
30140W        W36590  11.445   4.450   5.639  0.0334  0.3443  0.1809
30141W        W36591   3.712   1.975   7.810 -0.1235 -0.1214  0.0721
30142W        W36592   8.694   2.099  24.301 -0.0142  0.0864 -0.1291
30143W        W36593  19.907   4.861   5.656  0.1458  0.0631  0.1644
30144W        W36594  19.636   2.778  36.285  0.2418  0.0916  0.2057
30145W        W36595  13.686   1.667   3.085 -0.0418 -0.0679 -0.0031
30146W        W36596  16.266   5.766  21.005 -0.0902  0.1925  0.2180
30147W        W36597  15.581   1.128  14.655 -0.0222  0.2290  0.4769
30148W        W36598  19.413   5.524  14.171 -0.1395  0.2313  0.2545
30149W        W36599  11.178   2.547  10.737  0.1080 -0.3139  0.1251
30150W        W36600  17.597   2.900  10.991  0.0583  0.0974 -0.0861
30151W        W36601   3.920   3.073  25.996  0.3491  0.4013  0.1252
30152W        W36602   4.163   0.191  36.042  0.0987 -0.0805 -0.2761
30153W        W36603   2.095   0.262  40.276  0.2710 -0.0069  0.0981
30154W        W36604  16.842   0.154   5.248  0.1333 -0.0102 -0.1909
30155W        W36605   3.798   4.389  33.574  0.2115  0.2159  0.0444
30156W        W36606  15.357   6.582  31.532  0.1852 -0.1771 -0.0727
30157W        W36607   6.745   6.249   5.525  0.0865  0.2586  0.0409
30158W        W36608   8.119   6.501   1.715 -0.2619  0.3126 -0.0311
30159W        W36609   3.440   5.865  44.106 -0.1778 -0.1670  0.0105
30160W        W36610   3.768   5.567  31.104  0.3562 -0.0422  0.0161
30161W        W36611   6.684   3.517  33.023 -0.0481 -0.1821 -0.0647
30162W        W36612   5.162   2.089  14.253 -0.1410  0.0374 -0.1410
30163W        W36613   2.535   1.185  11.368  0.0286  0.0407  0.1392
30164W        W36614   4.297   1.270  43.292 -0.1790  0.1384 -0.2434
30165W        W36615  17.627   0.636  12.537  0.0406  0.1130  0.0076
30166W        W36616  14.258   4.289  15.891  0.2110  0.0650  0.0864
30167W        W36617  11.391   5.636  12.756 -0.0743  0.2636 -0.2072
30168W        W36618  13.560   3.027   1.440  0.3386 -0.0674  0.1362
30169W        W36619   2.102   2.656   1.744  0.2507  0.3161  0.3381
30170W        W36620  18.432   3.319   4.136  0.1999 -0.1312 -0.2820
30171W        W36621   0.017   0.912   7.154 -0.0010  0.1712  0.2643
30172W        W36622  10.166   1.968  32.105 -0.4014 -0.2076  0.0131
30173W        W36623   1.508   5.130  12.703 -0.1312 -0.0945 -0.0140
30174W        W36624  18.405   4.720   6.596  0.0673 -0.0948  0.0402
30175W        W36625   9.923   3.205  27.648  0.2260  0.2082 -0.1479
30176W        W36626   0.545   2.440  26.913  0.1468 -0.0877  0.0089
30177W        W36627  16.824   2.467  20.318  0.2391 -0.1475 -0.0152
30178W        W36628   6.905   3.318  22.143 -0.1854  0.1179 -0.1658
30179W        W36629   5.062   5.628  32.308  0.1112  0.0723  0.4833
30180W        W36630  20.236   3.673   4.006 -0.0791  0.2016  0.1933
30181W        W36631   1.995   4.961  36.914  0.2111  0.2416  0.1277
30182W        W36632  11.555   3.916  41.906 -0.4716 -0.1548  0.0622
30183W        W36633   0.791   1.516  13.353  0.1262 -0.0692  0.2543
30184W        W36634  19.040   2.958  40.772 -0.1819  0.0141 -0.1595
30185W        W36635  12.729   2.427  19.667  0.0263 -0.1889 -0.1818
30186W        W36636   9.918   0.783  32.906  0.0118 -0.2259 -0.0118
30187W        W36637  14.793   4.717   9.254 -0.1077 -0.2113 -0.0420
30188W        W36638   8.121   2.315   9.005  0.1498 -0.1121  0.0947
30189W        W36639  12.828   5.327  16.243  0.2667  0.0866 -0.0338
30190W        W36640  11.076   1.558  11.256 -0.0309  0.1401 -0.0582
30191W        W36641  12.721   3.368  19.003  0.1014 -0.1166 -0.0937
30192W        W36642   6.855   4.776  12.597  0.1235 -0.2546  0.1319
30193W        W36643  14.011   4.341  14.739  0.0155  0.3134 -0.1641
30194W        W36644  10.080   0.039   7.190  0.0273  0.1755  0.2737
30195W        W36645   7.717   0.700  10.179 -0.1288 -0.0789 -0.1727
30196W        W36646   3.838   5.933  43.780  0.0833  0.0580  0.1745
30197W        W36647   4.869   2.972  11.359 -0.0562  0.4067  0.1374
30198W        W36648  14.590   5.864  17.910 -0.0206 -0.1285 -0.2373
30199W        W36649  15.947   4.097  32.116  0.1793 -0.4707 -0.0738
30200W        W36650  19.552   0.779  32.144 -0.0670  0.0611  0.1785
30201W        W36651   6.222   0.184  12.621  0.2323  0.3841 -0.0306
30202W        W36652   3.071   2.129  14.173  0.0088  0.2835 -0.0717
30203W        W36653  11.416   2.568  41.905  0.0501 -0.2240  0.1190
30204W        W36654  20.668   1.540  40.948 -0.0862  0.0404 -0.2019
30205W        W36655   3.109   3.593   5.577  0.2518 -0.0937 -0.0999
30206W        W36656   0.498   1.599  15.059 -0.2243  0.1149  0.1809
30207W        W36657  10.007   0.385  14.238 -0.2736 -0.2511 -0.0562
30208W        W36658  13.725   5.425  32.038  0.2108 -0.3797 -0.2834
30209W        W36659  21.023   5.310   1.178 -0.0912  0.0918 -0.1797
30210W        W36660  21.027   4.205   4.667  0.3285  0.1674 -0.0726
30211W        W36661  12.894   2.041  19.425  0.0647 -0.1358 -0.0248
30212W        W36662   3.681   4.261   7.956 -0.0192 -0.2829  0.1140
30213W        W36663  15.962   0.580  16.216 -0.0229 -0.0883  0.2275
30214W        W36664  10.169   1.816  33.662  0.2018  0.2496  0.0766
30215W        W36665  18.526   3.518   9.247 -0.0059  0.0263 -0.0343
30216W        W36666  20.919   3.032  33.270  0.2723  0.1005  0.0365
30217W        W36667  11.874   0.773  30.584 -0.0744  0.0164 -0.1862
30218W        W36668   2.020   5.136  31.670  0.1756 -0.1983  0.0673
30219W        W36669  13.441   2.711   6.660  0.2570 -0.1659  0.0823
30220W        W36670  20.442   2.198  15.518 -0.1296 -0.1530 -0.1010
30221W        W36671  11.143   1.024  43.409 -0.0114  0.1382 -0.2614
30222W        W36672   1.062   4.695  10.865  0.1511 -0.0546  0.0726
30223W        W36673  17.164   1.528  42.350 -0.0194  0.2492  0.0494
30224W        W36674  19.638   3.616  34.078  0.0846  0.2981  0.2320
30225W        W36675  21.011   3.986  14.733  0.2269 -0.0367  0.2502
30226W        W36676   5.578   6.480  36.625 -0.0557  0.1375 -0.2256
30227W        W36677   9.732   1.848   3.765  0.1585 -0.0535  0.0196
30228W        W36678   4.245   2.284  27.213 -0.2939 -0.0813 -0.1610
30229W        W36679   9.813   0.551  42.381 -0.0290 -0.1296  0.1314
30230W        W36680  12.461   4.411  31.586 -0.3276  0.1017 -0.1774
30231W        W36681  14.450   5.416  33.538 -0.1492 -0.2550 -0.0292
30232W        W36682  16.996   4.932   3.564 -0.0555  0.0212 -0.0636
30233W        W36683   6.543   1.798  24.942 -0.3525  0.0049 -0.1992
30234W        W36684  17.711   3.583  14.777  0.0329  0.1036  0.0418
30235W        W36685   8.613   5.640  33.003 -0.0932  0.2226  0.2754
30236W        W36686  20.199   1.856   0.748 -0.0317  0.0545  0.2368
30237W        W36687  14.492   5.020  42.737  0.0507 -0.1069  0.2874
30238W        W36688   1.950   5.145  28.953 -0.1443  0.2047  0.1620
30239W        W36689   8.163   4.220  35.355 -0.1142  0.1586 -0.0256
30240W        W36690  19.508   0.833  38.272 -0.0756 -0.1143  0.0292
30241W        W36691   3.368   1.551  44.495  0.2384 -0.2279 -0.1147
30242W        W36692   4.054   3.576  41.661  0.4327 -0.3327  0.0288
30243W        W36693  15.135   2.313  32.049 -0.1426 -0.3866 -0.0761
30244W        W36694   5.635   4.772  15.077 -0.0866  0.0318  0.2630
30245W        W36695   3.406   4.144  11.865  0.0209 -0.1756  0.0271
30246W        W36696  10.148   2.756   3.689 -0.4405  0.0229 -0.2293
30247W        W36697   5.535   5.358  20.997  0.1165 -0.0404 -0.0998
30248W        W36698  16.965   2.866  23.227 -0.1503 -0.0445  0.0612
30249W        W36699  17.566   0.568   7.649  0.1881 -0.1189  0.0146
30250W        W36700  16.241   5.725  41.263 -0.1423  0.1699 -0.0075
30251W        W36701  20.869   1.118   5.997  0.0905 -0.1555  0.2629
30252W        W36702   3.694   1.663  11.833  0.1691 -0.0564  0.0432
30253W        W36703  17.312   1.145  35.739 -0.0761  0.0469  0.0399
30254W        W36704  14.234   2.927   0.260 -0.0159  0.1019  0.2534
30255W        W36705   9.096   5.633   3.474  0.1385  0.1320  0.3416
30256W        W36706  14.739   2.547  34.802 -0.0835 -0.0635 -0.2323
30257W        W36707   9.071   4.436  28.359  0.0401 -0.1316  0.0918
30258W        W36708  14.384   6.397   8.925 -0.0671  0.0858 -0.1404
30259W        W36709  12.427   5.542  41.866  0.1782  0.1927  0.1083
30260W        W36710   7.677   0.919  13.628 -0.0951 -0.3256  0.1255
30261W        W36711  12.063   2.976  35.947  0.0979 -0.0518  0.2105
30262W        W36712  13.513   5.631   2.866 -0.0225  0.4062 -0.0348
30263W        W36713  13.010   1.884  17.375 -0.1304 -0.0000 -0.0880
30264W        W36714  11.394   5.271  13.968 -0.1215  0.1792 -0.1503
30265W        W36715  14.175   1.862  13.532 -0.0571 -0.2046  0.2311
30266W        W36716  14.078   0.900  32.558  0.1598  0.1274  0.2499
30267W        W36717  17.675   0.767  15.383  0.0799  0.0854 -0.1532
30268W        W36718  16.184   1.001  40.288 -0.2927 -0.1508  0.1328
30269W        W36719   4.612   3.410  43.456  0.0167  0.1530 -0.0599
30270W        W36720   2.393   4.689  34.337  0.1796  0.1057 -0.3127
30271W        W36721  16.893   0.181  14.948 -0.0024  0.2362 -0.0714
30272W        W36722   3.763   5.457   6.703  0.1915  0.0984  0.0035
30273W        W36723  20.713   3.729  37.546  0.0560  0.1547  0.0152
30274W        W36724  15.124   4.659  21.441 -0.0285 -0.0298  0.0988
30275W        W36725  11.918   5.658  38.973  0.1252  0.0140 -0.1594
30276W        W36726   4.745   4.105  12.558  0.0752  0.1187 -0.2312
30277W        W36727  17.391   2.254   1.774 -0.1115 -0.0204 -0.0441
30278W        W36728   8.323   3.472   4.039  0.0693  0.0039  0.1134
30279W        W36729  12.237   6.436  11.134  0.0702 -0.2054  0.1445
30280W        W36730  16.072   2.381  34.920 -0.2506  0.2058 -0.1781
30281W        W36731   3.100   3.837  39.949 -0.0023  0.3070  0.2263
30282W        W36732   3.340   3.680   0.199  0.0227 -0.0107 -0.0044
30283W        W36733  17.415   2.184  30.511  0.3557 -0.2226  0.0247
30284W        W36734   3.848   5.667  22.976 -0.0198 -0.0116  0.0588
30285W        W36735  12.138   2.562  30.799  0.3205  0.0391 -0.0430
30286W        W36736   4.637   3.909  43.285 -0.0279  0.3730 -0.3609
30287W        W36737  13.943   0.451  32.318 -0.0500 -0.1751  0.0598
30288W        W36738  10.093   2.489   2.043 -0.0413  0.0534 -0.3136
30289W        W36739  20.581   0.108   2.430 -0.0523  0.1707 -0.0414
30290W        W36740  13.709   3.772  42.892  0.2107  0.2203  0.2682
30291W        W36741  11.077   0.061   9.484 -0.1994 -0.2473  0.0081
30292W        W36742   0.659   0.819  12.737  0.0370  0.0333 -0.2828
30293W        W36743  15.076   4.040  19.640 -0.1606  0.1594 -0.1719
30294W        W36744  20.818   5.657  43.535 -0.1768 -0.0637 -0.0101
30295W        W36745   7.459   1.887  15.876 -0.4050  0.4592 -0.4943
30296W        W36746   8.815   2.371  10.223  0.0174 -0.0478 -0.1193
30297W        W36747   8.804   2.284  29.562 -0.0134  0.0410 -0.0386
30298W        W36748  11.499   2.073  42.546 -0.1507 -0.1489 -0.3294
30299W        W36749   2.214   4.014  11.906 -0.0568 -0.1652  0.1145
30300W        W36750  16.248   6.287  44.943 -0.0603 -0.1302  0.1348
30301W        W36751   3.757   4.590   4.722 -0.1969  0.0139  0.1735
30302W        W36752  20.044   6.283  19.447 -0.0812  0.0570  0.2536
30303W        W36753   7.329   0.482   4.809 -0.0540  0.0472  0.0836
30304W        W36754   3.825   2.084  43.392 -0.0505 -0.1359  0.1509
30305W        W36755  14.072   3.875  31.157 -0.3632 -0.0176  0.2522
30306W        W36756  20.913   1.446   0.326  0.0695  0.1348 -0.0279
30307W        W36757   9.876   2.261  44.295 -0.1044 -0.0601  0.0014
30308W        W36758   3.567   4.937  15.659  0.1464 -0.1445 -0.1462
30309W        W36759  12.129   2.311  33.235 -0.1919  0.2191 -0.2085
30310W        W36760  13.694   3.000  20.981  0.1213 -0.1311 -0.0873
30311W        W36761  17.148   4.549   7.423  0.3327  0.0108  0.0869
30312W        W36762  12.652   2.029  18.002  0.1617 -0.3606  0.0905
30313W        W36763  15.919   5.998  33.286 -0.1173 -0.2053  0.1139
30314W        W36764  20.773   0.355  38.186 -0.3035 -0.0369  0.2128
30315W        W36765  17.763   6.074   8.267  0.1660  0.1317 -0.2297
30316W        W36766  17.722   6.471   8.509  0.1933  0.1021 -0.2236
30317W        W36767  18.500   5.594  17.859 -0.0975  0.1101  0.3612
30318W        W36768   5.570   4.294  32.667 -0.0539  0.0445  0.1355
30319W        W36769   8.338   0.805  23.625  0.2152  0.2333 -0.0599
30320W        W36770   1.916   6.488  31.464 -0.0489 -0.0931  0.3394
30321W        W36771  19.030   5.213  40.536 -0.1475 -0.1124  0.0920
30322W        W36772   3.364   6.404   5.096 -0.0909  0.0171  0.0431
30323W        W36773   6.330   0.337  25.162 -0.1876  0.0010 -0.2499
30324W        W36774   8.921   0.988   4.260  0.1118  0.1277  0.1582
30325W        W36775   3.055   2.272  38.241 -0.1715  0.3232 -0.1039
30326W        W36776   6.446   0.615  22.997 -0.0133 -0.1268 -0.0197
30327W        W36777   7.194   1.047  28.027  0.4695  0.1729  0.1524
30328W        W36778   0.267   1.308  39.502 -0.0755  0.0244  0.1449
30329W        W36779  18.607   4.946  31.725 -0.2622 -0.2221  0.0649
30330W        W36780  15.302   2.116  33.867 -0.0010 -0.2004  0.2803
30331W        W36781   6.271   0.237  30.650 -0.0204 -0.2154  0.0350
30332W        W36782  16.562   6.223  20.389  0.1678  0.0398 -0.1357
30333W        W36783   1.340   0.853  35.539 -0.3673  0.3558  0.0328
30334W        W36784   5.589   6.485  40.853  0.0600 -0.1882 -0.2326
30335W        W36785  18.757   0.793  39.420 -0.1449  0.1296  0.0277
30336W        W36786   0.540   2.411   8.370  0.1201 -0.0512  0.0047
30337W        W36787  18.969   4.735   2.887 -0.4148 -0.4002 -0.1239
30338W        W36788  15.364   3.049  16.916 -0.1405  0.0089  0.2318
30339W        W36789  11.424   4.032  28.550 -0.4557  0.0259  0.1370
30340W        W36790  12.324   5.730  40.296  0.0136  0.0317  0.0391
30341W        W36791   0.053   3.628   2.743 -0.0405  0.2741  0.0457
30342W        W36792  15.962   2.525  10.738  0.0118  0.1058  0.2640
30343W        W36793  10.197   1.131  41.422 -0.1207 -0.1485  0.1465
30344W        W36794  16.059   3.957  19.360  0.0355  0.0931  0.2472
30345W        W36795   8.786   3.747  36.238  0.0765  0.0723 -0.2882
30346W        W36796  14.299   3.157   5.193 -0.2758 -0.4396  0.0643
30347W        W36797  16.776   0.968  41.986  0.1411 -0.2645  0.0102
30348W        W36798  17.076   6.013   7.498 -0.2297  0.0107  0.0778
30349W        W36799  20.157   3.779   9.333  0.2326 -0.2656  0.2978
30350W        W36800  10.012   0.391  43.582  0.0752  0.0834  0.0566
30351W        W36801  17.932   6.504  13.388 -0.2422 -0.1274  0.2661
30352W        W36802   6.112   2.020  31.095  0.0787 -0.1670 -0.0477
30353W        W36803  17.156   2.562  25.178  0.3223 -0.2903  0.0058
30354W        W36804   0.017   3.096  11.574 -0.0910  0.1598 -0.0033
30355W        W36805  12.911   2.774   8.987 -0.2098  0.0409  0.0767
30356W        W36806   0.703   2.686  29.363  0.1000 -0.3869  0.1780
30357W        W36807   2.016   2.476  27.128  0.3725  0.2125 -0.2233
30358W        W36808   5.821   6.045  38.949 -0.1239 -0.2110 -0.2013
30359W        W36809   0.500   3.937  15.840 -0.2852 -0.1304 -0.0446
30360W        W36810  19.627   5.751  38.355  0.0110  0.4179 -0.1157
30361W        W36811   8.966   0.415   5.107  0.0533  0.2062  0.0702
30362W        W36812  18.011   5.246  13.914 -0.1721 -0.1008 -0.0297
30363W        W36813   4.677   0.009  33.715 -0.1386 -0.0250  0.0694
30364W        W36814  14.938   2.729   0.263 -0.3542 -0.3134  0.3169
30365W        W36815  14.313   1.733  20.630 -0.0661  0.2554 -0.1205
30366W        W36816   3.046   5.284  23.214  0.0030 -0.4180  0.3493
30367W        W36817  17.906   3.325  22.001 -0.2992  0.3204  0.2197
30368W        W36818   7.500   4.455  40.910 -0.0748 -0.0001  0.1250
30369W        W36819  10.994   6.591  13.042  0.1576  0.3273  0.1452
30370W        W36820  16.469   2.851  20.171 -0.0499  0.1681  0.2202
30371W        W36821  13.862   2.850  30.363 -0.1677  0.0153 -0.0176
30372W        W36822   6.107   5.247  30.532 -0.3397 -0.1882  0.4517
30373W        W36823  16.246   6.378  36.854  0.1791  0.0969 -0.2409
30374W        W36824  15.610   4.375  32.730 -0.1131 -0.0100 -0.1121
30375W        W36825  18.796   4.767   6.234 -0.2605 -0.1951 -0.4148
30376W        W36826   8.086   4.335  28.387  0.1367 -0.1987 -0.0543
30377W        W36827   4.941   0.546  44.164 -0.0398  0.2574  0.1354
30378W        W36828  15.660   0.804  41.016  0.0159 -0.0618  0.1597
30379W        W36829  20.434   3.837  10.731 -0.3313 -0.1217  0.1964
30380W        W36830  19.446   3.332   4.276 -0.0211  0.3154 -0.0037
30381W        W36831   6.883   0.852  15.975  0.1061  0.2139 -0.1673
30382W        W36832   8.404   1.866   1.126  0.2436  0.1073 -0.0553
30383W        W36833  11.147   5.701   1.881  0.1717  0.0642  0.1420
30384W        W36834  19.613   1.952  38.647 -0.3764 -0.3090 -0.1795
30385W        W36835  16.112   0.883  40.814 -0.1725 -0.0629 -0.0291
30386W        W36836   0.347   5.028   8.072 -0.0432 -0.0849 -0.2065
30387W        W36837  10.209   1.826   8.041  0.0278  0.0423 -0.0417
30388W        W36838  11.570   4.361  17.898  0.1018 -0.3102  0.0636
30389W        W36839   8.468   0.364  39.592  0.1396  0.2885 -0.1473
30390W        W36840   8.454   2.836   9.004 -0.1374  0.0724 -0.2991
30391W        W36841  12.152   6.473   3.542 -0.2354 -0.0142  0.0405
30392W        W36842   3.455   4.920   3.239  0.1717  0.0991  0.2415
30393W        W36843  15.451   2.183  29.452 -0.1191  0.0374 -0.1756
30394W        W36844  16.057   5.598  24.685 -0.0133  0.0183  0.0863
30395W        W36845   3.902   1.939  38.875  0.1955  0.0298 -0.1696
30396W        W36846   9.169   2.277  31.631 -0.1610  0.1385  0.1760
30397W        W36847  18.381   1.353  37.151 -0.0775 -0.1448 -0.1607
30398W        W36848  12.086   5.504  31.952  0.1258 -0.2104  0.1538
30399W        W36849   3.520   2.906  34.691 -0.0801 -0.0754  0.1989
30400W        W36850   4.760   4.599  16.199 -0.0879  0.1065 -0.2070
30401W        W36851  17.971   5.276  20.171  0.1478  0.1879  0.1996
30402W        W36852   8.843   4.279  31.974 -0.2456  0.2694  0.1101
30403W        W36853   9.312   4.186  29.251 -0.0922  0.0274 -0.2063
30404W        W36854   9.469   5.446  36.224 -0.2241 -0.1026  0.0806
30405W        W36855  16.741   4.196  16.458 -0.0553  0.0226  0.1095
30406W        W36856   4.758   1.558   6.960 -0.2374 -0.0726  0.0713
30407W        W36857   8.708   5.216   1.607  0.0308  0.1544  0.1223
30408W        W36858   9.396   4.693  38.676 -0.0220  0.2956  0.1841
30409W        W36859  12.260   1.848  18.313  0.0039  0.1773 -0.0640
30410W        W36860   6.448   0.643  39.617 -0.1209 -0.2112  0.2786
30411W        W36861  18.661   4.924   1.547 -0.2651  0.0892  0.0816
30412W        W36862   7.664   6.224   5.774 -0.0034 -0.1103 -0.1909
30413W        W36863  14.271   1.010  14.759  0.4987 -0.2789 -0.0756
30414W        W36864  14.364   3.325  14.742  0.0658 -0.0913  0.0896
30415W        W36865  10.288   5.055   8.937 -0.1118 -0.0248  0.0465
30416W        W36866   1.904   4.840  30.945  0.2794 -0.0431  0.0893
30417W        W36867  15.399   0.172  35.286  0.4478 -0.2021  0.1410
30418W        W36868   4.007   5.975   8.759 -0.2098 -0.1038 -0.1036
30419W        W36869  17.826   0.064   2.392  0.0301  0.1860 -0.0946
30420W        W36870  13.378   4.760  31.205  0.1493 -0.0509  0.1766
30421W        W36871   7.767   4.633  36.329  0.1000 -0.1153  0.4330
30422W        W36872   7.284   2.082  31.685  0.0429  0.0344  0.1872
30423W        W36873  18.493   4.219   3.377  0.1899  0.0613 -0.0422
30424W        W36874  11.542   1.727  17.670 -0.0271 -0.1217  0.0222
30425W        W36875  11.802   5.065   3.260  0.1598 -0.2813  0.3669
30426W        W36876  10.487   1.527   3.533 -0.2253  0.0420 -0.2007
30427W        W36877   6.027   2.496  24.084 -0.1383 -0.3757 -0.0536
30428W        W36878   7.252   1.070  12.941  0.1220  0.0459  0.0097
30429W        W36879  17.449   5.161  45.068  0.0898  0.1026  0.0069
30430W        W36880   6.804   0.497   3.703 -0.1983  0.3514 -0.0050
30431W        W36881   0.758   0.713   9.721  0.1268 -0.0469 -0.3373
30432W        W36882   7.120   0.643  26.519 -0.1058  0.1228  0.0626
30433W        W36883  13.567   4.405  43.756  0.0688 -0.2272  0.1717
30434W        W36884   7.812   4.176   3.783  0.1448  0.1415  0.0100
30435W        W36885  11.810   0.227  12.210 -0.1730  0.0542  0.1764
30436W        W36886  21.035   3.113   3.960 -0.0688  0.0083 -0.2661
30437W        W36887   0.988   3.733   9.061 -0.1158 -0.1004  0.0237
30438W        W36888   6.459   1.185  26.277 -0.1164 -0.0663  0.1497
30439W        W36889  15.290   5.414  22.716  0.1498  0.0917  0.0844
30440W        W36890   4.945   3.479  15.473  0.3617  0.0863  0.0568
30441W        W36891  13.108   1.996  16.069 -0.1284  0.3394  0.1514
30442W        W36892  18.116   5.518  40.460  0.2080  0.1300 -0.0797
30443W        W36893   7.898   2.769  22.590 -0.1512 -0.2593 -0.3065
30444W        W36894   4.337   3.215  45.125  0.0870  0.0190 -0.1904
30445W        W36895  18.032   6.351  21.413 -0.2248  0.0993 -0.1651
30446W        W36896  11.138   6.556  13.643 -0.2443 -0.2307 -0.0380
30447W        W36897  10.861   0.858   2.855  0.1563 -0.1487  0.1113
30448W        W36898   9.584   4.748  13.975 -0.1095  0.1260  0.1067
30449W        W36899  20.181   0.015   2.813 -0.1975  0.0388 -0.0810
30450W        W36900  13.490   3.612  18.352 -0.1212  0.3798  0.0438
30451W        W36901  18.207   5.321   8.861  0.0197 -0.1233 -0.3263
30452W        W36902   5.919   1.757  24.478 -0.2500  0.4613  0.0411
30453W        W36903  17.222   5.015  31.784  0.2968  0.0334 -0.2655
30454W        W36904  14.243   4.950  18.906  0.0244 -0.0001  0.0907
30455W        W36905   8.948   1.196  42.782  0.1904 -0.0474  0.3346
30456W        W36906  15.637   3.448  14.227 -0.1071  0.0663 -0.2479
30457W        W36907   9.153   0.787  13.869 -0.0887 -0.0204  0.1262
30458W        W36908   2.207   2.669   7.595  0.0446  0.0281  0.0523
30459W        W36909   6.732   5.255   9.423 -0.1463  0.3352  0.3073
30460W        W36910   6.332   0.865  40.338 -0.3826 -0.2624 -0.0637
30461W        W36911   0.730   5.910  44.578  0.0026  0.1615  0.0756
30462W        W36912   6.159   6.204  19.888 -0.1912  0.0862  0.0120
30463W        W36913  12.032   6.313  41.358  0.1876  0.0260  0.3664
30464W        W36914   7.426   3.528   2.038 -0.2072 -0.0448  0.2997
30465W        W36915  17.465   4.902  14.543 -0.0261 -0.1884  0.0284
30466W        W36916   9.974   6.209  38.357 -0.2177 -0.0052 -0.0617
30467W        W36917  20.315   3.810  31.991 -0.1539 -0.0179  0.5032
30468W        W36918  17.114   5.571   9.261 -0.4566 -0.0347  0.2176
30469W        W36919  11.400   2.307  32.125  0.0903 -0.0631 -0.1305
30470W        W36920  18.514   2.898   9.814 -0.0594 -0.1834  0.4521
30471W        W36921   2.813   3.057  15.048 -0.2868  0.0432 -0.1289
30472W        W36922  16.944   4.695  17.455  0.3231  0.0556 -0.3105
30473W        W36923  17.083   1.476  38.253  0.2119 -0.1954  0.3459
30474W        W36924  17.062   2.191  30.896  0.1576  0.1139 -0.2551
30475W        W36925   1.452   1.175  12.167  0.3449 -0.1886 -0.1147
30476W        W36926  20.048   3.032  37.937  0.1756  0.0114  0.2031
30477W        W36927  16.240   3.977  10.436  0.0547  0.1593  0.2920
30478W        W36928  20.678   2.929  14.777  0.1059  0.0152 -0.0787
30479W        W36929  10.764   2.424   3.131 -0.0022 -0.1571 -0.1685
30480W        W36930  16.393   3.982  31.905  0.0186  0.0107  0.0099
30481W        W36931   7.677   0.518  32.005 -0.0140 -0.1033 -0.1245
30482W        W36932  18.280   6.491  40.873 -0.1016  0.0728 -0.0741
30483W        W36933   2.826   3.355   1.780 -0.0957 -0.0982 -0.0978
30484W        W36934   9.916   5.384  11.181  0.1769 -0.1672  0.2349
30485W        W36935   5.106   2.371  12.429 -0.0169  0.0181 -0.1266
30486W        W36936  20.882   1.519  40.400 -0.2985  0.0118 -0.0152
30487W        W36937   2.055   0.853  30.876 -0.2263  0.1229  0.1568
30488W        W36938  16.733   2.910  40.740 -0.4832 -0.1714  0.2834
30489W        W36939   9.035   5.786   4.361  0.1972  0.1285 -0.0438
30490W        W36940  15.577   5.255  19.075  0.1147  0.0526 -0.0787
30491W        W36941   4.689   2.684  13.599 -0.0973  0.0017 -0.1745
30492W        W36942   4.897   6.285  13.015  0.2908  0.2657 -0.3401
30493W        W36943  19.633   0.313   8.681 -0.0360  0.1227 -0.1531
30494W        W36944  14.916   3.466  38.302 -0.3017  0.1850 -0.2613
30495W        W36945   0.192   4.065  40.110 -0.0354 -0.2788  0.1113
30496W        W36946   0.315   2.366  35.769  0.5224  0.0984  0.1809
30497W        W36947   7.994   2.924  29.321  0.0150  0.0933 -0.0678
30498W        W36948  17.433   5.826  36.199 -0.1559  0.0874  0.1932
30499W        W36949  19.744   2.965  28.857  0.2186 -0.0883  0.1666
30500W        W36950  12.477   5.770  27.391 -0.0587  0.0016 -0.4067
30501W        W36951  19.410   1.577  31.670 -0.3539  0.1718  0.1817
30502W        W36952   6.176   3.040   0.063 -0.6242 -0.2278 -0.2150
30503W        W36953  12.768   6.256  32.441  0.1419  0.1815  0.0815
30504W        W36954   8.251   3.146  40.865 -0.1793 -0.1455 -0.1744
30505W        W36955  15.708   5.905  11.856  0.3772 -0.1549  0.2274
30506W        W36956   8.498   1.025  23.167 -0.0474 -0.1912  0.2835
30507W        W36957  17.198   6.132   8.301  0.1607 -0.1092  0.0783
30508W        W36958   5.558   0.590  22.462 -0.0347 -0.1781 -0.0277
30509W        W36959   6.604   3.318  20.914 -0.0630  0.1964  0.0277
30510W        W36960  13.445   5.297  40.847 -0.1147 -0.0429  0.0055
30511W        W36961   3.343   3.652  32.504  0.2828 -0.3462  0.0884
30512W        W36962  15.317   5.388   1.485  0.0887 -0.0741 -0.0754
30513W        W36963   5.489   2.567  21.743  0.0027  0.0610  0.2916
30514W        W36964   2.624   4.169   8.674 -0.0106  0.1035 -0.1693
30515W        W36965  19.010   2.275  42.369 -0.2110 -0.0618 -0.2243
30516W        W36966   0.886   3.544   9.977 -0.2239 -0.3328  0.1357
30517W        W36967  18.806   6.247  42.385  0.2381  0.0649 -0.1057
30518W        W36968  20.325   6.546  10.076 -0.0242  0.0871  0.0423
30519W        W36969   9.180   4.080  32.352  0.1598  0.1887 -0.2281
30520W        W36970   2.625   3.470   2.877 -0.2187  0.0414  0.1300
30521W        W36971   7.620   3.553  23.853 -0.0157  0.0351  0.1410
30522W        W36972   8.137   6.319   6.446 -0.1205 -0.2994  0.0430
30523W        W36973   1.150   3.551  27.037 -0.4722  0.3208 -0.0630
30524W        W36974   4.989   2.755  36.337  0.2624 -0.2492  0.1621
30525W        W36975   3.171   4.104  34.270  0.4105 -0.1522 -0.0866
30526W        W36976   4.421   1.144  36.104 -0.0670  0.2065 -0.1660
30527W        W36977  10.746   4.967  44.636  0.0860 -0.2313  0.1299
30528W        W36978  14.564   2.392  15.409  0.2672  0.0267 -0.1856
30529W        W36979  15.586   5.752  19.107 -0.1839 -0.1794 -0.0632
30530W        W36980  16.009   4.478  24.612  0.1504 -0.1572 -0.1397
30531W        W36981  17.683   3.618  36.541  0.3228 -0.2185 -0.2385
30532W        W36982  17.666   5.875  34.839  0.0797 -0.3069 -0.0440
30533W        W36983  15.263   1.461  35.475  0.1830  0.1816 -0.0305
30534W        W36984  21.027   6.266  10.492 -0.2367 -0.0272  0.3697
30535W        W36985  18.237   5.336  14.798 -0.0381  0.2346 -0.0209
30536W        W36986   7.933   0.049   5.961  0.1095 -0.0008  0.2647
30537W        W36987   5.566   5.883   2.436 -0.1622 -0.1158  0.1025
30538W        W36988   8.186   2.602  31.054 -0.1948 -0.1943 -0.2137
30539W        W36989  13.860   3.033  43.152  0.1582  0.0294 -0.1493
30540W        W36990  11.869   5.061   6.690  0.3892 -0.4285 -0.1416
30541W        W36991   6.931   1.719   5.846  0.0496  0.3153  0.0067
30542W        W36992   4.410   4.832  23.908 -0.0698  0.1171  0.1452
30543W        W36993   3.079   5.819   5.621  0.1103 -0.0557  0.0139
30544W        W36994  19.965   3.996  12.440  0.0222 -0.3134 -0.0714
30545W        W36995   9.726   2.882  37.097  0.0357 -0.1855  0.2092
30546W        W36996   9.096   5.121  36.409  0.3229  0.1177  0.0977
30547W        W36997   5.976   1.848   7.464  0.2215  0.1714 -0.1153
30548W        W36998   2.854   6.084   5.218  0.0140 -0.0242  0.3885
30549W        W36999  18.980   2.543  16.904 -0.3072 -0.0940  0.2856
30550W        W37000  16.461   3.510   0.444  0.0514  0.0304 -0.0971
30551W        W37001   4.078   6.331  24.066  0.1345  0.0861 -0.1594
30552W        W37002  15.537   0.042   4.863  0.2278 -0.1800  0.2035
30553W        W37003  17.190   0.428  11.473  0.1068  0.2192 -0.2513
30554W        W37004   6.786   5.631  24.942 -0.1345 -0.1376 -0.1740
30555W        W37005   9.464   4.077  31.920  0.1913 -0.2043  0.1493
30556W        W37006   9.490   5.029  31.847 -0.1836  0.2282 -0.0504
30557W        W37007  16.397   4.893  39.715  0.1092  0.0861 -0.1544
30558W        W37008   8.147   1.190  27.357 -0.1019  0.0593 -0.0955
30559W        W37009  17.020   5.016   4.767  0.0217  0.2145 -0.1310
30560W        W37010   8.596   0.922  39.217  0.0535  0.1037  0.1193
30561W        W37011   6.924   1.744  44.803 -0.3385 -0.2149 -0.1431
30562W        W37012   2.341   2.480  38.713  0.2000  0.3864  0.1293
30563W        W37013  17.930   3.253  11.962 -0.1357 -0.1641  0.0503
30564W        W37014   2.173   4.579  44.271  0.2108  0.0879  0.1603
30565W        W37015  15.094   3.983  16.880  0.2797 -0.0424  0.2798
30566W        W37016  14.215   5.862  40.424  0.1170  0.0663  0.2307
30567W        W37017  19.949   4.694   4.800  0.1415  0.1470  0.1326
30568W        W37018  18.025   6.547   5.830 -0.1258 -0.0829  0.0682
30569W        W37019  14.935   3.118  29.496  0.2344 -0.1203  0.1530
30570W        W37020   9.670   2.373  32.734 -0.2921  0.1305  0.1748
30571W        W37021  19.398   5.459  42.643 -0.0342 -0.2090  0.2673
30572W        W37022   8.523   1.393  40.839  0.0401 -0.0186  0.0203
30573W        W37023  17.893   3.955  18.588 -0.0285  0.0139  0.2086
30574W        W37024  21.020   0.897  18.533  0.1267  0.0583  0.0272
30575W        W37025  13.393   0.464  30.256  0.4992  0.2239 -0.0077
30576W        W37026   0.152   6.025  29.158 -0.1305 -0.0617  0.0758
30577W        W37027   2.975   3.005   4.106 -0.1840  0.1367  0.2523
30578W        W37028   7.504   2.926  33.933  0.0213  0.3606  0.1524
30579W        W37029   5.533   2.486  12.656  0.2990  0.1169  0.1422
30580W        W37030   4.228   3.074  15.224  0.1673 -0.0176 -0.1236
30581W        W37031  20.034   5.928  38.077  0.1193 -0.1087  0.0083
30582W        W37032   5.390   2.552  28.415  0.0915 -0.0150  0.1138
30583W        W37033  12.361   0.317   3.734  0.0894  0.1041 -0.0216
30584W        W37034   2.102   0.275  15.008  0.1342 -0.3084 -0.1054
30585W        W37035  17.315   1.955  38.460  0.0479  0.0017  0.3156
30586W        W37036  16.596   4.017  12.266 -0.1755  0.2064 -0.2658
30587W        W37037  18.266   4.964  30.857 -0.1972 -0.1095 -0.0594
30588W        W37038  10.861   5.522  40.470  0.1031 -0.0009 -0.0527
30589W        W37039   5.139   0.309   7.970  0.0991 -0.2463  0.0287
30590W        W37040  12.601   0.806  36.212 -0.0011 -0.3900 -0.3347
30591W        W37041  17.727   5.964  20.571  0.1115  0.0689  0.2775
30592W        W37042   0.617   5.580  11.571  0.0571  0.0395  0.3284
30593W        W37043  15.386   6.021  24.104  0.0906 -0.2377 -0.0966
30594W        W37044  15.597   2.191  16.481 -0.0653  0.1204 -0.0228
30595W        W37045   0.511   6.380  44.613  0.2749  0.2783 -0.1322
30596W        W37046   5.597   4.624  10.943 -0.0889  0.0459  0.1597
30597W        W37047  19.691   5.626   1.804  0.0496  0.1045 -0.1361
30598W        W37048   6.272   3.121  26.689 -0.2555 -0.2221 -0.0840
30599W        W37049   9.920   0.520  10.532  0.1150 -0.1127  0.1154
30600W        W37050  10.275   3.155  40.246  0.1443 -0.0030 -0.0359
30601W        W37051  15.480   5.743  24.454 -0.2137  0.0534 -0.3429
30602W        W37052   5.739   2.886  24.240  0.0250 -0.0949  0.2204
30603W        W37053   0.823   5.821  40.995  0.0701 -0.0761  0.3402
30604W        W37054  19.825   5.966   1.425  0.0832 -0.1797  0.0840
30605W        W37055  10.907   0.470   3.568 -0.1799 -0.1452 -0.2535
30606W        W37056  15.912   0.594   6.015  0.0779  0.0391  0.1323
30607W        W37057  17.232   4.512  42.253  0.0309  0.1255 -0.1667
30608W        W37058  13.343   2.311  40.692  0.0273  0.0804  0.3079
30609W        W37059  20.397   1.952  41.162  0.1271 -0.0791  0.1655
30610W        W37060   8.913   0.528  12.903  0.2532 -0.2998 -0.2959
30611W        W37061  13.901   3.881  15.006  0.1918  0.0072  0.0406
30612W        W37062   9.491   3.747  41.960 -0.1131 -0.0271  0.0833
30613W        W37063   5.079   3.606  27.804 -0.1444 -0.1541 -0.3197
30614W        W37064   5.285   5.966  16.394 -0.2241 -0.4186 -0.4634
30615W        W37065  14.917   0.797  10.108  0.2903 -0.1973 -0.2202
30616W        W37066   1.587   2.140  16.897 -0.1496  0.0787 -0.0658
30617W        W37067   1.573   5.141   6.089 -0.1322 -0.0122 -0.1156
30618W        W37068   9.531   0.197  30.502  0.0013  0.2758 -0.0594
30619W        W37069  14.901   0.978   7.496  0.1608 -0.0156 -0.3265
30620W        W37070   2.367   4.998  40.765 -0.0005 -0.0566 -0.4408
30621W        W37071  17.152   3.966  33.914  0.0989  0.0652  0.0543
30622W        W37072   3.824   2.890  13.596  0.0167 -0.1155  0.0318
30623W        W37073   1.286   6.335  39.770 -0.1922 -0.3595 -0.1320
30624W        W37074   5.964   3.281   4.748 -0.0838  0.1278 -0.1018
30625W        W37075  15.619   4.565  36.918  0.1033 -0.0163  0.2298
30626W        W37076  12.491   5.746  30.757  0.1435 -0.1507  0.1771
30627W        W37077   4.802   1.345  35.551 -0.0973  0.3567  0.1086
30628W        W37078  12.768   1.067  40.843  0.0494  0.0721  0.0599
30629W        W37079  14.354   5.026  13.594  0.2354 -0.1728 -0.1421
30630W        W37080   7.769   6.102  27.274 -0.0977 -0.4175 -0.3288
30631W        W37081   9.118   1.443  44.892  0.1480  0.1738 -0.0811
30632W        W37082   6.109   0.611  40.688  0.0478  0.0973 -0.1291
30633W        W37083   7.876   4.369   9.915  0.0563 -0.0163  0.0154
30634W        W37084  19.567   0.257  35.049 -0.3686 -0.1965  0.2252
30635W        W37085  13.882   1.004  20.749  0.1883 -0.0181 -0.1524
30636W        W37086   2.573   1.896   6.157  0.0842 -0.3862  0.0935
30637W        W37087  10.417   5.965  38.589 -0.0738  0.0785 -0.2445
30638W        W37088  13.286   4.857   5.825 -0.0063  0.1609  0.3213
30639W        W37089  13.292   0.101  34.705  0.1921  0.2145 -0.0469
30640W        W37090  19.086   2.472   8.339  0.1276 -0.3376  0.1599
30641W        W37091   2.860   4.505  35.867  0.0269 -0.1781  0.2159
30642W        W37092   6.370   3.648  36.945 -0.0306  0.1689  0.0620
30643W        W37093   7.647   0.045  32.259  0.0338  0.3225  0.3066
30644W        W37094   2.572   0.035  30.150  0.0303  0.1663 -0.1342
30645W        W37095  16.451   1.372  38.959  0.0098  0.1349  0.0059
30646W        W37096   1.910   6.544   2.828  0.0156 -0.0384  0.0685
30647W        W37097   4.535   5.719  24.207  0.1279  0.0319  0.0252
30648W        W37098   9.607   1.913  11.463 -0.0791  0.0140 -0.1697
30649W        W37099   6.701   4.630  38.467  0.3305  0.3627 -0.0729
30650W        W37100   0.168   3.670  18.313  0.0490 -0.1252  0.2763
30651W        W37101  10.150   0.068  38.416  0.1324 -0.0069  0.0262
30652W        W37102  16.322   0.864  10.382 -0.3069 -0.0526 -0.1679
30653W        W37103   6.616   3.337  37.388 -0.0797 -0.0832  0.1096
30654W        W37104   4.690   4.263  14.358 -0.1680 -0.0499  0.1007
30655W        W37105  19.828   1.978  13.822 -0.1970  0.2476  0.0987
30656W        W37106  18.147   1.728  13.454 -0.0508  0.0552 -0.0529
30657W        W37107  12.956   5.953  36.350  0.0471 -0.1224  0.0795
30658W        W37108  19.539   5.400  15.388  0.2691  0.0724  0.2685
30659W        W37109  14.797   5.220   7.890 -0.0404 -0.2553 -0.1469
30660W        W37110   2.376   5.636  41.490  0.3617  0.1227  0.2832
30661W        W37111   9.593   1.091  34.012 -0.0108  0.4295 -0.1723
30662W        W37112   5.400   4.360  38.128  0.0565  0.0358  0.0419
30663W        W37113   4.565   1.694  35.857  0.0106 -0.0699 -0.0923
30664W        W37114  20.727   0.425  16.691  0.1622  0.1122  0.2370
30665W        W37115  20.997   4.145   2.281  0.0027 -0.1095 -0.1629
30666W        W37116  10.780   5.631  28.408 -0.0405  0.1337  0.0845
30667W        W37117   5.464   0.829  34.740 -0.1016  0.1601 -0.2689
30668W        W37118  16.094   0.888  22.187 -0.1006 -0.0737  0.3548
30669W        W37119   9.876   0.857   3.065  0.0117  0.1424  0.1562
30670W        W37120   6.149   2.495  32.384 -0.0900 -0.0206  0.1310
30671W        W37121  19.748   0.763  44.389 -0.2141  0.0035 -0.3533
30672W        W37122  20.145   6.204  16.880 -0.2700 -0.1281  0.2411
30673W        W37123  17.612   0.830  17.095 -0.0257  0.0886  0.0184
30674W        W37124  17.421   3.779   9.913 -0.1044  0.1500  0.0317
30675W        W37125   1.574   5.236   4.518 -0.2942 -0.0151 -0.0330
30676W        W37126   7.840   3.109  11.550 -0.0839  0.3156  0.0117
30677W        W37127  10.028   3.063   2.512  0.1592  0.0204 -0.0885
30678W        W37128  20.484   1.350  12.243  0.3249  0.0678 -0.1189
30679W        W37129  18.815   0.414   7.555  0.1007  0.0588  0.1162
30680W        W37130   6.737   3.382  39.180 -0.1256  0.0418 -0.4687
30681W        W37131  10.702   2.375  42.377  0.1796  0.0293 -0.0740
30682W        W37132  15.793   0.834   4.666 -0.1379  0.1666 -0.1400
30683W        W37133   4.157   1.304   1.834  0.0150 -0.2071  0.0621
30684W        W37134  11.928   1.192  14.612  0.2757  0.1733 -0.1082
30685W        W37135   7.553   6.064   9.185  0.4923  0.3337  0.2918
30686W        W37136   8.434   2.296  14.805 -0.1727 -0.0827  0.0910
30687W        W37137   1.192   4.177  36.566  0.2541 -0.2479 -0.1272
30688W        W37138   6.123   3.399  22.191 -0.0571 -0.1798 -0.0063
30689W        W37139   4.886   0.574   7.520  0.0554 -0.0390  0.1764
30690W        W37140   7.442   5.692  22.258  0.0670  0.0558  0.1162
30691W        W37141   8.875   1.854  37.714  0.0532 -0.0540  0.1679
30692W        W37142   0.723   1.390  32.367 -0.2250  0.0936  0.1433
30693W        W37143  13.836   3.108  40.876 -0.4288  0.2352  0.1817
30694W        W37144   2.558   2.467   1.161  0.2436  0.0921 -0.2985
30695W        W37145   2.922   2.907  29.775  0.1141  0.1751 -0.0147
30696W        W37146  17.780   0.725  21.445 -0.0016 -0.0945  0.1172
30697W        W37147   5.264   5.329  40.606  0.1377  0.2022  0.1061
30698W        W37148  12.033   4.199  31.715 -0.0746  0.1584  0.1732
30699W        W37149   2.149   4.592  42.917 -0.0236 -0.0014  0.0530
30700W        W37150  18.547   1.027  11.382 -0.1373 -0.1995  0.0027
30701W        W37151  10.124   3.574  26.600 -0.0190  0.0739  0.1322
30702W        W37152  21.097   3.955   7.553 -0.2933 -0.1032  0.3448
30703W        W37153   8.153   4.239  34.711 -0.1023 -0.1701 -0.2023
30704W        W37154  13.808   1.963   9.598  0.0442  0.2686 -0.2254
30705W        W37155   6.500   3.693   7.671 -0.0001  0.0677  0.1635
30706W        W37156  12.859   4.144  32.910 -0.0206  0.0182  0.3256
30707W        W37157  11.537   1.692  37.063 -0.2237 -0.0077  0.0438
30708W        W37158  18.439   2.328  20.400 -0.2767  0.0293 -0.0934
30709W        W37159  15.807   0.113   1.230  0.1404  0.0130  0.2328
30710W        W37160  13.577   2.709   4.411  0.2736  0.2638 -0.2266
30711W        W37161   2.216   6.582   7.378  0.0387 -0.1748 -0.2718
30712W        W37162  15.542   3.396   8.602  0.2063 -0.2226 -0.1159
30713W        W37163  20.880   4.313  12.155  0.1790  0.1156  0.2597
30714W        W37164   4.812   3.475  28.182 -0.0676 -0.2332  0.0373
30715W        W37165  17.032   1.929  21.662  0.1791 -0.0753 -0.2565
30716W        W37166  14.592   2.452  43.736 -0.1642  0.2449 -0.2705
30717W        W37167  13.699   4.273  41.652  0.0008 -0.1563  0.0128
30718W        W37168  11.182   5.805  16.238  0.1364 -0.0945  0.2328
30719W        W37169  10.242   6.474  42.949 -0.2608 -0.1294 -0.0841
30720W        W37170   4.592   4.185  21.469  0.0629  0.0943  0.1135
30721W        W37171  11.660   4.786  11.163  0.0432  0.4266  0.1025
30722W        W37172   6.089   2.908  16.542  0.1365  0.0045  0.0483
30723W        W37173  11.317   1.304  27.181 -0.0439  0.0633 -0.0413
30724W        W37174  18.320   4.573   8.448 -0.0831 -0.0517  0.3529
30725W        W37175   7.931   0.603  15.227 -0.0556  0.0060 -0.1333
30726W        W37176  11.430   2.954  34.621 -0.1597  0.1060  0.1897
30727W        W37177  11.487   6.029  31.907 -0.2098 -0.0649  0.2591
30728W        W37178  16.173   2.769  17.396 -0.1400  0.3183 -0.5518
30729W        W37179  16.939   5.720  15.793  0.1818 -0.3068 -0.0300
30730W        W37180  16.039   0.735   4.185  0.1282 -0.1834 -0.1292
30731W        W37181   3.000   0.089  27.032  0.0741  0.3247  0.2410
30732W        W37182   4.742   3.192   6.144  0.0039  0.0936  0.0504
30733W        W37183  13.816   0.279  35.335  0.1106 -0.0550 -0.0791
30734W        W37184  15.567   1.378   7.672  0.1708 -0.3038  0.0819
30735W        W37185   3.446   1.310  37.889  0.1489 -0.0301  0.1659
30736W        W37186   4.371   4.470  32.099  0.4089  0.0359  0.0209
30737W        W37187   0.004   3.873  28.387 -0.0357 -0.4388 -0.1837
30738W        W37188   9.059   2.066  41.876  0.2253  0.2263  0.4179
30739W        W37189   1.329   5.750  10.730  0.2155 -0.1352 -0.0475
30740W        W37190   0.030   2.401  13.412 -0.0037  0.0032 -0.1115
30741W        W37191   8.568   2.045  24.801 -0.0648  0.0081 -0.0500
30742W        W37192  17.866   2.391  33.118 -0.1574 -0.0449  0.0174
30743W        W37193   8.572   4.126   5.041  0.0816  0.0736  0.1050
30744W        W37194  19.523   3.167   2.123  0.0746  0.0292  0.0524
30745W        W37195  19.085   6.175  15.843 -0.2447 -0.3726  0.4005
30746W        W37196  10.009   0.410  15.547 -0.2175 -0.2301 -0.0121
30747W        W37197   3.895   0.766   9.032 -0.3029 -0.2679  0.0654
30748W        W37198  12.582   1.007   8.717 -0.0880  0.0205  0.2021
30749W        W37199  15.668   1.038  42.454 -0.0486 -0.1107 -0.0778
30750W        W37200  10.626   1.379   1.644  0.0705 -0.1019  0.0956
30751W        W37201   5.748   1.118   3.951 -0.3283 -0.0134  0.1970
30752W        W37202   7.820   4.618  35.288  0.0536 -0.0356 -0.1694
30753W        W37203   5.071   1.491  29.175  0.0045 -0.1136 -0.0855
30754W        W37204   5.900   6.287   2.843  0.0238 -0.1850 -0.5398
30755W        W37205  17.827   1.378   1.510 -0.4855 -0.3289  0.1932
30756W        W37206   5.041   2.205   2.371  0.1425 -0.0536 -0.1327
30757W        W37207   2.813   1.464  23.899  0.0621 -0.0999 -0.1001
30758W        W37208   1.745   0.417   5.466 -0.2468  0.1028 -0.1277
30759W        W37209   9.259   6.543  33.727  0.2504  0.1936  0.3101
30760W        W37210  14.429   1.764   5.214 -0.1737 -0.1877  0.0620
30761W        W37211   5.852   3.770  36.040 -0.0342 -0.1531  0.0893
30762W        W37212  20.824   0.934   7.611  0.0075 -0.1725  0.0779
30763W        W37213  17.203   1.358  39.645  0.2317  0.2635  0.0738
30764W        W37214  14.109   1.953  28.607 -0.0215 -0.0473  0.1076
30765W        W37215  12.907   3.211  20.382  0.0297 -0.2660  0.0399
30766W        W37216   7.856   0.193  45.076  0.0783  0.1729  0.2626
30767W        W37217  17.469   4.361   6.899 -0.4303 -0.1071 -0.1086
30768W        W37218  11.815   2.123  11.464  0.0066 -0.2614  0.1132
30769W        W37219   0.442   2.028  17.480 -0.0491 -0.0255 -0.1649
30770W        W37220  13.567   1.444   4.739 -0.1992  0.1995 -0.0339
30771W        W37221  14.416   6.200  38.609  0.0153 -0.3906 -0.0670
30772W        W37222   4.989   2.562   1.929 -0.3283  0.2753  0.2298
30773W        W37223   8.300   1.971  44.849  0.0880 -0.2006 -0.2714
30774W        W37224   3.528   5.944   9.211  0.5593  0.1253 -0.0833
30775W        W37225   9.553   3.197  30.656  0.0021 -0.0670  0.4117
30776W        W37226   5.434   0.193  39.891 -0.1988  0.0346  0.1560
30777W        W37227   6.181   5.100  15.851  0.3245 -0.1080  0.0233
30778W        W37228   4.838   0.146  36.443 -0.1030 -0.3487  0.2464
30779W        W37229  15.892   1.101  18.905 -0.3004  0.3323 -0.0473
30780W        W37230   7.398   0.713  38.047  0.0373 -0.2125  0.1094
30781W        W37231  13.371   6.000  42.153 -0.0237  0.0160  0.0174
30782W        W37232   1.743   0.631  29.487  0.1621 -0.0216 -0.0067
30783W        W37233  12.025   5.877  41.748 -0.1386  0.0220  0.0064
30784W        W37234  19.485   5.489   3.291  0.0385 -0.2643 -0.0579
30785W        W37235   2.387   0.647   4.162 -0.2359  0.0741  0.0404
30786W        W37236  13.445   3.200   2.232  0.1007  0.4461 -0.1075
30787W        W37237  11.092   1.692  41.121  0.0503 -0.1557 -0.2931
30788W        W37238  17.353   6.174  31.862 -0.1569  0.0465 -0.0125
30789W        W37239  14.857   2.362  20.892 -0.0176  0.0367 -0.1643
30790W        W37240  10.491   3.375  14.904  0.1316  0.3354  0.0459
30791W        W37241   1.407   1.781  13.159  0.1154  0.0124  0.2629
30792W        W37242  13.848   1.783  44.717 -0.0881  0.2988 -0.0117
30793W        W37243  12.082   4.428   3.014  0.1052  0.2407 -0.1097
30794W        W37244   4.137   1.157  28.433  0.1444  0.0597  0.3595
30795W        W37245  19.805   5.582  30.144  0.1818  0.2147 -0.0444
30796W        W37246   1.155   5.812  37.650 -0.0819  0.1584  0.1310
30797W        W37247   0.303   6.156  36.039  0.0831 -0.4228 -0.1512
30798W        W37248   3.951   4.568  23.641  0.1166  0.1874  0.0605
30799W        W37249  13.325   3.885   1.893 -0.1060 -0.1484  0.1012
30800W        W37250  10.718   2.820  13.124  0.1105 -0.1275  0.2486
30801W        W37251  18.983   1.137  12.278  0.0329  0.0545 -0.0544
30802W        W37252  15.152   2.460   6.012 -0.0210 -0.3212 -0.1274
30803W        W37253  20.057   1.445  17.827 -0.5204 -0.1470  0.3254
30804W        W37254  14.697   1.529  37.391  0.1298 -0.2164  0.1735
30805W        W37255   9.974   1.168  28.761 -0.1205 -0.4342 -0.0649
30806W        W37256  14.571   0.670  11.535  0.0857  0.2717 -0.0558
30807W        W37257   1.503   6.257  12.368 -0.3663  0.0988 -0.3997
30808W        W37258   5.642   1.701  24.968 -0.4397 -0.0057  0.1694
30809W        W37259  12.376   6.587   1.948  0.1138 -0.1361 -0.2139
30810W        W37260   7.645   4.571  31.016 -0.1345 -0.0130  0.3436
30811W        W37261   2.113   2.256  24.057 -0.0251 -0.0339  0.2542
30812W        W37262  15.289   5.057  33.529 -0.1071  0.0272  0.1389
30813W        W37263  20.246   3.861   8.719  0.0958  0.3764 -0.0599
30814W        W37264   6.617   2.137  45.037  0.1270  0.3011  0.3644
30815W        W37265  13.215   5.563  35.960 -0.0744 -0.3428 -0.2587
30816W        W37266  11.972   1.185   1.033 -0.2830  0.1303  0.0622
30817W        W37267   7.065   1.223   6.015 -0.0287  0.4982 -0.3190
30818W        W37268  13.612   1.663   4.300 -0.3895 -0.2433  0.1842
30819W        W37269  11.903   0.544  17.097 -0.0927 -0.1969  0.3117
30820W        W37270   7.913   4.232  21.553 -0.1251  0.1656  0.0880
30821W        W37271  16.703   0.625  41.123 -0.0145 -0.0607  0.0198
30822W        W37272   6.613   2.383  31.643 -0.4582  0.2437 -0.2503
30823W        W37273   1.269   3.510   3.158  0.1025  0.1908 -0.0757
30824W        W37274  11.543   4.264  17.044 -0.2025 -0.1426  0.0389
30825W        W37275   5.841   4.986   7.687  0.0385  0.0924 -0.0597
30826W        W37276  20.618   1.818  20.342 -0.4110  0.0898 -0.0591
30827W        W37277   7.982   1.312  15.177 -0.0823  0.0273 -0.0409
30828W        W37278   5.179   1.200   7.818  0.1318 -0.1085  0.2412
30829W        W37279   8.077   0.566  30.806 -0.1014  0.2561  0.1125
30830W        W37280   2.418   2.709  35.538 -0.3073  0.0454 -0.0496
30831W        W37281   6.060   1.203  31.891  0.0814  0.0435  0.0190
30832W        W37282   5.426   4.941   6.674  0.0419  0.0022 -0.1488
30833W        W37283  14.977   6.379  42.363  0.3871 -0.3588 -0.1292
30834W        W37284  13.467   5.304  36.806 -0.1909 -0.0898  0.0702
30835W        W37285   0.929   4.476  34.645 -0.0327 -0.1555  0.1108
30836W        W37286   8.977   5.702  13.462 -0.0050  0.0170 -0.1037
30837W        W37287  20.483   1.408  32.730  0.0475 -0.1782 -0.1722
30838W        W37288   6.132   4.021  12.608 -0.0573  0.0720  0.1979
30839W        W37289  15.238   2.915  18.014  0.0971 -0.2370 -0.0961
30840W        W37290  10.972   1.430  16.460 -0.0552 -0.0447 -0.1733
30841W        W37291   1.829   4.207  25.407  0.1215 -0.1529  0.0823
30842W        W37292   2.630   1.131  10.725  0.3777 -0.2610  0.0425
30843W        W37293  16.933   2.666  15.767 -0.0808  0.1887  0.0290
30844W        W37294  19.403   1.201  37.941 -0.0577  0.0047 -0.1091
30845W        W37295   9.174   2.020  15.565  0.0023  0.1723 -0.0104
30846W        W37296  10.769   4.940  11.140 -0.0137  0.2110 -0.0887
30847W        W37297   1.378   0.129  38.609  0.0206  0.1088 -0.1796
30848W        W37298  15.208   5.359  29.097 -0.0989 -0.2944  0.1715
30849W        W37299   4.292   3.966  28.149 -0.1798  0.1328  0.3318
30850W        W37300   5.248   2.904  23.634  0.2937  0.0589 -0.0996
30851W        W37301  17.460   5.735   1.392  0.1188  0.3635 -0.0122
30852W        W37302  10.358   4.091  34.303  0.1298 -0.0821 -0.1699
30853W        W37303   2.642   2.250   9.375 -0.1527  0.1929  0.0568
30854W        W37304  15.320   0.321  20.745  0.0857 -0.0487 -0.1630
30855W        W37305  15.224   3.246  19.853  0.0421 -0.3041 -0.1074
30856W        W37306  10.856   3.736   5.083  0.1194  0.1866 -0.1014
30857W        W37307  16.077   4.133  14.978 -0.3546 -0.0402  0.2381
30858W        W37308  14.189   5.484  16.588  0.2032  0.3464 -0.0193
30859W        W37309  10.538   4.999  31.040 -0.3971  0.2281  0.1239
30860W        W37310   0.793   0.322  33.951 -0.3834 -0.2120  0.1398
30861W        W37311   8.374   3.604  27.515 -0.0233  0.2470 -0.0560
30862W        W37312   7.548   1.582   5.067 -0.1698 -0.2032  0.0536
30863W        W37313  14.797   2.663  13.287 -0.1593  0.1020  0.2936
30864W        W37314  12.707   5.044  33.327  0.1347 -0.0183  0.0965
30865W        W37315  16.293   2.214  37.722 -0.1875  0.1960  0.2461
30866W        W37316   0.721   4.941  33.848  0.0207 -0.0693 -0.2489
30867W        W37317   0.668   1.205  38.316  0.2768  0.2471  0.1676
30868W        W37318  11.264   0.268  34.982 -0.0055  0.2111  0.1258
30869W        W37319  14.601   3.208   0.809  0.2339 -0.0071  0.2380
30870W        W37320  12.728   5.528  44.501 -0.0256 -0.2190 -0.0676
30871W        W37321   4.241   1.238   2.329 -0.1070 -0.2920  0.0513
30872W        W37322  12.278   0.092  28.593 -0.2174  0.2125  0.0953
30873W        W37323   6.288   5.329  25.602 -0.2570  0.1389  0.2188
30874W        W37324  11.940   0.954  41.610  0.0899 -0.2431  0.0655
30875W        W37325  12.201   3.237  10.699 -0.1761  0.0106  0.1587
30876W        W37326   2.810   2.325  38.733 -0.4339 -0.1031  0.6077
30877W        W37327  11.772   2.972  29.941  0.1328  0.2133 -0.1334
30878W        W37328  20.053   1.736  10.084 -0.1316  0.2226 -0.0976
30879W        W37329  20.897   4.192   0.656 -0.1819 -0.1219 -0.2513
30880W        W37330   3.690   4.861   9.337 -0.1201  0.1579  0.1279
30881W        W37331   0.727   5.856  10.597  0.0076  0.0858 -0.0917
30882W        W37332  13.952   0.767  21.648  0.1498 -0.0662 -0.1700
30883W        W37333   7.485   1.987   6.656 -0.0413 -0.3870  0.0018
30884W        W37334  17.537   6.542  34.425 -0.0315  0.0614  0.2210
30885W        W37335  14.661   3.184  37.827  0.2267 -0.2804  0.0818
30886W        W37336   8.024   0.193   7.486  0.0965 -0.3095 -0.0150
30887W        W37337  15.330   1.079  35.777  0.0281 -0.3026 -0.2070
30888W        W37338  20.716   4.204  44.528  0.0124 -0.1304  0.1683
30889W        W37339  17.543   3.657  23.897 -0.2295  0.2748 -0.1845
30890W        W37340  19.649   4.752   6.021 -0.0932 -0.0349  0.1698
30891W        W37341   2.004   2.760   0.549  0.1935  0.0307 -0.1961
30892W        W37342   2.122   1.180  26.636  0.1100  0.2773  0.0824
30893W        W37343   2.867   4.209  27.951  0.1693 -0.1286 -0.1146
30894W        W37344  11.798   1.173  37.173 -0.1864 -0.0967  0.0048
30895W        W37345  14.986   5.692  38.824 -0.2080  0.0347  0.0265
30896W        W37346  18.275   1.987   8.139  0.2363  0.1201 -0.1266
30897W        W37347   2.362   0.368   0.675  0.1336  0.1442  0.1271
30898W        W37348  12.532   3.052  44.079  0.1168  0.1278 -0.1580
30899W        W37349   2.340   4.997  11.608  0.1015 -0.1374 -0.2177
30900W        W37350   6.271   6.301  40.311 -0.4742 -0.0896 -0.1644
30901W        W37351   9.465   0.343  42.773  0.0379  0.2193 -0.2691
30902W        W37352   7.683   6.294   6.261  0.4336 -0.0868  0.0651
30903W        W37353  18.660   3.661  15.462  0.3139  0.0198 -0.0481
30904W        W37354   4.867   4.392   9.714  0.1854 -0.0358  0.0891
30905W        W37355   9.612   6.261  16.861  0.1081  0.1917  0.2642
30906W        W37356  19.262   1.694  10.337  0.1863 -0.0973 -0.1312
30907W        W37357   7.724   4.361  12.135  0.2428  0.0850  0.0479
30908W        W37358  11.905   5.793  29.770  0.0182  0.1489  0.1033
30909W        W37359  13.402   2.556  12.071 -0.2277 -0.1489  0.0871
30910W        W37360  10.432   2.684  37.104 -0.0329 -0.2672  0.1746
30911W        W37361  18.035   0.549   9.481 -0.0601 -0.0624 -0.2759
30912W        W37362   3.563   0.703  36.107 -0.0001 -0.1342 -0.1484
30913W        W37363   0.900   0.894  35.988 -0.3274 -0.1242  0.0534
30914W        W37364  14.265   0.073  17.888 -0.2029 -0.0793  0.4621
30915W        W37365   4.901   3.215  10.865  0.1764  0.0912 -0.1288
30916W        W37366  19.142   1.864   4.133  0.1336  0.1389 -0.0909
30917W        W37367  18.247   1.841   0.795 -0.0001 -0.2276 -0.0905
30918W        W37368  11.707   1.692   3.738 -0.3173 -0.0356  0.0442
30919W        W37369   7.280   5.297  30.237 -0.1588 -0.1553 -0.0462
30920W        W37370   5.716   2.931  22.088 -0.0665 -0.1054  0.1974
30921W        W37371   8.437   3.989  14.143  0.2503 -0.2068 -0.0513
30922W        W37372   1.924   6.354  30.180 -0.0063  0.0535 -0.0122
30923W        W37373  12.055   6.602   8.498  0.3447 -0.0451  0.0087
30924W        W37374  12.270   1.656   4.953  0.1446 -0.0848 -0.0505
30925W        W37375   6.206   3.077  24.888  0.0656 -0.3060 -0.1066
30926W        W37376  12.974   5.889  12.542  0.1034 -0.1998  0.1495
30927W        W37377  15.876   0.718  30.426 -0.1316 -0.3331 -0.0595
30928W        W37378  14.361   0.877  29.189 -0.4699 -0.2548  0.0194
30929W        W37379  20.542   0.942  27.900 -0.1684 -0.0717  0.1898
30930W        W37380  11.256   4.100  31.400  0.0358 -0.2407 -0.1320
30931W        W37381  12.510   0.024  30.788 -0.1495  0.0951 -0.1763
30932W        W37382  19.691   1.753  12.588 -0.0462  0.0312 -0.1391
30933W        W37383  12.557   4.861  42.981 -0.0344  0.0554 -0.0306
30934W        W37384   3.447   4.863   5.385  0.1152 -0.2120 -0.2752
30935W        W37385  17.945   4.421  42.858 -0.1764 -0.0273 -0.0039
30936W        W37386   2.507   3.233  31.306  0.0821 -0.0805  0.0741
30937W        W37387   0.760   2.628  38.552 -0.1271  0.1236  0.1925
30938W        W37388  11.235   0.061   5.216  0.2039  0.2077  0.0616
30939W        W37389  15.955   1.583   4.092  0.1130 -0.2082  0.2583
30940W        W37390  20.035   5.360  40.261  0.0486 -0.5381 -0.0708
30941W        W37391  17.302   3.834  44.909  0.2328  0.0026 -0.1711
30942W        W37392   1.648   0.136  35.900  0.1833 -0.0254 -0.1497
30943W        W37393  13.005   3.329  16.391 -0.0347  0.2481 -0.0693
30944W        W37394   7.561   3.171   3.977  0.2250 -0.2065 -0.2411
30945W        W37395  17.368   3.614  22.900 -0.0415 -0.0226 -0.3550
30946W        W37396   8.977   4.492  42.215 -0.0125 -0.0935  0.1198
30947W        W37397   3.906   4.905  29.690 -0.0365 -0.2325 -0.2536
30948W        W37398   7.973   2.750   4.469 -0.0468  0.1837  0.1106
30949W        W37399  10.276   0.273  11.470  0.0336 -0.0237 -0.2435
30950W        W37400  16.048   5.304  34.606 -0.1134  0.0937  0.1295
30951W        W37401   7.728   4.172  34.524  0.2049  0.1910  0.3358
30952W        W37402  19.813   0.086  38.559 -0.1645  0.0002  0.2995
30953W        W37403   6.105   4.668  13.305 -0.0934 -0.1387 -0.0231
30954W        W37404  20.554   2.551  12.985  0.0334 -0.1973 -0.1249
30955W        W37405  13.003   5.053  29.239 -0.1661  0.1846  0.1686
30956W        W37406   2.312   3.050   3.889 -0.0792  0.0899 -0.4292
30957W        W37407   8.179   5.230  36.734  0.0216  0.0782 -0.1383
30958W        W37408  15.047   4.632  43.810  0.0199  0.1145  0.0715
30959W        W37409  12.315   5.045  32.040 -0.3491  0.0339  0.2137
30960W        W37410  19.523   1.479  33.045  0.3138  0.0773 -0.0679
30961W        W37411  15.746   4.908  37.304  0.0905  0.2910 -0.2377
30962W        W37412   8.923   0.534  10.297  0.3080  0.0086  0.1785
30963W        W37413   6.108   3.524  28.195 -0.1289  0.2397  0.0188
30964W        W37414   3.551   5.198  22.322  0.0284 -0.1227  0.2899
30965W        W37415  15.699   2.562   0.880  0.1108 -0.0966  0.1198
30966W        W37416   3.848   0.247  29.178 -0.0029  0.2562  0.2876
30967W        W37417   3.115   3.679   9.689 -0.0750 -0.0183 -0.1206
30968W        W37418  14.929   0.799  40.277 -0.1462  0.5047 -0.1562
30969W        W37419  20.670   4.732  12.998 -0.0736  0.2885 -0.3084
30970W        W37420  19.961   2.240  20.316  0.0777  0.3105  0.1346
30971W        W37421  17.639   3.514   9.483  0.2716 -0.0147  0.0728
30972W        W37422  11.903   5.048  15.013 -0.0452  0.0161  0.1392
30973W        W37423  17.204   2.929   5.207  0.2328  0.2595  0.1030
30974W        W37424  15.704   5.896  42.003 -0.0084 -0.2561  0.2972
30975W        W37425  17.887   5.510  38.568  0.2935  0.1786 -0.0417
30976W        W37426  18.613   3.723  20.441  0.1543  0.0205 -0.0032
30977W        W37427  20.916   6.439  14.341 -0.1612 -0.0599  0.4478
30978W        W37428  12.240   4.697  12.868 -0.1660  0.2114  0.0717
30979W        W37429  14.457   2.149  10.604 -0.1138  0.2276  0.1346
30980W        W37430   4.771   2.362  28.157 -0.1123  0.2950  0.1749
30981W        W37431   1.002   3.065  15.864  0.2116  0.0827  0.0615
30982W        W37432   1.068   5.338   2.568 -0.1859 -0.3499  0.2533
30983W        W37433  10.268   3.102  17.133  0.1583  0.1386  0.3647
30984W        W37434  10.732   4.038   1.565 -0.0069  0.2387  0.0348
30985W        W37435   6.309   2.502  22.854 -0.0596  0.0108  0.1447
30986W        W37436  20.448   0.045  34.683 -0.0382 -0.0326  0.2129
30987W        W37437  17.065   2.686  39.120 -0.2481  0.1740  0.0239
30988W        W37438   2.961   3.692  14.794 -0.0016 -0.1765 -0.0611
30989W        W37439   7.432   2.489  40.986 -0.0298  0.2920  0.0126
30990W        W37440   0.716   2.290  27.852  0.2191  0.1760  0.3814
30991W        W37441  13.343   0.428  17.369  0.1459 -0.1491  0.0714
30992W        W37442   2.163   4.000  13.477 -0.3405 -0.1065  0.2332
30993W        W37443   4.317   5.116  42.603 -0.0460  0.0842  0.0770
30994W        W37444   8.646   4.212  24.176 -0.0684 -0.3474  0.0101
30995W        W37445  10.518   5.791   0.281 -0.2507 -0.0010  0.0165
30996W        W37446   1.543   6.047  40.866 -0.0121  0.0638 -0.1925
30997W        W37447  10.444   1.901  36.308  0.2151 -0.2014  0.1764
30998W        W37448  19.169   1.914  30.563 -0.0111  0.2878  0.1113
30999W        W37449   0.672   2.876  32.776 -0.1291 -0.1497 -0.0284
31000W        W37450  18.527   2.319  16.212  0.1538  0.1444 -0.1597
31001W        W37451  20.618   6.533  37.527 -0.2010  0.0448 -0.1728
31002W        W37452   2.919   1.008  39.274  0.2079  0.1395  0.1285
31003W        W37453   9.282   5.248  25.686  0.3596 -0.1722  0.1780
31004W        W37454   7.375   2.185  37.792 -0.0557 -0.0611 -0.0365
31005W        W37455   4.662   5.213   4.140  0.6030  0.0508 -0.0747
31006W        W37456  15.634   6.404  13.452 -0.0762 -0.3115  0.4865
31007W        W37457  19.637   5.810   7.762  0.0814 -0.1763 -0.1335
31008W        W37458  17.360   2.255   0.006  0.1522 -0.3003 -0.1909
31009W        W37459  13.349   0.120  42.759  0.0932  0.0510  0.0165
31010W        W37460   8.234   3.395  10.709 -0.0060 -0.0487  0.0340
31011W        W37461  20.159   4.061  29.501  0.1779  0.0318  0.1657
31012W        W37462  17.914   4.024  29.165 -0.2404  0.1647 -0.0785
31013W        W37463  15.072   6.606  18.294 -0.1742 -0.1418  0.2775
31014W        W37464  14.889   0.604  30.226 -0.1300 -0.2107 -0.0548
31015W        W37465   9.887   3.885  43.787  0.0511  0.2263 -0.2253
31016W        W37466   7.238   0.157  26.643 -0.0913  0.1167  0.2707
31017W        W37467   7.587   6.104  15.338 -0.1101 -0.0924 -0.2427
31018W        W37468   1.640   2.329   3.205 -0.0251 -0.0621  0.3176
31019W        W37469   7.903   0.093  30.534  0.0394 -0.0710  0.0470
31020W        W37470   7.325   4.653  38.479  0.1457 -0.0563 -0.1987
31021W        W37471   1.454   3.223  31.135 -0.0389 -0.0748 -0.3104
31022W        W37472  17.507   6.453  13.652 -0.3368 -0.2177 -0.1322
31023W        W37473   7.010   1.760   7.907 -0.1398  0.3667  0.1193
31024W        W37474  18.979   4.959  11.156 -0.1038 -0.3209 -0.1590
31025W        W37475  19.872   2.532   4.798 -0.3110  0.0059  0.0006
31026W        W37476   8.632   6.295  34.289 -0.2110  0.0190 -0.1239
31027W        W37477  15.358   4.440   9.370  0.2483 -0.1313  0.0665
31028W        W37478   4.483   3.265   5.222 -0.2824  0.0055 -0.1073
31029W        W37479   0.625   4.865  11.790 -0.4427 -0.1731 -0.4347
31030W        W37480   1.990   0.494   0.957  0.2020  0.1952 -0.0303
31031W        W37481  11.352   1.772   5.375  0.0646 -0.0174 -0.0947
31032W        W37482  17.661   4.851  36.953  0.0570  0.0573  0.2825
31033W        W37483   6.371   2.244   2.771 -0.1642  0.4379  0.1582
31034W        W37484   3.485   2.826  29.695  0.1286 -0.0064  0.1424
31035W        W37485   7.485   0.394   1.026  0.3298  0.0452 -0.1385
31036W        W37486  20.632   2.519  33.959 -0.0920 -0.1988 -0.1873
31037W        W37487   7.652   4.450  30.014  0.1531  0.0397  0.0907
31038W        W37488   8.214   0.988  13.981  0.0998 -0.4318 -0.0443
31039W        W37489   2.616   4.842  32.169 -0.0550 -0.1743  0.5270
31040W        W37490   8.562   1.215  38.299  0.0085  0.0057  0.1105
31041W        W37491   1.211   5.591   9.809  0.2531 -0.0661  0.0404
31042W        W37492   7.896   6.276  37.641 -0.2667 -0.0397 -0.3353
31043W        W37493   8.402   0.536  31.758 -0.2865 -0.1724  0.1402
31044W        W37494   3.618   4.376   0.681 -0.5122 -0.0668  0.0118
31045W        W37495  11.622   6.373  36.527  0.1587 -0.0537  0.0278
31046W        W37496  10.623   2.401   7.358  0.0838 -0.1410 -0.1155
31047W        W37497   8.101   5.350  15.591 -0.0399 -0.1027 -0.0528
31048W        W37498   4.264   1.253   8.342  0.0569  0.1620 -0.1091
31049W        W37499  16.246   1.115  11.374 -0.1771  0.1212  0.0428
31050W        W37500  10.299   2.018  30.212 -0.2398 -0.0089  0.1376
31051W        W37501  16.477   3.689  20.399  0.1197 -0.0070  0.1257
31052W        W37502  11.441   0.579   9.795  0.1600  0.1317 -0.0739
31053W        W37503   3.213   2.171  24.424  0.0175  0.0405  0.0119
31054W        W37504  12.257   2.941  37.342 -0.2033 -0.1709  0.0309
31055W        W37505  16.139   4.750  23.393 -0.2516 -0.0180 -0.2259
31056W        W37506   5.633   6.021   4.610  0.0746 -0.1174 -0.0435
31057W        W37507  10.904   2.278  32.177  0.2172 -0.0888 -0.1444
31058W        W37508   9.594   3.230   5.172 -0.3136  0.2179  0.1909
31059W        W37509  10.668   4.909  39.783  0.2658 -0.0809 -0.0371
31060W        W37510   2.612   0.216  11.854 -0.3328 -0.0411 -0.1573
31061W        W37511  16.647   6.300  13.334  0.2391 -0.1422 -0.0743
31062W        W37512   8.135   1.405  38.494  0.0317 -0.2541 -0.3249
31063W        W37513   3.588   3.486  36.442  0.2158  0.1745  0.0286
31064W        W37514  16.351   6.605  40.211  0.0635  0.1288 -0.1268
31065W        W37515  15.288   4.081   1.809 -0.0774 -0.2490 -0.1434
31066W        W37516   6.662   4.463  23.750 -0.1076 -0.2091  0.1452
31067W        W37517  17.908   5.076   2.208  0.0772 -0.0759 -0.2477
31068W        W37518  20.054   2.422  30.562  0.1568 -0.0125 -0.1889
31069W        W37519   7.498   3.435  27.694  0.2091  0.3425 -0.1582
31070W        W37520  10.186   5.607  27.077 -0.1160 -0.2421 -0.2599
31071W        W37521  13.126   2.653   0.126  0.0825  0.2834 -0.0931
31072W        W37522  12.541   4.229   0.840 -0.0092 -0.1961 -0.0387
31073W        W37523   6.819   5.956   4.221  0.1790  0.0342  0.0935
31074W        W37524   4.588   3.748  42.406 -0.1860 -0.0215 -0.0506
31075W        W37525   7.196   4.631   5.362  0.0241  0.1734  0.0042
31076W        W37526   5.685   1.543   5.223 -0.1379 -0.2361 -0.1026
31077W        W37527  12.029   5.451  39.452  0.0102  0.2909  0.0638
31078W        W37528   2.358   4.198   8.180 -0.0588 -0.1045  0.0310
31079W        W37529  16.477   3.016  34.170  0.1639 -0.0321  0.0545
31080W        W37530   2.922   6.397  27.452 -0.1542 -0.3863  0.1136
31081W        W37531  17.562   4.536  20.046  0.0511  0.1474 -0.2374
31082W        W37532  10.891   4.061  40.672 -0.0798 -0.4164  0.1381
31083W        W37533   4.595   1.149   0.789  0.3870 -0.0695 -0.2542
31084W        W37534   9.735   4.975  41.678  0.2128  0.2770  0.1040
31085W        W37535  14.228   1.716  37.439 -0.2810  0.0783  0.1524
31086W        W37536  19.144   5.054  18.376  0.1240 -0.0049  0.1384
31087W        W37537  19.509   0.245  33.461 -0.0862 -0.0977 -0.0214
31088W        W37538   2.854   6.011  32.239 -0.2536 -0.0299  0.1060
31089W        W37539  18.039   3.277  41.059  0.1726  0.1137  0.2095
31090W        W37540  19.806   4.674   1.656 -0.0617 -0.0479 -0.1196
31091W        W37541   6.838   6.361  12.872 -0.1795  0.1060 -0.1223
31092W        W37542   1.606   0.999   9.264  0.2217 -0.0753  0.0518
31093W        W37543  18.250   3.155   0.650 -0.2252  0.3285 -0.1725
31094W        W37544   8.184   3.039  10.254 -0.0321  0.1711  0.0487
31095W        W37545   8.240   3.623  12.789 -0.0855 -0.0339 -0.0487
31096W        W37546  20.062   0.670   6.888 -0.3787 -0.0647  0.0202
31097W        W37547   3.217   1.633  30.460  0.2485  0.1398  0.1396
31098W        W37548   5.525   6.593   1.517  0.1589  0.0634 -0.1824
31099W        W37549  14.572   5.427  34.683  0.1491  0.3025  0.0806
31100W        W37550   0.362   6.172   9.718  0.1584 -0.0766  0.2111
31101W        W37551   4.547   3.438   4.753  0.0352 -0.2043 -0.3292
31102W        W37552   6.269   5.712  39.215  0.1938 -0.1641  0.1886
31103W        W37553   5.128   0.752  12.572 -0.1243  0.0958  0.2792
31104W        W37554  13.752   6.098  39.573  0.0336 -0.6630  0.1753
31105W        W37555   8.968   3.414  27.634 -0.2173  0.4343  0.1809
31106W        W37556  17.426   0.925   6.199 -0.0811 -0.2715 -0.0636
31107W        W37557   6.310   1.060   6.325 -0.0894 -0.0718  0.0135
31108W        W37558   8.258   3.163   1.084  0.1381  0.0254  0.2521
31109W        W37559  12.850   1.496  36.517  0.1892 -0.0867 -0.0630
31110W        W37560  10.681   6.574  39.186 -0.0537 -0.1167 -0.1055
31111W        W37561   2.636   4.478   5.474 -0.0233  0.1109 -0.0041
31112W        W37562  17.122   3.541  42.398 -0.0583 -0.1916 -0.0154
31113W        W37563  11.238   1.971  11.591  0.1257  0.1409  0.1687
31114W        W37564  18.676   1.002  16.178  0.2088  0.0931  0.1280
31115W        W37565   3.028   4.552  11.634 -0.1497 -0.1573  0.0607
31116W        W37566   3.214   3.469  42.015 -0.0318  0.0434  0.1648
31117W        W37567  12.493   1.107   5.082 -0.0503  0.1590 -0.3408
31118W        W37568  13.046   3.656  28.182  0.2022 -0.3737 -0.1394
31119W        W37569  18.817   1.503   6.584  0.1081 -0.3199  0.5091
31120W        W37570   3.023   1.671  28.722 -0.1147  0.2474 -0.2983
31121W        W37571  10.955   2.844   2.584  0.1733  0.0180 -0.0056
31122W        W37572  10.835   3.512  29.593  0.2633  0.2517 -0.1979
31123W        W37573  18.821   1.985   0.499  0.0042  0.2240 -0.0427
31124W        W37574   7.440   5.378   4.919  0.2418  0.0537 -0.1719
31125W        W37575   4.799   4.279  31.252 -0.0340 -0.0150 -0.1704
31126W        W37576  10.189   5.322  12.020 -0.2171  0.0775 -0.1710
31127W        W37577  19.885   5.973  37.556 -0.2533  0.2497  0.1986
31128W        W37578  13.393   2.384  16.314 -0.0711 -0.4250  0.0166
31129W        W37579  10.732   1.638   4.511 -0.2193  0.2384 -0.2014
31130W        W37580  11.660   2.850   6.082  0.0657 -0.1825 -0.0682
31131W        W37581  16.142   0.328   3.165  0.1868 -0.0261 -0.0041
31132W        W37582   7.143   5.479  25.839  0.3900 -0.2265  0.1090
31133W        W37583   3.199   4.815  40.876 -0.2607  0.1206 -0.0894
31134W        W37584  14.496   5.904  15.703  0.2683  0.0022 -0.2266
31135W        W37585   7.090   4.848  31.600 -0.0506  0.2092 -0.2467
31136W        W37586   6.213   4.006  22.317  0.3169 -0.0086  0.1165
31137W        W37587  17.756   0.807  22.683 -0.1825  0.0737  0.1633
31138W        W37588   1.151   5.307  44.569 -0.0662 -0.0387  0.0441
31139W        W37589   0.769   5.209  10.055  0.2265  0.0037 -0.1224
31140W        W37590  11.251   1.559  38.882 -0.0719 -0.0762 -0.0350
31141W        W37591  18.642   1.738  39.817 -0.2748 -0.0571 -0.0418
31142W        W37592   0.211   1.313  40.470  0.0802 -0.3686 -0.0172
31143W        W37593   0.693   4.005  13.792  0.1146  0.1303 -0.0401
31144W        W37594  17.641   4.805  42.074 -0.3939  0.1960 -0.3192
31145W        W37595  14.215   0.164  38.065  0.0808  0.0575 -0.1106
31146W        W37596   3.986   5.423   5.466  0.0498 -0.1398 -0.0583
31147W        W37597   1.132   1.124  33.739 -0.2193  0.0686 -0.1181
31148W        W37598   1.485   0.826  13.257 -0.0527 -0.0610 -0.1119
31149W        W37599   8.920   3.015  33.794  0.0542 -0.6704 -0.0619
31150W        W37600  11.208   0.352   0.468  0.0336  0.0543 -0.0522
31151W        W37601  15.087   2.072   4.166 -0.1888  0.1095 -0.1244
31152W        W37602  11.872   3.822   6.615  0.3319 -0.3357 -0.1253
31153W        W37603   3.780   2.847  10.316 -0.4005  0.1501  0.0840
31154W        W37604   7.674   3.997  23.566  0.0083 -0.0345  0.2384
31155W        W37605  20.311   0.608  33.982 -0.1262  0.1202  0.0815
31156W        W37606  14.016   1.332   8.398  0.0647  0.0017  0.0785
31157W        W37607  15.261   4.169  37.791 -0.2682  0.1197  0.0639
31158W        W37608  14.104   4.542  44.487 -0.0141  0.0865  0.2114
31159W        W37609   6.949   0.763  32.976  0.0962  0.1858 -0.1648
31160W        W37610  10.444   2.580  38.286  0.1567 -0.0352  0.1407
31161W        W37611   6.709   5.382   5.179 -0.2522 -0.2362 -0.0310
31162W        W37612   5.070   3.544  28.722  0.0424  0.1359 -0.1917
31163W        W37613  14.465   2.831   8.259 -0.1991  0.2280  0.1393
31164W        W37614  11.789   3.885  39.642  0.1083  0.1849 -0.3258
31165W        W37615  20.516   3.530  34.724  0.1638  0.1647 -0.2984
31166W        W37616   9.951   2.769  38.419 -0.0120  0.0628 -0.1050
31167W        W37617   3.854   2.802   4.246  0.1179 -0.1562  0.4087
31168W        W37618  16.168   4.607  14.262  0.3275 -0.0589  0.3103
31169W        W37619   0.629   1.427  36.719  0.2396  0.0257 -0.1569
31170W        W37620  11.834   2.313  43.176 -0.0693  0.1169 -0.2400
31171W        W37621  14.506   2.367  41.808  0.3032  0.0579 -0.1208
31172W        W37622  17.097   1.811   1.184 -0.1462  0.0728 -0.0837
31173W        W37623   0.585   3.844   1.944 -0.1195  0.1209 -0.2772
31174W        W37624   1.964   4.722  28.629 -0.0044 -0.1717 -0.0605
31175W        W37625   8.187   6.586   0.346 -0.1596 -0.2717 -0.0846
31176W        W37626  15.335   5.802   7.969  0.3262  0.2124 -0.1775
31177W        W37627   5.397   3.578   3.536 -0.2316 -0.0727 -0.0660
31178W        W37628   1.657   1.657  25.580 -0.0266 -0.0860 -0.2776
31179W        W37629  12.939   2.898  14.423  0.1987  0.1582  0.0377
31180W        W37630  10.174   4.001  32.916 -0.0364  0.1375  0.2832
31181W        W37631  20.545   3.226  35.533 -0.1102 -0.0942 -0.0828
31182W        W37632   2.147   3.754  42.676  0.1906  0.1007  0.3198
31183W        W37633  14.390   2.631  17.140 -0.0280  0.0911 -0.2580
31184W        W37634  14.853   6.502  31.735 -0.0200  0.0554 -0.1071
31185W        W37635   5.567   4.386   2.390  0.2058 -0.3188 -0.1832
31186W        W37636  17.034   2.768   4.247  0.2644 -0.1252  0.0865
31187W        W37637  16.791   6.391  40.209 -0.3215 -0.1346 -0.2119
31188W        W37638  17.842   0.970   7.386  0.0096  0.1679  0.0704
31189W        W37639   7.631   2.748  38.010 -0.1380  0.0279  0.1693
31190W        W37640  17.668   2.117   2.423  0.0071 -0.1636  0.2177
31191W        W37641  18.475   2.465   4.087  0.0789  0.1727 -0.2200
31192W        W37642  15.731   5.998  32.766  0.0608  0.0951 -0.2115
31193W        W37643  15.588   5.555  38.639 -0.0926  0.3592 -0.1304
31194W        W37644  16.008   1.713   8.346 -0.0181  0.1763  0.1428
31195W        W37645   3.325   3.092  10.451  0.1833 -0.2325  0.0703
31196W        W37646   9.595   4.028  38.810  0.0217  0.0721 -0.0831
31197W        W37647   6.104   5.173  39.324  0.1665 -0.0789  0.1136
31198W        W37648   3.468   2.025   0.293  0.2059  0.0974  0.2004
31199W        W37649   4.945   2.392  35.418  0.3159  0.1765  0.0396
31200W        W37650  18.733   0.097  18.592 -0.0787 -0.1962 -0.0861
31201W        W37651  19.427   4.345  12.873 -0.2535 -0.1049  0.0387
31202W        W37652  20.364   4.117  19.364 -0.0152  0.0358  0.1600
31203W        W37653   1.008   6.049  29.274 -0.1693 -0.1864  0.3832
31204W        W37654  12.960   5.819  15.329  0.1589  0.0206 -0.4275
31205W        W37655   4.417   3.201  34.109  0.4794 -0.1261 -0.0933
31206W        W37656  15.774   5.871  39.198 -0.1777  0.2485 -0.2059
31207W        W37657   7.324   4.634   9.539 -0.2723  0.1000 -0.1676
31208W        W37658   0.371   5.747   4.664  0.0242  0.2529 -0.0648
31209W        W37659  13.712   3.574  44.219 -0.2101  0.1187  0.1529
31210W        W37660  14.106   5.208  41.964 -0.2815 -0.0283  0.1330
31211W        W37661  13.722   3.051  18.438  0.0647 -0.1243 -0.0341
31212W        W37662  20.107   5.550  30.533 -0.4562  0.0874 -0.2147
31213W        W37663   5.784   5.649  20.461 -0.1223  0.0411  0.1233
31214W        W37664  16.112   6.595  41.027  0.2139  0.0926  0.2758
31215W        W37665  10.148   3.095  42.618 -0.0034  0.0759  0.0645
31216W        W37666   5.156   5.846  39.815 -0.1402 -0.0004  0.1169
31217W        W37667   1.183   0.367  40.836 -0.0404 -0.2624  0.1967
31218W        W37668  10.704   0.027   2.681 -0.1352 -0.3017 -0.1857
31219W        W37669   3.492   6.242  14.580  0.1753 -0.0222 -0.1554
31220W        W37670   8.693   4.021   1.988 -0.1569  0.1029 -0.1244
31221W        W37671  14.508   2.949  13.604  0.0266  0.0175 -0.1500
31222W        W37672   9.798   5.674  12.107 -0.0379  0.0787  0.0137
31223W        W37673  11.182   4.335  10.442  0.0092  0.1377 -0.0837
31224W        W37674   2.477   1.031   0.363 -0.0894  0.1065  0.3196
31225W        W37675   9.329   0.298  32.717 -0.2711 -0.3473  0.0576
31226W        W37676  17.387   0.561   7.220 -0.2831 -0.2931  0.3026
31227W        W37677  18.706   0.478  38.638 -0.4030 -0.0142 -0.0020
31228W        W37678  14.161   0.141  34.433  0.1007 -0.1603 -0.0775
31229W        W37679  16.979   2.696  32.851 -0.1770 -0.1363  0.1386
31230W        W37680  20.516   3.706  12.059  0.1393 -0.0195 -0.0948
31231W        W37681  13.887   3.014  14.519 -0.1848  0.4179 -0.0743
31232W        W37682  17.481   1.262  37.429  0.2617  0.0086 -0.0215
31233W        W37683  15.870   6.533  44.587 -0.3038  0.1209  0.0248
31234W        W37684   0.538   0.227   8.209 -0.1459  0.0847  0.2446
31235W        W37685   2.431   2.072  10.844 -0.1856 -0.0230  0.1239
31236W        W37686   5.661   5.173  10.360 -0.3064 -0.1224  0.0907
31237W        W37687   4.572   3.619  32.060  0.1221  0.1141  0.2811
31238W        W37688  13.172   6.243   0.098  0.3553  0.2195  0.1873
31239W        W37689  11.466   5.742  44.285 -0.0057  0.0263  0.0200
31240W        W37690  13.498   3.433  28.449 -0.2579 -0.2223  0.0744
31241W        W37691  20.724   4.590  32.080  0.1777 -0.2921  0.0825
31242W        W37692   6.583   6.590  21.971  0.0440  0.3682  0.1872
31243W        W37693  19.129   0.974  14.426  0.0248 -0.0221 -0.0205
31244W        W37694   6.474   2.059  42.764  0.0562 -0.3781  0.0290
31245W        W37695  13.062   1.471  32.610  0.1223  0.3903  0.2105
31246W        W37696   6.660   6.106   1.067 -0.3618  0.1307  0.0376
31247W        W37697  18.878   0.927   2.178  0.1132  0.0722 -0.1650
31248W        W37698   1.365   3.979   2.964 -0.1437 -0.3437 -0.0078
31249W        W37699   1.793   2.817   3.120  0.1400  0.0416 -0.2462
31250W        W37700   2.057   2.111  38.416  0.0186 -0.0456 -0.1358
31251W        W37701  13.996   2.824  37.265  0.0008  0.1556  0.0899
31252W        W37702  10.687   0.332   4.068  0.0062  0.2711  0.1798
31253W        W37703   6.768   6.362  10.026 -0.3190  0.1670 -0.2160
31254W        W37704  19.173   2.802  36.535  0.0548 -0.3521  0.0540
31255W        W37705   1.026   1.826   4.294 -0.0382  0.1530  0.0626
31256W        W37706   2.594   6.377  36.293  0.0419 -0.3711  0.2341
31257W        W37707   7.742   3.301  26.422  0.2869  0.2293  0.2447
31258W        W37708  11.332   1.976  16.894  0.0150 -0.0032 -0.1364
31259W        W37709   4.027   5.362  43.185  0.0447  0.0820  0.1693
31260W        W37710   6.711   2.277  14.601  0.0679 -0.2295  0.2403
31261W        W37711   1.547   6.286  34.862 -0.0340  0.2099 -0.2144
31262W        W37712  15.230   6.108  17.113  0.2874  0.1557  0.4222
31263W        W37713  15.300   5.430  15.555 -0.0929  0.0536 -0.1260
31264W        W37714  19.496   0.973  40.655  0.1235 -0.0393  0.0385
31265W        W37715   5.751   4.802  24.546  0.0461 -0.1622 -0.0723
31266W        W37716  15.147   3.436  11.614 -0.0917 -0.1529 -0.0772
31267W        W37717   6.081   4.525  41.436 -0.2253 -0.1510  0.1199
31268W        W37718   9.173   0.075   7.097  0.0469 -0.0991  0.2226
31269W        W37719  18.405   2.211   5.540 -0.2237 -0.0296 -0.1110
31270W        W37720  15.725   2.826  17.934 -0.0769  0.0493  0.2049
31271W        W37721   5.983   3.310  37.153 -0.2307 -0.1336 -0.1653
31272W        W37722  11.442   5.596  44.774 -0.3171 -0.0957  0.0924
31273W        W37723   0.822   2.908  39.982  0.0705 -0.0721  0.1964
31274W        W37724  18.606   2.373  33.744 -0.0199  0.0300  0.1225
31275W        W37725   5.952   1.865  43.400  0.1976  0.3408  0.0556
31276W        W37726   9.608   0.350  10.900  0.1072  0.1113  0.0638
31277W        W37727  17.937   5.354  21.764 -0.2642  0.1777 -0.0660
31278W        W37728  17.724   4.246  16.237 -0.0565  0.2185  0.0395
31279W        W37729  20.684   6.152  36.554  0.0286 -0.0004 -0.2165
31280W        W37730   5.161   4.089  13.308  0.0286  0.0765 -0.1913
31281W        W37731  11.236   4.987   4.091  0.0877 -0.0173 -0.0790
31282W        W37732   1.590   0.301   6.027  0.0951  0.1325 -0.2237
31283W        W37733  14.693   2.324  33.924  0.0579 -0.0330  0.1773
31284W        W37734   1.730   1.752   2.668  0.1270  0.0837 -0.3352
31285W        W37735   7.319   1.534  32.961  0.0092 -0.0613  0.1068
31286W        W37736   9.895   3.817  31.661  0.0982 -0.1362 -0.2372
31287W        W37737   4.611   2.545  15.394  0.1315  0.3241  0.1386
31288W        W37738   5.787   1.737   9.357 -0.2287 -0.2989 -0.0984
31289W        W37739   8.858   6.065  28.156 -0.2656 -0.0942  0.0441
31290W        W37740   5.575   2.967  15.528  0.0016 -0.4073  0.2669
31291W        W37741   5.624   3.461   9.221 -0.1699  0.1622 -0.2294
31292W        W37742   8.657   3.003  36.947 -0.1845 -0.0707 -0.3908
31293W        W37743  13.595   3.787   5.256  0.0779 -0.0387  0.0281
31294W        W37744  13.029   6.599  13.684 -0.0760  0.0628 -0.1750
31295W        W37745   0.183   6.115   1.450  0.1370  0.1802  0.0430
31296W        W37746  14.684   2.754  16.669 -0.0800  0.2122 -0.2057
31297W        W37747  16.253   3.840  39.832  0.5479  0.0835  0.1787
31298W        W37748  16.295   2.175  43.010  0.1177  0.1455 -0.1314
31299W        W37749   8.714   3.461   9.095 -0.0544  0.0974  0.1952
31300W        W37750  18.947   4.300   9.349 -0.3604  0.2932  0.0620
31301W        W37751  13.767   4.954   3.636 -0.0090 -0.1471  0.3114
31302W        W37752   5.465   5.186  29.520 -0.0476 -0.2086  0.1391
31303W        W37753   3.240   6.476  42.656  0.3236 -0.0893 -0.0182
31304W        W37754  20.520   5.152  38.946  0.0466  0.2675  0.2292
31305W        W37755  16.973   2.740   6.971 -0.1870 -0.1163 -0.0510
31306W        W37756   4.245   3.292  30.587 -0.1183  0.1797  0.3124
31307W        W37757  18.205   0.841  13.175  0.2414 -0.1548 -0.1709
31308W        W37758   7.877   0.953  24.424  0.0809  0.1712 -0.0190
31309W        W37759  15.398   2.719  11.877  0.1542 -0.3005 -0.0540
31310W        W37760  14.067   0.628  21.021  0.1623  0.0431  0.3099
31311W        W37761   3.775   6.571  14.228  0.0180  0.0641  0.2289
31312W        W37762   7.475   3.062  44.691  0.0414 -0.2969 -0.0612
31313W        W37763  18.866   2.733   1.549  0.0573  0.1338  0.0600
31314W        W37764  19.739   6.423   1.614 -0.2087 -0.1132  0.2994
31315W        W37765   9.798   2.364  12.972  0.0428  0.2360  0.0450
31316W        W37766  17.392   6.456   2.485  0.2217  0.1259  0.0854
31317W        W37767   8.247   5.044  23.779 -0.1346 -0.0852 -0.1397
31318W        W37768   1.474   3.223  41.451  0.0264  0.1332  0.1688
31319W        W37769  17.104   5.671   9.817  0.2058 -0.1830 -0.2014
31320W        W37770  13.685   4.028   1.122  0.0430 -0.1304  0.0652
31321W        W37771   9.606   4.633  33.257 -0.0153 -0.3369 -0.1953
31322W        W37772  17.163   3.655  35.452  0.4324  0.2329 -0.1153
31323W        W37773   3.213   4.470  26.111 -0.2443 -0.1734  0.2255
31324W        W37774  12.889   2.654  11.243  0.0566  0.0095  0.0297
31325W        W37775  12.399   2.349  31.851  0.2951 -0.0048 -0.0987
31326W        W37776  12.187   1.636  17.417  0.4818 -0.3275  0.0934
31327W        W37777  13.252   3.818  36.626  0.0800  0.0788 -0.0968
31328W        W37778  11.426   1.417  11.927  0.1297 -0.2405  0.1345
31329W        W37779   6.217   4.390  44.354 -0.0156 -0.0719 -0.3346
31330W        W37780  13.491   0.005  20.815 -0.1136 -0.2407  0.5216
31331W        W37781  11.857   6.014  27.730 -0.1414 -0.2008 -0.2908
31332W        W37782  12.072   3.089   7.773 -0.0833 -0.0247  0.1795
31333W        W37783  11.581   5.152  17.618  0.3078 -0.3581 -0.0703
31334W        W37784  19.847   3.990   5.378 -0.0836 -0.1558  0.2122
31335W        W37785  20.372   2.587  42.826 -0.2843 -0.2679 -0.0945
31336W        W37786   8.113   6.531  37.206 -0.1564  0.0077 -0.0463
31337W        W37787  18.128   3.356  17.480  0.0088  0.0990 -0.2387
31338W        W37788  13.370   0.967   5.604  0.2633 -0.0343 -0.1073
31339W        W37789  17.008   3.924  33.386 -0.0629 -0.0740 -0.2722
31340W        W37790   9.386   4.148   6.880 -0.0134 -0.2410 -0.0498
31341W        W37791  16.529   0.987  16.655  0.4014  0.0499 -0.1342
31342W        W37792  16.496   0.090   0.729 -0.1431  0.1159 -0.1538
31343W        W37793  18.592   1.792  41.178 -0.1351 -0.0739 -0.1128
31344W        W37794   1.404   0.051   2.913  0.1222  0.4831  0.1079
31345W        W37795  20.641   5.590  12.765  0.1033 -0.2802  0.0508
31346W        W37796  10.100   0.415  44.134 -0.0328  0.4049 -0.3282
31347W        W37797   7.503   4.991   0.972 -0.2002  0.0133  0.0323
31348W        W37798   6.642   1.453  33.666  0.0169  0.4171  0.2566
31349W        W37799   4.720   1.990  34.822 -0.2031  0.0147  0.1939
31350W        W37800  16.375   5.527  35.357  0.0129  0.0571  0.2293
31351W        W37801  17.102   6.496  17.079  0.1540  0.1371 -0.0386
31352W        W37802  10.270   2.920  27.828  0.0786 -0.2206  0.1353
31353W        W37803  12.618   5.312  10.354  0.0224  0.1002  0.0033
31354W        W37804  16.825   6.374  37.291  0.1003 -0.0971 -0.0355
31355W        W37805   2.109   0.227   4.448 -0.0254  0.2338  0.2856
31356W        W37806   7.486   6.516  28.991  0.0562  0.0105  0.0931
31357W        W37807  11.858   3.274  10.009 -0.2515 -0.1429 -0.1744
31358W        W37808  20.492   1.910  12.315  0.1056  0.0483 -0.1635
31359W        W37809   3.496   3.612  37.565 -0.3818 -0.1756  0.1754
31360W        W37810  18.683   1.151  38.699 -0.1890  0.0603  0.4533
31361W        W37811   4.422   0.662  27.793  0.1374  0.1721  0.0917
31362W        W37812  15.547   4.253  43.850 -0.3441 -0.0141 -0.0700
31363W        W37813   5.383   0.536  43.902  0.0065 -0.0256 -0.1671
31364W        W37814  13.432   0.797  18.411  0.2013 -0.0847  0.1682
31365W        W37815   7.139   0.994  12.448  0.0293 -0.1490  0.0258
31366W        W37816   9.999   6.011  43.650  0.0132 -0.0329  0.0298
31367W        W37817  15.277   0.150  13.180  0.1373 -0.1056  0.0450
31368W        W37818   5.033   6.280   9.989  0.3322 -0.2536 -0.1778
31369W        W37819  19.111   4.555  33.441  0.1896  0.0787  0.0244
31370W        W37820   8.762   3.226  13.413 -0.1675 -0.1503  0.0728
31371W        W37821  17.829   1.629   0.525  0.0366  0.0162 -0.1485
31372W        W37822   6.452   5.212  22.169  0.1785 -0.0758  0.0326
31373W        W37823   1.202   5.965   0.205 -0.0991  0.0690 -0.2422
31374W        W37824   0.463   3.075  36.817  0.2645 -0.2274  0.4152
31375W        W37825  20.434   6.499   4.820  0.1302  0.1176  0.0107
31376W        W37826  18.314   1.921  21.849 -0.2770 -0.1128 -0.0771
31377W        W37827  10.173   5.295  35.747  0.0947  0.1184 -0.1344
31378W        W37828  12.741   3.065  37.829  0.0829 -0.0172  0.2132
31379W        W37829   6.954   3.133  36.891  0.1384 -0.1319  0.0835
31380W        W37830  11.561   2.110  34.465  0.1794  0.2885 -0.3152
31381W        W37831  11.456   0.630  12.329 -0.0461  0.0354 -0.0302
31382W        W37832  17.640   2.245  16.949  0.1426 -0.1892  0.0574
31383W        W37833   1.183   5.175  18.277  0.2066  0.0170 -0.2313
31384W        W37834  15.792   0.729   3.069  0.1544  0.1339 -0.2788
31385W        W37835  16.652   5.296  15.652  0.1095  0.3353 -0.1787
31386W        W37836   5.824   3.512   1.191 -0.0019 -0.1145 -0.0010
31387W        W37837  17.130   5.429   0.557 -0.1321 -0.3278 -0.1744
31388W        W37838   7.706   4.250  28.906  0.1143 -0.1133  0.2069
31389W        W37839   3.949   5.707  27.900 -0.1726 -0.2250 -0.2712
31390W        W37840   1.583   3.987  24.214  0.1780  0.0007  0.0039
31391W        W37841   6.151   1.244  21.750  0.0103 -0.3080  0.0726
31392W        W37842  12.571   3.846  15.547  0.3142  0.1970 -0.1653
31393W        W37843  15.573   6.382  15.940  0.0163  0.1895  0.2592
31394W        W37844  20.852   3.484  36.686  0.3642 -0.0035  0.4729
31395W        W37845  16.936   4.640  16.494 -0.2827  0.1197 -0.0525
31396W        W37846   3.238   4.889  31.644 -0.0275 -0.0214  0.0459
31397W        W37847  10.907   1.786   6.716  0.2875 -0.3578  0.0597
31398W        W37848   2.539   5.146  39.265  0.0418 -0.1204 -0.0546
31399W        W37849   2.180   1.063  43.376  0.1242 -0.2157  0.1623
31400W        W37850  11.066   1.420  44.101  0.2224 -0.2164 -0.2013
31401W        W37851   1.661   6.088   2.839  0.0202 -0.1796 -0.0602
31402W        W37852  17.643   0.431  41.279 -0.3966  0.2371  0.0999
31403W        W37853  20.444   3.870  14.927  0.2816 -0.0368  0.2496
31404W        W37854  19.801   0.627  11.957  0.1163 -0.0239 -0.0296
31405W        W37855  15.664   3.391  10.793  0.1579  0.4027  0.1105
31406W        W37856   9.620   2.942  30.043  0.1672  0.0808  0.2946
31407W        W37857   9.302   6.515  11.779  0.5676 -0.0036  0.2661
31408W        W37858   2.336   5.795  27.398  0.5564 -0.3105 -0.1948
31409W        W37859  14.170   4.120  43.078  0.2117  0.0652 -0.2454
31410W        W37860  19.607   0.374  35.581  0.3984 -0.1692  0.0233
31411W        W37861  11.550   0.089  36.100 -0.0140  0.4218  0.1302
31412W        W37862   1.713   1.957  12.852 -0.0022  0.0172  0.2485
31413W        W37863   6.862   3.189  32.092  0.0999  0.1744 -0.2835
31414W        W37864  13.873   4.078  41.120 -0.1307  0.4028  0.1431
31415W        W37865   9.691   3.822  25.230 -0.1657  0.1306  0.1746
31416W        W37866   7.963   4.703   6.616 -0.1179 -0.0152  0.3584
31417W        W37867  19.135   0.717   1.713  0.1561  0.1590 -0.0637
31418W        W37868  11.679   1.211   3.837  0.0920  0.3911  0.1256
31419W        W37869   3.613   1.873   6.947 -0.0233  0.0001  0.3661
31420W        W37870   5.366   5.053  41.168  0.3126 -0.0411 -0.0436
31421W        W37871   7.543   4.662  16.337 -0.0750  0.0136 -0.1968
31422W        W37872  19.920   0.606  34.316 -0.0045  0.1639 -0.0440
31423W        W37873  19.856   1.239  21.153 -0.3156  0.2536 -0.2350
31424W        W37874   1.499   0.518  43.431 -0.0068 -0.2032 -0.1684
31425W        W37875  18.318   0.858  38.542 -0.0126 -0.2306 -0.0145
31426W        W37876  12.699   5.583  14.208 -0.0007  0.1758  0.0145
31427W        W37877  19.462   6.387  15.646  0.0593  0.0892  0.0683
31428W        W37878   6.698   1.119  12.212  0.2119  0.0906 -0.0200
31429W        W37879   2.191   3.894   4.165 -0.1117  0.1264  0.1365
31430W        W37880   5.666   2.885   6.064 -0.0644 -0.1220 -0.0408
31431W        W37881  19.526   2.684  30.517  0.0179  0.0148  0.3426
31432W        W37882  18.310   2.955  32.408  0.2858 -0.0310  0.0623
31433W        W37883  12.573   0.595  32.299 -0.0556  0.0061 -0.1029
31434W        W37884  13.341   2.968  12.927  0.0462  0.0292 -0.0768
31435W        W37885  13.283   1.824  31.749  0.1312  0.0562 -0.2078
31436W        W37886   7.093   4.931   0.450 -0.0346 -0.0878 -0.0237
31437W        W37887  13.042   4.022  30.001  0.0388  0.0534 -0.0464
31438W        W37888  10.749   4.450  44.371  0.0308 -0.0847 -0.1222
31439W        W37889   5.023   5.356  26.926 -0.1774 -0.1482  0.2853
31440W        W37890   3.720   5.448  37.823 -0.0788 -0.0025 -0.0004
31441W        W37891   4.225   4.319   8.027  0.0622 -0.3471 -0.0315
31442W        W37892  17.339   3.344  30.353  0.1540  0.0116 -0.3236
31443W        W37893  11.623   1.485  31.127 -0.2105 -0.0064  0.1466
31444W        W37894  14.658   0.202  29.952 -0.2082  0.0673  0.1460
31445W        W37895  14.114   5.817  40.974 -0.1119  0.0134  0.4678
31446W        W37896   2.787   5.580   3.536  0.2677  0.3099 -0.0111
31447W        W37897  16.953   6.479  18.460  0.0305 -0.1344  0.0546
31448W        W37898  14.582   1.863  41.712  0.0697  0.1705  0.4997
31449W        W37899   7.321   0.736  43.340 -0.2651 -0.0216  0.0116
31450W        W37900   7.705   1.271  38.653 -0.0503  0.1131  0.1629
31451W        W37901   1.881   3.325  38.575  0.0647 -0.1632  0.0520
31452W        W37902   5.592   6.398  14.817 -0.0514  0.1602  0.1105
31453W        W37903  12.203   4.855   5.329 -0.0162 -0.0966  0.1542
31454W        W37904  18.576   1.553  10.786  0.3411 -0.0945  0.0690
31455W        W37905  14.580   4.564  44.732  0.1973  0.3221  0.0158
31456W        W37906   9.874   0.668  11.505  0.3042  0.2196  0.0551
31457W        W37907  12.378   2.148  38.565 -0.0153  0.2494  0.0373
31458W        W37908  17.825   4.809  16.191  0.0738  0.0510  0.3871
31459W        W37909   0.796   6.213  29.964 -0.1057 -0.1741  0.2080
31460W        W37910   5.059   5.163  10.386  0.0113  0.0515 -0.1689
31461W        W37911   7.624   1.641  38.243 -0.0502 -0.3446  0.2471
31462W        W37912  13.341   0.633  42.808 -0.2956  0.0707  0.0265
31463W        W37913   5.906   5.082  12.772  0.0889  0.4366  0.2149
31464W        W37914  12.927   6.565  37.557  0.0353  0.2808 -0.1533
31465W        W37915   0.251   2.252  27.696  0.0859 -0.2087 -0.2539
31466W        W37916   9.182   2.413  12.845 -0.2396  0.3229 -0.1458
31467W        W37917   0.050   5.392  43.129 -0.0490 -0.1586 -0.1201
31468W        W37918   3.402   3.651  26.290  0.1247 -0.1301  0.0716
31469W        W37919  18.299   2.186   3.142  0.1778  0.0377 -0.0226
31470W        W37920   2.332   0.261  16.419  0.2711 -0.1029  0.1817
31471W        W37921  19.320   3.805   8.634  0.0202 -0.2059 -0.0725
31472W        W37922  11.618   5.035   3.700 -0.0563  0.0953 -0.2404
31473W        W37923   0.225   2.004  31.200 -0.0793 -0.2098  0.0477
31474W        W37924   3.572   2.472   9.750 -0.0901 -0.3135  0.0511
31475W        W37925   7.061   4.641   3.566 -0.2642  0.1736 -0.3017
31476W        W37926  20.509   5.531  12.272  0.2773 -0.2399 -0.1624
31477W        W37927  16.275   2.653  20.651  0.2790  0.1267 -0.0759
31478W        W37928   3.523   0.848   0.470 -0.1503 -0.0255 -0.0700
31479W        W37929   0.833   3.559  35.212 -0.1502  0.0225 -0.4242
31480W        W37930  16.636   3.630  35.366 -0.1389 -0.2572 -0.1169
31481W        W37931  11.883   6.478  40.934 -0.2565  0.0478 -0.0314
31482W        W37932   8.864   5.228  25.445 -0.0844 -0.0309  0.2142
31483W        W37933  14.890   0.713  42.173 -0.1049 -0.2045  0.2512
31484W        W37934   4.228   2.119  35.069  0.1992 -0.1280 -0.2073
31485W        W37935  15.755   0.396  35.600 -0.0359  0.0591 -0.0636
31486W        W37936   2.496   0.680   9.409  0.1312 -0.0535 -0.2824
31487W        W37937   4.585   5.688   1.883 -0.0536  0.1384 -0.3643
31488W        W37938  14.181   2.770  16.728  0.0429 -0.1174 -0.1433
31489W        W37939   8.335   1.906  42.550  0.2263 -0.3123  0.0447
31490W        W37940  12.652   4.557  33.194  0.1554 -0.1613 -0.0900
31491W        W37941  17.361   0.483   6.388  0.3395 -0.0237  0.1854
31492W        W37942   4.770   2.255   5.366  0.3447 -0.1170  0.1008
31493W        W37943  13.853   4.206   3.080 -0.0197 -0.0059  0.0435
31494W        W37944   2.764   3.990  43.789 -0.2365 -0.3168  0.0195
31495W        W37945   8.458   3.143  16.591  0.0340 -0.3245  0.0164
31496W        W37946   6.244   4.275  40.350 -0.3183  0.0867 -0.1041
31497W        W37947   9.970   1.544  33.227  0.0587  0.2780  0.0290
31498W        W37948  15.195   6.035  19.023  0.2996 -0.0750  0.1533
31499W        W37949  16.608   2.376  42.103 -0.2455  0.0381  0.0287
31500W        W37950  16.063   6.601   1.860  0.0866  0.0901  0.0468
31501W        W37951  11.028   2.593   5.599  0.1859  0.1008  0.1260
31502W        W37952  13.437   1.344  31.756 -0.1870 -0.0174  0.1275
31503W        W37953   5.664   1.431  25.604  0.2695 -0.2078 -0.1358
31504W        W37954  11.420   1.897  15.725 -0.2345  0.1430  0.2351
31505W        W37955   6.193   2.525  26.121  0.0762  0.1810 -0.0690
31506W        W37956  17.275   3.328  16.194  0.0939 -0.0615 -0.0430
31507W        W37957  15.666   0.744  17.038 -0.1255  0.2003 -0.0359
31508W        W37958  16.845   3.139  22.848 -0.2056 -0.3297 -0.2145
31509W        W37959  10.804   3.394  30.094 -0.0037  0.1272 -0.3813
31510W        W37960  14.935   5.769  28.997 -0.1221 -0.0474  0.0217
31511W        W37961  10.477   2.307   6.362 -0.1608  0.0239 -0.3308
31512W        W37962  17.518   3.952  14.475 -0.0479  0.0557  0.1953
31513W        W37963  12.630   4.041   9.849  0.3847 -0.0469  0.1461
31514W        W37964  11.902   0.183  11.214 -0.0744 -0.1669  0.1163
31515W        W37965  18.722   3.539  44.077  0.1901  0.0811 -0.0891
31516W        W37966   4.096   3.619  22.141 -0.1059  0.1128 -0.1472
31517W        W37967   6.045   0.590  37.723  0.0006 -0.0898  0.1352
31518W        W37968  13.514   4.555   2.877 -0.2082  0.0454 -0.0494
31519W        W37969   1.788   2.087  44.480  0.3651  0.0593 -0.2570
31520W        W37970  13.152   1.878   8.397  0.0872 -0.0322  0.1254
31521W        W37971  11.706   5.145   8.887  0.2800 -0.1034  0.0797
31522W        W37972   2.916   5.046  11.666  0.0022  0.0959 -0.0301
31523W        W37973  14.303   5.521  43.181 -0.1640  0.2407  0.1787
31524W        W37974   1.348   0.610  30.521  0.1548  0.0361  0.1042
31525W        W37975  13.424   3.382   9.745  0.2116  0.0145  0.3913
31526W        W37976   1.311   4.314  37.719 -0.1025 -0.0424 -0.2423
31527W        W37977  13.265   4.556  39.272  0.0566  0.0349 -0.2015
31528W        W37978  14.105   0.982  32.020 -0.2598  0.0136 -0.0186
31529W        W37979   1.689   6.396   3.294  0.0252 -0.1287 -0.1382
31530W        W37980  16.918   2.044  22.721 -0.0807 -0.6205  0.0522
31531W        W37981  11.998   6.396  37.215  0.1369 -0.1994 -0.1589
31532W        W37982   6.609   3.993  35.886  0.1782  0.0157  0.4233
31533W        W37983  15.342   0.731  28.958  0.2257 -0.1449 -0.0162
31534W        W37984   3.523   0.167  11.344 -0.1791  0.3148  0.1183
31535W        W37985   0.471   5.477   3.507 -0.0635 -0.5898  0.0409
31536W        W37986   5.090   5.803  22.588 -0.0599 -0.0593 -0.1017
31537W        W37987  19.953   2.516   8.776  0.0799 -0.0050  0.2510
31538W        W37988  11.072   4.808  44.169  0.0615 -0.1944  0.3682
31539W        W37989  18.599   5.551  22.348 -0.3230  0.0401  0.0997
31540W        W37990   6.991   2.550  23.655 -0.2127 -0.2897 -0.0193
31541W        W37991  11.753   3.834  17.139  0.0650 -0.0982 -0.0550
31542W        W37992   6.094   5.085  20.880  0.2251 -0.0687  0.0640
31543W        W37993   7.463   2.114   7.955 -0.0464  0.1431 -0.1340
31544W        W37994  16.773   2.921  15.354  0.1159  0.1598  0.0031
31545W        W37995   1.179   3.629   1.297  0.1993  0.1203 -0.1234
31546W        W37996   2.199   3.307  35.772 -0.3868  0.1284 -0.0243
31547W        W37997  11.848   3.302  40.344 -0.0544  0.1798 -0.0831
31548W        W37998   4.217   0.805  39.163 -0.0524 -0.1236  0.1264
31549W        W37999   0.957   4.496   5.156 -0.1088  0.1410  0.0566
31550W        W38000  12.498   2.164  28.534 -0.1773  0.2522  0.1522
31551W        W38001   1.759   4.014   5.490  0.1463  0.1991 -0.1039
31552W        W38002  16.091   2.793  18.277  0.0427  0.2313  0.1749
31553W        W38003   7.096   4.546   8.221 -0.0580  0.0542 -0.0161
31554W        W38004  14.432   4.544   3.900  0.0823 -0.0098 -0.3641
31555W        W38005   5.809   1.762  35.573  0.0375  0.1529 -0.0226
31556W        W38006   1.207   1.810  42.302 -0.4188  0.1369 -0.1889
31557W        W38007   7.850   1.397  36.446  0.0056  0.0310 -0.0111
31558W        W38008  19.914   0.174  30.943  0.1323 -0.0549  0.1189
31559W        W38009  14.948   0.807   4.529  0.1783 -0.2465 -0.1136
31560W        W38010  17.956   1.296  21.027 -0.2690  0.0527 -0.0665
31561W        W38011   8.613   4.180   5.628  0.1547  0.1175 -0.0046
31562W        W38012  17.230   0.981   8.704  0.1340  0.3543 -0.2439
31563W        W38013   7.216   6.051   9.556 -0.0558 -0.1897  0.1666
31564W        W38014   0.680   1.488   0.075 -0.1697 -0.0331 -0.1527
31565W        W38015   4.615   5.026  34.864  0.1395  0.0438 -0.1502
31566W        W38016   5.170   3.830  34.047  0.1532 -0.0680  0.4954
31567W        W38017   5.928   2.325  27.396 -0.2109 -0.0054  0.1036
31568W        W38018   2.860   6.352  31.776 -0.0225 -0.1127  0.0301
31569W        W38019   0.127   0.661   8.020 -0.1533 -0.2684 -0.1870
31570W        W38020   5.990   4.109  33.399 -0.0929  0.2641 -0.0471
31571W        W38021  14.825   5.428  35.547 -0.1603 -0.0660 -0.2062
31572W        W38022  19.447   4.346   0.079  0.1786  0.1284 -0.1218
31573W        W38023   1.160   0.992   6.121 -0.0929 -0.3751 -0.0798
31574W        W38024   0.594   6.086  14.249  0.0953 -0.0130 -0.0731
31575W        W38025  19.173   3.916  36.032 -0.0445 -0.1966  0.0705
31576W        W38026   7.616   4.875   6.254 -0.1655  0.0790 -0.0856
31577W        W38027  20.683   1.372  36.960  0.0322  0.0170  0.4253
31578W        W38028  16.381   5.319   4.191 -0.0192  0.2447 -0.1500
31579W        W38029  10.806   3.588  44.655  0.1900 -0.0786  0.0047
31580W        W38030   6.606   1.142  11.430 -0.2600 -0.0204 -0.0950
31581W        W38031  16.766   2.666  33.857  0.1167  0.1093  0.2135
31582W        W38032  20.648   2.590  31.822 -0.0210 -0.0526  0.0357
31583W        W38033  11.797   5.894  16.141 -0.2980 -0.2440 -0.0860
31584W        W38034   3.692   6.105  31.014  0.2805  0.4258 -0.1141
31585W        W38035  14.121   6.578  30.702  0.0583 -0.1296 -0.1489
31586W        W38036   2.375   0.754  36.673 -0.1372  0.2785  0.1475
31587W        W38037   4.262   3.664  34.322 -0.1997 -0.2066  0.0583
31588W        W38038  10.906   6.593  43.445  0.1279  0.0251  0.1513
31589W        W38039  11.459   3.438  13.380 -0.0303  0.2043  0.0032
31590W        W38040  15.200   4.907  23.869  0.0508 -0.1315 -0.2316
31591W        W38041  14.520   2.135  29.663  0.2183 -0.1460  0.0455
31592W        W38042   7.735   5.052  29.621  0.1189 -0.1577 -0.3938
31593W        W38043   9.387   6.601  24.274 -0.2367 -0.0116  0.3778
31594W        W38044  14.666   2.018  34.933  0.1499 -0.0580 -0.3730
31595W        W38045  12.038   2.233   9.846 -0.0366  0.2915  0.0616
31596W        W38046  12.331   3.675   6.436 -0.0889 -0.1017 -0.1379
31597W        W38047  17.610   5.374  38.159  0.1651  0.1560  0.4131
31598W        W38048  12.821   2.069  12.704  0.2122 -0.3473 -0.1429
31599W        W38049   3.712   6.454   0.354 -0.3085  0.2999  0.0454
31600W        W38050   5.623   3.870   5.793 -0.4859  0.1617 -0.0284
31601W        W38051   0.336   3.944  40.769 -0.1306 -0.0965 -0.0690
31602W        W38052   2.353   0.707  37.155 -0.2568 -0.1564 -0.0301
31603W        W38053  18.336   5.424  12.068 -0.1553 -0.1366 -0.1330
31604W        W38054   2.147   1.293  31.125  0.0833 -0.0468  0.0471
31605W        W38055   5.888   2.322  13.957 -0.0566 -0.0959  0.3709
31606W        W38056   3.485   0.355   6.794  0.2019 -0.0128  0.3587
31607W        W38057  20.147   5.233  10.931 -0.3306 -0.0248  0.2625
31608W        W38058  19.889   5.005  41.642  0.0244 -0.2897  0.1739
31609W        W38059   4.712   4.725  31.425 -0.0756 -0.1393 -0.1780
31610W        W38060  15.013   3.175  40.400 -0.2986 -0.0216  0.1372
31611W        W38061   3.971   6.468  30.421 -0.1643  0.0442  0.0699
31612W        W38062  16.015   0.624  32.110 -0.1874  0.0663  0.0502
31613W        W38063  11.597   0.987   9.544  0.1913 -0.0295 -0.0895
31614W        W38064   9.353   5.736  25.835 -0.0482  0.1395  0.3187
31615W        W38065  16.430   2.074  41.775  0.0090 -0.2202 -0.1124
31616W        W38066   9.923   6.436  43.954  0.3236  0.1145  0.0634
31617W        W38067   1.286   3.524   8.650  0.1222 -0.1042 -0.2570
31618W        W38068  13.778   2.731  35.012 -0.1191  0.1553  0.1384
31619W        W38069  16.741   5.386  40.364  0.0608  0.2194 -0.0267
31620W        W38070  14.261   5.436   4.729  0.0183  0.0235 -0.4016
31621W        W38071   5.368   6.127  40.185  0.1030  0.1334 -0.2071
31622W        W38072   3.303   0.476   7.310  0.0888 -0.0201 -0.0054
31623W        W38073  14.940   6.429  40.011  0.0269  0.1313  0.1529
31624W        W38074   1.656   3.531  35.206 -0.3180 -0.1280  0.2035
31625W        W38075  10.281   1.952  40.106 -0.2129  0.1928 -0.3115
31626W        W38076   9.961   1.429  27.165 -0.1704 -0.0611 -0.0710
31627W        W38077   1.087   1.981  31.082 -0.0190  0.0268 -0.0156
31628W        W38078   5.742   2.744  29.035  0.0957 -0.2837 -0.1931
31629W        W38079  10.417   1.015  37.559  0.1447 -0.2214  0.0078
31630W        W38080   7.766   0.959  30.665  0.2178 -0.0822 -0.0779
31631W        W38081  16.930   1.456   9.336  0.1557 -0.1907  0.1272
31632W        W38082  14.919   1.262  38.029 -0.0676  0.0171 -0.1833
31633W        W38083   7.326   4.760  10.753  0.1047 -0.0046  0.2331
31634W        W38084  12.858   0.114  41.123 -0.3036  0.0381 -0.1655
31635W        W38085  17.678   1.886  39.267  0.2223 -0.2314  0.1312
31636W        W38086  20.821   6.334  28.310  0.4098 -0.2451 -0.1822
31637W        W38087  15.401   4.824  23.298  0.4156  0.1614  0.2455
31638W        W38088  13.561   3.537  36.919 -0.0225 -0.1052 -0.2518
31639W        W38089  11.770   3.707   4.007 -0.4103 -0.2527  0.2071
31640W        W38090   5.388   0.045  15.195 -0.1608 -0.4864 -0.0286
31641W        W38091   1.385   5.457  35.879  0.1705  0.0548 -0.5525
31642W        W38092  16.042   3.606  29.992 -0.2869  0.2959  0.1915
31643W        W38093   5.861   5.239  24.802  0.1925 -0.1040 -0.0546
31644W        W38094   0.533   4.618  40.261 -0.1163  0.1423 -0.1643
31645W        W38095  13.636   0.246  34.388  0.0203 -0.0965  0.0053
31646W        W38096  15.656   2.362  23.947  0.0041 -0.1486  0.1731
31647W        W38097  16.200   4.841  40.813  0.0637  0.0486 -0.0439
31648W        W38098   5.711   6.382  14.307 -0.0373  0.0131  0.0636
31649W        W38099   1.995   5.929  34.305  0.0010  0.0742 -0.1606
31650W        W38100  11.990   0.580   1.712  0.1579  0.0466 -0.0939
31651W        W38101  16.899   1.478  14.062  0.0236  0.2718  0.1030
31652W        W38102  17.105   5.939  14.304  0.0174 -0.3241  0.0723
31653W        W38103   7.668   5.901  27.744  0.3781 -0.2440  0.0276
31654W        W38104   6.360   4.007  28.387 -0.0438  0.0707  0.2948
31655W        W38105  20.725   4.879  17.474  0.2958 -0.0502  0.3243
31656W        W38106  19.771   1.071  16.330  0.0487  0.2334  0.0300
31657W        W38107   8.079   2.958  30.592  0.1918 -0.1117  0.1743
31658W        W38108   0.519   1.946  29.370 -0.4106  0.0584  0.2288
31659W        W38109  19.682   1.590  17.170  0.0266  0.2373 -0.1938
31660W        W38110  13.783   1.405  30.564  0.3442  0.0158  0.1557
31661W        W38111   4.002   1.211  31.487 -0.1287 -0.1054 -0.1369
31662W        W38112   3.286   5.218  32.497  0.0391  0.0987  0.2953
31663W        W38113  13.685   2.395  32.367  0.2376  0.1622  0.0981
31664W        W38114   5.926   0.153  12.152 -0.1248  0.2130  0.4620
31665W        W38115   2.225   0.598  42.487 -0.3410  0.0318  0.0281
31666W        W38116   6.319   4.317  10.432 -0.0981  0.0802  0.2045
31667W        W38117  11.010   3.344  42.608 -0.0768  0.1170 -0.1753
31668W        W38118  10.733   2.705  32.474  0.3465 -0.2203  0.0843
31669W        W38119  16.724   5.010  32.417  0.0484  0.1820 -0.1133
31670W        W38120   5.190   4.303  42.892 -0.0621  0.2828  0.0416
31671W        W38121  13.180   4.907   4.911 -0.4949  0.0932 -0.2733
31672W        W38122  11.003   1.597  27.023 -0.1154  0.1498  0.2186
31673W        W38123  13.252   0.017   7.171  0.3728 -0.0056 -0.2572
31674W        W38124   4.874   1.092  34.818 -0.0232  0.3472  0.2471
31675W        W38125   6.043   4.453  27.591  0.0545 -0.0892 -0.1457
31676W        W38126  19.137   1.273  42.870  0.0651 -0.2442  0.1939
31677W        W38127   0.745   2.371   9.866  0.0529  0.0994 -0.0134
31678W        W38128   4.896   2.523   7.836 -0.0895 -0.3314 -0.2025
31679W        W38129  10.061   5.071  40.913 -0.0031 -0.3871  0.0588
31680W        W38130   2.771   1.985   1.460 -0.1892 -0.4321  0.4762
31681W        W38131   7.134   3.724  14.260 -0.2183 -0.0438 -0.0481
31682W        W38132   6.288   2.469  31.290 -0.1266 -0.2230  0.2233
31683W        W38133   2.856   0.465  13.143  0.0220 -0.0704  0.1874
31684W        W38134   4.257   1.254  28.903 -0.1609 -0.0751  0.0615
31685W        W38135   7.092   3.145   1.426 -0.0784  0.0290  0.1546
31686W        W38136   0.731   5.058   3.254  0.3087 -0.0028  0.0574
31687W        W38137   5.651   5.709  43.531 -0.3248  0.1490 -0.0639
31688W        W38138   9.644   3.975  37.432 -0.1732  0.1985  0.0931
31689W        W38139   7.591   4.450  34.090 -0.0514  0.2291  0.0309
31690W        W38140   7.567   2.952  42.218 -0.2910 -0.1312 -0.4431
31691W        W38141  14.883   2.088  23.009  0.1802 -0.0516  0.0231
31692W        W38142   2.919   4.513   6.755 -0.1172 -0.0059 -0.0273
31693W        W38143   4.751   3.829  39.598  0.1090  0.0773  0.0342
31694W        W38144   5.124   4.914  27.203  0.2165  0.0251 -0.0103
31695W        W38145   2.869   5.044  44.016 -0.1691 -0.3012 -0.3736
31696W        W38146   1.065   4.539  34.141  0.0726 -0.0594 -0.2442
31697W        W38147  17.416   5.840  14.660  0.2468  0.2452 -0.0196
31698W        W38148   2.686   6.597  37.557  0.0894 -0.0263 -0.0879
31699W        W38149   3.568   0.231  30.362  0.2508 -0.0913 -0.1223
31700W        W38150  13.093   5.379  35.020  0.1414  0.4379 -0.0304
31701W        W38151  10.812   0.982  29.117 -0.1027  0.0156 -0.2221
31702W        W38152  17.126   4.367  20.451  0.0576  0.0888  0.2409
31703W        W38153  15.068   6.538  21.954  0.0848 -0.0749  0.1501
31704W        W38154   4.847   3.693  23.604  0.4419 -0.4553 -0.2147
31705W        W38155  17.552   0.070   5.674  0.2136  0.0439  0.3142
31706W        W38156  15.939   5.044  39.256 -0.0125 -0.2481  0.2154
31707W        W38157  20.398   0.335  36.119  0.0413  0.1260  0.0806
31708W        W38158  15.561   5.988  17.703  0.0935  0.2461  0.0053
31709W        W38159  12.801   2.807  33.865 -0.1707  0.3229 -0.0208
31710W        W38160   5.699   0.731  20.824  0.2989 -0.1144  0.1030
31711W        W38161   5.228   1.230   0.481 -0.0285 -0.2158  0.0375
31712W        W38162  12.329   0.899  34.269 -0.0441  0.0507  0.1464
31713W        W38163   7.825   5.817  28.308  0.0923  0.3089 -0.0017
31714W        W38164  18.466   5.226  11.109 -0.3096  0.1893  0.0465
31715W        W38165   6.054   2.255   7.090  0.1491  0.2100  0.0097
31716W        W38166  11.430   5.422   7.966  0.0662 -0.1366  0.2909
31717W        W38167   0.614   6.193   4.657 -0.1324 -0.1823  0.2677
31718W        W38168  18.719   3.180   4.573 -0.1992 -0.0011  0.1323
31719W        W38169  10.640   0.019  16.488  0.1263  0.1943  0.0473
31720W        W38170  18.011   5.308  32.853 -0.1326 -0.0076  0.4231
31721W        W38171  17.334   5.265  41.989  0.1379 -0.3623  0.0225
31722W        W38172   6.553   3.871  43.157 -0.0771  0.0193 -0.2588
31723W        W38173  15.116   3.558   0.228  0.2395 -0.0801  0.3371
31724W        W38174   7.047   2.070   5.546 -0.1365  0.0045 -0.0193
31725W        W38175   9.422   3.841  29.695 -0.3711 -0.0667 -0.0161
31726W        W38176  15.534   2.083   9.196  0.2223 -0.1936 -0.2531
31727W        W38177  17.984   5.841  30.337 -0.0694 -0.0730  0.1443
31728W        W38178   2.030   5.195   8.714  0.2007  0.1129 -0.1141
31729W        W38179   3.290   5.811  31.177  0.0403  0.0767  0.1507
31730W        W38180  19.919   4.739  43.132 -0.0931 -0.0367 -0.1827
31731W        W38181  12.961   3.193   8.168  0.1769 -0.1660  0.2152
31732W        W38182   7.162   0.311  29.915 -0.0278 -0.2244 -0.0240
31733W        W38183  16.015   1.122  37.617  0.2928 -0.0041 -0.0998
31734W        W38184  20.238   4.157  44.384 -0.0084  0.1817 -0.2395
31735W        W38185  11.432   4.098  43.200 -0.0368 -0.1022 -0.1172
31736W        W38186  11.811   3.365   6.388  0.3068  0.0768  0.3028
31737W        W38187   1.515   0.038  10.499  0.0093  0.1783  0.1387
31738W        W38188   6.877   1.541  37.075 -0.4148 -0.0035 -0.4309
31739W        W38189   1.281   0.225  41.927 -0.1424  0.2268  0.2650
31740W        W38190  12.462   1.260   6.112  0.0665  0.0691 -0.1686
31741W        W38191  11.464   2.095  29.677 -0.2741 -0.0424  0.2019
31742W        W38192  19.985   0.131  19.071  0.0388 -0.2749  0.1115
31743W        W38193  12.714   0.802  30.549  0.0977  0.0188 -0.2059
31744W        W38194  11.236   6.049  42.380  0.0389 -0.2427  0.1584
31745W        W38195   6.947   0.607   2.375  0.2089  0.2786 -0.0898
31746W        W38196   9.737   0.908  30.698 -0.2294  0.1530 -0.1655
31747W        W38197  18.949   4.649  37.275  0.1203 -0.1879 -0.1259
31748W        W38198  11.883   3.221  43.573 -0.1854 -0.1939 -0.2646
31749W        W38199  13.460   3.112  41.869  0.0058  0.0906  0.1593
31750W        W38200  13.792   1.033  31.601  0.1241  0.3559  0.2085
31751W        W38201  13.294   4.423  21.208 -0.1132  0.0261 -0.3202
31752W        W38202   8.384   2.645  12.434 -0.2981 -0.1046 -0.0971
31753W        W38203   1.110   1.892  11.963 -0.3472 -0.1976  0.1195
31754W        W38204   0.074   6.290  40.677 -0.2186 -0.0183 -0.0998
31755W        W38205   4.858   4.888   6.502  0.3590  0.0590 -0.0241
31756W        W38206  11.527   3.770  11.220  0.2821 -0.0196 -0.0241
31757W        W38207   2.747   3.565  25.864 -0.0544 -0.1152 -0.2282
31758W        W38208  12.595   4.496  14.321  0.0321 -0.1436  0.2628
31759W        W38209  20.519   0.356  41.637  0.0719 -0.0430 -0.1589
31760W        W38210   1.230   0.662  38.726  0.0231  0.0777  0.0680
31761W        W38211  16.108   1.957  11.737  0.1025 -0.1247  0.0939
31762W        W38212  11.210   4.723  18.011 -0.0446  0.1136 -0.3398
31763W        W38213   2.722   3.272  41.980  0.1333 -0.0178  0.4341
31764W        W38214  11.052   5.832  11.006 -0.0648  0.0677 -0.3285
31765W        W38215   2.169   4.843   3.955 -0.0640  0.2201 -0.0823
31766W        W38216  11.201   6.129  30.920  0.1845 -0.0255  0.3040
31767W        W38217  11.392   0.951   1.825 -0.0281 -0.1097  0.1766
31768W        W38218  13.838   2.357  39.888 -0.3153 -0.1102  0.2212
31769W        W38219   9.481   3.269  39.720 -0.2624  0.1439  0.0610
31770W        W38220  15.087   3.501  39.404 -0.0570 -0.1144  0.1534
31771W        W38221  20.724   0.483  36.496 -0.0329 -0.2680 -0.0005
31772W        W38222   2.715   2.708  13.309 -0.0594  0.1328  0.4148
31773W        W38223   0.708   3.462  15.813  0.1238  0.4425 -0.3582
31774W        W38224   0.247   0.644  33.266  0.2775  0.1749  0.2484
31775W        W38225  18.012   4.928  15.713  0.0972 -0.0615 -0.4142
31776W        W38226  18.446   5.353  17.388 -0.1543 -0.0365 -0.1300
31777W        W38227   8.373   1.705   7.931  0.2162  0.3756 -0.0495
31778W        W38228  18.190   4.231   1.765  0.1412 -0.0108  0.2120
31779W        W38229   4.354   4.132  26.745  0.2865  0.0568  0.0841
31780W        W38230   0.596   3.347   2.802  0.0348  0.1098 -0.4721
31781W        W38231   5.531   6.425  44.250  0.3282 -0.3786 -0.2739
31782W        W38232  11.107   2.868  36.676  0.1621 -0.0829  0.1208
31783W        W38233  14.498   2.164  13.291 -0.2240 -0.0237 -0.0057
31784W        W38234  13.373   3.119  38.007 -0.4501  0.2761  0.1154
31785W        W38235  16.726   4.062  29.793  0.2413 -0.1596  0.1128
31786W        W38236   8.939   3.142   8.695  0.0710 -0.3285 -0.0639
31787W        W38237  10.599   5.033   1.630 -0.0420  0.0560 -0.4688
31788W        W38238  11.327   3.812  18.888  0.0202 -0.1361  0.1770
31789W        W38239   6.766   6.094  30.624  0.0786  0.0269 -0.3911
31790W        W38240   7.071   3.655  30.750  0.2086 -0.1388 -0.0448
31791W        W38241   5.937   5.749  26.727 -0.0976  0.0282 -0.3808
31792W        W38242  15.649   5.089   8.290 -0.1096  0.2231 -0.1227
31793W        W38243   2.379   1.284  29.143 -0.0659  0.2451 -0.0917
31794W        W38244   1.999   0.471  35.961  0.0200  0.1542  0.2043
31795W        W38245   1.909   3.590  43.081 -0.2632 -0.1660  0.1125
31796W        W38246   0.512   0.099  15.438  0.3708 -0.0835  0.5399
31797W        W38247  15.325   4.069  32.448  0.4378 -0.0351  0.1181
31798W        W38248   7.059   2.146  35.643  0.0751  0.0045 -0.1872
31799W        W38249   4.277   3.957  36.419  0.1411  0.4170 -0.0091
31800W        W38250   9.683   2.051   5.330  0.0652  0.0042  0.2805
31801W        W38251   6.925   4.898   2.256 -0.0292  0.3569 -0.1792
31802W        W38252  11.067   0.203  31.518 -0.0649 -0.2120  0.1187
31803W        W38253  20.727   3.889   2.582  0.1940  0.0581  0.0934
31804W        W38254  20.567   4.060   6.471  0.0335 -0.2611  0.1137
31805W        W38255  20.635   5.504  44.133  0.0058 -0.1163  0.2254
31806W        W38256   9.148   5.103  11.928 -0.3047  0.0596  0.2234
31807W        W38257   6.350   1.011  29.346  0.0422  0.2727 -0.3792
31808W        W38258  17.194   2.173   5.993 -0.2683 -0.1531  0.0577
31809W        W38259  17.540   1.349   4.258  0.3539  0.0502  0.1779
31810W        W38260   1.804   5.694  15.230 -0.0854 -0.0387 -0.2223
31811W        W38261   9.903   5.193  37.392 -0.1694  0.1323 -0.1245
31812W        W38262   5.993   1.479  44.690 -0.2010  0.0705  0.0891
31813W        W38263   0.018   6.212  36.452 -0.3882 -0.2185 -0.0745
31814W        W38264   7.458   2.555  44.725  0.2235  0.0384  0.0309
31815W        W38265   3.218   4.875   0.234 -0.0802 -0.0868  0.1951
31816W        W38266   8.113   4.962   8.799 -0.0366 -0.2111  0.2760
31817W        W38267  16.621   4.828  31.963 -0.2579  0.3354 -0.3408
31818W        W38268   9.997   0.221   0.702  0.0925 -0.1386  0.0449
31819W        W38269   5.301   5.222   1.162  0.0013  0.0827 -0.3698
31820W        W38270   1.434   2.322   8.636 -0.0063  0.2232  0.0495
31821W        W38271  13.422   4.268  11.879 -0.0526  0.3918  0.2616
31822W        W38272  15.534   0.526   0.249  0.1438 -0.1606  0.1733
31823W        W38273   6.633   1.238  28.191 -0.1699 -0.1469 -0.0789
31824W        W38274   8.543   2.900   5.552  0.0266  0.0430 -0.0022
31825W        W38275  14.671   3.636  39.729 -0.0642 -0.1697  0.1087
31826W        W38276   9.961   4.654  37.069  0.1759 -0.0392  0.3097
31827W        W38277  10.718   4.664  37.708 -0.1737  0.1059 -0.0060
31828W        W38278  12.061   6.480  15.027 -0.1546 -0.1300 -0.0856
31829W        W38279   3.863   1.307  12.149 -0.1684  0.0030  0.3135
31830W        W38280   7.311   5.660  25.086  0.0652  0.1759 -0.0322
31831W        W38281  14.573   6.241  39.158 -0.1068  0.0261 -0.2483
31832W        W38282  18.970   0.784  42.472 -0.1342 -0.1222 -0.2050
31833W        W38283  15.591   2.828  43.761 -0.0542  0.1920 -0.1138
31834W        W38284  14.517   3.702  40.691 -0.2703  0.1087  0.1663
31835W        W38285  10.589   0.692  28.245  0.2459  0.0508  0.2238
31836W        W38286   4.420   4.909  36.696  0.0549 -0.1206 -0.3671
31837W        W38287   9.934   2.980  11.241  0.0474  0.0351 -0.1435
31838W        W38288  13.736   0.629  30.988  0.0900 -0.1399  0.3122
31839W        W38289   5.527   4.517  28.718  0.0943  0.0253 -0.0263
31840W        W38290   7.928   5.232   2.170 -0.2115 -0.2821  0.0597
31841W        W38291  15.673   1.160  34.548  0.2246  0.0481 -0.3784
31842W        W38292  14.959   3.350   5.419 -0.2080  0.0992 -0.1835
31843W        W38293   5.516   2.054  24.641 -0.1213 -0.1836 -0.2285
31844W        W38294   2.896   6.193   0.563  0.0291 -0.0936  0.4222
31845W        W38295   3.879   3.545   2.414  0.0194  0.0531 -0.1230
31846W        W38296  18.638   2.479  36.471 -0.1513  0.0167 -0.0773
31847W        W38297  17.905   4.958   0.182 -0.3586 -0.0593  0.4235
31848W        W38298  15.467   4.638  37.715 -0.1909 -0.1506  0.1700
31849W        W38299   7.976   2.656  23.648  0.2191  0.1390  0.1703
31850W        W38300   3.313   1.050  24.915 -0.1693 -0.0548  0.4797
31851W        W38301  17.289   1.803  41.529 -0.1873  0.1727  0.0048
31852W        W38302   7.488   4.975  30.555 -0.3434  0.0089 -0.1314
31853W        W38303   6.365   3.087  15.132  0.0206  0.3132  0.0170
31854W        W38304   8.700   4.385  29.111 -0.1016 -0.4812 -0.0420
31855W        W38305   1.509   2.113  32.942 -0.0849 -0.2286 -0.1562
31856W        W38306   2.736   1.406  16.879  0.0106 -0.0291  0.0768
31857W        W38307  20.812   1.683   2.068  0.2693 -0.2794 -0.3354
31858W        W38308  19.801   2.560  19.399  0.4836  0.1543  0.0934
31859W        W38309  20.191   1.728  37.685 -0.0198 -0.1209 -0.1076
31860W        W38310  15.960   1.442  41.823  0.3145  0.0295 -0.0740
31861W        W38311   1.298   5.036  41.230  0.0441 -0.0949  0.2999
31862W        W38312  20.258   2.720  19.559  0.2764 -0.2267  0.0232
31863W        W38313  20.128   1.065  32.564  0.2788  0.0632  0.2487
31864W        W38314  17.278   1.117  32.755 -0.1380 -0.0116  0.0793
31865W        W38315  15.828   6.102  23.714  0.0268 -0.1175 -0.1141
31866W        W38316  11.614   5.314  42.477  0.0670 -0.2532 -0.4942
31867W        W38317   9.857   0.457   7.867 -0.0259 -0.2213 -0.4088
31868W        W38318   2.821   0.271  10.732 -0.1714 -0.2376 -0.0968
31869W        W38319   9.323   1.843  33.998 -0.0916 -0.2946 -0.0720
31870W        W38320  18.468   2.033   8.681 -0.1591  0.1511  0.1947
31871W        W38321   3.862   0.121   0.822  0.3411 -0.2838  0.2047
31872W        W38322   6.438   3.814   3.638  0.0080 -0.2310 -0.0422
31873W        W38323  14.226   3.383   2.061 -0.1645 -0.0666  0.0800
31874W        W38324   7.582   5.677  25.879 -0.0181 -0.0079 -0.3470
31875W        W38325  12.070   5.468   6.968  0.1702 -0.1846  0.0080
31876W        W38326   0.034   4.708   5.758  0.1000  0.1632  0.0632
31877W        W38327   3.168   1.941  34.375 -0.2779 -0.2575  0.0847
31878W        W38328   9.799   2.235  43.717 -0.0755 -0.2311  0.0179
31879W        W38329   1.125   3.346   8.185 -0.0018  0.0980 -0.0136
31880W        W38330  11.333   3.086  32.363  0.2500 -0.0288  0.1428
31881W        W38331  17.504   3.134  23.023  0.2211 -0.0934 -0.1224
31882W        W38332  12.051   1.681  44.213  0.2227 -0.1265  0.0654
31883W        W38333  12.093   3.223   0.661  0.1407 -0.2582  0.0579
31884W        W38334   6.651   5.208  16.477  0.1794  0.2229 -0.0899
31885W        W38335   9.131   3.615  43.595  0.0741  0.1003  0.1753
31886W        W38336  13.327   0.525   1.132  0.1447  0.0314  0.0850
31887W        W38337   3.998   1.813  12.215 -0.0909 -0.0266 -0.1166
31888W        W38338   0.620   3.879  26.708 -0.0403  0.1451  0.0736
31889W        W38339  15.398   5.766  22.276  0.0710 -0.0427  0.0365
31890W        W38340   2.690   0.722  24.041 -0.0547 -0.1191 -0.0133
31891W        W38341   6.584   5.129  37.825 -0.0542  0.0409  0.0755
31892W        W38342  16.632   3.088  43.012 -0.0189 -0.0856  0.3669
31893W        W38343  17.226   0.874  37.679 -0.2482  0.0574 -0.0127
31894W        W38344   4.493   1.653  11.463  0.1320  0.1836  0.1256
31895W        W38345  15.142   0.253  42.260  0.3107  0.1151  0.0049
31896W        W38346  19.617   0.463   9.163  0.1083  0.0613 -0.1780
31897W        W38347  13.647   6.077  30.003 -0.2205 -0.4472 -0.2561
31898W        W38348  14.386   4.368  40.012 -0.0271 -0.1354 -0.0264
31899W        W38349   5.333   2.424   9.124 -0.0797  0.1309 -0.0615
31900W        W38350   6.459   1.857   7.195  0.0200 -0.1197 -0.1046
31901W        W38351   8.755   3.851  16.109  0.1871 -0.2785  0.0641
31902W        W38352  21.085   0.522   0.439  0.0821 -0.2858 -0.2576
31903W        W38353   6.605   4.549   8.416  0.0958  0.2314 -0.1510
31904W        W38354   9.489   5.335  10.938  0.0250  0.2849  0.2486
31905W        W38355  10.352   0.736  42.446  0.2524 -0.1284  0.0445
31906W        W38356  18.394   2.552  41.023  0.2768  0.1851  0.1298
31907W        W38357  16.474   3.337   2.363  0.1989  0.1398  0.2648
31908W        W38358  19.697   3.239  29.514  0.0407  0.1084  0.1655
31909W        W38359  18.204   3.615  15.066 -0.4026 -0.1700  0.1617
31910W        W38360   0.893   1.860  29.049  0.2205 -0.0674  0.2773
31911W        W38361  11.702   3.435  32.487 -0.0654 -0.1271  0.0930
31912W        W38362   9.128   4.527  28.908 -0.0421 -0.5864 -0.1295
31913W        W38363  11.689   6.243   9.998 -0.2218  0.0244  0.2251
31914W        W38364  16.869   3.689  44.620 -0.1629 -0.2278  0.0691
31915W        W38365   9.595   3.238  12.687 -0.0206  0.1347 -0.2461
31916W        W38366  11.441   0.875  30.226  0.1217 -0.1092  0.0321
31917W        W38367  19.481   5.567  11.221  0.0228 -0.2997  0.0770
31918W        W38368  18.641   6.375  39.976  0.1148  0.2265  0.1712
31919W        W38369   9.603   1.252  31.459  0.1109 -0.0692  0.2411
31920W        W38370  18.305   0.110   6.967  0.2732 -0.3229  0.1799
31921W        W38371   9.810   4.109  13.245 -0.3045 -0.0925  0.0025
31922W        W38372  14.776   0.333  14.600 -0.1886  0.0164  0.2958
31923W        W38373   7.862   5.617  27.319  0.3053 -0.1916 -0.0105
31924W        W38374  13.034   2.205   9.651  0.0107  0.1338 -0.0177
31925W        W38375  12.582   6.202  31.967  0.3546  0.2675 -0.3777
31926W        W38376   6.350   0.471  32.218  0.0489  0.0441 -0.2061
31927W        W38377   8.953   0.570  29.728 -0.1321  0.1009 -0.1005
31928W        W38378   0.716   3.681  40.986  0.0213 -0.4127 -0.0483
31929W        W38379  16.344   4.028  39.308 -0.2206  0.1273  0.1118
31930W        W38380  18.377   6.349  36.533 -0.0824  0.0599  0.1265
31931W        W38381   4.484   5.300   7.867  0.1888 -0.1896  0.0642
31932W        W38382   6.727   3.648  31.275 -0.1630 -0.0616  0.1615
31933W        W38383   5.984   2.525   4.867 -0.0852  0.0230  0.2056
31934W        W38384  17.409   4.474  17.448  0.1599 -0.1878 -0.0416
31935W        W38385   3.700   3.073  39.789 -0.3066  0.0185  0.0357
31936W        W38386  13.340   4.739  32.117  0.2113  0.0281  0.2669
31937W        W38387  14.155   2.206  33.218 -0.0729  0.0637  0.1410
31938W        W38388   2.928   0.223  32.527 -0.0592 -0.0668 -0.2768
31939W        W38389  11.808   2.016  35.540  0.0133 -0.1084  0.0876
31940W        W38390   3.652   5.822   7.935 -0.2475 -0.0416 -0.1734
31941W        W38391  12.352   4.454   5.578  0.1870  0.2349  0.0357
31942W        W38392   6.602   0.614  42.085 -0.0217 -0.1327  0.2211
31943W        W38393  14.292   2.804   9.357 -0.0904  0.1860  0.0525
31944W        W38394   6.728   3.721  38.357 -0.0870 -0.1359  0.1259
31945W        W38395   7.508   5.537  39.465 -0.1553  0.0713 -0.3356
31946W        W38396   5.208   4.050  14.136 -0.0834  0.0142 -0.1524
31947W        W38397  18.775   3.105  17.922  0.3021 -0.2666 -0.2965
31948W        W38398  19.971   2.001  10.892  0.1021 -0.3300 -0.0526
31949W        W38399  14.532   3.348   1.609  0.2084  0.1670  0.0372
31950W        W38400   1.370   4.267  29.780  0.1527 -0.0861 -0.2041
31951W        W38401  10.046   2.170  10.740 -0.2839 -0.1021 -0.0346
31952W        W38402   5.819   4.346  42.140  0.1029 -0.0230 -0.1938
31953W        W38403   5.512   5.636  35.079 -0.2347 -0.2219  0.0923
31954W        W38404   3.239   5.261  28.509 -0.0160  0.1216 -0.0193
31955W        W38405   2.890   3.460  12.847  0.2046 -0.0620 -0.0043
31956W        W38406   2.281   2.356   0.760 -0.1941  0.0597 -0.1147
31957W        W38407  14.461   0.496  15.032  0.1748 -0.0774 -0.1065
31958W        W38408   7.399   4.336  43.551 -0.0676 -0.1583 -0.3539
31959W        W38409  20.455   2.944  16.255 -0.0566 -0.0768 -0.1121
31960W        W38410  17.143   4.370  23.596 -0.0283 -0.2132  0.1030
31961W        W38411   3.664   1.849   3.734 -0.1320 -0.0351  0.0750
31962W        W38412  12.190   4.705  11.835  0.0549 -0.2787  0.1096
31963W        W38413  13.694   2.781  19.571 -0.3263 -0.2042 -0.1291
31964W        W38414   8.343   0.991  33.862 -0.2777 -0.2050 -0.1317
31965W        W38415  14.122   3.663   1.515  0.2058 -0.1529  0.0416
31966W        W38416   3.854   5.265  42.201  0.1844  0.0041  0.0634
31967W        W38417   9.583   3.617  12.390  0.1414 -0.3251  0.2770
31968W        W38418   9.026   0.065  44.424 -0.1983 -0.1789 -0.3059
31969W        W38419  13.231   1.758  12.675 -0.1570 -0.2722  0.2242
31970W        W38420   4.164   5.140   4.297  0.2146  0.0416 -0.2986
31971W        W38421   4.818   4.276  13.046 -0.1504  0.0515 -0.1398
31972W        W38422   1.263   2.955  33.739  0.0960 -0.1263 -0.1698
31973W        W38423  16.169   2.406  41.469  0.1828  0.0205  0.0087
31974W        W38424   8.968   6.318  41.043 -0.1680 -0.2166  0.2740
31975W        W38425  21.082   0.593   5.293  0.1581  0.0939 -0.1405
31976W        W38426   9.951   2.905  13.422 -0.3213  0.3743  0.1374
31977W        W38427   1.121   2.974   6.566 -0.3595 -0.1602  0.1350
31978W        W38428   7.817   5.363  12.822  0.1369 -0.3012 -0.0167
31979W        W38429   5.227   3.645  33.595 -0.0359  0.2120  0.0105
31980W        W38430  15.992   5.433  29.771 -0.0416 -0.2408  0.0513
31981W        W38431   8.532   6.539  41.765  0.1445 -0.1040  0.2838
31982W        W38432   9.707   4.129   1.809 -0.1999  0.1083 -0.0657
31983W        W38433   5.560   2.961  16.017 -0.4779 -0.0604 -0.0581
31984W        W38434  12.587   2.494  43.895  0.0026 -0.2189 -0.0857
31985W        W38435   1.940   4.407  35.169 -0.1469 -0.1255 -0.0039
31986W        W38436   5.217   0.864  20.751 -0.4897 -0.0819  0.0437
31987W        W38437   8.490   2.994  43.184  0.1285  0.0713  0.1185
31988W        W38438   6.116   2.563  25.070  0.3508 -0.1506 -0.0225
31989W        W38439  18.059   1.782   4.839  0.0691  0.0624 -0.2364
31990W        W38440  10.384   6.191  40.586  0.2739 -0.0490 -0.3611
31991W        W38441   0.633   2.234  42.992  0.0734  0.0372 -0.0384
31992W        W38442  10.776   1.820   9.933  0.1572 -0.1353 -0.1591
31993W        W38443  10.062   4.874   8.153 -0.0989 -0.2295  0.0275
31994W        W38444  11.678   6.159   5.524  0.1109  0.2900  0.0924
31995W        W38445   8.739   4.095  41.771  0.0423  0.0001 -0.0648
31996W        W38446   4.934   0.515  31.889 -0.0984  0.0839 -0.0357
31997W        W38447   7.036   5.696  44.326 -0.0377 -0.0426 -0.1542
31998W        W38448  14.138   1.501   8.879  0.1604  0.0233 -0.0972
31999W        W38449  17.302   4.249  30.620  0.0322 -0.0670 -0.2797
32000W        W38450  18.678   5.769   7.302 -0.0020  0.0320  0.2472
32001W        W38451  19.559   5.395  29.779 -0.1155  0.1389 -0.1486
32002W        W38452  12.688   6.044   0.342 -0.2468  0.3385  0.2138
32003W        W38453   5.396   0.289   9.334 -0.5028 -0.1562  0.2629
32004W        W38454  20.437   2.360  15.989  0.0523 -0.2433 -0.2073
32005W        W38455  18.397   1.771  18.540  0.0954 -0.1493  0.0209
32006W        W38456  19.704   4.189  11.759  0.0848  0.0544 -0.3082
32007W        W38457   1.151   1.858  35.152  0.3399 -0.2358  0.3210
32008W        W38458  12.346   4.098  14.567  0.1199 -0.5192  0.1014
32009W        W38459  19.250   5.192  31.033  0.1482 -0.2120 -0.0312
32010W        W38460  18.672   4.315  16.422  0.0703 -0.0723  0.1791
32011W        W38461   9.889   5.059  12.959  0.0686 -0.1998 -0.2358
32012W        W38462  17.201   0.761   6.828  0.4599 -0.0683  0.1290
32013W        W38463  10.349   4.375  29.749  0.2980 -0.0045  0.0245
32014W        W38464   2.963   1.719  26.379 -0.2285 -0.1187 -0.0394
32015W        W38465   5.421   0.242  37.378  0.2918  0.0095 -0.0482
32016W        W38466   5.173   6.253   7.874  0.0979  0.0936 -0.2354
32017W        W38467   6.975   0.539  11.164  0.4211 -0.3008 -0.0045
32018W        W38468  20.675   2.084  28.390 -0.0810  0.1501  0.0888
32019W        W38469   8.203   4.705  31.746  0.1266 -0.0843  0.2839
32020W        W38470   3.603   4.742  31.980 -0.1218 -0.0700  0.0966
32021W        W38471   6.515   2.605  22.005  0.0364  0.2846 -0.1079
32022W        W38472  14.367   6.073   7.858 -0.1140  0.0634 -0.0798
32023W        W38473   0.102   5.495   6.096 -0.2267  0.1504  0.0048
32024W        W38474   0.262   4.911  37.199 -0.0053  0.2573  0.1930
32025W        W38475  17.797   6.285  35.871  0.0507  0.1280  0.1055
32026W        W38476   9.832   0.727   7.418  0.1230 -0.2369  0.0938
32027W        W38477   6.231   2.367  20.615 -0.0736  0.3584  0.1195
32028W        W38478   9.183   0.765  42.968 -0.0412  0.0506 -0.0605
32029W        W38479   3.287   1.524   4.482  0.0603 -0.1400 -0.0055
32030W        W38480   7.695   1.936  28.048 -0.0715  0.0315 -0.0083
32031W        W38481  20.266   1.318  16.722 -0.1618  0.1091 -0.1893
32032W        W38482   5.740   1.182  36.354 -0.0662 -0.1407  0.2777
32033W        W38483  14.957   2.622  21.938 -0.0554 -0.1759  0.0215
32034W        W38484   6.572   0.549   1.223  0.4538 -0.2734  0.0508
32035W        W38485   1.657   6.360   9.383  0.2520 -0.0733 -0.0143
32036W        W38486   9.403   1.349  24.209 -0.0125 -0.2319  0.1330
32037W        W38487   4.821   0.691  14.503 -0.3812 -0.0212 -0.2313
32038W        W38488   5.802   0.285  15.024  0.2548  0.0617 -0.0245
32039W        W38489   6.142   0.578  41.855  0.0886  0.0436 -0.1636
32040W        W38490   6.559   2.091  12.091 -0.3692  0.1368  0.3574
32041W        W38491  18.381   3.531  44.428  0.0239 -0.0011  0.2845
32042W        W38492  15.284   4.408  30.283  0.1714 -0.0154  0.1543
32043W        W38493  20.930   0.803  28.728 -0.0311  0.0784  0.0516
32044W        W38494  15.262   2.332   3.265 -0.0415 -0.0619  0.4641
32045W        W38495   5.652   3.788  23.893  0.2449 -0.0426  0.1965
32046W        W38496  20.161   4.389  19.819 -0.1838 -0.1159 -0.1556
32047W        W38497  18.562   2.369   6.407  0.3034  0.0975  0.1043
32048W        W38498   8.599   3.224  42.752 -0.1945  0.2045  0.0117
32049W        W38499   1.762   3.489  35.943 -0.0724 -0.3818 -0.1384
32050W        W38500   5.384   2.243  41.437  0.0395 -0.3977 -0.2023
32051W        W38501  15.027   4.840  10.581 -0.2417 -0.2244  0.1578
32052W        W38502  11.017   6.353   2.871  0.0062  0.0609 -0.2736
32053W        W38503   1.892   2.425   1.349  0.0706 -0.2453 -0.1240
32054W        W38504  18.756   6.499  35.612  0.0684 -0.0422  0.1336
32055W        W38505  17.854   4.489  38.723 -0.0220 -0.2332  0.1452
32056W        W38506  17.124   1.809  44.386 -0.0501 -0.0967  0.0262
32057W        W38507   8.622   6.371  37.162  0.1217  0.0598  0.1842
32058W        W38508   6.683   3.840  43.642 -0.0504 -0.0632 -0.2125
32059W        W38509   3.814   0.407  40.823  0.0188  0.0997 -0.1200
32060W        W38510   5.042   4.351  24.224 -0.0720 -0.1363  0.0647
32061W        W38511  19.115   5.548  44.557 -0.1630  0.0094  0.2146
32062W        W38512  17.876   3.768  17.298 -0.0328  0.1462  0.2002
32063W        W38513  10.112   1.517  27.977 -0.2844 -0.3256  0.1701
32064W        W38514  14.703   1.799  21.860  0.2282  0.0162  0.0554
32065W        W38515  18.819   5.342   4.857 -0.0827 -0.0127 -0.2936
32066W        W38516  14.696   0.578  12.848  0.0373  0.1349 -0.2516
32067W        W38517   3.754   5.183  32.986  0.1248 -0.2510  0.1182
32068W        W38518   5.222   2.950   2.862  0.0494 -0.0677  0.0859
32069W        W38519   2.749   3.378  37.025 -0.2851 -0.3309 -0.2089
32070W        W38520   6.243   0.845  25.300 -0.1313  0.1964 -0.2031
32071W        W38521   0.909   0.653  40.535 -0.2377 -0.3301  0.2030
32072W        W38522   0.287   2.052  35.411  0.1527 -0.2773 -0.1364
32073W        W38523   9.611   0.837  10.886 -0.1363  0.1831 -0.2364
32074W        W38524  14.328   6.284  35.453 -0.2151  0.0290  0.1645
32075W        W38525   4.680   1.584  10.491  0.4189 -0.1988  0.1136
32076W        W38526  11.777   4.187  43.627  0.2784 -0.1051 -0.0920
32077W        W38527  17.548   4.473  32.155  0.0272 -0.1701  0.1598
32078W        W38528   7.267   4.157   9.687 -0.2213  0.0868 -0.1849
32079W        W38529   0.520   3.210   6.133  0.2045  0.2047 -0.1204
32080W        W38530  20.468   1.832  35.936 -0.0589 -0.1667  0.2767
32081W        W38531   9.028   1.201   3.356  0.0366 -0.2208  0.2731
32082W        W38532  16.715   5.807  10.152  0.0908 -0.0864  0.0915
32083W        W38533   8.171   0.475  16.174 -0.0784 -0.1179 -0.1171
32084W        W38534   6.659   1.378  24.114  0.4158  0.1740 -0.1853
32085W        W38535  17.117   0.723   0.666  0.0023  0.1138 -0.0423
32086W        W38536  18.589   4.905  17.438 -0.2238  0.2340 -0.1322
32087W        W38537  20.339   1.007  15.682  0.1361 -0.0650  0.0222
32088W        W38538   3.968   1.584   8.051 -0.0446 -0.0948  0.0741
32089W        W38539   4.315   6.075  27.858 -0.2872 -0.1541 -0.1086
32090W        W38540  16.623   3.365  25.076  0.1810  0.3452  0.1872
32091W        W38541  18.021   3.926  42.810  0.1301 -0.0608  0.0421
32092W        W38542  17.218   1.974   7.812  0.4381 -0.1462  0.0616
32093W        W38543  17.774   4.567   7.249 -0.3080  0.3324  0.3073
32094W        W38544  13.824   0.282   6.066 -0.3693 -0.1272 -0.0629
32095W        W38545  13.408   1.247  19.684 -0.2709  0.0013  0.0800
32096W        W38546   9.505   3.945   8.316  0.2840 -0.3599 -0.2195
32097W        W38547   9.023   4.563  30.483 -0.3581 -0.1883  0.1566
32098W        W38548   8.503   0.718  26.653  0.0217  0.0625  0.1391
32099W        W38549   4.287   5.991  36.256 -0.1740  0.0362 -0.1870
32100W        W38550   2.459   2.467  42.122  0.0027  0.0565 -0.1953
32101W        W38551  12.643   1.180  12.042 -0.0707 -0.2976  0.1830
32102W        W38552  13.350   4.149  42.017 -0.2590  0.1743  0.3238
32103W        W38553  17.873   3.537   2.272 -0.2590 -0.0069  0.0453
32104W        W38554  13.987   3.466  39.606 -0.1777 -0.1588  0.1009
32105W        W38555  20.406   4.672  10.876 -0.3116 -0.2089  0.0515
32106W        W38556  18.453   4.600  29.922  0.1791  0.2414  0.2349
32107W        W38557  16.643   4.652  16.962 -0.0005  0.1253 -0.2233
32108W        W38558  18.977   4.732  12.212 -0.3347  0.2241 -0.0973
32109W        W38559  15.961   2.700  37.944  0.0526  0.3301  0.0390
32110W        W38560  10.201   1.644   6.955  0.1021  0.0771 -0.0183
32111W        W38561   8.146   5.638  28.745 -0.1342  0.0861  0.3969
32112W        W38562   2.068   5.330   4.023 -0.1409 -0.1011  0.0451
32113W        W38563  20.859   2.227   7.928  0.1052  0.0144 -0.0309
32114W        W38564  14.000   5.737  20.071  0.3759 -0.0618 -0.0254
32115W        W38565   3.142   1.174  30.322  0.0749  0.2886  0.0284
32116W        W38566  12.181   0.344  11.586  0.1150 -0.2431 -0.1299
32117W        W38567  19.550   3.418  15.642  0.0044 -0.0737 -0.2335
32118W        W38568   0.833   5.170  43.765 -0.2600 -0.1256  0.1655
32119W        W38569  19.039   4.204  19.234  0.3144  0.2502  0.0832
32120W        W38570  17.623   1.304  34.690 -0.1532 -0.0478 -0.0529
32121W        W38571   2.144   1.921   9.486  0.2088  0.0109 -0.0841
32122W        W38572  12.703   6.480   8.844 -0.2793 -0.1157  0.0013
32123W        W38573   2.870   5.055  15.392  0.2045  0.0846 -0.0892
32124W        W38574   2.981   1.824  13.743  0.1352 -0.1541 -0.0494
32125W        W38575  18.761   2.766  44.169  0.0571  0.2825 -0.1434
32126W        W38576   5.299   0.704   7.298  0.1668 -0.2818 -0.0256
32127W        W38577   9.192   1.602  41.965  0.1722  0.0477 -0.4502
32128W        W38578   9.159   0.963  12.191 -0.0009  0.2270  0.1695
32129W        W38579  16.493   2.712  43.473 -0.1650 -0.0737 -0.0029
32130W        W38580   1.365   5.091  33.495 -0.0562 -0.0094 -0.0437
32131W        W38581  19.321   6.458  13.849  0.1893  0.0020  0.0908
32132W        W38582   7.110   6.365  44.967  0.0804 -0.0780  0.2070
32133W        W38583   8.858   3.993  37.639 -0.0751  0.2796 -0.0794
32134W        W38584  15.846   5.910   8.184 -0.1323  0.2344  0.0088
32135W        W38585   5.871   5.994  22.474  0.1665  0.2314  0.1103
32136W        W38586  12.378   3.763   1.543  0.3569  0.0707 -0.0455
32137W        W38587  16.608   4.512  16.076  0.1349 -0.0287 -0.0913
32138W        W38588   8.634   4.286  28.524 -0.0654  0.1100  0.1376
32139W        W38589   8.632   4.672  43.204 -0.0421  0.0599  0.0941
32140W        W38590  17.709   6.289  17.806  0.1014  0.3069 -0.0485
32141W        W38591   3.091   6.503   2.807 -0.0967 -0.0046  0.0032
32142W        W38592   9.629   5.360  33.121 -0.0764  0.0719 -0.2009
32143W        W38593  15.636   0.194   8.204  0.2488 -0.2371  0.1406
32144W        W38594   1.109   0.830  14.126  0.1315 -0.2307  0.0542
32145W        W38595   8.033   1.120  25.918 -0.1229 -0.0815 -0.0854
32146W        W38596   7.657   6.313   1.518  0.0691 -0.1878  0.0130
32147W        W38597  14.662   3.196   0.235 -0.0550  0.0542 -0.1706
32148W        W38598  10.250   2.264  42.031  0.2329  0.0860  0.2188
32149W        W38599   7.613   1.107  11.094  0.1150  0.0604  0.1113
32150W        W38600   6.875   3.816  27.436  0.1148 -0.1833  0.4408
32151W        W38601  18.442   2.581   4.732  0.1125  0.1942 -0.0959
32152W        W38602   8.978   6.174  12.673  0.1857 -0.1284  0.0041
32153W        W38603  10.206   1.477  44.081 -0.0511  0.2844  0.1843
32154W        W38604  11.883   5.216   1.333  0.1826  0.3545 -0.1274
32155W        W38605  19.092   6.160  12.859  0.4307 -0.2243 -0.2982
32156W        W38606   6.496   0.022   3.926  0.1833  0.1086  0.0641
32157W        W38607  12.201   4.727   9.401 -0.0899 -0.1749 -0.1623
32158W        W38608   8.747   1.668   2.648  0.1966 -0.0620  0.0737
32159W        W38609  16.354   3.025  15.664  0.0309 -0.1263  0.1112
32160W        W38610   9.377   2.792  33.824  0.2980 -0.1206  0.1286
32161W        W38611   6.226   4.068   1.731 -0.0289 -0.1862 -0.2426
32162W        W38612   3.935   2.411  39.165  0.3209  0.2258 -0.0957
32163W        W38613  13.102   1.413   0.043 -0.1139 -0.0361 -0.1587
32164W        W38614   0.198   2.326  16.210  0.0264 -0.0561  0.2966
32165W        W38615   1.576   5.731   5.551  0.0090  0.1170  0.0513
32166W        W38616  19.271   1.081  33.224  0.1336 -0.1011 -0.1325
32167W        W38617   1.561   4.660   6.944  0.2096  0.0743  0.0880
32168W        W38618   5.145   5.315  34.779  0.0496 -0.2432 -0.1958
32169W        W38619   2.321   0.283  38.289  0.1399 -0.0560 -0.0995
32170W        W38620   7.806   1.398  32.429 -0.3100 -0.1220  0.1601
32171W        W38621   6.040   4.349  43.133 -0.0671  0.4073  0.0809
32172W        W38622  12.511   2.200  44.676  0.1181 -0.1181  0.0222
32173W        W38623  12.479   3.354   7.800 -0.1114  0.1782 -0.1349
32174W        W38624   5.818   0.938   1.175  0.0059 -0.0348 -0.0751
32175W        W38625  20.282   2.816  14.366  0.2781  0.0127 -0.2363
32176W        W38626   0.519   4.546  16.087  0.2340  0.0309 -0.2152
32177W        W38627  12.949   6.456  36.107  0.0282  0.3286  0.0609
32178W        W38628   9.442   0.570  27.291 -0.0612  0.1347 -0.1546
32179W        W38629  11.351   2.137  35.935  0.3790  0.1729 -0.0659
32180W        W38630   5.145   5.969  31.277 -0.0694  0.2689 -0.2888
32181W        W38631  16.803   4.674  36.370 -0.2699 -0.1248  0.0202
32182W        W38632   2.437   5.646  13.975  0.0207 -0.1092  0.0121
32183W        W38633  12.292   1.440  19.357 -0.2468  0.4897 -0.0317
32184W        W38634   4.493   3.534  15.271  0.1969  0.0333  0.2577
32185W        W38635   0.201   1.281   0.169  0.0871  0.1781 -0.2646
32186W        W38636  16.114   0.625  34.769  0.1508  0.1927 -0.3353
32187W        W38637   5.811   0.861   7.103  0.0267 -0.0348  0.2385
32188W        W38638  12.851   0.648   9.027  0.1230 -0.3189 -0.1985
32189W        W38639  18.386   3.574  40.752  0.5282  0.2379 -0.0969
32190W        W38640   4.579   1.352  41.100 -0.1821  0.2735  0.0491
32191W        W38641   2.545   2.222  38.332 -0.0135  0.1442  0.2853
32192W        W38642   4.084   2.571  29.047  0.0890  0.1580  0.2361
32193W        W38643  13.540   3.142  12.121 -0.1336  0.1594 -0.0217
32194W        W38644   9.814   2.056  31.792 -0.1043 -0.1611  0.1303
32195W        W38645   8.043   4.214  10.333  0.3190 -0.0272 -0.1025
32196W        W38646  10.218   6.192  10.297  0.0861 -0.2174  0.3824
32197W        W38647  11.419   2.993  18.654  0.0594  0.3745 -0.1823
32198W        W38648   7.594   1.300  30.996 -0.1407 -0.2548 -0.0346
32199W        W38649   3.513   2.688  23.004  0.2527 -0.1703 -0.2599
32200W        W38650   4.590   0.249  40.032 -0.0925  0.3133 -0.2297
32201W        W38651   4.282   6.041  40.043 -0.2372 -0.2564  0.2276
32202W        W38652  19.626   4.139  40.621  0.2298 -0.1709  0.0771
32203W        W38653   1.612   5.717  43.826  0.1199  0.2321 -0.1290
32204W        W38654  15.777   3.530   3.783  0.2807  0.0663  0.1216
32205W        W38655  12.701   1.469   6.609  0.0014  0.2709 -0.2560
32206W        W38656  16.136   5.188  23.072 -0.0293 -0.2380  0.1224
32207W        W38657  20.592   6.148  40.077 -0.0913  0.0092  0.1948
32208W        W38658  13.927   3.542  19.168  0.1335  0.0919  0.2924
32209W        W38659  17.002   1.208  40.072 -0.0229  0.0132 -0.0482
32210W        W38660  13.882   5.315  18.903  0.2894 -0.2983 -0.3281
32211W        W38661  12.787   2.084  16.450  0.5435 -0.2518  0.1095
32212W        W38662   5.701   5.036  21.752  0.1367  0.1699  0.3154
32213W        W38663  17.031   2.892  37.489  0.1103 -0.3116  0.0364
32214W        W38664  18.316   0.988  12.635 -0.2122 -0.0083 -0.0497
32215W        W38665  13.461   1.817  42.413  0.0370  0.1169 -0.1030
32216W        W38666  15.839   0.367  20.795  0.0661 -0.2470 -0.0125
32217W        W38667   9.011   3.957  40.296  0.0965  0.1176  0.0054
32218W        W38668   0.842   4.245  43.789  0.0159 -0.1399 -0.1562
32219W        W38669  10.047   2.466  34.399 -0.1129  0.2006 -0.0277
32220W        W38670  12.132   6.035  34.524  0.1828 -0.1687 -0.1457
32221W        W38671   0.142   3.864  43.874  0.0946  0.4028  0.0932
32222W        W38672   3.110   2.318   9.854 -0.1740 -0.3370 -0.3721
32223W        W38673  11.776   1.886  36.080 -0.1818  0.1269  0.1394
32224W        W38674   3.923   1.772  39.878 -0.0809 -0.0840  0.0488
32225W        W38675   5.756   3.301  45.070 -0.3193 -0.1062  0.1219
32226W        W38676   4.552   0.414  12.675  0.0848 -0.2159 -0.0653
32227W        W38677   8.610   0.751  28.825 -0.3018  0.1251  0.2060
32228W        W38678  16.878   5.233  28.729  0.0461 -0.1312  0.0706
32229W        W38679   1.763   5.570  28.617  0.0254  0.0827  0.0588
32230W        W38680  15.377   0.519  10.865  0.0055  0.0906  0.1364
32231W        W38681  11.535   5.963  30.061  0.2952 -0.1368  0.0693
32232W        W38682   6.364   5.920   7.753 -0.0021  0.1220  0.0191
32233W        W38683   1.420   2.623  12.197 -0.1305  0.2867  0.0725
32234W        W38684   7.449   4.813  27.392 -0.1303  0.1737  0.0008
32235W        W38685   3.661   2.467  32.571 -0.1688 -0.3234 -0.2483
32236W        W38686  18.547   1.912  31.951 -0.1086 -0.3681 -0.1350
32237W        W38687  16.237   3.690  21.483 -0.2449  0.2644 -0.1150
32238W        W38688   3.403   4.926   4.876  0.0601  0.1157 -0.0352
32239W        W38689  19.437   1.628   6.206 -0.0767  0.1171 -0.4384
32240W        W38690  10.516   0.431  13.350  0.2645 -0.0731  0.0583
32241W        W38691  15.896   2.299  41.044 -0.0053  0.5463  0.3979
32242W        W38692  17.973   3.626  18.093  0.0321  0.0125 -0.1402
32243W        W38693   5.622   6.560  34.660 -0.2766  0.2739  0.1150
32244W        W38694   2.232   5.843  42.923 -0.2462 -0.1031  0.0942
32245W        W38695  19.117   1.718  44.907 -0.3034 -0.2027  0.3157
32246W        W38696  15.509   6.378  31.154  0.0731  0.0985 -0.1243
32247W        W38697  15.011   4.252  38.762  0.1536 -0.2104  0.2080
32248W        W38698  14.188   1.001  39.069  0.2032 -0.2028  0.0064
32249W        W38699   5.162   5.726   7.228 -0.2098  0.1400  0.0214
32250W        W38700   1.916   1.345  24.834 -0.0764  0.2986  0.0585
32251W        W38701   0.184   2.003  43.132 -0.2312 -0.2012 -0.0937
32252W        W38702   9.031   2.670  25.591  0.0525 -0.0183 -0.1365
32253W        W38703   0.443   3.068  28.663  0.3261 -0.0656 -0.1507
32254W        W38704   6.731   1.536  35.950  0.1123 -0.1730 -0.1722
32255W        W38705   7.903   2.198  24.871 -0.2848 -0.1037 -0.2672
32256W        W38706  16.541   4.208  36.079  0.0648  0.2850 -0.0310
32257W        W38707   6.230   3.109  43.759  0.0356 -0.2762  0.1462
32258W        W38708   7.540   1.844  12.618  0.1471 -0.0168  0.1628
32259W        W38709   0.220   3.071   5.784  0.0622 -0.0414 -0.1902
32260W        W38710  12.280   4.793   8.694 -0.0019 -0.1566 -0.2639
32261W        W38711  18.568   4.620  43.043  0.3050 -0.0273  0.0198
32262W        W38712  14.075   3.272  45.115 -0.4524 -0.2110 -0.0542
32263W        W38713  18.936   6.387  33.773  0.0813 -0.1709 -0.4937
32264W        W38714  14.218   1.307  12.300 -0.2384 -0.0381 -0.0663
32265W        W38715  19.181   0.885  10.582  0.1826  0.1554 -0.0021
32266W        W38716   3.826   0.282   3.363  0.0822 -0.1282 -0.1056
32267W        W38717   2.645   3.681  11.878 -0.1305 -0.0572  0.1882
32268W        W38718   9.710   5.980   9.275 -0.2776 -0.5534  0.2423
32269W        W38719  12.770   0.726  44.688 -0.0561  0.1642  0.0910
32270W        W38720   8.080   1.989  38.204 -0.0493 -0.0167 -0.0581
32271W        W38721   1.698   1.679   9.789  0.0587  0.0552 -0.0512
32272W        W38722   3.026   1.423  25.880  0.2893  0.0151 -0.1901
32273W        W38723   0.213   6.605  10.800  0.2691 -0.1644 -0.0768
32274W        W38724   9.285   0.847  32.632  0.2282  0.1984  0.0039
32275W        W38725  11.450   2.585  30.130 -0.0558 -0.3289  0.2318
32276W        W38726   1.859   4.578  40.172 -0.0331  0.0638  0.2605
32277W        W38727  11.034   4.043   2.866  0.0826  0.1057  0.0809
32278W        W38728  17.306   1.644  31.934  0.4440  0.0700 -0.2862
32279W        W38729  11.359   0.587  11.421 -0.0535  0.0371  0.2327
32280W        W38730  16.683   4.169  35.538  0.1215 -0.2720 -0.0112
32281W        W38731   8.939   4.752  15.302 -0.2400  0.3095  0.0806
32282W        W38732   9.938   3.330  13.645 -0.2010 -0.4582  0.0532
32283W        W38733   6.718   0.620  20.783  0.2107  0.0295  0.2337
32284W        W38734   9.259   3.190  12.086  0.2397  0.0466 -0.0575
32285W        W38735   4.291   6.124  25.161  0.1156  0.0352 -0.0618
32286W        W38736   7.961   5.707  34.338 -0.1924  0.3313  0.1653
32287W        W38737  19.365   6.446  34.888  0.2535  0.0529  0.0496
32288W        W38738  11.888   6.333   5.977  0.0585  0.3022 -0.0663
32289W        W38739  13.061   4.469   4.855 -0.2096  0.0172 -0.3332
32290W        W38740  18.299   0.088  39.166  0.3404 -0.1993  0.5185
32291W        W38741   4.488   0.853  36.611 -0.0814 -0.3044  0.4097
32292W        W38742   7.638   6.176  36.073  0.1906  0.1052 -0.3550
32293W        W38743  15.400   2.755   9.138  0.0164  0.0128  0.0376
32294W        W38744  14.186   0.234  19.282 -0.0473  0.1402  0.2004
32295W        W38745  10.876   5.619   7.776  0.0588  0.0881  0.2589
32296W        W38746  13.848   3.375  38.236  0.1867 -0.1431  0.1097
32297W        W38747  14.840   2.320  35.718 -0.2714  0.0482 -0.2501
32298W        W38748   2.524   5.073   8.045  0.0422  0.0024 -0.1215
32299W        W38749   7.182   2.358  36.323  0.0130  0.1049  0.1803
32300W        W38750   7.154   3.073  43.188 -0.0671  0.1341  0.1263
32301W        W38751   1.642   5.613  37.749 -0.0130  0.0708 -0.0093
32302W        W38752  12.600   4.041  39.601  0.0379 -0.1487 -0.2055
32303W        W38753   0.202   0.401  39.322  0.2197  0.3810 -0.1765
32304W        W38754  16.105   5.691   7.237  0.1765  0.1883 -0.0844
32305W        W38755   6.249   2.640  44.930 -0.0355 -0.1495  0.0287
32306W        W38756  13.172   3.204  30.009 -0.0160 -0.1406  0.0206
32307W        W38757  11.119   4.069  42.329  0.2421 -0.0586 -0.0844
32308W        W38758  21.111   3.898  37.268 -0.0378  0.0294  0.0032
32309W        W38759  15.851   6.371  22.967  0.1675  0.0683  0.1043
32310W        W38760   8.519   6.218  29.055 -0.2887  0.2679 -0.3312
32311W        W38761   7.727   5.463  30.066  0.0848 -0.0217  0.4445
32312W        W38762   6.097   6.173  42.098  0.0639  0.4798  0.1385
32313W        W38763   2.559   3.024  25.041 -0.2415  0.0105  0.0348
32314W        W38764  10.913   5.672  38.792  0.0310 -0.1186 -0.0206
32315W        W38765   6.958   6.145  43.039 -0.3212 -0.2226  0.3472
32316W        W38766   0.497   5.870  28.726 -0.3424 -0.1974  0.2081
32317W        W38767   2.446   3.048  40.145 -0.1386 -0.5197 -0.0734
32318W        W38768   4.180   5.567  31.717 -0.2824 -0.3404 -0.0284
32319W        W38769  20.542   3.413   1.193 -0.0771 -0.1883  0.0937
32320W        W38770  13.802   2.318  15.001 -0.0058  0.1033 -0.2057
32321W        W38771   7.435   6.305  25.638 -0.1074 -0.1427  0.0097
32322W        W38772  13.819   2.233   9.209 -0.1211  0.1966 -0.1476
32323W        W38773  11.452   5.320  29.235 -0.1845 -0.0056  0.3055
32324W        W38774  13.357   1.149   5.082 -0.2442 -0.1214  0.0962
32325W        W38775  17.740   5.669  37.477 -0.1295  0.4953 -0.3459
32326W        W38776  11.666   1.597   4.201  0.0592 -0.1573 -0.0395
32327W        W38777  19.593   3.710  12.045 -0.0431  0.4892  0.0584
32328W        W38778   1.805   5.849   4.111 -0.1415  0.1607  0.1648
32329W        W38779   2.093   2.488  44.845 -0.0905 -0.1690  0.0464
32330W        W38780  17.599   4.144   8.984 -0.0980  0.0671  0.3218
32331W        W38781  10.607   3.041  33.374 -0.0537 -0.0733  0.3463
32332W        W38782   3.176   0.999   4.715  0.1393 -0.0199  0.0480
32333W        W38783   9.649   3.747   7.837 -0.1014  0.0661 -0.0050
32334W        W38784   3.552   6.309  34.666 -0.2792 -0.0636 -0.0547
32335W        W38785  18.756   2.092  14.871 -0.0379 -0.0586 -0.1321
32336W        W38786  14.206   0.643  31.369  0.1074 -0.0421 -0.1905
32337W        W38787  20.760   0.750  34.875 -0.1014 -0.1362 -0.2831
32338W        W38788   3.402   6.293  28.132  0.1304  0.0949 -0.2151
32339W        W38789  11.261   0.335  42.668  0.0330 -0.2887  0.2842
32340W        W38790   4.051   6.472  13.426  0.1337 -0.2273  0.1643
32341W        W38791   0.005   2.984  44.389 -0.2350  0.0436 -0.0021
32342W        W38792  11.440   5.139  34.251 -0.2179 -0.1312 -0.0032
32343W        W38793  14.262   2.283  39.672 -0.1386 -0.4058  0.1406
32344W        W38794   8.239   5.056  43.266  0.2344  0.0330 -0.1666
32345W        W38795  12.428   5.485  30.261 -0.3342 -0.1253  0.2832
32346W        W38796   2.901   3.674  43.084 -0.0453 -0.0303 -0.0421
32347W        W38797  17.778   6.036  42.885 -0.0571  0.3950  0.1169
32348W        W38798  10.840   2.780  10.295  0.0199  0.3778 -0.2400
32349W        W38799  11.205   0.601   0.037 -0.1099 -0.2486 -0.2026
32350W        W38800   8.805   6.315   9.553 -0.0785 -0.1879  0.0692
32351W        W38801   5.732   0.357  24.579  0.0599  0.0741  0.3496
32352W        W38802  18.457   0.911  42.310  0.3882 -0.1604 -0.0799
32353W        W38803   3.623   4.453   0.150 -0.1042  0.2929 -0.2200
32354W        W38804  12.285   0.482  33.379 -0.1755 -0.0380 -0.0757
32355W        W38805  16.281   5.911   6.821 -0.0362  0.0447 -0.0347
32356W        W38806  19.764   6.436   6.016  0.2138  0.3898 -0.0004
32357W        W38807  14.025   3.336  32.920  0.0009 -0.1437  0.2820
32358W        W38808  18.352   0.913  29.374 -0.0079  0.1185  0.0307
32359W        W38809  20.603   4.393  29.457  0.2214 -0.1642  0.2307
32360W        W38810   4.755   1.268  37.367  0.0536 -0.0508  0.0180
32361W        W38811   3.936   6.142  33.801  0.2059 -0.0364  0.2026
32362W        W38812   4.191   3.540  35.037 -0.0997  0.0192  0.0588
32363W        W38813   2.303   4.785  28.274  0.1962  0.0934  0.2622
32364W        W38814  20.846   4.051  15.247 -0.3051 -0.2108 -0.0222
32365W        W38815  18.550   3.077   2.911  0.1182  0.2936  0.3582
32366W        W38816  17.330   0.192  18.576 -0.3023 -0.3407  0.2158
32367W        W38817   0.693   2.708   6.886  0.1850  0.2112  0.0163
32368W        W38818  17.611   4.234  42.456  0.2374  0.2823  0.2224
32369W        W38819   0.014   2.123  36.649  0.1183 -0.0190  0.0070
32370W        W38820   0.997   6.427  17.266 -0.2209  0.2300 -0.0809
32371W        W38821   0.878   0.754  40.054  0.1532 -0.0863  0.0289
32372W        W38822   3.963   2.547  39.665  0.2983  0.2904 -0.3341
32373W        W38823  14.522   4.252  18.840  0.2947 -0.0934  0.1760
32374W        W38824  10.650   4.726  29.576  0.3068  0.0653 -0.2454
32375W        W38825  17.960   5.158   4.421  0.0643  0.2775  0.2430
32376W        W38826   5.562   2.350  34.336 -0.2104  0.0350  0.1308
32377W        W38827  11.047   6.098  16.981 -0.1168 -0.3085 -0.1245
32378W        W38828   3.825   6.404  36.000  0.1586 -0.1453 -0.1890
32379W        W38829   5.712   0.332  39.242 -0.1498  0.0380  0.1657
32380W        W38830   6.167   5.615  14.385  0.2890 -0.0505 -0.2600
32381W        W38831  16.962   5.921  32.103  0.0806  0.0298 -0.1711
32382W        W38832   4.669   6.143  31.556 -0.0140 -0.0828 -0.3797
32383W        W38833  14.057   3.518  35.386 -0.2973  0.0308  0.0515
32384W        W38834  21.075   2.239  27.297 -0.1763  0.3201  0.0662
32385W        W38835   6.474   3.962  19.196 -0.0883  0.3020 -0.0185
32386W        W38836  11.415   1.004  31.845  0.2587  0.2044 -0.0226
32387W        W38837  13.056   2.723   9.528 -0.0227 -0.1145  0.4442
32388W        W38838   1.595   2.490  16.325  0.0140  0.0468 -0.4170
32389W        W38839  13.772   0.697  13.553 -0.2351  0.0092  0.0468
32390W        W38840   5.807   3.632  31.981 -0.0188  0.1275  0.0198
32391W        W38841  11.367   4.770  13.056 -0.4162  0.0017 -0.0036
32392W        W38842   5.619   2.541  38.676  0.1013  0.0008  0.0295
32393W        W38843  19.264   5.977  35.138  0.1163 -0.1462 -0.1266
32394W        W38844   6.870   5.015  44.115  0.2552 -0.1681 -0.1481
32395W        W38845  13.161   4.886  21.118  0.0087 -0.2266 -0.1195
32396W        W38846   2.169   1.401   3.740  0.0965 -0.0162  0.2132
32397W        W38847  13.443   0.670   3.363  0.2195 -0.2846 -0.1382
32398W        W38848  20.851   5.931  35.009 -0.3562  0.0655 -0.0065
32399W        W38849   4.716   1.342  26.237  0.0905  0.1690  0.0300
32400W        W38850  14.426   6.275   2.710 -0.0240 -0.1070 -0.0407
32401W        W38851  14.168   1.369   5.519 -0.0550 -0.0225 -0.1967
32402W        W38852  15.838   3.814  21.143  0.0872 -0.1978 -0.1806
32403W        W38853   0.907   5.671  17.639  0.2989 -0.0196 -0.0270
32404W        W38854  18.490   3.165  10.660 -0.0264 -0.0358 -0.0294
32405W        W38855   8.014   4.350   1.225  0.1884 -0.2429 -0.1991
32406W        W38856   1.146   5.790   2.307 -0.0474 -0.2549  0.0353
32407W        W38857   0.145   2.471  31.476  0.0214  0.2801 -0.1006
32408W        W38858   3.178   6.055  43.072 -0.1866 -0.0916 -0.3343
32409W        W38859   0.735   1.056  16.809 -0.0511 -0.0808 -0.0331
32410W        W38860  11.008   1.579  18.178 -0.0614 -0.2368  0.0164
32411W        W38861   5.558   5.978  25.473  0.0925  0.2695 -0.0480
32412W        W38862   4.163   5.011   7.562  0.2252 -0.3752  0.0962
32413W        W38863  15.509   6.324  18.443 -0.0942  0.0516 -0.1084
32414W        W38864  17.298   1.098   9.360 -0.0494 -0.2583 -0.0468
32415W        W38865  10.642   3.584  16.155 -0.1630  0.2132 -0.4798
32416W        W38866  13.042   3.851  15.054  0.0877  0.1620  0.0754
32417W        W38867  14.717   1.484  36.762 -0.1091  0.3249  0.0086
32418W        W38868  20.060   1.335  43.156  0.3704  0.2182  0.1169
32419W        W38869  19.901   1.242   4.333 -0.1271  0.3036  0.1056
32420W        W38870   7.131   1.345  40.399  0.0510  0.1573  0.1135
32421W        W38871  17.374   4.444  15.235  0.0306  0.1192 -0.2165
32422W        W38872  15.305   6.482  33.965  0.1773  0.1099  0.4248
32423W        W38873   1.324   3.012  27.047  0.0439  0.0843 -0.2048
32424W        W38874  20.668   1.219  35.603  0.0773 -0.0875  0.0149
32425W        W38875   5.528   5.083   0.274  0.1539  0.0062  0.0875
32426W        W38876   9.652   1.926  15.757 -0.0907 -0.2348 -0.5024
32427W        W38877  12.985   4.943  14.202  0.0109 -0.1266  0.3975
32428W        W38878  14.135   1.275  33.402  0.1422 -0.0485  0.1753
32429W        W38879   4.265   1.453  24.925 -0.1041  0.1845 -0.0486
32430W        W38880  17.911   1.610   4.076 -0.0711 -0.1000  0.1690
32431W        W38881   3.301   1.389  23.899  0.1279 -0.1513  0.0251
32432W        W38882   8.072   5.003  40.066 -0.1261  0.2861 -0.1081
32433W        W38883   8.138   6.589  39.775 -0.4220  0.0372 -0.1380
32434W        W38884   8.926   5.078  39.351 -0.1795  0.0664 -0.1641
32435W        W38885   9.462   5.936  31.137 -0.0675  0.0242  0.2078
32436W        W38886  10.803   3.120   2.055 -0.0189  0.2797  0.0798
32437W        W38887   5.832   0.766  23.670  0.1375  0.0025 -0.1123
32438W        W38888   9.208   2.795  35.426 -0.0618 -0.2567 -0.0670
32439W        W38889  13.951   0.390  28.888  0.0450 -0.0280 -0.0932
32440W        W38890  19.941   4.301   7.842  0.1817  0.0012 -0.0266
32441W        W38891   9.770   1.037   9.886  0.1227 -0.3204  0.4638
32442W        W38892  20.378   4.654   9.284  0.0193 -0.2001  0.0759
32443W        W38893  13.724   4.250  21.023 -0.2408 -0.1650 -0.2116
32444W        W38894  12.497   2.844  41.399  0.0084 -0.0843 -0.0315
32445W        W38895   5.618   1.602   4.715  0.1144 -0.2329 -0.0179
32446W        W38896  19.262   2.407   5.729 -0.3627 -0.1708 -0.2182
32447W        W38897   3.488   2.151   4.933  0.1724  0.0629 -0.0875
32448W        W38898  19.148   0.585  33.443 -0.1063 -0.1042  0.4068
32449W        W38899   8.578   1.428  39.300 -0.1000  0.2165 -0.2611
32450W        W38900   7.792   6.579  27.430  0.2393  0.0873  0.1036
32451W        W38901  18.335   4.716  13.280 -0.4871 -0.0532  0.1005
32452W        W38902  16.567   2.513  30.636  0.0182 -0.0922  0.1600
32453W        W38903  14.097   3.210  21.180  0.1399 -0.0524 -0.4383
32454W        W38904  11.240   5.585  37.411  0.1983  0.0803 -0.1833
32455W        W38905  18.246   0.766   5.207  0.3053  0.1566 -0.0843
32456W        W38906  17.935   4.433   0.251  0.2066 -0.0180 -0.1609
32457W        W38907  11.404   3.646   3.678  0.0412  0.0169 -0.3940
32458W        W38908  19.256   6.568  32.235 -0.0571  0.0429 -0.1463
32459W        W38909   0.381   1.923  13.433  0.0053 -0.1858  0.0303
32460W        W38910   6.145   0.300  15.417 -0.0098  0.1921  0.0913
32461W        W38911  11.242   0.016   1.749 -0.1326 -0.0282  0.0831
32462W        W38912   2.640   6.413  35.763  0.0836  0.2045 -0.0837
32463W        W38913  18.378   5.796   8.813  0.3055 -0.2130 -0.1617
32464W        W38914  14.472   2.661  37.457 -0.2593 -0.1851 -0.0920
32465W        W38915  17.777   6.357  34.789 -0.4066  0.0118 -0.0876
32466W        W38916   5.760   3.061  38.623 -0.1002 -0.0254 -0.0472
32467W        W38917  20.916   2.422  37.505  0.0205  0.0861  0.0126
32468W        W38918   5.906   4.935  37.327 -0.1352 -0.5588  0.0556
32469W        W38919   5.088   0.148  34.467  0.2587 -0.1014 -0.2474
32470W        W38920   0.191   5.156   8.531 -0.3190  0.3993  0.2308
32471W        W38921   9.046   0.282  41.706 -0.2466  0.0506 -0.0617
32472W        W38922   2.865   2.917  12.040 -0.0321  0.1504 -0.2738
32473W        W38923   5.082   3.781   7.214 -0.1865 -0.1836  0.2466
32474W        W38924   1.882   2.667  10.000  0.1590 -0.1029  0.1941
32475W        W38925   0.708   5.328  35.855 -0.0131 -0.1220 -0.1229
32476W        W38926  12.802   0.683  42.685  0.2024  0.0333 -0.0403
32477W        W38927   5.263   6.585   3.731 -0.1255  0.0360 -0.2294
32478W        W38928   4.726   5.371  32.659  0.0447  0.2964 -0.1243
32479W        W38929  11.765   3.805   8.945 -0.1252  0.0551 -0.2383
32480W        W38930  11.755   5.973   2.537 -0.1822  0.0568  0.1729
32481W        W38931  18.067   0.862  10.025  0.2068  0.5442  0.1733
32482W        W38932  11.615   5.968  33.559  0.4010  0.0998  0.2539
32483W        W38933  16.711   1.428   3.576  0.2881 -0.1220 -0.1202
32484W        W38934  19.402   6.454  18.424 -0.0559 -0.1436  0.0950
32485W        W38935   8.248   4.872  12.416  0.2751 -0.0153  0.2293
32486W        W38936  10.058   4.165  37.191 -0.2563 -0.1098  0.1227
32487W        W38937   5.927   3.168  28.809 -0.0879  0.1608  0.1918
32488W        W38938   6.820   4.269  35.409  0.0282  0.1279  0.2111
32489W        W38939  13.702   3.291  30.089 -0.0411 -0.0177  0.0150
32490W        W38940  10.219   1.933  12.079  0.0133 -0.1258  0.1458
32491W        W38941   5.393   3.228   4.555 -0.1776 -0.2869 -0.1163
32492W        W38942   3.611   6.209  13.485 -0.1659 -0.0659  0.1237
32493W        W38943  17.531   1.802   1.632  0.1051  0.0628 -0.2616
32494W        W38944  18.069   0.523  16.579 -0.2925  0.0865 -0.3392
32495W        W38945  19.760   2.681  31.950 -0.0171  0.2160  0.1290
32496W        W38946  15.272   4.788   8.992  0.5621 -0.1582 -0.0340
32497W        W38947   0.307   5.718  32.084 -0.1511  0.3213 -0.0054
32498W        W38948  12.723   2.796  43.444  0.3006  0.0070 -0.0315
32499W        W38949   0.651   2.304  28.405 -0.1118  0.1066 -0.1222
32500W        W38950   7.386   6.179  32.378 -0.2498 -0.1083  0.0350
32501W        W38951  12.621   0.031  38.922 -0.0460  0.0692  0.1557
32502W        W38952  14.606   0.750  30.639 -0.0453  0.0046  0.0273
32503W        W38953   1.817   2.943  37.149 -0.0714 -0.2156  0.0717
32504W        W38954   0.075   5.776  17.664 -0.0603 -0.1287 -0.1530
32505W        W38955  19.435   3.697  19.876 -0.0837 -0.0224  0.0606
32506W        W38956  11.206   2.955  17.050 -0.1958 -0.0080 -0.0938
32507W        W38957  19.463   5.180  12.462 -0.0584 -0.0832  0.2886
32508W        W38958   9.538   4.015  11.461 -0.1016  0.1743 -0.1819
32509W        W38959   4.570   4.170  29.503 -0.2507  0.0099  0.3018
32510W        W38960  10.019   1.123  15.551  0.1557  0.1153  0.0811
32511W        W38961   7.363   6.297   7.611  0.4186 -0.1863 -0.1588
32512W        W38962  10.148   1.858  17.120 -0.0985  0.3226 -0.0216
32513W        W38963  18.779   5.220  36.191  0.3894 -0.1786  0.0278
32514W        W38964  10.975   0.098  14.503 -0.0265 -0.0651  0.4679
32515W        W38965  11.989   1.604  14.263 -0.0230  0.3152  0.0446
32516W        W38966   9.560   4.094  36.452  0.0043  0.4302  0.0313
32517W        W38967   8.418   3.753  32.886  0.3422  0.3756 -0.1255
32518W        W38968  17.711   5.417  44.502 -0.1552  0.0948  0.0100
32519W        W38969   6.124   2.592  29.982  0.1437 -0.0392  0.4155
32520W        W38970  10.592   3.445   1.016 -0.1104 -0.0974 -0.0624
32521W        W38971  18.156   3.250  34.132 -0.0671  0.0801  0.1507
32522W        W38972  15.788   6.167  37.095  0.2282  0.1757  0.1695
32523W        W38973  12.703   3.946  31.368 -0.2015 -0.1965  0.3487
32524W        W38974   2.203   6.474  28.733  0.3885  0.3009  0.0121
32525W        W38975  12.143   6.549  13.387 -0.6456  0.0390  0.2299
32526W        W38976  14.822   5.417  33.863 -0.0599 -0.0592 -0.2520
32527W        W38977   7.820   1.306  16.918 -0.1898  0.1378  0.3848
32528W        W38978  16.208   1.598   6.212 -0.2367  0.2704 -0.1698
32529W        W38979  14.405   1.755  12.149  0.1377 -0.0724 -0.2719
32530W        W38980  20.378   5.127  41.783 -0.3711 -0.2550  0.0942
32531W        W38981  17.683   0.202   9.352 -0.0041 -0.0549 -0.3309
32532W        W38982  20.308   5.479  42.246 -0.0519  0.0305  0.3108
32533W        W38983   9.926   4.921   1.888  0.0567 -0.1352  0.3332
32534W        W38984  15.531   0.764  43.397 -0.0158  0.0408 -0.1620
32535W        W38985  11.400   1.171   2.473  0.0042 -0.0645 -0.1227
32536W        W38986   9.885   4.781  36.544 -0.2323  0.0526  0.0156
32537W        W38987   8.939   2.945  11.075  0.4016 -0.3172  0.2245
32538W        W38988   6.310   6.194  22.287  0.1824  0.2145 -0.2416
32539W        W38989  12.949   0.545   6.195  0.1546  0.1191  0.1331
32540W        W38990   3.685   0.726  29.070  0.0979  0.0774 -0.1133
32541W        W38991   0.462   3.290  42.279 -0.2909 -0.0973 -0.0671
32542W        W38992   7.692   0.793  31.203 -0.0685  0.4143  0.0584
32543W        W38993   8.309   0.482  43.813 -0.0485 -0.0336 -0.2188
32544W        W38994   6.348   0.848  26.605  0.0919  0.1167 -0.1282
32545W        W38995  21.027   1.606  10.644 -0.0820  0.0278 -0.1558
32546W        W38996  15.815   4.138  39.488 -0.0836  0.0599  0.2282
32547W        W38997   4.841   2.184  29.950 -0.0115  0.2302 -0.0385
32548W        W38998   8.050   2.468   7.140 -0.2808  0.5160 -0.1502
32549W        W38999  19.677   5.596  37.807  0.0924 -0.2914 -0.0464
32550W        W39000  11.815   1.796   5.263 -0.0811 -0.0591 -0.0511
32551W        W39001   9.932   0.446  29.426 -0.1926  0.2113  0.2109
32552W        W39002  15.623   4.383  39.069 -0.1268 -0.2467  0.2294
32553W        W39003  19.302   0.188   3.483 -0.3341 -0.1876  0.3046
32554W        W39004   3.419   5.635  36.596 -0.1897  0.0112  0.1655
32555W        W39005   4.754   4.644  41.908  0.2128 -0.0426 -0.1210
32556W        W39006   5.692   0.933  35.751 -0.0897 -0.1469  0.2521
32557W        W39007   9.357   3.968   9.766 -0.2255 -0.0255  0.0573
32558W        W39008   6.710   0.671  33.866  0.1451 -0.0481 -0.1473
32559W        W39009  17.632   3.370  31.339  0.1696  0.1775 -0.0525
32560W        W39010  15.927   3.705   7.340 -0.0719 -0.0191  0.2926
32561W        W39011  18.058   4.223  33.815 -0.4242 -0.2539  0.0718
32562W        W39012   0.808   5.973  28.288  0.1600 -0.0173 -0.1713
32563W        W39013  12.276   4.060   4.304 -0.1637  0.0778 -0.0752
32564W        W39014  16.093   4.243  12.198 -0.0410 -0.3529 -0.1025
32565W        W39015  19.174   2.850  44.610  0.2061  0.1132  0.0406
32566W        W39016   8.925   6.187  35.416  0.1282  0.1025  0.2770
32567W        W39017  18.781   3.710   1.129 -0.2118  0.1049  0.0675
32568W        W39018  20.304   0.840  38.354  0.1990  0.0593  0.1438
32569W        W39019  12.119   4.017  38.798  0.1495  0.0394  0.2196
32570W        W39020   2.768   0.723  42.868  0.1589 -0.3022  0.0448
32571W        W39021  10.251   3.160   2.046  0.0278  0.0930  0.1406
32572W        W39022   9.610   4.592  26.306 -0.1434 -0.0069  0.0621
32573W        W39023  15.719   1.204  35.337 -0.0089  0.3007 -0.1190
32574W        W39024   7.184   5.286  31.285  0.1478 -0.0790 -0.0024
32575W        W39025  19.264   4.636  35.454 -0.1432  0.2569  0.1997
32576W        W39026   5.314   6.582  28.881  0.1087  0.0055 -0.2737
32577W        W39027  18.618   2.164  44.441  0.0430  0.0487 -0.3191
32578W        W39028  12.458   3.390  31.318  0.0811 -0.0838 -0.2197
32579W        W39029  18.456   3.710  33.314  0.1512 -0.1776  0.1052
32580W        W39030  14.180   4.536  20.642 -0.0203 -0.0862 -0.0481
32581W        W39031   3.266   5.999   2.743 -0.1039  0.3435  0.0528
32582W        W39032  17.598   3.426   8.001  0.0367  0.1541 -0.0197
32583W        W39033  20.303   1.017  34.325 -0.0393 -0.1261  0.0728
32584W        W39034  16.942   2.701  44.335 -0.1508 -0.4173 -0.0563
32585W        W39035   5.158   4.843   1.506  0.3816 -0.1212  0.0521
32586W        W39036   2.880   4.507   4.432 -0.1473 -0.0188 -0.0180
32587W        W39037  16.730   3.380  40.538 -0.1301  0.0279 -0.0033
32588W        W39038   3.007   0.412  25.824 -0.2280 -0.0360 -0.0825
32589W        W39039   0.414   4.596  42.678  0.1630 -0.0695 -0.0131
32590W        W39040  17.666   0.635   9.800  0.2564  0.3391  0.0978
32591W        W39041   9.358   2.850   5.398 -0.1033  0.1160 -0.2766
32592W        W39042   0.456   2.717   2.636 -0.1857  0.0994 -0.3386
32593W        W39043   9.102   3.188   1.997 -0.1007  0.1707 -0.0619
32594W        W39044   3.918   0.516  15.501 -0.1125 -0.0348 -0.1616
32595W        W39045  10.813   1.302  38.920  0.0926 -0.2170  0.1535
32596W        W39046   1.299   2.601  32.065 -0.0509 -0.3177 -0.1013
32597W        W39047   2.074   0.778  37.576  0.1797 -0.3749  0.0668
32598W        W39048   7.015   5.102  27.031 -0.0117  0.1548 -0.0235
32599W        W39049   4.278   4.674  26.924  0.0725 -0.0661  0.1760
32600W        W39050  20.963   6.146   2.958 -0.0891  0.0300 -0.2929
32601W        W39051  20.174   2.151  29.132 -0.0092  0.0463  0.1200
32602W        W39052   5.300   0.392  20.654 -0.0902 -0.1328 -0.2469
32603W        W39053  11.963   1.654  10.030  0.0251 -0.1379  0.0269
32604W        W39054  12.085   4.316  35.802 -0.0146 -0.0323  0.0938
32605W        W39055   6.477   1.696  34.958 -0.0395 -0.2500  0.1679
32606W        W39056   1.685   1.605  36.569  0.1032  0.0630 -0.2629
32607W        W39057   2.501   2.192  25.061  0.1886 -0.1868  0.1382
32608W        W39058   2.799   6.000  23.919 -0.1712  0.0627  0.3336
32609W        W39059  15.211   1.903   9.569  0.0185 -0.1264 -0.1387
32610W        W39060   0.035   4.897  31.344 -0.1264 -0.2121 -0.0093
32611W        W39061   8.300   3.955  27.071  0.0951  0.1352 -0.2060
32612W        W39062  12.089   0.292  36.071 -0.2262 -0.1495  0.1496
32613W        W39063   8.097   1.889  25.686  0.2054 -0.0200  0.0147
32614W        W39064  18.830   5.596   0.911 -0.0139 -0.0969 -0.2693
32615W        W39065   3.522   5.426  13.373  0.0304 -0.0596  0.1971
32616W        W39066   5.093   4.063  29.509  0.0380  0.2555  0.0408
32617W        W39067   4.222   4.306   6.170  0.0645 -0.1781 -0.0167
32618W        W39068  17.016   2.256   7.069 -0.1464  0.2059 -0.1109
32619W        W39069   1.873   4.753  14.864 -0.1595 -0.2896  0.0936
32620W        W39070  17.136   6.585  39.863 -0.3659  0.1058  0.0088
32621W        W39071  15.108   6.209  30.265 -0.0073 -0.1327  0.0032
32622W        W39072  17.367   3.123  39.934 -0.1666 -0.2927 -0.0440
32623W        W39073   1.620   5.742  33.901  0.0730  0.0959 -0.0142
32624W        W39074  14.163   0.016  29.670 -0.1666  0.1303 -0.0838
32625W        W39075   1.626   2.843  29.443 -0.0338 -0.0493 -0.0417
32626W        W39076  14.244   5.790  37.303  0.1677 -0.0631 -0.0750
32627W        W39077  15.601   1.795  23.928 -0.0537  0.0624 -0.0551
32628W        W39078  10.545   4.128  16.026  0.3412 -0.0768 -0.0729
32629W        W39079   8.172   3.806  36.725 -0.0841 -0.3115 -0.1685
32630W        W39080   0.662   3.128  28.208  0.0630 -0.0364 -0.1115
32631W        W39081  19.073   5.036   9.702  0.1552  0.1910 -0.2134
32632W        W39082  11.628   4.440  31.563 -0.0393  0.1467  0.1153
32633W        W39083   4.102   4.660   9.898  0.1472  0.1120 -0.0546
32634W        W39084  19.267   3.831  21.314 -0.1555  0.1899  0.0097
32635W        W39085   2.817   2.452  37.337 -0.2693  0.3953  0.0830
32636W        W39086   3.696   3.175  30.018 -0.1840 -0.3753 -0.0745
32637W        W39087   5.424   5.205  22.099  0.4355  0.3094  0.0716
32638W        W39088   2.706   2.814  41.819  0.3716  0.0276  0.0339
32639W        W39089  16.153   5.134  13.568  0.0503 -0.0738 -0.2332
32640W        W39090   2.101   0.140  11.877  0.2086  0.2631  0.1999
32641W        W39091   7.274   2.467  14.073  0.0269 -0.2532 -0.2396
32642W        W39092   7.372   5.893  35.722  0.3688  0.0097  0.2079
32643W        W39093  19.973   4.140  31.380  0.0283 -0.0910 -0.0302
32644W        W39094   8.413   5.537  38.842 -0.2859 -0.0417  0.1468
32645W        W39095  20.839   4.381  16.130  0.2246 -0.0674 -0.4751
32646W        W39096  19.970   1.838  34.739  0.1396 -0.0413  0.4016
32647W        W39097   0.969   5.070  30.753 -0.0346  0.1402  0.4184
32648W        W39098   4.001   4.103  38.469  0.1844 -0.0222  0.0725
32649W        W39099   9.172   6.171   3.405  0.0430  0.2869  0.2180
32650W        W39100  15.703   5.213  37.698  0.0299  0.0218  0.2142
32651W        W39101   2.745   5.390  34.975  0.0514 -0.1552  0.0633
32652W        W39102   9.373   5.411   5.772  0.0951  0.2660  0.1273
32653W        W39103   3.870   0.404  26.572 -0.2212 -0.1874 -0.0004
32654W        W39104  14.719   1.975  43.578 -0.0249  0.1762 -0.1595
32655W        W39105   0.517   3.404  29.017  0.0929 -0.3530 -0.0670
32656W        W39106  20.191   5.543   5.912 -0.1875 -0.2061 -0.2092
32657W        W39107  17.065   5.866  13.424 -0.0494  0.0510  0.1294
32658W        W39108   4.615   1.012  28.613  0.1863 -0.1318  0.1828
32659W        W39109   5.204   3.448   2.920  0.1406 -0.1383 -0.1418
32660W        W39110  16.181   6.337  16.872  0.0940 -0.1120  0.4092
32661W        W39111   7.339   0.635  15.962  0.0187  0.2264 -0.2222
32662W        W39112   6.714   1.476  13.593  0.0377  0.0226 -0.2923
32663W        W39113  17.612   6.118  30.143 -0.1224 -0.1332  0.1601
32664W        W39114   0.673   5.752  38.060 -0.0487 -0.1955  0.2096
32665W        W39115  18.011   0.445  12.840  0.1013  0.0600  0.1190
32666W        W39116  11.416   3.988   5.707 -0.1533  0.1133 -0.1143
32667W        W39117   4.010   4.192  34.009  0.2563 -0.3146  0.0565
32668W        W39118  18.591   6.198   2.024 -0.1149 -0.1297 -0.0570
32669W        W39119  14.707   6.522  19.743  0.1729  0.1695 -0.0306
32670W        W39120   6.070   2.160  31.607  0.0557  0.0121  0.3919
32671W        W39121   6.215   0.831  28.916 -0.2761 -0.1766  0.2857
32672W        W39122   7.915   3.535  42.175  0.1918  0.0239  0.2916
32673W        W39123  15.436   4.048  31.116 -0.1621  0.0664 -0.0760
32674W        W39124  16.572   0.591   0.755  0.0881  0.0453  0.0749
32675W        W39125  16.988   5.857   1.333 -0.1675  0.3269 -0.0614
32676W        W39126  19.682   2.664  34.069 -0.0678  0.1356  0.1860
32677W        W39127   7.639   1.728  42.257 -0.1676  0.0252  0.1285
32678W        W39128  13.005   1.476  29.767 -0.1512 -0.0186  0.2686
32679W        W39129  20.703   4.777  30.501  0.1113  0.0947 -0.0284
32680W        W39130   1.443   4.850  44.985  0.0488 -0.2233 -0.3058
32681W        W39131  10.102   5.498  25.317 -0.0992 -0.2275  0.0372
32682W        W39132  12.642   2.085  43.605  0.0138  0.1188 -0.2566
32683W        W39133   7.196   2.418   9.146  0.2444 -0.0626 -0.1667
32684W        W39134  10.889   3.640  32.198  0.0263  0.0560  0.2124
32685W        W39135  20.718   5.797  18.297  0.2462 -0.0440  0.0203
32686W        W39136   1.150   6.509  41.560 -0.0114  0.1603  0.0760
32687W        W39137  15.597   4.366  12.506  0.0612  0.1108 -0.0187
32688W        W39138   9.958   4.290   4.294  0.0249 -0.4829 -0.2176
32689W        W39139  20.014   0.507  15.611 -0.0937 -0.2332  0.0120
32690W        W39140  17.218   0.774  41.175  0.3823 -0.2786  0.0837
32691W        W39141   3.827   5.037  44.121  0.1329 -0.0083 -0.2865
32692W        W39142   5.377   5.502  14.240  0.1815 -0.0751 -0.1587
32693W        W39143  16.091   0.752  19.293 -0.0196  0.0793 -0.1923
32694W        W39144   5.617   0.356  15.581 -0.0303  0.0507  0.0839
32695W        W39145  12.859   4.503  34.800  0.3519  0.4013 -0.2579
32696W        W39146   3.771   0.135  22.165  0.1897  0.0119  0.0440
32697W        W39147  14.512   5.695  36.207  0.2594  0.2959  0.2360
32698W        W39148  11.863   1.361  28.120  0.1120  0.1269  0.0327
32699W        W39149  16.586   0.238  18.356 -0.0535  0.1906  0.4052
32700W        W39150  18.739   0.829  36.502  0.2945  0.1675  0.1351
32701W        W39151  18.264   5.815  19.604 -0.3221  0.2472 -0.0110
32702W        W39152   9.047   1.117  16.243 -0.1288  0.0036  0.2519
32703W        W39153   3.375   4.908  24.671 -0.1864  0.0077 -0.0621
32704W        W39154  11.031   6.386  37.449  0.2684  0.1451 -0.0707
32705W        W39155   9.454   5.969  31.620 -0.1796 -0.0978  0.1739
32706W        W39156  11.989   3.237   5.071 -0.0436 -0.0480 -0.2843
32707W        W39157   1.885   4.063  44.393  0.0219 -0.0075 -0.0434
32708W        W39158   0.796   0.891  41.693  0.2352  0.0151  0.2048
32709W        W39159  16.915   4.634   5.078  0.0694 -0.1861 -0.3247
32710W        W39160   6.375   3.329  33.410  0.1312 -0.0325  0.0580
32711W        W39161  16.341   4.349  11.577  0.0371 -0.0248 -0.2070
32712W        W39162  11.652   0.759   5.084 -0.2528  0.2627  0.0206
32713W        W39163  20.089   4.022  13.566 -0.1520  0.1029 -0.1583
32714W        W39164   5.217   2.068   6.183  0.2816 -0.1622  0.0631
32715W        W39165  12.030   6.371   2.799 -0.0660  0.1983 -0.2703
32716W        W39166  17.327   4.992  20.303 -0.0995  0.1682  0.4418
32717W        W39167  10.342   6.405  35.138  0.0191 -0.0025  0.0745
32718W        W39168  17.968   0.152  29.720 -0.1368 -0.1402  0.0945
32719W        W39169  16.961   1.884  10.467  0.1858  0.1367  0.0752
32720W        W39170   2.322   1.106  12.738  0.1408  0.0316 -0.2161
32721W        W39171   8.163   2.208   2.215  0.0067 -0.2327  0.0322
32722W        W39172  10.778   1.030  44.403  0.0279 -0.0613 -0.1520
32723W        W39173  14.258   4.045  13.827  0.1937 -0.0322 -0.1167
32724W        W39174  11.472   4.740  34.512  0.1051  0.0823  0.2457
32725W        W39175  16.610   2.514   4.007  0.2020 -0.0642 -0.3797
32726W        W39176   3.441   4.819  28.700 -0.2394  0.0138 -0.3746
32727W        W39177   1.700   3.079   0.273  0.1092  0.0648  0.0005
32728W        W39178   3.593   2.022   9.546  0.0701  0.0319 -0.2887
32729W        W39179  19.731   0.591  17.762  0.1231  0.2575  0.0188
32730W        W39180  12.842   1.532  16.511  0.1155  0.2034  0.2519
32731W        W39181  14.214   4.461   5.367 -0.0335 -0.0693  0.1454
32732W        W39182   7.490   1.058  28.478 -0.1890  0.3082  0.3377
32733W        W39183   7.685   3.202   5.875  0.2341  0.0762 -0.0361
32734W        W39184  15.802   5.154   2.950  0.2668  0.0594  0.1123
32735W        W39185  12.897   3.674  42.918 -0.1766  0.1080  0.2260
32736W        W39186  14.981   2.478  36.163 -0.0757 -0.1261  0.3305
32737W        W39187   1.258   1.176  34.220  0.5512 -0.1559  0.0821
32738W        W39188   6.105   1.859  14.046 -0.1227 -0.2121 -0.3439
32739W        W39189  20.712   2.133  40.771 -0.1188 -0.1759  0.3392
32740W        W39190  19.124   3.299  19.803  0.0051  0.0412  0.0903
32741W        W39191   8.337   0.673  43.397 -0.0157  0.1057  0.1127
32742W        W39192   6.452   6.551   6.399 -0.2476 -0.0112 -0.2601
32743W        W39193  20.685   6.086  40.555 -0.1170 -0.1444 -0.2493
32744W        W39194  12.250   4.825   6.383  0.2604 -0.1160 -0.3633
32745W        W39195   0.649   6.043   5.555  0.3556 -0.1696 -0.0230
32746W        W39196   0.705   0.014  43.354  0.1626  0.0080 -0.0014
32747W        W39197   4.725   0.028  23.013  0.1617 -0.0190 -0.0692
32748W        W39198   5.402   6.049  36.948  0.0411 -0.0111  0.0187
32749W        W39199   8.555   4.825   7.834  0.1843 -0.0225  0.2092
32750W        W39200  19.645   2.156  34.061 -0.2820  0.0805 -0.0107
32751W        W39201  14.551   3.887  36.632 -0.0600 -0.0617 -0.1986
32752W        W39202  11.667   0.069  42.739  0.1545  0.1959 -0.0568
32753W        W39203   6.521   0.969  19.425 -0.0829 -0.3565 -0.2360
32754W        W39204   6.900   3.758   7.277 -0.0847  0.2225  0.0448
32755W        W39205   2.445   5.165  27.074  0.0655 -0.3307  0.0389
32756W        W39206  15.036   2.933  41.212 -0.1162  0.0072 -0.2225
32757W        W39207   1.804   3.127  26.725  0.0500  0.0120 -0.1658
32758W        W39208   0.276   2.907  31.282 -0.0289  0.0570 -0.1460
32759W        W39209  15.572   2.045   2.337 -0.0588 -0.1387  0.1544
32760W        W39210  18.679   0.758  15.674 -0.3123 -0.1196  0.4534
32761W        W39211  12.241   3.418  34.372 -0.0366  0.0878 -0.0481
32762W        W39212  13.010   5.513  39.231  0.0830  0.0256 -0.0665
32763W        W39213   6.745   1.344  23.384  0.0067  0.0612 -0.0263
32764W        W39214  18.934   3.416  19.303  0.0896  0.0143 -0.1708
32765W        W39215   7.860   1.553  15.679 -0.3570  0.2267 -0.1112
32766W        W39216   7.978   1.268  23.317 -0.0158 -0.0661 -0.3257
32767W        W39217   0.996   0.761  14.723  0.0874 -0.1209 -0.1056
32768W        W39218   1.932   1.734  33.755  0.1532  0.0328  0.1485
32769W        W39219  15.080   3.848   5.298  0.0368  0.0716 -0.0129
32770W        W39220   1.618   2.889  28.555 -0.0816  0.0222 -0.0165
32771W        W39221   3.907   0.328  26.100 -0.0319  0.0243  0.0559
32772W        W39222   9.673   0.537  14.549  0.1887  0.2037  0.0444
32773W        W39223   4.880   3.951  12.020  0.1351  0.0342  0.3300
32774W        W39224   9.529   3.451  38.600 -0.1643  0.0800 -0.0741
32775W        W39225   4.000   1.037   7.929  0.1847 -0.1913  0.0267
32776W        W39226  17.503   6.265  18.711 -0.1816  0.1397  0.0460
32777W        W39227   8.025   3.362  37.433 -0.0091 -0.1353 -0.2596
32778W        W39228   4.719   5.407  14.101  0.1833  0.0615  0.1899
32779W        W39229   2.404   0.271  44.879  0.2199 -0.2323 -0.1149
32780W        W39230  19.909   5.597  33.294 -0.3949  0.0047 -0.0758
32781W        W39231  14.112   4.026  13.322 -0.1187  0.3296 -0.2426
32782W        W39232   6.758   0.193   8.249  0.2482 -0.0394 -0.0357
32783W        W39233  20.907   5.463   3.921 -0.1871 -0.0873  0.1188
32784W        W39234   4.301   4.231  14.674  0.0778 -0.2341  0.4150
32785W        W39235  16.805   4.875  34.150 -0.0289 -0.0079  0.0396
32786W        W39236   2.194   3.219   5.735  0.0746 -0.1108 -0.1000
32787W        W39237   0.298   0.280   1.935  0.2064  0.1322  0.2326
32788W        W39238  19.124   4.483  20.710 -0.1377 -0.0763 -0.0557
32789W        W39239   3.970   1.390  30.766 -0.0411 -0.3326  0.1073
32790W        W39240  12.455   5.717  31.300 -0.0904 -0.0637  0.2730
32791W        W39241   0.557   6.113  27.206 -0.3054 -0.1310 -0.0201
32792W        W39242   6.535   0.528  24.050 -0.0573 -0.1471  0.2553
32793W        W39243   3.208   6.300  40.602 -0.0867 -0.2401 -0.1300
32794W        W39244  14.021   1.193   3.013  0.1131 -0.1339 -0.0070
32795W        W39245   2.806   0.341  34.076 -0.1218  0.1106  0.1335
32796W        W39246   8.401   3.186  33.670 -0.3196 -0.1537 -0.1761
32797W        W39247   2.653   2.833   4.915 -0.1023  0.1089 -0.0794
32798W        W39248   2.775   4.279  37.174 -0.1630  0.1958  0.0047
32799W        W39249   3.330   6.160  31.957  0.0677 -0.0541  0.0907
32800W        W39250  15.281   5.089  30.757 -0.1884 -0.0709 -0.0043
32801W        W39251  14.404   4.294  31.271 -0.0345  0.0835  0.1413
32802W        W39252   0.677   2.065  31.461 -0.0133 -0.0056  0.1662
32803W        W39253  16.687   0.935  29.497 -0.0101  0.0786  0.0489
32804W        W39254  16.965   1.425  18.065  0.2084  0.0737 -0.2338
32805W        W39255  10.914   5.156  35.839  0.1825  0.1577  0.0979
32806W        W39256   7.023   5.218  22.669 -0.4015  0.1450 -0.1888
32807W        W39257  12.825   3.097  12.892 -0.1965 -0.1613  0.3232
32808W        W39258  13.942   2.149  17.387  0.0886 -0.3630  0.1083
32809W        W39259   8.991   5.973   1.993 -0.2480 -0.0193  0.1542
32810W        W39260   5.962   5.633  21.022 -0.2447  0.1514 -0.1860
32811W        W39261  20.992   3.744  42.931 -0.0651 -0.1650  0.0132
32812W        W39262  20.258   5.322  40.833 -0.1554 -0.0660 -0.4011
32813W        W39263  15.780   3.537  37.376  0.1394 -0.3779  0.1449
32814W        W39264  16.956   2.802   8.471  0.2408  0.1197 -0.2894
32815W        W39265   2.148   5.245  10.224 -0.2111 -0.4190  0.1877
32816W        W39266  15.869   0.060  42.776 -0.0628 -0.5292 -0.0218
32817W        W39267  16.606   5.103   6.799  0.0663  0.0869  0.2997
32818W        W39268  16.957   3.915  36.562  0.1023 -0.0160  0.0201
32819W        W39269  19.219   3.479  33.827 -0.0349 -0.2194 -0.1054
32820W        W39270  17.643   1.252  31.028  0.1453  0.1523  0.0029
32821W        W39271  10.908   5.621  35.342 -0.0621 -0.1206 -0.0376
32822W        W39272   4.335   3.392  24.952  0.0105 -0.0364  0.2488
32823W        W39273   6.096   4.356  28.053  0.2515  0.1581 -0.2502
32824W        W39274  11.303   0.155  12.223  0.0593 -0.1336 -0.2133
32825W        W39275  10.095   1.406   5.010  0.0193  0.0503  0.1605
32826W        W39276  18.068   2.814   7.119  0.0311 -0.2864  0.1310
32827W        W39277  14.705   0.143   7.138  0.0169 -0.2023 -0.0242
32828W        W39278  11.914   1.483  18.350  0.0990  0.3149 -0.2120
32829W        W39279   7.351   3.723  37.885 -0.1955 -0.1438  0.0295
32830W        W39280  20.580   3.956   7.811 -0.5474 -0.2355  0.3675
32831W        W39281  13.709   3.464  35.754 -0.1119  0.0169  0.0835
32832W        W39282  15.444   5.830  29.128  0.0325 -0.0852 -0.0350
32833W        W39283  18.188   5.568  20.498 -0.0986 -0.3524 -0.0544
32834W        W39284  14.924   0.701  23.266  0.0716 -0.3165  0.2117
32835W        W39285  11.592   2.982  41.996 -0.0805  0.0273 -0.1011
32836W        W39286   5.511   5.112  41.742  0.0573  0.2694  0.1466
32837W        W39287   4.640   6.201   9.384 -0.1545  0.2619 -0.0200
32838W        W39288   8.808   4.365   3.288  0.3903  0.0174  0.0228
32839W        W39289   4.238   6.547  23.178  0.3525  0.0141 -0.0495
32840W        W39290  11.027   2.672  34.655 -0.0860  0.0358 -0.1129
32841W        W39291  12.223   1.491  40.410 -0.2573 -0.0183 -0.2340
32842W        W39292  12.990   5.246  18.717 -0.0788 -0.0174  0.1468
32843W        W39293  12.392   5.111  37.815 -0.0942 -0.1940 -0.2844
32844W        W39294   7.097   0.973  26.999 -0.2693  0.0110 -0.1345
32845W        W39295   0.713   6.540  44.209 -0.0033 -0.0120  0.1312
32846W        W39296  14.569   3.013   3.007  0.2040  0.1929 -0.2044
32847W        W39297  20.265   0.882   4.691  0.1300 -0.2491  0.2432
32848W        W39298   1.673   1.572  15.114  0.0032  0.1975 -0.0476
32849W        W39299   2.535   4.091  32.673  0.2527 -0.0700  0.0175
32850W        W39300  15.985   2.440  34.319  0.1289 -0.0043 -0.0671
32851W        W39301  12.082   6.257  44.929  0.2936  0.3729 -0.1012
32852W        W39302  17.410   5.269  40.786  0.1286 -0.0180 -0.0238
32853W        W39303   3.149   5.610  37.021 -0.2957  0.1123  0.0048
32854W        W39304  17.596   3.572   6.042 -0.1723 -0.0328 -0.3490
32855W        W39305   0.303   6.081   0.247 -0.0274  0.0518  0.1544
32856W        W39306   7.336   3.730  32.479  0.1609 -0.1557  0.0741
32857W        W39307  15.139   2.223   0.238 -0.0768  0.1812 -0.1202
32858W        W39308   9.243   1.452  36.239  0.0192  0.0133  0.0128
32859W        W39309   4.006   3.052  21.214  0.0521  0.0184 -0.1629
32860W        W39310   7.429   5.980  38.614 -0.3764 -0.1033 -0.0192
32861W        W39311   5.907   3.121  31.106  0.0685  0.2359 -0.1859
32862W        W39312  17.299   1.038  23.997  0.3862  0.1648  0.1587
32863W        W39313  19.642   0.763  15.927 -0.0075 -0.0606  0.1689
32864W        W39314  12.651   0.402   8.646  0.2320  0.1980  0.2151
32865W        W39315   4.538   2.187  23.380 -0.1950 -0.0700  0.0305
32866W        W39316  17.794   3.807  13.902 -0.1867 -0.0888  0.3513
32867W        W39317  18.985   2.008  10.064  0.2633  0.0091 -0.0249
32868W        W39318  20.867   2.400  14.774  0.0302 -0.1168  0.1654
32869W        W39319  15.412   2.340  36.636  0.2626  0.0804  0.0434
32870W        W39320  12.247   3.202   6.428  0.0785 -0.0605  0.0751
32871W        W39321   9.651   1.479  42.150 -0.0316  0.0079 -0.1231
32872W        W39322  10.244   0.009  29.303 -0.0154  0.0479 -0.0659
32873W        W39323   9.678   5.311  35.753 -0.0953 -0.2229 -0.0557
32874W        W39324  11.625   0.995   3.049 -0.2651 -0.1115  0.0627
32875W        W39325  14.853   1.217   6.543  0.2922 -0.2771 -0.0977
32876W        W39326   1.048   1.704  43.672  0.0112  0.0543  0.1534
32877W        W39327   2.807   2.892  33.161  0.1187 -0.0159  0.1478
32878W        W39328   5.855   1.678  43.891  0.2212  0.1916  0.2533
32879W        W39329  14.056   5.660  15.702  0.0620  0.1054 -0.2146
32880W        W39330  13.439   3.467  16.697 -0.1307 -0.2711  0.1662
32881W        W39331   2.097   1.644  29.832  0.1626 -0.0969 -0.0337
32882W        W39332   2.024   2.932  41.363  0.3954  0.0332  0.1392
32883W        W39333   1.462   0.229   9.986 -0.1787  0.0017 -0.0719
32884W        W39334  13.305   3.572  42.646 -0.4033 -0.0450 -0.3098
32885W        W39335  10.259   4.399   5.645  0.0962 -0.1747  0.1623
32886W        W39336   1.724   3.050  34.989  0.1598  0.1549 -0.0053
32887W        W39337  19.878   1.590  16.379 -0.0835 -0.2510  0.1199
32888W        W39338  18.690   5.355  13.445 -0.1146 -0.1205 -0.0605
32889W        W39339  17.648   1.834  31.498  0.1122 -0.1500 -0.0322
32890W        W39340  19.131   2.984   0.710  0.0515 -0.1695 -0.0254
32891W        W39341   4.028   6.555  42.674  0.2407  0.1654  0.1216
32892W        W39342   6.594   6.391  44.237  0.0297  0.0874  0.2588
32893W        W39343  16.803   4.406  31.306  0.0167  0.1511  0.0533
32894W        W39344   9.204   0.492  44.697 -0.1065  0.3768 -0.0548
32895W        W39345  19.004   3.094  32.534 -0.1010  0.2047 -0.1791
32896W        W39346  17.838   4.476  15.229  0.0028  0.2023 -0.1827
32897W        W39347  13.669   2.541  14.554 -0.2568  0.0303 -0.2557
32898W        W39348   2.290   5.011  31.278  0.1702  0.2770  0.1104
32899W        W39349   0.432   3.741  35.566  0.0041 -0.1486 -0.0511
32900W        W39350   6.547   6.156  25.708 -0.0908 -0.1648  0.1154
32901W        W39351   8.097   4.391  38.783  0.0130 -0.0209  0.2598
32902W        W39352   4.012   0.203  13.867  0.0613  0.0283  0.0104
32903W        W39353   0.637   1.593  31.264 -0.0108 -0.1075 -0.1716
32904W        W39354   5.424   6.143  43.467 -0.0068 -0.0521  0.2527
32905W        W39355   6.534   2.774  14.374 -0.1584 -0.1977  0.3801
32906W        W39356   6.837   6.543  10.610 -0.0301 -0.1821  0.2432
32907W        W39357   7.932   1.224  30.210  0.1692 -0.1461 -0.0754
32908W        W39358  12.419   4.705  37.441  0.0434 -0.0307  0.2198
32909W        W39359   8.982   3.111   0.679  0.0966 -0.1085  0.0762
32910W        W39360   4.722   3.088   6.866  0.0096  0.1153 -0.1606
32911W        W39361   4.100   4.819  32.833 -0.0468  0.5670 -0.0994
32912W        W39362  14.543   1.635  18.539  0.2748 -0.0767  0.3829
32913W        W39363   5.024   1.261  44.434 -0.0868 -0.0987  0.1203
32914W        W39364  16.105   5.324   0.412  0.0996 -0.1629 -0.0805
32915W        W39365  15.366   4.659  14.871  0.0533  0.2300 -0.0120
32916W        W39366  16.667   6.443  29.864  0.1258  0.0617  0.1836
32917W        W39367  15.238   2.059  44.929 -0.3771 -0.0172  0.1568
32918W        W39368  15.029   2.987  11.676 -0.1640  0.1298 -0.0783
32919W        W39369  10.343   0.735   3.802 -0.1513  0.1406 -0.3587
32920W        W39370  20.998   5.585  14.781  0.0125  0.0342 -0.0944
32921W        W39371  20.712   4.014  32.287 -0.1176  0.1398 -0.1581
32922W        W39372   6.105   0.765   9.040  0.1472  0.0135 -0.1608
32923W        W39373  11.968   0.644   9.814  0.1777 -0.0711  0.2268
32924W        W39374  17.061   3.299   7.344  0.6764  0.2434 -0.0457
32925W        W39375  11.088   1.596   8.466 -0.1838 -0.2887  0.0405
32926W        W39376   8.354   3.237  44.489  0.0332 -0.0987 -0.3256
32927W        W39377  15.481   1.809  34.603  0.2068 -0.0352  0.0211
32928W        W39378   5.571   4.569  21.830 -0.0587 -0.0307  0.2667
32929W        W39379  10.860   6.586   6.115  0.0553  0.0313 -0.4814
32930W        W39380  11.772   1.467   0.535 -0.0963 -0.2569  0.1355
32931W        W39381   4.693   5.640  41.623  0.0214 -0.0197  0.2796
32932W        W39382  15.149   5.466  11.435  0.1412 -0.2538  0.1566
32933W        W39383  17.945   1.461  41.714  0.0605  0.1208 -0.1347
32934W        W39384  14.426   5.510  17.609 -0.0973  0.0474  0.1479
32935W        W39385   9.825   4.280  10.597  0.0637 -0.1589 -0.0982
32936W        W39386   5.633   4.583   6.923 -0.1162 -0.3111  0.0855
32937W        W39387   0.898   5.243  17.905 -0.1155 -0.0618  0.4228
32938W        W39388   2.333   5.576   6.176 -0.1095 -0.0933  0.1772
32939W        W39389   2.284   2.321  24.503  0.0816  0.3793 -0.0189
32940W        W39390   6.182   4.729  29.547 -0.1180  0.0908  0.0498
32941W        W39391   0.807   2.997   1.782 -0.0793 -0.0415  0.1728
32942W        W39392   4.972   1.451  15.570 -0.0141 -0.0890  0.0925
32943W        W39393   8.275   3.022  32.039 -0.0882  0.6134  0.2698
32944W        W39394  16.037   2.227   2.150 -0.0930 -0.3754  0.2503
32945W        W39395   9.303   3.966  24.830  0.2345  0.2103  0.0149
32946W        W39396   5.740   4.463   3.779 -0.0258  0.1463 -0.1962
32947W        W39397   1.201   2.711  34.267  0.0362  0.0990  0.0177
32948W        W39398   3.085   4.727   9.733  0.1643 -0.2870 -0.3531
32949W        W39399   7.432   5.652  10.779 -0.0447 -0.1578  0.1271
32950W        W39400  20.442   2.691  30.595  0.0616 -0.3480  0.2206
32951W        W39401   9.307   2.692   3.891  0.1048 -0.2402  0.2872
32952W        W39402  10.305   1.840   0.841 -0.1713  0.3289  0.0362
32953W        W39403  13.472   4.927  14.320 -0.3250 -0.0929 -0.1308
32954W        W39404   2.112   6.378  14.176  0.1750 -0.4581  0.1123
32955W        W39405   6.735   0.939  29.014  0.1629  0.0483 -0.2182
32956W        W39406   8.760   2.644  35.262 -0.1767 -0.2635 -0.2655
32957W        W39407  20.906   4.962  31.817 -0.0092 -0.2597 -0.1526
32958W        W39408   1.158   4.521  41.382  0.0028  0.0066 -0.1933
32959W        W39409  19.548   0.150  42.772  0.1708 -0.1915 -0.4430
32960W        W39410  11.746   2.931  17.049 -0.0290  0.0355 -0.1367
32961W        W39411  19.428   2.359   6.581 -0.1624  0.1588 -0.2825
32962W        W39412   7.011   2.501  27.630 -0.2817 -0.1099 -0.1192
32963W        W39413  16.370   6.263   4.409  0.1469  0.2129 -0.0145
32964W        W39414  12.420   1.394  18.538  0.2329 -0.0316 -0.1883
32965W        W39415   5.785   6.168  20.259 -0.0480  0.3147  0.0338
32966W        W39416  19.359   3.961   4.371  0.2589  0.0722  0.1116
32967W        W39417   3.644   3.725  24.044  0.0481  0.1281 -0.2360
32968W        W39418   0.195   5.915  14.537  0.0469 -0.3687  0.0662
32969W        W39419  10.130   5.341   4.215  0.1041 -0.1357 -0.0329
32970W        W39420  20.857   1.072  40.644  0.0132 -0.0211 -0.0526
32971W        W39421   8.682   1.056   1.956 -0.1466 -0.2305 -0.1238
32972W        W39422   6.813   4.711  43.027 -0.0296 -0.1050 -0.1245
32973W        W39423  14.395   1.882  15.395 -0.1883  0.3112 -0.2394
32974W        W39424  16.666   3.280  10.771 -0.0669 -0.0108 -0.0874
32975W        W39425   2.497   2.753   2.073 -0.0530 -0.2592  0.0832
32976W        W39426  15.563   0.244  41.817  0.1916  0.1040 -0.1159
32977W        W39427  16.537   4.312   7.960 -0.1654 -0.0220 -0.2507
32978W        W39428  12.289   3.836  41.111 -0.0597 -0.0385 -0.1715
32979W        W39429   3.542   3.159  26.406  0.2001 -0.0076  0.0264
32980W        W39430   6.387   0.080  16.158 -0.0462  0.0361 -0.1354
32981W        W39431   2.456   5.080   6.183  0.1429  0.5131  0.0436
32982W        W39432  14.958   1.301  33.719  0.2972 -0.1001 -0.1333
32983W        W39433  19.000   1.551  35.988 -0.0326 -0.0056  0.0794
32984W        W39434   1.255   0.775   1.761 -0.1714 -0.0240 -0.2359
32985W        W39435   3.979   1.098  36.577  0.0428  0.1597  0.0277
32986W        W39436   7.439   0.288  24.664  0.0379 -0.0164 -0.1007
32987W        W39437  12.236   1.174  33.251  0.0599  0.5011  0.1651
32988W        W39438  18.111   3.786   3.239 -0.1150  0.1944  0.0056
32989W        W39439  11.061   1.547  36.881 -0.3205 -0.0190  0.1001
32990W        W39440  15.628   5.319   1.870 -0.1288  0.1636  0.0870
32991W        W39441   0.611   3.411  26.818 -0.0143 -0.3719 -0.1159
32992W        W39442  16.957   5.696  19.512  0.4105 -0.2585  0.4754
32993W        W39443  16.137   1.058   6.114  0.1213  0.0155 -0.1810
32994W        W39444  17.371   0.327  23.174  0.0848  0.0663  0.3095
32995W        W39445  11.208   3.678  39.193  0.2427 -0.1318 -0.0458
32996W        W39446  13.957   4.884  19.821  0.0620  0.0257  0.0525
32997W        W39447  11.736   4.500  40.857 -0.0648 -0.0736  0.2507
32998W        W39448   4.789   3.237   7.310  0.2833  0.1110  0.0113
32999W        W39449   0.792   3.480   7.762 -0.0475 -0.1422 -0.3711
33000W        W39450  17.789   4.596  12.513  0.3436 -0.2055 -0.0020
33001W        W39451   7.081   1.798  15.452  0.1881 -0.0706  0.1552
33002W        W39452   3.138   5.653  40.471 -0.0394  0.0220  0.2514
33003W        W39453  15.731   1.217  22.550 -0.2521 -0.0587 -0.1148
33004W        W39454   1.919   4.931   8.090 -0.1994  0.0852  0.2415
33005W        W39455   0.643   0.199   2.394  0.1136  0.0928  0.0388
33006W        W39456  12.320   3.790  31.592  0.1396 -0.0022 -0.0798
33007W        W39457   3.090   4.867  12.493  0.0355 -0.2373 -0.0806
33008W        W39458   6.639   2.949  33.712  0.0486  0.1779 -0.2117
33009W        W39459   4.050   2.992  28.118 -0.0947  0.2761  0.2549
33010W        W39460   8.250   5.112  37.221 -0.0377  0.2261 -0.0198
33011W        W39461  21.015   3.395  37.271  0.2045 -0.2618 -0.1444
33012W        W39462   4.480   6.234  44.300 -0.1864  0.1827  0.2390
33013W        W39463   9.487   4.589   0.681  0.1358 -0.1205  0.2065
33014W        W39464  20.437   6.545  12.953 -0.1632  0.2264 -0.1351
33015W        W39465   3.939   0.173  33.410  0.0404  0.1027 -0.1071
33016W        W39466  15.406   1.731   4.191 -0.1922 -0.0603  0.0414
33017W        W39467   9.146   3.173  33.032  0.1043  0.4680  0.2167
33018W        W39468  16.177   2.948  38.856 -0.0039  0.0690  0.0490
33019W        W39469   8.545   1.218  44.680 -0.0728  0.5309  0.0389
33020W        W39470  13.714   4.547  44.764 -0.1150  0.1835  0.0024
33021W        W39471   4.604   5.600  33.525  0.0337  0.1433 -0.0198
33022W        W39472  11.078   1.513   1.864  0.0210  0.0145 -0.0764
33023W        W39473   5.840   0.409  31.981  0.0384 -0.2611  0.0649
33024W        W39474  14.390   5.846  38.263  0.3207 -0.0553  0.2184
33025W        W39475  11.658   5.425   4.902 -0.1045  0.0074 -0.1588
33026W        W39476   4.098   6.322  32.305 -0.0426 -0.1815  0.2534
33027W        W39477   3.557   4.392  23.325  0.0091 -0.0328  0.2755
33028W        W39478  12.618   1.767  28.223  0.3495 -0.1709  0.0987
33029W        W39479   4.083   5.990  23.386 -0.1812  0.0927 -0.0024
33030W        W39480   3.310   4.579  10.214  0.2753  0.1361  0.0021
33031W        W39481  20.085   5.246  39.446 -0.0929 -0.1772 -0.0526
33032W        W39482  14.758   0.807  14.805 -0.2691 -0.1010 -0.2082
33033W        W39483  20.758   4.529  28.766 -0.1621 -0.0382  0.0548
33034W        W39484  18.999   4.698  14.318 -0.2896 -0.1482 -0.1289
33035W        W39485   7.385   6.307   3.471 -0.2974  0.1077  0.2731
33036W        W39486   3.172   4.403   1.004 -0.2660 -0.0410 -0.1812
33037W        W39487  18.412   3.786   0.874 -0.0708  0.1193 -0.1061
33038W        W39488   4.212   6.567  41.577  0.0535 -0.1711 -0.0443
33039W        W39489  16.009   3.961  32.892  0.1664 -0.0202 -0.3208
33040W        W39490   5.384   3.400   5.028  0.3189  0.1531 -0.2620
33041W        W39491   5.013   5.852  26.927  0.1438 -0.3790  0.0464
33042W        W39492   9.172   4.869  24.079  0.0849 -0.0404 -0.0268
33043W        W39493  14.285   1.005  18.202  0.1495 -0.3050 -0.2333
33044W        W39494  18.016   1.895   1.500 -0.5968  0.0995 -0.2659
33045W        W39495  19.084   5.460   9.995  0.1916  0.0994 -0.0936
33046W        W39496   4.452   3.323  11.513  0.4808 -0.1689 -0.1760
33047W        W39497  14.934   2.424  40.325  0.2983  0.2777 -0.0475
33048W        W39498  10.319   6.374   7.543 -0.0146  0.1612  0.4581
33049W        W39499   7.461   4.593  25.463 -0.0956  0.1293 -0.2420
33050W        W39500   2.654   3.127  11.045  0.0963 -0.0528 -0.1898
33051W        W39501  18.244   3.920  31.037 -0.0684  0.1538 -0.0336
33052W        W39502   8.688   5.166  32.832  0.0030 -0.2962  0.0458
33053W        W39503  14.472   2.903   6.594 -0.1116 -0.0586  0.0400
33054W        W39504   8.991   2.778  35.933 -0.1830  0.0626 -0.1123
33055W        W39505  20.145   3.684  44.205 -0.0241  0.1405 -0.0462
33056W        W39506  18.602   4.536  20.770 -0.1466 -0.2641 -0.0519
33057W        W39507   5.741   5.508  14.613  0.2542  0.0728 -0.0366
33058W        W39508   0.201   3.237  18.107 -0.2050 -0.2912  0.4269
33059W        W39509  12.664   1.595  43.425 -0.1202  0.1009  0.2002
33060W        W39510   3.029   5.633   0.647  0.2629  0.0418 -0.1484
33061W        W39511   0.629   4.441  36.162  0.1908 -0.1944 -0.2654
33062W        W39512   5.668   4.175   1.941  0.2938  0.2890 -0.0861
33063W        W39513  16.820   6.205  15.584  0.2064 -0.0745  0.0646
33064W        W39514  18.092   1.034  21.836  0.0267 -0.3178 -0.0207
33065W        W39515   6.820   1.467  31.423  0.0050  0.2397  0.2019
33066W        W39516   2.251   6.593  31.107 -0.1145 -0.0151 -0.0462
33067W        W39517  21.017   2.080  35.654  0.2034 -0.0073 -0.0652
33068W        W39518   4.344   2.528  25.474  0.0419  0.0859 -0.3444
33069W        W39519  19.756   1.118  11.903  0.1631 -0.0592 -0.2656
33070W        W39520  19.390   5.391   6.989  0.0166  0.0250  0.2221
33071W        W39521   8.789   3.666  30.314  0.0634 -0.2005  0.1123
33072W        W39522  13.941   4.081  21.521  0.2255 -0.0258  0.0460
33073W        W39523  18.618   0.161  35.168  0.0976 -0.0935  0.2076
33074W        W39524  17.419   4.618  33.517  0.0037 -0.2103 -0.3069
33075W        W39525  16.564   0.825  36.007 -0.0085  0.4067 -0.0662
33076W        W39526   3.884   2.907  30.720 -0.0043 -0.2105 -0.0079
33077W        W39527   1.417   4.831   3.358  0.0855 -0.1460 -0.0776
33078W        W39528   1.738   1.042  15.285 -0.3439 -0.2026  0.0120
33079W        W39529  15.786   2.915  42.462 -0.3584  0.3368  0.1865
33080W        W39530   7.285   5.288   6.123  0.3880 -0.1477 -0.4902
33081W        W39531   7.942   5.997  35.732  0.0732 -0.0501 -0.0103
33082W        W39532  15.359   3.347  14.680 -0.0164  0.2017 -0.2179
33083W        W39533  11.524   6.360  39.560 -0.1405 -0.0660 -0.0804
33084W        W39534  10.215   1.450  37.272  0.0742  0.1883 -0.2476
33085W        W39535   8.754   0.756   6.525 -0.0658  0.3011 -0.0731
33086W        W39536  19.875   0.475  39.491  0.0689 -0.0206 -0.2063
33087W        W39537   0.183   5.637  43.593 -0.0582  0.1698  0.4409
33088W        W39538  11.628   2.746  36.494  0.3504 -0.1518  0.0473
33089W        W39539  10.874   3.023  36.164 -0.0636 -0.0206 -0.0898
33090W        W39540   6.850   0.368   8.802 -0.0797  0.1214 -0.1016
33091W        W39541  21.120   2.910  17.059 -0.1477  0.3510  0.2082
33092W        W39542   2.153   2.234  40.108  0.0056  0.0736 -0.0714
33093W        W39543  13.859   1.491   7.451  0.1381  0.1116  0.1666
33094W        W39544  11.081   3.885  12.712  0.1501 -0.1977  0.1493
33095W        W39545  14.452   2.027  38.113 -0.1746 -0.2552 -0.0674
33096W        W39546   7.131   6.544  38.962  0.0146  0.1851 -0.2156
33097W        W39547  17.941   2.794  41.142 -0.1224  0.2202 -0.2937
33098W        W39548   2.536   3.872  25.114  0.1500 -0.1021 -0.2115
33099W        W39549   6.489   4.646  28.154 -0.1659 -0.1476 -0.1249
33100W        W39550  19.658   6.258  17.023  0.2424 -0.0776  0.2200
33101W        W39551   6.308   2.570  37.904  0.2305  0.2516  0.3921
33102W        W39552   9.569   3.271  16.575  0.0881 -0.2479 -0.1182
33103W        W39553   8.280   2.299  23.359 -0.1834  0.1033  0.1213
33104W        W39554  16.789   0.600  14.578  0.2350  0.1074  0.4115
33105W        W39555  18.485   4.610  39.839 -0.2154  0.2218 -0.2024
33106W        W39556  11.589   4.245  38.855 -0.0895  0.2232  0.2396
33107W        W39557   5.678   1.092  42.856 -0.0430  0.0407  0.0883
33108W        W39558  15.408   0.727  35.450  0.5826 -0.0415  0.1514
33109W        W39559   0.705   0.110  34.520  0.0383 -0.2018  0.0619
33110W        W39560  18.680   5.040  22.059 -0.1697  0.3557  0.0862
33111W        W39561   1.561   5.068   7.697  0.1681  0.1907 -0.0198
33112W        W39562   1.967   0.236  36.835  0.1298  0.1551  0.0606
33113W        W39563  17.777   2.996  14.402 -0.0119 -0.1784 -0.3180
33114W        W39564   8.553   0.013  40.163 -0.1598 -0.1826  0.0493
33115W        W39565  14.293   6.077   6.680  0.0751 -0.3811  0.3208
33116W        W39566   8.958   0.156   4.540 -0.2196  0.0000 -0.1457
33117W        W39567  14.965   3.329  12.101  0.0792 -0.2251  0.0404
33118W        W39568   0.540   0.240  33.414  0.1700  0.0992 -0.2774
33119W        W39569   2.582   2.726  14.152 -0.0112 -0.3856 -0.0356
33120W        W39570   0.848   0.255  44.584 -0.0220  0.2092  0.0882
33121W        W39571   8.803   0.480  43.276  0.1159  0.0973 -0.0700
33122W        W39572  19.921   4.471  12.777  0.0334  0.2090 -0.1165
33123W        W39573  12.426   4.796  13.339  0.3262  0.1914 -0.0904
33124W        W39574  10.527   3.305  38.939 -0.1843  0.1862  0.2242
33125W        W39575  19.980   6.524   8.455  0.1503 -0.0900  0.1138
33126W        W39576  19.288   5.357  38.691  0.3347 -0.1666 -0.0415
33127W        W39577  11.079   5.633   6.805  0.1302  0.2257 -0.0844
33128W        W39578   3.994   2.079  34.155  0.2420  0.3518  0.1426
33129W        W39579  18.891   5.872  30.441 -0.0495 -0.0928 -0.0427
33130W        W39580  15.338   1.803   5.554  0.0284  0.0226 -0.0664
33131W        W39581  15.158   1.165   7.873 -0.2615  0.0416 -0.0923
33132W        W39582  17.434   1.117  40.873 -0.3068  0.1355  0.0297
33133W        W39583  13.336   0.778  13.242 -0.2442  0.1665  0.0688
33134W        W39584   4.303   4.325  23.910 -0.2402  0.4199 -0.1112
33135W        W39585  11.495   5.654   2.772 -0.2134  0.2769 -0.1330
33136W        W39586   9.330   6.449  16.412 -0.1058  0.1343 -0.1089
33137W        W39587   2.179   2.444  33.551 -0.1148 -0.0969 -0.0348
33138W        W39588  12.672   3.725  16.274 -0.0332 -0.0655 -0.2040
33139W        W39589  17.247   5.525  35.374 -0.1110 -0.3823 -0.0874
33140W        W39590   0.756   5.775  31.540  0.0587 -0.1110  0.3696
33141W        W39591   4.781   5.433  28.186  0.0469  0.2717  0.0081
33142W        W39592  14.230   1.781   7.105 -0.2729 -0.1694  0.1387
33143W        W39593  16.480   1.566  17.841  0.0250 -0.3766  0.1541
33144W        W39594   9.873   6.318  27.965 -0.2028 -0.1100  0.1073
33145W        W39595  10.867   1.273  31.952 -0.0449 -0.0346  0.1672
33146W        W39596   4.541   3.523  12.047  0.0827 -0.0129 -0.0287
33147W        W39597  20.497   5.838  36.896  0.0138  0.1942  0.1995
33148W        W39598   1.637   5.079  27.249 -0.0518 -0.2564 -0.1054
33149W        W39599  11.999   3.103  12.570  0.0435  0.3078 -0.2216
33150W        W39600  13.253   2.958   5.308  0.1957  0.0594 -0.1892
33151W        W39601   8.165   2.406  38.544 -0.1130 -0.0421 -0.1098
33152W        W39602  16.779   2.878  40.264 -0.0782  0.2195  0.1196
33153W        W39603  19.405   6.478  11.857  0.2961  0.2801 -0.0167
33154W        W39604  17.387   1.973  19.156 -0.1737  0.1745 -0.0430
33155W        W39605   3.866   0.999  40.881  0.0212 -0.0339  0.1364
33156W        W39606   7.909   3.283  41.243 -0.3414 -0.1781 -0.2134
33157W        W39607   5.349   6.447   5.762  0.0098 -0.0908  0.0860
33158W        W39608  15.785   5.250   7.334  0.0185 -0.0510  0.2333
33159W        W39609   4.395   1.105  37.044  0.0260 -0.0311 -0.0289
33160W        W39610  11.141   1.242   0.042  0.0839  0.1258 -0.0848
33161W        W39611  14.323   2.748  42.002 -0.0175 -0.1337  0.0001
33162W        W39612  11.225   3.513   0.406  0.2975  0.1918  0.0719
33163W        W39613   0.991   5.650  35.595  0.1272  0.0262 -0.0987
33164W        W39614  12.673   1.077  15.279  0.2610  0.1350  0.0222
33165W        W39615   3.267   3.173  35.373 -0.1801  0.2045 -0.0920
33166W        W39616  12.609   3.125  18.512 -0.0386  0.0502 -0.0960
33167W        W39617  16.714   2.388  16.605 -0.4968 -0.1700  0.0474
33168W        W39618  20.912   4.938  19.637 -0.1377  0.0796  0.3557
33169W        W39619  21.143   3.544  33.040  0.6200  0.3298  0.0701
33170W        W39620  19.614   4.148   6.497 -0.1071  0.2299  0.2410
33171W        W39621  17.259   2.281  44.584  0.0928 -0.0637  0.0584
33172W        W39622  13.368   3.873  14.174 -0.2436  0.1338  0.1498
33173W        W39623   1.650   6.059  37.956 -0.1108  0.3232  0.0242
33174W        W39624   4.732   1.324  26.711 -0.1052  0.0775 -0.1355
33175W        W39625  11.323   5.343  37.826  0.3206 -0.1192 -0.1190
33176W        W39626   6.608   3.936  37.349  0.0547 -0.0964 -0.1599
33177W        W39627   0.711   1.132   0.943  0.1577 -0.1044 -0.0900
33178W        W39628  14.413   5.316  10.820 -0.1044 -0.0733  0.0850
33179W        W39629  10.901   2.823   5.169 -0.0016  0.1465  0.3223
33180W        W39630   5.744   5.764  27.462 -0.2895  0.0909 -0.0834
33181W        W39631   9.451   3.350  35.830  0.1577 -0.1620 -0.0579
33182W        W39632  18.086   5.439   9.634 -0.0019 -0.2019 -0.2181
33183W        W39633   4.250   2.659  32.828 -0.1980  0.1748  0.2128
33184W        W39634   5.825   4.293  25.733 -0.1967 -0.0257  0.1766
33185W        W39635   6.003   4.142  23.101 -0.1726 -0.0648  0.0868
33186W        W39636   9.456   5.947   4.609  0.3138 -0.0592  0.2181
33187W        W39637  20.435   3.554  15.323 -0.1861  0.0425  0.0546
33188W        W39638   0.939   4.215  30.712  0.0171 -0.3350  0.0771
33189W        W39639  13.472   6.404  38.247  0.2211  0.1411 -0.3630
33190W        W39640  15.623   1.273  22.013 -0.2537  0.1715  0.0634
33191W        W39641  18.360   0.592  35.002 -0.1228 -0.1453  0.0114
33192W        W39642  18.440   6.143  10.013  0.2966  0.0984 -0.2486
33193W        W39643   5.974   2.527  30.889  0.0679 -0.1622  0.0626
33194W        W39644  15.555   1.713  22.896 -0.1350  0.4438 -0.1000
33195W        W39645  13.836   3.604   6.221  0.1318 -0.0360 -0.1926
33196W        W39646  14.415   2.136  35.370 -0.0540 -0.0320  0.0003
33197W        W39647   9.531   3.168   6.547  0.0486 -0.3187  0.0621
33198W        W39648   2.789   5.625  13.616  0.0686 -0.1050 -0.0020
33199W        W39649   1.642   2.860  39.484  0.0401 -0.2245  0.0629
33200W        W39650  20.687   4.529  36.734  0.2479 -0.2030 -0.2094
33201W        W39651   3.357   0.339  34.197  0.1845  0.2491  0.1243
33202W        W39652   4.097   4.373   0.885 -0.0378 -0.0796 -0.2884
33203W        W39653  19.764   3.296  35.469 -0.0935 -0.0688  0.0415
33204W        W39654  12.676   4.081   3.617 -0.0792  0.1312  0.0486
33205W        W39655   9.318   3.918  31.061  0.2102 -0.3758  0.0081
33206W        W39656   8.080   4.808   7.567 -0.0900 -0.2123  0.1560
33207W        W39657   8.100   6.354  44.689  0.2220 -0.3153  0.3638
33208W        W39658  13.486   0.154   3.042 -0.1506  0.0046 -0.1649
33209W        W39659   5.745   4.765  32.571  0.4424  0.2496 -0.0396
33210W        W39660  20.193   4.484   0.440 -0.1246  0.0220  0.1284
33211W        W39661  16.525   1.637  35.759 -0.2308  0.0096 -0.0352
33212W        W39662  14.868   2.363   0.658  0.1698  0.0646  0.3847
33213W        W39663   3.017   0.544  27.352  0.1826  0.0697 -0.1931
33214W        W39664  17.819   5.424  18.437  0.1155 -0.0568 -0.0171
33215W        W39665  19.029   4.166   6.300  0.2148 -0.1597  0.0577
33216W        W39666   0.969   3.933   1.630  0.0692 -0.1284 -0.0319
33217W        W39667  13.508   1.266  28.638 -0.2430  0.1681  0.1195
33218W        W39668   1.806   6.112  33.672 -0.0319 -0.2501 -0.2364
33219W        W39669  10.384   2.266  35.943 -0.0839 -0.1013  0.1480
33220W        W39670   4.184   5.474  34.343 -0.2982 -0.0675 -0.1075
33221W        W39671  15.257   5.847  39.357 -0.2869 -0.0340  0.0837
33222W        W39672  10.954   4.233  43.930 -0.0051 -0.1149 -0.0502
33223W        W39673   4.237   5.642  26.090 -0.1024 -0.1292 -0.0192
33224W        W39674  11.375   4.694  31.915 -0.3627  0.3073 -0.2639
33225W        W39675   7.941   1.868  28.509 -0.0098 -0.1732 -0.0821
33226W        W39676  16.557   1.639  14.432 -0.0741  0.2860  0.0546
33227W        W39677   6.484   6.125  39.502  0.0379  0.1655  0.0966
33228W        W39678  14.905   1.510   9.390  0.2016 -0.3292 -0.1093
33229W        W39679   4.445   5.731   5.190  0.0517  0.2861 -0.3067
33230W        W39680  17.723   3.313   4.029  0.0123 -0.0951 -0.2597
33231W        W39681  13.616   1.579  16.659  0.1422 -0.1117 -0.1898
33232W        W39682   0.220   4.125  17.075  0.2138  0.0632 -0.0221
33233W        W39683  15.370   6.219   9.312  0.2523 -0.0987 -0.3269
33234W        W39684   0.495   1.523   0.622 -0.2299  0.0107  0.1838
33235W        W39685   7.912   2.889  37.618 -0.0064  0.0975  0.0382
33236W        W39686  13.896   4.195  40.166  0.0775 -0.1395 -0.1373
33237W        W39687  16.251   2.646  11.251  0.1575  0.2263  0.0335
33238W        W39688   0.538   4.066  41.844 -0.1056 -0.2402 -0.0592
33239W        W39689  14.010   3.122  21.635  0.1250 -0.0060 -0.0206
33240W        W39690   6.253   3.380  20.562 -0.1463 -0.0240 -0.2264
33241W        W39691   7.754   5.483   4.045  0.0732 -0.2039 -0.2622
33242W        W39692  10.153   1.968  11.194  0.0188 -0.3085 -0.2314
33243W        W39693  17.973   3.649  41.399  0.2358 -0.0487  0.0284
33244W        W39694   3.490   2.324   8.380 -0.1500  0.2451 -0.1761
33245W        W39695  16.155   0.714  25.008  0.0434 -0.1318 -0.1860
33246W        W39696  18.785   3.598  10.520  0.1380 -0.1197  0.2293
33247W        W39697   0.374   2.666  16.892  0.1053  0.1446 -0.1004
33248W        W39698  20.301   5.320  11.450  0.1651  0.2026  0.1848
33249W        W39699  18.811   3.277  13.636 -0.0849  0.5885  0.2598
33250W        W39700   5.070   1.491  10.831 -0.2768 -0.2004  0.1404
33251W        W39701  20.043   1.609  14.463  0.1482 -0.1617 -0.4288
33252W        W39702  19.902   4.376  19.322 -0.1712 -0.0756 -0.2638
33253W        W39703   0.434   3.122   1.515 -0.1919  0.1569  0.1684
33254W        W39704   3.680   4.835  34.618 -0.0283 -0.0452 -0.1000
33255W        W39705  11.285   2.351   9.133  0.2382 -0.1423 -0.1165
33256W        W39706  17.538   0.909   5.650  0.1751 -0.0514 -0.2202
33257W        W39707   2.982   2.984   2.045 -0.1228 -0.2964 -0.3961
33258W        W39708   2.181   5.544   0.186  0.2121  0.2686  0.1184
33259W        W39709   6.517   3.507  35.808  0.2425 -0.1827  0.2449
33260W        W39710  12.975   4.025  14.551 -0.0499 -0.0904  0.0429
33261W        W39711   8.641   6.038  33.874  0.1483 -0.2152  0.0793
33262W        W39712   9.709   3.279   2.154 -0.3659  0.1610  0.3869
33263W        W39713   5.997   5.779   3.237  0.0499  0.0656  0.0338
33264W        W39714   1.543   2.588  31.625 -0.0223 -0.2618 -0.3262
33265W        W39715  18.277   0.682  41.835  0.3336 -0.2088 -0.3299
33266W        W39716   2.285   0.679  40.363 -0.1469 -0.0906 -0.1263
33267W        W39717  16.233   4.528  15.233 -0.0332 -0.1019 -0.0739
33268W        W39718  19.447   3.939  41.904 -0.1689  0.0200 -0.0018
33269W        W39719   0.292   5.790   3.214  0.2347 -0.0836 -0.2490
33270W        W39720   8.525   3.082   2.485 -0.0647 -0.0656 -0.0271
33271W        W39721   7.713   3.304  10.663 -0.1315  0.2542  0.1858
33272W        W39722  10.918   0.311   8.703  0.3622 -0.3860 -0.2469
33273W        W39723  14.054   1.097   2.432  0.2454 -0.0166 -0.1236
33274W        W39724   5.149   4.729  41.575 -0.2584  0.0737 -0.0385
33275W        W39725  17.997   5.434  18.937  0.0359  0.0366 -0.1926
33276W        W39726   8.909   6.176   8.963  0.2700 -0.1853  0.0370
33277W        W39727   1.116   0.440  43.715 -0.0167 -0.0190  0.1482
33278W        W39728   1.877   4.304  39.755 -0.0731 -0.1012 -0.0867
33279W        W39729   0.528   0.755  17.214  0.0323  0.1568 -0.1391
33280W        W39730  18.119   4.820  38.942  0.2589  0.0577 -0.3221
33281W        W39731  16.867   5.366  42.153 -0.4354 -0.0160 -0.0472
33282W        W39732  17.882   1.814  17.085 -0.0436  0.0202 -0.2089
33283W        W39733   9.573   2.873  32.816  0.0135  0.0732  0.0230
33284W        W39734   7.000   5.277  28.023 -0.2470  0.0755 -0.0636
33285W        W39735  16.110   6.311  18.597  0.0285  0.1221 -0.0521
33286W        W39736  19.717   6.340  43.518 -0.0059  0.0803 -0.3713
33287W        W39737  11.432   0.105  38.910  0.0756 -0.1759  0.1544
33288W        W39738  18.960   1.678   9.507  0.0272  0.1580 -0.1494
33289W        W39739  16.073   6.584  35.879 -0.3486 -0.1362  0.3219
33290W        W39740  15.290   0.659  36.424  0.0404 -0.3382  0.5153
33291W        W39741   6.083   3.951   7.655  0.0798  0.1019  0.0032
33292W        W39742  14.312   3.841   9.891  0.0757 -0.4595  0.0907
33293W        W39743  15.354   5.682  17.365 -0.2637  0.1666 -0.2003
33294W        W39744  18.722   3.588  32.947 -0.2990 -0.2025 -0.0596
33295W        W39745  15.803   0.253  25.035  0.0890  0.4762 -0.0609
33296W        W39746  11.642   3.171  17.482  0.0464 -0.0690 -0.1106
33297W        W39747  16.951   3.684  12.143 -0.0941  0.1494 -0.2659
33298W        W39748   8.783   4.894  40.708  0.3400  0.0960 -0.1103
33299W        W39749  17.906   1.300  30.325 -0.0087  0.0825 -0.0162
33300W        W39750   5.828   4.224  22.078  0.0242 -0.0910 -0.0561
33301W        W39751   5.333   1.764  14.808 -0.1511 -0.1338  0.3022
33302W        W39752  20.584   3.149   4.199  0.0475  0.1218  0.0730
33303W        W39753  12.821   4.695  44.132 -0.0114 -0.0023  0.1958
33304W        W39754  18.066   0.422  10.180 -0.0449  0.2382  0.1722
33305W        W39755  13.101   2.447  19.090  0.4701 -0.0072 -0.2921
33306W        W39756  14.310   0.138  31.469 -0.0738  0.1896  0.0323
33307W        W39757  17.253   4.500   3.404 -0.1872  0.0962 -0.1525
33308W        W39758  14.518   3.280   5.701  0.4411  0.0874  0.1072
33309W        W39759   3.825   5.778  43.280  0.0889  0.1374 -0.1435
33310W        W39760  10.671   1.147  28.596 -0.1386  0.3572  0.1169
33311W        W39761   2.280   1.148   8.113  0.0040 -0.0183 -0.0131
33312W        W39762  17.010   3.219  32.250  0.0421 -0.1242  0.0220
33313W        W39763   3.103   0.300   3.118  0.1867  0.3386  0.3716
33314W        W39764   8.929   5.332  35.414 -0.0046 -0.3495  0.2244
33315W        W39765  18.218   2.865   7.713  0.1463 -0.0308 -0.3618
33316W        W39766   9.415   4.491  35.122 -0.0137  0.3453  0.0962
33317W        W39767  15.677   4.894  36.509 -0.1954 -0.0685  0.0714
33318W        W39768  15.823   2.823   7.086  0.1549 -0.0231 -0.0834
33319W        W39769   3.834   6.003  27.070  0.3553  0.3087 -0.4553
33320W        W39770  15.274   0.928   9.625 -0.1345 -0.2846 -0.1276
33321W        W39771   3.360   4.597  30.976  0.0744  0.4005  0.1429
33322W        W39772   1.290   1.011   7.634 -0.1665  0.2033  0.0874
33323W        W39773  16.401   5.063  34.385  0.2796 -0.0347  0.2053
33324W        W39774   9.602   1.505  28.860  0.1614  0.2392  0.0877
33325W        W39775  17.151   4.096   7.176  0.1039 -0.0277 -0.1135
33326W        W39776   7.043   4.437  34.257 -0.3198 -0.0982  0.4287
33327W        W39777  16.261   1.845  20.230  0.0553 -0.0101 -0.0789
33328W        W39778  11.301   3.603  18.378 -0.0321  0.0029 -0.1276
33329W        W39779  17.808   1.045  43.430  0.0442  0.0124  0.0725
33330W        W39780  21.029   4.421  13.234 -0.1133 -0.2035  0.1328
33331W        W39781   0.828   6.279   5.125 -0.0051 -0.0963  0.2783
33332W        W39782   3.294   5.873  13.746  0.0801  0.0413  0.1994
33333W        W39783   1.535   0.133  43.837 -0.2888  0.2033  0.0242
33334W        W39784  20.257   2.321  18.654  0.2827  0.2734  0.0695
33335W        W39785  14.087   3.511  36.556 -0.1366 -0.0714  0.0372
33336W        W39786  13.109   0.846   1.372 -0.2084 -0.0604  0.2633
33337W        W39787   6.847   2.736   6.895 -0.1423 -0.0511 -0.2217
33338W        W39788  10.408   0.430  42.853 -0.1304  0.0895  0.2276
33339W        W39789   8.738   3.604  12.938  0.3200 -0.0088 -0.0313
33340W        W39790   7.632   0.277  39.745 -0.0832 -0.1070  0.2267
33341W        W39791   4.472   1.920  29.751 -0.1258 -0.3836  0.2723
33342W        W39792   4.395   0.927  37.962  0.3109  0.1760  0.0250
33343W        W39793   7.395   5.613   9.835  0.2399  0.2815  0.2206
33344W        W39794  12.843   4.459   4.342 -0.0667  0.0526  0.0736
33345W        W39795   4.038   2.266   9.512  0.1783  0.0520 -0.1317
33346W        W39796   8.622   5.959  44.393  0.0257 -0.3055 -0.0534
33347W        W39797   4.575   2.394  38.898 -0.1082  0.1410  0.0593
33348W        W39798   4.167   6.533  15.220 -0.3622 -0.1210 -0.1909
33349W        W39799   3.753   0.368  41.806 -0.0053  0.1287  0.2216
33350W        W39800  10.426   5.916   9.462 -0.0716  0.2042 -0.1109
33351W        W39801   5.889   0.298  36.486  0.0164  0.1668  0.1314
33352W        W39802   7.068   0.749   6.868 -0.1456 -0.4684  0.0328
33353W        W39803  15.268   0.557  33.323  0.1291  0.0889  0.0681
33354W        W39804   1.035   3.244  12.799 -0.1313  0.6266  0.1181
33355W        W39805  11.127   0.900  38.851  0.2238 -0.0185 -0.1762
33356W        W39806   8.276   5.781   2.356  0.0041  0.0711 -0.2183
33357W        W39807  12.729   4.554   7.438  0.0139  0.2366  0.2459
33358W        W39808   1.108   4.053  34.330  0.1342 -0.0834  0.0082
33359W        W39809  17.375   5.765  37.882  0.0404  0.0823  0.0753
33360W        W39810   2.388   3.970  23.697  0.0700  0.1372 -0.1796
33361W        W39811   1.959   5.401  41.672  0.1263 -0.2131 -0.2068
33362W        W39812   8.018   0.610  39.692  0.0769 -0.0484  0.0067
33363W        W39813  19.724   2.593  38.001  0.0627  0.0554  0.1008
33364W        W39814  10.258   5.814  11.172  0.0549 -0.1344  0.2207
33365W        W39815  17.709   2.727  20.836 -0.2278 -0.0210  0.0377
33366W        W39816  13.590   5.107  30.912  0.1991  0.1340 -0.1948
33367W        W39817  11.054   5.029  37.573  0.1292  0.2248  0.1453
33368W        W39818   4.763   4.581  40.429 -0.1433 -0.0851  0.1589
33369W        W39819  13.757   1.452   0.643 -0.0961  0.0816 -0.0028
33370W        W39820   0.275   0.134   0.298  0.0871  0.0712 -0.0659
33371W        W39821   5.085   1.866   0.449  0.0992  0.0879 -0.0088
33372W        W39822   6.652   3.463  41.432  0.1626  0.1153  0.0295
33373W        W39823   7.691   0.312   2.648 -0.1176  0.0954  0.0306
33374W        W39824   0.839   4.194  44.811 -0.2502  0.4321  0.4074
33375W        W39825  20.718   4.071   5.150 -0.1285 -0.0483 -0.3513
33376W        W39826   8.035   1.775  43.501 -0.3004 -0.3262  0.1294
33377W        W39827  14.267   1.245  37.302  0.0255  0.1154  0.2046
33378W        W39828  14.219   3.860  39.716 -0.1133  0.0246  0.1416
33379W        W39829   4.100   6.094  42.320 -0.2837  0.3014  0.1908
33380W        W39830   0.680   2.869  27.083  0.0039  0.0332  0.2165
33381W        W39831  16.324   3.157  16.181 -0.1482 -0.2415  0.0894
33382W        W39832   9.378   3.211  37.826  0.2136 -0.0500  0.0983
33383W        W39833  20.780   3.465  14.928  0.0484 -0.3425 -0.0968
33384W        W39834  10.991   5.882  31.346  0.1465  0.0007  0.0230
33385W        W39835   5.872   2.117  26.250  0.0364  0.0213 -0.0654
33386W        W39836  10.903   3.836  27.093 -0.0447 -0.1619  0.1631
33387W        W39837   1.651   2.448  34.513 -0.0961 -0.2437  0.3273
33388W        W39838   0.841   0.355  35.637  0.4713 -0.3228 -0.0156
33389W        W39839   5.589   1.320  22.487 -0.1195  0.2459  0.0245
33390W        W39840   6.877   1.094  26.538 -0.0091  0.1613 -0.0931
33391W        W39841  14.486   5.674   0.446  0.0473  0.0517  0.1387
33392W        W39842   9.170   5.390  30.048 -0.5525  0.1166  0.0187
33393W        W39843   7.842   0.282  10.965  0.1664 -0.0585 -0.0427
33394W        W39844  12.405   3.625  27.609  0.2290 -0.1198  0.2545
33395W        W39845  15.571   3.808  11.661  0.2042  0.1168  0.2017
33396W        W39846   1.634   0.658  37.273 -0.2113  0.0972 -0.0473
33397W        W39847  16.903   4.739  41.390  0.0067  0.1254  0.0336
33398W        W39848  18.093   5.796  36.535  0.1181  0.2205  0.0141
33399W        W39849  13.160   1.631  33.181 -0.0967 -0.1825  0.1728
33400W        W39850  12.016   3.001  38.433 -0.1381  0.1526  0.3930
33401W        W39851  20.110   5.557  44.187  0.0658 -0.1143  0.1078
33402W        W39852  17.111   3.362  15.589  0.0187  0.1834  0.2148
33403W        W39853  17.426   3.991   4.606  0.0934  0.1825 -0.0930
33404W        W39854  15.279   4.827  29.335  0.0942 -0.0789  0.1242
33405W        W39855   5.155   5.053  14.349  0.1229  0.3323 -0.0896
33406W        W39856  14.965   0.838   1.722  0.2479 -0.1242  0.0476
33407W        W39857  18.391   0.378  15.646  0.3098  0.1307 -0.0240
33408W        W39858   4.529   3.470  33.397  0.0752  0.1182 -0.0802
33409W        W39859   0.371   4.797  14.456  0.2520 -0.3600  0.4146
33410W        W39860   9.226   4.901  26.243  0.1716  0.1762  0.0559
33411W        W39861  16.819   4.532  24.559  0.0029  0.3345 -0.1437
33412W        W39862   4.515   6.044   4.151 -0.1038  0.1087 -0.1969
33413W        W39863  11.219   6.398  14.829  0.0693  0.2517 -0.0037
33414W        W39864  13.276   1.776   9.738 -0.1974 -0.3203 -0.1507
33415W        W39865   0.845   3.387   6.486  0.2026 -0.0758 -0.1674
33416W        W39866   6.796   3.193   0.833  0.1463  0.1283 -0.2939
33417W        W39867   1.552   5.292  26.229 -0.3098  0.3371  0.2318
33418W        W39868   4.576   2.442   1.710  0.2079 -0.1685 -0.2081
33419W        W39869   7.198   0.569  31.829 -0.2631  0.1085 -0.0360
33420W        W39870  18.394   4.775  10.961 -0.1538 -0.3336 -0.2492
33421W        W39871   8.500   0.256  12.264  0.2413 -0.3300 -0.2159
33422W        W39872   1.308   3.785   9.541 -0.2069 -0.0871  0.0024
33423W        W39873  14.617   1.847  31.497  0.1059 -0.1433  0.2001
33424W        W39874  19.478   5.205  39.462 -0.1212  0.1385  0.0086
33425W        W39875  20.636   3.147  11.586 -0.0109  0.1215  0.3119
33426W        W39876  16.792   0.458   6.702 -0.0215  0.3217 -0.0011
33427W        W39877   2.443   0.807  23.203 -0.2677  0.0312  0.1720
33428W        W39878  18.744   6.074  37.238  0.0892 -0.0202 -0.1791
33429W        W39879  11.986   5.404  30.169  0.4615 -0.3214 -0.0158
33430W        W39880  16.564   5.505  34.847 -0.4152 -0.0132 -0.2180
33431W        W39881   2.649   6.589  27.890  0.4577  0.0984  0.0994
33432W        W39882   2.330   5.989  12.647  0.0001 -0.0210 -0.1861
33433W        W39883   5.119   2.433  27.046  0.0321 -0.2201 -0.0308
33434W        W39884  16.827   5.761   2.296 -0.2571  0.0434  0.1540
33435W        W39885   1.932   0.981   5.560 -0.0617 -0.0141  0.0161
33436W        W39886  15.463   5.379   2.633 -0.0554  0.2699 -0.1397
33437W        W39887  16.878   4.857   5.503 -0.0014 -0.2787 -0.1535
33438W        W39888  16.803   0.471  22.247  0.4225  0.2934 -0.0730
33439W        W39889  12.025   4.489   0.874 -0.1617  0.0684  0.2100
33440W        W39890   5.668   5.657   6.219  0.2473 -0.2021 -0.0108
33441W        W39891  20.965   2.475  34.930  0.1256  0.2171  0.0505
33442W        W39892  17.830   0.247  20.747  0.0851 -0.2299  0.0141
33443W        W39893  11.335   3.622  31.240 -0.1738 -0.2201 -0.1832
33444W        W39894   3.345   4.535  33.494  0.2625 -0.3929  0.4161
33445W        W39895  16.766   4.746  42.111 -0.3368  0.1557 -0.1842
33446W        W39896  12.590   4.778  12.523 -0.0116  0.2108  0.2414
33447W        W39897   4.315   6.464  14.215 -0.1086  0.0979 -0.1395
33448W        W39898   8.904   1.258   5.588 -0.0088 -0.3054 -0.0079
33449W        W39899  17.528   2.284  15.206 -0.2615 -0.0860  0.1536
33450W        W39900   6.132   1.866  24.021  0.2175 -0.1251 -0.2179
33451W        W39901  12.781   3.634  43.392  0.1276 -0.0389 -0.1378
33452W        W39902  15.404   6.357  14.831  0.0194  0.1258 -0.1374
33453W        W39903  15.776   5.583  12.200 -0.2409  0.0325  0.1627
33454W        W39904  14.311   0.814  40.098  0.1984  0.0807  0.1396
33455W        W39905   3.570   4.124  37.527 -0.2406  0.0039  0.1848
33456W        W39906  19.386   2.170  32.553  0.1902 -0.2912  0.0775
33457W        W39907   6.319   4.193  43.466 -0.1302  0.4525  0.0944
33458W        W39908  14.114   6.105   7.187 -0.0192 -0.0095 -0.0547
33459W        W39909  13.798   1.767  40.028  0.0297 -0.2575 -0.0639
33460W        W39910  12.029   2.544  37.181 -0.3346  0.1972 -0.0987
33461W        W39911  12.364   6.544   9.455  0.4610 -0.0069  0.0226
33462W        W39912  12.808   4.934  16.556  0.1080 -0.0940 -0.0103
33463W        W39913  16.393   3.590   5.277  0.1436  0.3321  0.0356
33464W        W39914   9.747   2.228  37.422  0.0048 -0.0700 -0.0079
33465W        W39915   3.807   2.138  28.289 -0.1012 -0.0985 -0.5347
33466W        W39916   4.582   6.410  34.808  0.2665 -0.2313  0.1068
33467W        W39917   1.385   3.645  11.537  0.2480  0.3180 -0.0694
33468W        W39918   7.630   2.002  21.325 -0.0544  0.0430 -0.0642
33469W        W39919   4.063   5.143  37.051 -0.1196  0.0033 -0.1093
33470W        W39920  11.212   0.637  16.800 -0.0705 -0.1287  0.2261
33471W        W39921  10.485   5.803  30.441  0.1781  0.1496  0.2724
33472W        W39922   1.259   3.668  38.759 -0.1154  0.2045 -0.2511
33473W        W39923  12.829   1.615  30.233 -0.0703  0.0205 -0.1202
33474W        W39924  18.649   2.330  21.764 -0.1888  0.1430  0.0751
33475W        W39925  21.137   3.824   6.270  0.0893 -0.3666  0.1213
33476W        W39926  17.800   4.164  37.781 -0.0479 -0.0275  0.1996
33477W        W39927   2.037   1.682  16.320 -0.2117 -0.0574 -0.1529
33478W        W39928  16.542   0.704   8.202  0.0405  0.0571 -0.0984
33479W        W39929  11.892   2.333  38.660 -0.0682  0.2923  0.1773
33480W        W39930  12.543   1.046  40.423  0.0819  0.1047 -0.2059
33481W        W39931  20.534   2.567  36.340  0.2648  0.0557  0.0976
33482W        W39932  10.992   5.170  11.604  0.1207  0.1064 -0.3855
33483W        W39933  21.115   0.372  28.996 -0.1345 -0.1771 -0.0687
33484W        W39934   4.417   2.947  33.665  0.0669 -0.0093 -0.0403
33485W        W39935  11.817   1.785   7.293  0.1012 -0.0022  0.0129
33486W        W39936  19.282   2.421  21.075  0.1027 -0.0993 -0.0970
33487W        W39937  12.442   5.626   7.245 -0.2413 -0.1462 -0.0400
33488W        W39938  20.476   6.306  10.675 -0.1688  0.0897  0.0928
33489W        W39939   7.366   0.487   1.734  0.0721 -0.0782 -0.0370
33490W        W39940  15.729   3.474  30.375 -0.0241 -0.1382  0.1333
33491W        W39941   6.196   0.486  38.236 -0.1269  0.0419 -0.1240
33492W        W39942  10.862   2.377  34.149  0.2200  0.1381  0.3664
33493W        W39943   9.346   3.331  26.150 -0.3321 -0.0322  0.2083
33494W        W39944  10.618   5.230  18.054  0.0242 -0.1761 -0.0926
33495W        W39945  13.223   5.913  17.883 -0.0913 -0.1592 -0.1631
33496W        W39946   9.939   2.021   2.844 -0.1164 -0.0883 -0.0904
33497W        W39947  11.580   5.299   7.066  0.2032 -0.0811  0.0044
33498W        W39948   9.065   6.245   4.683 -0.1828 -0.1024 -0.1643
33499W        W39949  11.479   5.740   5.791  0.2173  0.1540 -0.2675
33500W        W39950  17.972   4.395   6.835 -0.3966 -0.0623  0.1828
33501W        W39951   5.698   2.772   4.463 -0.1302  0.1360  0.0695
33502W        W39952   8.395   0.048  25.420  0.0407 -0.3545 -0.0889
33503W        W39953   5.913   2.494   2.048  0.0966  0.0244 -0.0997
33504W        W39954   8.229   5.509   9.188 -0.3285  0.0038 -0.2478
33505W        W39955   1.635   5.777  36.926  0.0667 -0.0140  0.1121
33506W        W39956  16.213   0.174  16.491 -0.0225  0.0475  0.2638
33507W        W39957  16.103   5.877  18.392  0.2235  0.2362  0.2730
33508W        W39958  17.283   2.224   9.584  0.0768  0.1075 -0.3547
33509W        W39959   4.397   3.243  31.059  0.2185 -0.0441 -0.2565
33510W        W39960  13.644   1.958  15.415 -0.2414 -0.0868 -0.0562
33511W        W39961  15.655   3.234  18.282 -0.2357 -0.2373  0.0500
33512W        W39962  11.879   1.114   4.278 -0.0386 -0.1743  0.3707
33513W        W39963   8.638   1.018  31.857  0.0829 -0.2156 -0.2431
33514W        W39964   6.996   4.254   6.246  0.0184 -0.0412 -0.0770
33515W        W39965   8.560   1.162  16.311  0.1968  0.4941  0.3311
33516W        W39966   5.664   3.023  10.299 -0.2945 -0.0577 -0.2124
33517W        W39967  20.962   3.662  38.073  0.2382  0.0651 -0.2546
33518W        W39968  21.106   1.784   9.279 -0.0555 -0.0011  0.3983
33519W        W39969   7.155   3.390  32.930 -0.0734  0.1100  0.0026
33520W        W39970  14.526   0.055  34.072  0.1237  0.0679 -0.0521
33521W        W39971   8.553   0.128   0.738  0.0268 -0.2198 -0.1191
33522W        W39972  14.013   4.462   0.817 -0.1737  0.1297  0.0727
33523W        W39973   3.238   4.415  44.607 -0.2856 -0.1278 -0.1307
33524W        W39974   5.059   2.019  10.718 -0.1773 -0.1059 -0.1965
33525W        W39975  18.775   0.600  18.902 -0.0847  0.0726 -0.0167
33526W        W39976   7.783   5.009  33.465  0.1596 -0.1755  0.0287
33527W        W39977   8.214   0.083  15.791 -0.0376 -0.2164 -0.3387
33528W        W39978   3.534   6.285  43.418  0.1076  0.0549  0.0446
33529W        W39979   1.672   4.447  44.075 -0.2983  0.2150  0.1323
33530W        W39980   8.219   2.518   8.554 -0.0010  0.3163  0.1765
33531W        W39981   9.036   4.812   0.373  0.1522  0.2027  0.0713
33532W        W39982  12.106   3.018  32.667 -0.2939 -0.0881  0.1343
33533W        W39983   6.780   2.021   2.647 -0.0823  0.1408 -0.0252
33534W        W39984   2.322   5.868  11.602 -0.0081  0.2326  0.2564
33535W        W39985   2.465   4.521   6.871  0.2580 -0.1369 -0.1066
33536W        W39986  10.740   6.564  12.076 -0.0682 -0.3330 -0.0993
33537W        W39987   0.638   4.614  28.443  0.3716  0.2446 -0.1533
33538W        W39988  10.509   4.804  15.143  0.2018  0.1387  0.0452
33539W        W39989   8.317   4.435   9.713  0.1185  0.1271 -0.2230
33540W        W39990   6.226   6.368   3.609 -0.0484 -0.1567  0.0325
33541W        W39991  20.833   0.444   7.901  0.3683  0.2763  0.0820
33542W        W39992  16.330   3.529  43.054  0.0858 -0.1328 -0.3962
33543W        W39993   7.890   2.914   2.779  0.1870  0.0190 -0.3013
33544W        W39994   3.302   5.586  39.240  0.0236 -0.1939  0.1140
33545W        W39995  10.546   1.165  14.490 -0.1333 -0.2565  0.2789
33546W        W39996  13.284   2.461   5.583  0.2773 -0.1640  0.0630
33547W        W39997   7.194   1.388   2.833  0.2250 -0.0379 -0.0878
33548W        W39998   4.444   4.048   5.267 -0.0971 -0.1407 -0.0765
33549W        W39999  10.287   4.283  39.379  0.0084 -0.1268  0.1561
33550W        W40000   8.658   5.932   3.534  0.0775  0.1875  0.2744
33551W        W40001   5.111   0.134  33.917 -0.0922 -0.0687  0.1307
33552W        W40002   3.984   4.669  15.643  0.0084  0.2064  0.2194
33553W        W40003   5.740   2.815  10.723  0.0593  0.0557 -0.1470
33554W        W40004   0.277   2.393  44.727 -0.0668  0.0228  0.2602
33555W        W40005  19.326   5.570  36.834  0.1167  0.1739  0.2046
33556W        W40006   9.534   1.244  31.966  0.0183 -0.1416  0.1527
33557W        W40007  10.502   0.090  15.585 -0.0193  0.0229 -0.1393
33558W        W40008  16.927   4.539  24.049  0.0169 -0.2133 -0.1183
33559W        W40009  18.743   3.627   9.658  0.1161 -0.1999  0.1431
33560W        W40010  20.003   3.044  29.879 -0.1828 -0.0393 -0.3648
33561W        W40011   4.505   1.555  28.421  0.0778  0.0895 -0.2767
33562W        W40012  18.231   1.043  44.000  0.0184 -0.1628  0.1909
33563W        W40013  10.172   0.068  42.435  0.2970 -0.3532 -0.3314
33564W        W40014  19.746   5.873  29.398 -0.1796 -0.4917  0.0632
33565W        W40015  14.098   1.346  37.776 -0.1365  0.0457  0.0434
33566W        W40016  17.503   4.365  36.045 -0.4202 -0.0778  0.0610
33567W        W40017   5.556   2.908   9.252  0.1251  0.1476  0.0767
33568W        W40018  12.435   5.285  31.628  0.1830 -0.1488 -0.0336
33569W        W40019   7.390   0.184   4.411 -0.2385  0.0185  0.0467
33570W        W40020   6.771   1.320  12.691  0.1098 -0.1206 -0.1489
33571W        W40021  12.978   5.589   5.448 -0.2267 -0.1403  0.0281
33572W        W40022  15.914   1.797  36.666  0.0223  0.0229 -0.1074
33573W        W40023   7.933   6.076   0.149  0.0308 -0.2581 -0.0796
33574W        W40024  14.360   5.493  10.207 -0.1484 -0.0315  0.1567
33575W        W40025   9.490   0.691   0.067 -0.1380  0.0683  0.0842
33576W        W40026  14.789   2.205  17.797 -0.1663  0.2304 -0.0776
33577W        W40027  10.718   5.315  30.208  0.0284  0.0720 -0.0584
33578W        W40028  18.115   2.948  20.647  0.2539 -0.1082 -0.2591
33579W        W40029  14.790   3.285  43.219 -0.2083 -0.1905 -0.0360
33580W        W40030   3.418   0.875  26.522 -0.1268  0.0001  0.2067
33581W        W40031  19.556   4.130  19.074  0.0168 -0.2217 -0.0627
33582W        W40032  16.924   2.319  31.716  0.1278 -0.2301 -0.2350
33583W        W40033   8.180   2.007  39.130  0.3032  0.0912 -0.0282
33584W        W40034   4.573   0.709  39.724 -0.0985 -0.0573 -0.3394
33585W        W40035  16.309   3.338  30.357 -0.0949  0.0563  0.0806
33586W        W40036  12.616   3.323  38.223  0.2502 -0.1095 -0.0530
33587W        W40037   9.761   6.488  25.145 -0.0328  0.1006  0.3849
33588W        W40038   6.050   2.662  44.008 -0.1538  0.2069 -0.0516
33589W        W40039  11.259   2.269  41.107 -0.0381 -0.0582 -0.1681
33590W        W40040  17.571   3.589   7.510 -0.1093  0.3162  0.0091
33591W        W40041   9.324   5.742   8.594  0.2875  0.1116  0.0220
33592W        W40042   9.213   6.509  38.548  0.1603 -0.0344  0.0270
33593W        W40043  14.912   6.081  21.047 -0.1404 -0.0028  0.2003
33594W        W40044   4.834   0.770  13.972  0.0421  0.0879  0.1308
33595W        W40045   6.429   6.550  28.367  0.0512  0.1384  0.1233
33596W        W40046   7.853   1.470  43.818  0.0359  0.1095  0.0977
33597W        W40047  15.747   6.202  37.581 -0.1205 -0.2748  0.4475
33598W        W40048  10.709   4.229  31.442  0.2673  0.0753 -0.3223
33599W        W40049   2.185   2.368  29.779 -0.1104  0.0308  0.1390
33600W        W40050  11.327   0.756   2.772  0.2080 -0.1203  0.1087
33601W        W40051  11.682   6.017  44.760  0.2702 -0.1557  0.0044
33602W        W40052  19.634   4.245  29.396 -0.0747 -0.0894 -0.0128
33603W        W40053   0.132   6.129  35.595  0.0314  0.2064 -0.1573
33604W        W40054  16.441   3.238  19.585  0.1398  0.1037  0.0871
33605W        W40055  12.268   4.793  36.163  0.0506 -0.0152  0.1288
33606W        W40056   8.156   4.660  44.056  0.0906  0.1367  0.0904
33607W        W40057  19.176   1.165  16.836 -0.1019  0.1743  0.1464
33608W        W40058   6.067   2.691  40.169 -0.0741 -0.0489 -0.1355
33609W        W40059   3.193   3.670  27.326  0.1820  0.0697  0.1421
33610W        W40060   1.864   0.474  10.609  0.0837  0.2196  0.0853
33611W        W40061   1.451   1.344  12.985 -0.1701  0.0166 -0.0736
33612W        W40062   6.386   6.443   0.817 -0.2091  0.0394 -0.1384
33613W        W40063   3.432   0.455  10.405 -0.0122  0.2396 -0.0381
33614W        W40064   3.031   4.151  15.710 -0.3181  0.0495  0.1383
33615W        W40065  18.851   3.862   2.687 -0.2913  0.0138  0.0800
33616W        W40066   0.589   3.688   2.419 -0.3393  0.0596 -0.4110
33617W        W40067  13.117   2.956  10.891 -0.0536 -0.0307  0.2845
33618W        W40068   7.285   2.040  25.063  0.0198 -0.0917 -0.2472
33619W        W40069  11.328   0.532  41.976  0.0060 -0.0095  0.4240
33620W        W40070  15.920   2.963   1.192 -0.3206  0.2677  0.1941
33621W        W40071  13.401   0.224   6.308  0.0092  0.1242  0.1150
33622W        W40072  19.593   5.990  19.461  0.0375 -0.2139 -0.1616
33623W        W40073   6.655   5.877  31.961 -0.0715 -0.1752 -0.1796
33624W        W40074   5.211   1.613  29.624  0.2349  0.6334  0.1480
33625W        W40075  20.265   5.400  41.378  0.0022  0.0339  0.3614
33626W        W40076  11.901   4.726   9.813  0.0404  0.0207 -0.1159
33627W        W40077  13.187   4.346  44.204 -0.1378 -0.4507  0.2364
33628W        W40078   1.077   4.758   7.711  0.0546  0.1495  0.0729
33629W        W40079  20.635   0.503  31.094  0.0554 -0.0553  0.1045
33630W        W40080  10.315   3.856  15.211 -0.0735 -0.1418  0.0597
33631W        W40081  13.840   3.976   9.306 -0.1053  0.2696  0.2067
33632W        W40082   7.548   1.003  15.229 -0.1506  0.1747  0.0535
33633W        W40083   8.930   4.691  15.810 -0.1831  0.0001 -0.3806
33634W        W40084   6.334   1.956  32.477  0.0433 -0.1576 -0.0126
33635W        W40085  15.007   3.243   1.126 -0.3624 -0.1185  0.1550
33636W        W40086   2.378   5.858  37.388  0.1233  0.0511  0.0865
33637W        W40087   8.846   0.361  11.070  0.0426  0.2097 -0.0305
33638W        W40088  16.414   1.897  31.186  0.0620  0.3269 -0.1158
33639W        W40089  13.718   2.446  33.370 -0.1629  0.0991 -0.2431
33640W        W40090   5.175   6.220  21.663 -0.0584 -0.0916  0.2259
33641W        W40091  20.238   6.579  18.202  0.2277  0.0005 -0.2848
33642W        W40092   7.744   1.059  39.382 -0.2346 -0.0162  0.2661
33643W        W40093   6.941   6.238  11.047 -0.0366  0.1710  0.2746
33644W        W40094   7.090   2.243  12.458  0.1891  0.2407  0.2330
33645W        W40095  10.163   3.379  11.555  0.0214 -0.0361 -0.0922
33646W        W40096  19.308   0.022   4.761 -0.1902  0.2241  0.1615
33647W        W40097   5.860   1.993   2.101  0.2978 -0.2122 -0.0933
33648W        W40098   3.139   1.037   8.980  0.0863  0.2878 -0.3207
33649W        W40099  15.601   2.822   3.854  0.1083  0.0146 -0.0232
33650W        W40100   7.873   0.021  40.180 -0.0906 -0.1044 -0.1041
33651W        W40101   1.148   5.947   5.356  0.0288  0.0255  0.0507
33652W        W40102  18.899   3.102  12.660  0.0412  0.1027  0.0638
33653W        W40103  14.915   2.306  36.653 -0.1381  0.2986 -0.0376
33654W        W40104   1.312   3.943   3.514 -0.2021  0.0602 -0.3570
33655W        W40105   0.313   1.829  18.457 -0.1599 -0.4663 -0.0369
33656W        W40106   6.989   1.592   4.088  0.0470  0.2055 -0.1504
33657W        W40107   7.304   1.453  41.201  0.2232 -0.2584  0.3202
33658W        W40108   1.237   1.285   0.899  0.0026  0.0015  0.2623
33659W        W40109  14.347   4.167  40.927  0.3749 -0.0260 -0.1397
33660W        W40110  14.058   3.493   5.461  0.2695  0.0088 -0.0466
33661W        W40111   8.430   2.868  30.207  0.1734  0.0113 -0.0252
33662W        W40112   1.973   2.389  31.416 -0.2587 -0.0080 -0.4246
33663W        W40113   3.176   3.396  32.031  0.5604 -0.1523 -0.0290
33664W        W40114   5.899   1.056  26.316 -0.2490 -0.1535 -0.1271
33665W        W40115   4.458   2.803  34.484 -0.4465  0.1824  0.0087
33666W        W40116  16.294   1.565  34.787 -0.1528 -0.1373  0.1300
33667W        W40117   1.080   5.022  42.037  0.2435  0.1378 -0.1932
33668W        W40118   9.956   5.259  36.328  0.1100 -0.1218 -0.0639
33669W        W40119  15.494   4.867  32.644 -0.1816  0.1263  0.2694
33670W        W40120  19.532   2.533   3.880 -0.0494 -0.2152  0.0536
33671W        W40121   7.150   3.112   4.508  0.4323 -0.3711 -0.2130
33672W        W40122  11.427   1.260  39.861  0.1419  0.1915  0.1256
33673W        W40123  12.841   0.488  40.159  0.3371 -0.1955 -0.2477
33674W        W40124   1.563   1.487   1.637 -0.1057 -0.2738  0.1045
33675W        W40125   3.778   3.894  32.666 -0.2151 -0.1365  0.0688
33676W        W40126   2.735   5.017  28.413  0.0052 -0.2641  0.0338
33677W        W40127   4.588   0.709  30.196 -0.1278  0.1470  0.0790
33678W        W40128  12.172   2.287  44.240 -0.0377 -0.0908 -0.0895
33679W        W40129   8.338   0.079  34.228 -0.2816 -0.3051 -0.1533
33680W        W40130   5.224   0.396   3.409  0.0288  0.2077 -0.0489
33681W        W40131  20.626   2.937   1.394 -0.0289 -0.0584  0.1498
33682W        W40132  12.153   0.976  28.412 -0.1471 -0.2487 -0.1156
33683W        W40133  18.260   4.201   0.650 -0.1315  0.2720  0.0128
33684W        W40134  16.194   0.542  21.246  0.0147  0.1781  0.0915
33685W        W40135  10.254   4.496   1.166 -0.1527 -0.1440 -0.2041
33686W        W40136   4.803   4.375  43.253 -0.0894  0.2633  0.0788
33687W        W40137  14.520   4.018   1.443  0.0510 -0.0313 -0.0187
33688W        W40138   8.916   6.359  29.358 -0.0407 -0.1386 -0.1881
33689W        W40139  21.023   4.038  33.165  0.2325  0.4292 -0.0654
33690W        W40140   0.226   3.145  37.609 -0.1918 -0.1639  0.2466
33691W        W40141   6.102   6.453  23.497  0.2784 -0.3692  0.0326
33692W        W40142  14.176   4.018   5.575 -0.1405  0.3315 -0.0150
33693W        W40143  12.294   0.614  19.281  0.0239  0.0025 -0.0822
33694W        W40144   8.659   5.301  33.888  0.1431  0.2481 -0.0224
33695W        W40145  13.514   0.707  18.897  0.1899  0.2682  0.0134
33696W        W40146   2.095   2.190   5.580  0.1035 -0.0310  0.3774
33697W        W40147  13.044   2.847  30.796 -0.0155 -0.0604 -0.0164
33698W        W40148   2.884   6.358  28.400 -0.1127 -0.1132  0.0960
33699W        W40149   4.742   0.610   3.558 -0.1684  0.0613  0.0736
33700W        W40150  14.647   0.653   5.466  0.3288  0.1229  0.0735
33701W        W40151  15.496   3.982   9.184  0.0393 -0.3151 -0.2350
33702W        W40152  16.920   1.493   7.973 -0.3296  0.1178 -0.1339
33703W        W40153  19.527   3.053  16.121  0.1878 -0.0230 -0.1340
33704W        W40154   7.520   5.427  27.717  0.0802 -0.0578 -0.0553
33705W        W40155  15.918   5.573   3.360  0.1001 -0.0118  0.1775
33706W        W40156   2.167   5.147  44.356 -0.1834  0.1329  0.0200
33707W        W40157   1.299   3.218  40.826  0.1092 -0.1939 -0.1047
33708W        W40158   7.284   4.584  14.766 -0.1898 -0.1024  0.2411
33709W        W40159   7.010   4.876  41.108 -0.0377 -0.0551  0.1438
33710W        W40160  13.840   4.649  21.483  0.1308  0.1556  0.0594
33711W        W40161   6.231   1.998  36.740  0.3002  0.0500 -0.2533
33712W        W40162  19.012   1.567   0.329 -0.1027 -0.1870 -0.0920
33713W        W40163   3.787   0.038  15.550 -0.2186  0.2602 -0.1366
33714W        W40164   0.368   1.050  43.174 -0.0198 -0.1803 -0.0010
33715W        W40165  12.453   0.605  17.509 -0.1787 -0.0856 -0.2282
33716W        W40166   8.560   6.283   5.504 -0.0804  0.0245 -0.0458
33717W        W40167  17.841   4.867  34.680 -0.1023 -0.1103  0.1262
33718W        W40168   2.225   3.840  33.538 -0.1768  0.0489  0.1605
33719W        W40169   7.728   0.266   5.043 -0.1216 -0.1117  0.1674
33720W        W40170  10.454   3.695  11.772 -0.0267 -0.0582 -0.1377
33721W        W40171   2.537   1.473  30.097  0.3232  0.0110 -0.1307
33722W        W40172  20.665   3.864  15.652 -0.1198  0.1012 -0.0361
33723W        W40173  11.439   4.233  39.828  0.1415 -0.1506 -0.0696
33724W        W40174   1.124   3.810  29.812  0.0598 -0.0512  0.1916
33725W        W40175  12.953   2.847  43.883  0.1478 -0.0004 -0.1049
33726W        W40176  12.703   2.793  32.027  0.2486  0.0448 -0.2103
33727W        W40177  17.668   3.509  17.713  0.2916 -0.1826  0.1676
33728W        W40178   8.564   0.394  41.724 -0.4941 -0.0694 -0.2938
33729W        W40179   0.642   0.519   1.110 -0.2924 -0.1750  0.1452
33730W        W40180   6.894   1.240  33.197 -0.1460 -0.2924 -0.0869
33731W        W40181  11.061   2.698  43.626  0.1135  0.3140  0.3707
33732W        W40182   3.725   6.575  34.199 -0.4264 -0.1177  0.1970
33733W        W40183  19.072   2.525   2.637 -0.1669  0.4626  0.2682
33734W        W40184  20.440   2.245   0.352  0.0808  0.2171  0.1160
33735W        W40185   7.999   0.114   4.609  0.1353  0.1817 -0.4900
33736W        W40186  12.646   0.320  37.766 -0.0575 -0.3543  0.2235
33737W        W40187   3.823   1.621  13.761 -0.1023  0.0115 -0.3088
33738W        W40188   7.057   2.817   2.775  0.0386 -0.3055 -0.0853
33739W        W40189  18.226   1.310  43.544 -0.0031  0.1940  0.0940
33740W        W40190   7.220   0.045  23.567 -0.1138  0.1654 -0.1305
33741W        W40191   0.825   1.830  12.489  0.3695 -0.1037  0.2614
33742W        W40192   7.419   6.543  10.766  0.0098  0.0151  0.0573
33743W        W40193  14.587   2.777   0.605  0.1103 -0.1045 -0.3161
33744W        W40194  11.753   3.081  19.147  0.0785 -0.0136 -0.2271
33745W        W40195  16.119   2.683   9.672 -0.0045 -0.0358  0.0716
33746W        W40196  17.190   5.797   5.266  0.2749 -0.4346 -0.0362
33747W        W40197  18.489   1.505  35.015 -0.0430  0.3897  0.0167
33748W        W40198  11.113   1.333  34.513  0.0656  0.1747 -0.2403
33749W        W40199  19.544   1.308  43.577 -0.1545 -0.0965 -0.1067
33750W        W40200   9.815   0.958  27.256 -0.0958 -0.4121  0.2113
33751W        W40201  14.267   2.273  43.401  0.0996 -0.0642  0.1523
33752W        W40202   8.652   1.683  10.025 -0.2266 -0.0136  0.0301
33753W        W40203  16.316   0.369  20.177  0.3335 -0.1212  0.4282
33754W        W40204  15.310   4.389   3.155  0.1451  0.1199 -0.0405
33755W        W40205  11.190   4.722  10.944 -0.0981 -0.1324  0.0488
33756W        W40206  12.735   6.392  35.523  0.0333  0.1222  0.3107
33757W        W40207  11.897   3.173  15.244 -0.0790  0.1385  0.0651
33758W        W40208   3.909   6.206  11.198  0.1334 -0.2143  0.3864
33759W        W40209   4.515   4.255  41.717  0.0554  0.2514 -0.2068
33760W        W40210  19.378   1.798  43.445  0.0658 -0.0344  0.2842
33761W        W40211   8.497   1.418  15.089 -0.1276 -0.0913  0.4021
33762W        W40212   2.563   6.420  41.955 -0.0423 -0.0506 -0.0907
33763W        W40213  12.132   6.237  40.584 -0.0004 -0.0493  0.4201
33764W        W40214   5.393   4.912   4.890  0.2214  0.0643 -0.3920
33765W        W40215  19.495   4.637   7.892 -0.0754 -0.2821 -0.0846
33766W        W40216   1.930   2.713  35.375  0.0003 -0.0058 -0.1018
33767W        W40217  13.110   3.982  34.239 -0.1116 -0.0065  0.3101
33768W        W40218   3.339   1.154  12.252 -0.3723 -0.0952 -0.1226
33769W        W40219  19.905   3.592  13.494  0.1239  0.1476  0.0060
33770W        W40220  14.391   6.234  40.755  0.0704  0.1031 -0.2299
33771W        W40221  20.351   2.858   5.513 -0.0235 -0.0188  0.1186
33772W        W40222  10.047   0.354  13.494  0.4259 -0.0657 -0.3551
33773W        W40223   0.652   5.570  32.548  0.2721  0.3521 -0.2046
33774W        W40224   7.309   5.141  34.874 -0.0784  0.2442 -0.2222
33775W        W40225  11.549   5.719  15.608 -0.1268 -0.1417 -0.0445
33776W        W40226  12.872   6.086   1.148  0.0841  0.0927 -0.1321
33777W        W40227  17.985   2.832  35.872 -0.1359  0.1356 -0.0838
33778W        W40228   8.554   4.448  34.509  0.1473 -0.1045 -0.0692
33779W        W40229  19.388   2.996  31.422 -0.2190  0.2004  0.2263
33780W        W40230   9.726   1.369   3.525 -0.0888 -0.0643 -0.1780
33781W        W40231   5.797   1.409  27.398  0.2157  0.0749 -0.1953
33782W        W40232  12.629   4.765  16.113 -0.0824  0.0040  0.0421
33783W        W40233   7.981   3.598   5.018 -0.0250  0.3956 -0.0827
33784W        W40234  19.289   0.800  16.403 -0.1027  0.2165 -0.2402
33785W        W40235   2.701   3.993   5.498  0.3363 -0.0780  0.0948
33786W        W40236   7.115   1.433   0.096 -0.1681 -0.0541 -0.1191
33787W        W40237   8.206   5.159  16.521 -0.1381 -0.1789 -0.0982
33788W        W40238   7.747   2.132   7.565  0.0756  0.1193  0.0898
33789W        W40239  20.956   1.584  39.270 -0.0613 -0.0991 -0.0628
33790W        W40240  14.535   3.662  44.605 -0.0255 -0.2084 -0.0221
33791W        W40241  19.406   5.147  44.878  0.1096  0.1758  0.2707
33792W        W40242   4.609   2.311  12.659 -0.1984  0.2372 -0.3146
33793W        W40243  16.277   3.494  19.206  0.1077 -0.4363  0.3228
33794W        W40244  20.621   0.568  12.784 -0.1137 -0.0058 -0.4217
33795W        W40245  12.022   6.007   3.393 -0.0487  0.1068  0.0486
33796W        W40246  15.446   0.688  31.940  0.0273 -0.0050  0.1023
33797W        W40247   3.525   2.351  38.853 -0.1871 -0.0488 -0.2221
33798W        W40248   6.693   2.812   5.220 -0.0045 -0.0533  0.2754
33799W        W40249  19.831   3.415  11.170 -0.2746 -0.3785 -0.0608
33800W        W40250  20.778   3.057  41.310  0.0370 -0.1474 -0.4338
33801W        W40251  12.860   4.147   8.965 -0.1161  0.3013 -0.0796
33802W        W40252  11.982   1.391   7.064  0.0119 -0.4527 -0.0670
33803W        W40253  17.781   1.023   3.983 -0.1001 -0.1506  0.1143
33804W        W40254  20.058   6.552  34.370  0.1196 -0.1204 -0.2466
33805W        W40255  16.946   4.910  11.977  0.3131  0.0594 -0.1646
33806W        W40256   3.759   2.301  36.159 -0.0293 -0.0163  0.0011
33807W        W40257  18.222   5.980  37.428 -0.0948  0.6217  0.0563
33808W        W40258   9.554   3.695  32.264 -0.4660  0.1336 -0.0359
33809W        W40259  10.851   4.760  33.138  0.0077 -0.2946  0.1599
33810W        W40260  16.725   0.359   1.175  0.2890 -0.1993 -0.1856
33811W        W40261  20.357   3.526  11.158  0.1318  0.3413 -0.3870
33812W        W40262  20.794   5.303  33.784  0.2332  0.1476  0.5041
33813W        W40263   5.761   5.457  12.222  0.1882  0.3770  0.1977
33814W        W40264  20.344   6.166   5.285 -0.1511  0.0472 -0.1794
33815W        W40265   1.653   0.318  14.763  0.3404  0.2063 -0.0920
33816W        W40266  12.974   3.043   4.691 -0.1598  0.0164 -0.1151
33817W        W40267  17.246   1.809  17.645 -0.1533  0.0813 -0.1030
33818W        W40268   2.818   0.812  41.015 -0.0776  0.2768 -0.1104
33819W        W40269  12.716   2.673  40.987 -0.0094  0.0204 -0.1000
33820W        W40270   6.313   2.849   8.984  0.4664  0.2178 -0.0716
33821W        W40271  14.220   5.534  41.486 -0.3184  0.1825  0.0111
33822W        W40272   1.149   0.081  28.630  0.1228  0.0442  0.2354
33823W        W40273   7.897   3.533  35.990 -0.0290  0.2052  0.1175
33824W        W40274  18.895   3.359   3.043  0.2857 -0.2481 -0.1206
33825W        W40275  15.550   1.785  44.681 -0.2249 -0.0503  0.1991
33826W        W40276  14.623   6.240   5.801  0.1807  0.0143 -0.3078
33827W        W40277   2.494   1.545  11.850  0.3018 -0.0772 -0.3408
33828W        W40278   8.889   4.946   7.398  0.0692 -0.1111 -0.1532
33829W        W40279   4.804   2.032  41.115 -0.0490  0.3363 -0.2363
33830W        W40280  19.933   3.539  36.270 -0.0174 -0.2816 -0.0253
33831W        W40281   6.874   2.226  37.847  0.0705 -0.0992  0.1474
33832W        W40282  13.267   5.598  36.491  0.1835 -0.0631 -0.0913
33833W        W40283   7.486   1.394  30.450 -0.0576 -0.1244  0.0149
33834W        W40284  17.595   0.409  19.964 -0.1924  0.0189  0.2164
33835W        W40285  10.699   6.218  34.797 -0.2289 -0.1037  0.1116
33836W        W40286   7.689   2.940  27.311  0.2153  0.1140  0.0102
33837W        W40287  13.903   5.981   6.332  0.3230 -0.1746 -0.1681
33838W        W40288  15.672   1.489   4.600  0.1288  0.2790 -0.0860
33839W        W40289  20.299   5.349   4.638  0.2158 -0.0615  0.3497
33840W        W40290  10.617   2.677  17.460  0.1450  0.0678  0.3670
33841W        W40291   1.243   4.585  15.660  0.1229 -0.0943  0.2241
33842W        W40292   6.282   1.351  40.193  0.1933 -0.2722  0.2374
33843W        W40293  16.749   0.718  17.533  0.1100  0.0918 -0.2180
33844W        W40294  20.529   0.753   8.104  0.0233  0.1751 -0.1604
33845W        W40295  13.402   0.759   7.088 -0.1284  0.0802  0.2494
33846W        W40296   9.853   5.131  36.858 -0.0701  0.2501  0.2282
33847W        W40297  14.185   4.587  42.758  0.0526 -0.2241  0.2473
33848W        W40298   4.186   4.357  43.875 -0.0822  0.1015  0.1211
33849W        W40299   6.504   0.494  31.547  0.0780 -0.1063  0.2112
33850W        W40300   3.336   2.679  37.561  0.0327 -0.0324 -0.0485
33851W        W40301  16.072   5.127  29.351 -0.2666  0.0745  0.0865
33852W        W40302  15.815   0.413  37.809  0.0610 -0.1689 -0.1590
33853W        W40303  13.442   1.495  31.242  0.5200 -0.0522 -0.1429
33854W        W40304  21.002   3.678  34.833  0.1413  0.1193  0.0802
33855W        W40305  12.473   1.757   7.904  0.0996  0.1184  0.1359
33856W        W40306  11.392   0.560  15.252  0.1261 -0.0199  0.0740
33857W        W40307  19.396   0.564  17.373  0.4805 -0.1869  0.0041
33858W        W40308  20.052   1.050   6.188  0.3083  0.3171  0.1027
33859W        W40309  13.767   4.691  11.227 -0.0203  0.4484  0.3815
33860W        W40310  20.196   0.589  10.890  0.1916 -0.0910  0.2229
33861W        W40311   5.734   2.470   2.883  0.3318 -0.0284  0.1314
33862W        W40312  14.769   2.544  10.331 -0.0252 -0.2256 -0.0209
33863W        W40313  17.078   0.826  21.196  0.1762  0.0674 -0.0567
33864W        W40314   6.863   3.317  25.432  0.1257  0.2677  0.3393
33865W        W40315  10.247   3.620  17.041 -0.4469  0.2758  0.2035
33866W        W40316   5.278   0.263  10.413  0.0274  0.0250 -0.0088
33867W        W40317  19.340   2.817   0.317  0.0600 -0.2864 -0.3095
33868W        W40318  21.066   0.441  15.955  0.1057 -0.4686 -0.0678
33869W        W40319   7.089   3.577  35.527  0.0225 -0.2007 -0.1668
33870W        W40320   3.907   3.490  41.181  0.0427  0.0860  0.2801
33871W        W40321  12.705   0.229  28.791 -0.1142 -0.0179  0.2070
33872W        W40322   9.996   1.403   1.746 -0.1771  0.0545  0.1211
33873W        W40323   6.950   4.231  38.643  0.0637  0.4028 -0.3783
33874W        W40324  17.826   1.716  29.175  0.2555 -0.0537  0.2161
33875W        W40325   8.090   1.684   7.504 -0.0540  0.0722 -0.0519
33876W        W40326  10.140   1.199  32.688 -0.1168  0.0982  0.0441
33877W        W40327   6.416   0.902   1.762 -0.1022 -0.1202  0.1762
33878W        W40328  15.445   0.311  38.654 -0.0161  0.3873 -0.0542
33879W        W40329  11.292   1.601  29.519 -0.0508 -0.0740 -0.0226
33880W        W40330   6.543   3.917  10.723 -0.1151 -0.1237 -0.0025
33881W        W40331   4.255   1.138   4.559  0.0031 -0.2452  0.0304
33882W        W40332  11.205   6.372  35.882 -0.0192 -0.0022  0.0546
33883W        W40333  16.459   2.646  24.522  0.2397 -0.0276  0.1861
33884W        W40334   9.873   0.126  41.466  0.1126 -0.2959  0.1065
33885W        W40335   0.068   1.154  11.418 -0.3525  0.0027  0.1735
33886W        W40336   9.638   0.331  43.264 -0.1633  0.1580 -0.2212
33887W        W40337   0.024   6.337  17.521 -0.0264 -0.2985 -0.0632
33888W        W40338  20.430   1.025  43.030  0.2295 -0.0672 -0.0319
33889W        W40339  19.142   0.927  32.313 -0.1264 -0.2157  0.0823
33890W        W40340  13.354   4.501  31.594  0.3182  0.2365 -0.0842
33891W        W40341  17.069   3.562   3.101 -0.0190  0.1889 -0.1981
33892W        W40342   1.774   3.661  25.836  0.1362  0.0430  0.0209
33893W        W40343   7.182   6.389  41.319 -0.1562  0.0652 -0.1130
33894W        W40344   5.032   3.448   0.634  0.2833  0.2547 -0.0019
33895W        W40345  18.215   1.184   0.753  0.1403 -0.1236  0.1172
33896W        W40346  12.846   1.600  20.652  0.2686 -0.0525 -0.1151
33897W        W40347  21.016   0.217   7.126 -0.0007 -0.0355 -0.0057
33898W        W40348  20.236   5.582  42.777 -0.0068  0.1040 -0.1119
33899W        W40349  20.012   6.072   1.879  0.1011 -0.0591 -0.1925
33900W        W40350  18.217   1.538  16.771 -0.0797 -0.1020 -0.0648
33901W        W40351   8.575   0.126  16.284  0.2109 -0.0506 -0.0419
33902W        W40352   5.440   0.583  28.022  0.0253  0.0349 -0.4999
33903W        W40353   4.292   1.523   0.204 -0.1600 -0.2351 -0.0841
33904W        W40354   3.266   1.785  23.460  0.0039  0.0254 -0.1829
33905W        W40355   8.515   0.220   8.418  0.2193 -0.1903  0.0839
33906W        W40356   2.830   6.088  10.828 -0.1821  0.0928 -0.0739
33907W        W40357   7.232   6.494  12.713 -0.5198 -0.1813  0.1616
33908W        W40358  10.534   4.584  15.650 -0.0219  0.1925  0.0660
33909W        W40359   2.214   0.151  25.068  0.2209  0.0850  0.0122
33910W        W40360  13.558   2.346  35.161  0.0936  0.1039 -0.4208
33911W        W40361   9.516   1.228   8.441  0.3854  0.0198  0.0291
33912W        W40362   6.432   4.581   1.828  0.0436  0.0954  0.0744
33913W        W40363  15.763   1.024  40.093  0.1120  0.1843  0.3007
33914W        W40364  20.533   0.628  14.772  0.1270 -0.1974 -0.0404
33915W        W40365   9.449   6.413  15.730  0.3335 -0.0219  0.1058
33916W        W40366   6.238   0.284  29.525  0.3738  0.1065 -0.2036
33917W        W40367  18.360   2.668  21.052  0.1493 -0.2487 -0.2182
33918W        W40368  13.755   0.502  19.310 -0.1036 -0.0354 -0.0245
33919W        W40369   5.438   5.749  15.495 -0.0303  0.1119 -0.2912
33920W        W40370   9.257   1.290  24.701 -0.2267  0.1700  0.1918
33921W        W40371  18.570   6.042  33.213  0.1367  0.0302  0.0077
33922W        W40372  19.772   3.737   4.490 -0.0336  0.0816 -0.0778
33923W        W40373  15.584   4.511  41.928  0.2056 -0.0183 -0.0922
33924W        W40374   6.374   2.076  25.949 -0.2215  0.2317 -0.0747
33925W        W40375   3.824   4.801  40.430  0.1464 -0.2248 -0.0964
33926W        W40376   7.343   3.313  15.135  0.0482 -0.3016  0.1331
33927W        W40377  16.849   4.016  44.034 -0.1094  0.2547  0.1215
33928W        W40378   8.493   4.968  39.696 -0.1939  0.0782  0.1913
33929W        W40379   6.223   3.523  42.998  0.4218  0.1651  0.1457
33930W        W40380   3.422   4.947  42.281 -0.0059 -0.1421 -0.0881
33931W        W40381  13.487   0.788  34.639  0.0722 -0.5967  0.1524
33932W        W40382   7.194   0.069   9.099  0.1882  0.1048  0.0421
33933W        W40383  16.736   3.134  10.313 -0.0050 -0.1450  0.1546
33934W        W40384  12.518   3.898  15.054  0.5095  0.0615  0.0350
33935W        W40385  20.142   1.252  43.591  0.1075 -0.4036  0.1533
33936W        W40386  15.796   0.901  29.860  0.1511  0.4566 -0.0135
33937W        W40387   9.921   4.635  41.244  0.2107 -0.0666 -0.1283
33938W        W40388  12.263   2.527  13.967  0.3071  0.0262  0.0298
33939W        W40389  18.878   5.282  18.767 -0.0911 -0.0791  0.0378
33940W        W40390   0.837   2.361  27.325 -0.2576 -0.2316 -0.0074
33941W        W40391   2.507   4.433  43.786 -0.0668  0.1791 -0.0637
33942W        W40392   1.600   2.668   3.594  0.1501  0.0054  0.0781
33943W        W40393   3.246   4.205   0.342 -0.1810  0.0112 -0.3101
33944W        W40394   5.326   5.277  24.703 -0.1939 -0.1324  0.0328
33945W        W40395  17.657   2.129  20.173  0.0733 -0.0302 -0.1267
33946W        W40396  15.139   0.070  41.368  0.2585  0.2708  0.1421
33947W        W40397  17.936   2.093  18.020  0.0462 -0.3302 -0.0590
33948W        W40398  11.949   6.179  16.627  0.0269 -0.3991  0.1854
33949W        W40399   8.389   1.809   9.578 -0.0548 -0.2778  0.0364
33950W        W40400   4.923   3.408  14.851 -0.2427  0.1457 -0.2717
33951W        W40401  10.973   6.253  39.650 -0.1089  0.1499 -0.0705
33952W        W40402   8.807   3.495  32.741 -0.0794 -0.1509  0.0568
33953W        W40403   0.178   5.477   5.209 -0.0261  0.1218  0.2018
33954W        W40404   9.698   5.994   0.331 -0.0202  0.3510  0.3076
33955W        W40405  16.337   5.792  29.428 -0.1254 -0.2416 -0.2312
33956W        W40406   0.305   1.652  35.815 -0.1453 -0.0402 -0.1320
33957W        W40407   5.380   1.928  31.805  0.1910  0.1433 -0.0446
33958W        W40408   6.933   4.685  27.289  0.1103  0.0492  0.1400
33959W        W40409  20.060   0.753  33.508  0.2555 -0.0667 -0.2006
33960W        W40410   1.918   6.495  39.958  0.1220 -0.3128 -0.1325
33961W        W40411   5.353   2.095  42.033 -0.0736 -0.0671  0.0810
33962W        W40412  13.538   3.070   7.140  0.2479 -0.0861  0.2457
33963W        W40413  10.234   3.449  38.195 -0.0842 -0.0939 -0.0334
33964W        W40414  17.401   4.655  38.607 -0.3334 -0.3008  0.0447
33965W        W40415   7.233   4.985   8.003  0.0091 -0.0853  0.4001
33966W        W40416  18.145   4.172   8.209 -0.0357  0.4590  0.1240
33967W        W40417   3.735   4.874  43.175  0.2121 -0.1109 -0.1346
33968W        W40418  19.176   3.247  34.269  0.1046 -0.2932 -0.1188
33969W        W40419   6.631   4.967  30.652 -0.1081 -0.3420 -0.1254
33970W        W40420  20.876   2.416  36.972  0.1289  0.0809 -0.0939
33971W        W40421   4.202   3.897  41.304 -0.3529 -0.3540 -0.0239
33972W        W40422   4.765   1.181  11.105 -0.3082 -0.1440 -0.1855
33973W        W40423  14.212   5.522  17.094  0.2668  0.0381 -0.0825
33974W        W40424  10.155   5.326   7.393  0.0119 -0.3329  0.1015
33975W        W40425  12.318   2.641   3.903  0.2303 -0.0742  0.1554
33976W        W40426   2.443   3.369  27.614 -0.2301  0.1896 -0.0514
33977W        W40427  21.040   4.458  40.099 -0.1466  0.0044  0.0872
33978W        W40428   3.138   5.695  33.985  0.2549  0.1221  0.2680
33979W        W40429   6.204   0.967  35.637 -0.1798  0.2568  0.0396
33980W        W40430  17.186   5.601  42.415 -0.1142  0.2542  0.0024
33981W        W40431   2.538   3.374   6.218 -0.0572  0.0543  0.0874
33982W        W40432  12.712   6.387  33.232  0.0072 -0.0223  0.0521
33983W        W40433   0.567   0.560  28.138 -0.1010 -0.0730 -0.0002
33984W        W40434  11.881   5.610  38.205  0.1992  0.1424  0.0018
33985W        W40435   8.438   5.558   7.603 -0.2677  0.1976  0.1208
33986W        W40436  13.341   4.161  44.686 -0.0534 -0.2784 -0.1192
33987W        W40437  14.485   2.717  39.365  0.1505  0.2877 -0.1429
33988W        W40438  14.479   1.594   0.872  0.0956 -0.1472 -0.2178
33989W        W40439   8.509   1.715  38.094  0.0398 -0.1008 -0.0503
33990W        W40440   0.441   4.286  34.974  0.1275 -0.2174  0.2147
33991W        W40441   2.867   6.090  12.903  0.0382 -0.0658 -0.1753
33992W        W40442  11.689   2.643  18.265  0.1060  0.0066 -0.2975
33993W        W40443  10.914   1.105  17.406 -0.0948  0.0211  0.0552
33994W        W40444  14.785   4.096  14.449 -0.3218  0.2866  0.2508
33995W        W40445  18.907   4.649  15.995  0.5120 -0.0577 -0.1366
33996W        W40446  16.577   2.239  43.862 -0.3588 -0.0929  0.0107
33997W        W40447   5.605   2.019   4.997 -0.0545  0.1151 -0.0354
33998W        W40448  17.042   6.534   1.935  0.1739 -0.0959  0.2743
33999W        W40449   0.243   5.121  34.446  0.1016 -0.5046 -0.1393
34000W        W40450  17.217   5.762   6.432  0.0252 -0.1408 -0.1439
34001W        W40451   5.983   3.607  36.617 -0.0271 -0.1659 -0.2779
34002W        W40452   3.653   1.927  27.601  0.3019 -0.0329  0.1855
34003W        W40453  13.719   6.268  32.833  0.0640 -0.1067 -0.0621
34004W        W40454  13.769   1.229  18.328 -0.0657 -0.1331  0.0550
34005W        W40455   6.081   0.537  44.251  0.4831 -0.3546  0.0685
34006W        W40456   3.491   3.564  12.928  0.3833 -0.0242 -0.1171
34007W        W40457   8.635   1.968   4.521  0.0044 -0.0388 -0.2911
34008W        W40458   4.122   6.344  12.538  0.2914 -0.1807  0.1133
34009W        W40459   6.810   1.748  27.009  0.1317 -0.0135 -0.1080
34010W        W40460   8.842   2.209  15.091 -0.0713 -0.2512  0.0014
34011W        W40461  10.362   2.033  41.199 -0.1561  0.2184 -0.0425
34012W        W40462   8.468   0.736  12.530  0.0560  0.1841 -0.0957
34013W        W40463  17.354   2.213  40.796 -0.1114 -0.3966  0.1077
34014W        W40464  13.667   0.571  31.491  0.2256  0.0369  0.1186
34015W        W40465  12.607   1.437   9.636  0.1194 -0.2385  0.2488
34016W        W40466   9.308   4.785  24.853  0.0154  0.3436  0.3523
34017W        W40467   5.502   2.709  32.864 -0.1488  0.1050  0.0501
34018W        W40468  12.007   2.464   3.370 -0.3874  0.0582 -0.2142
34019W        W40469   7.432   0.926  23.969  0.0376 -0.3185 -0.2669
34020W        W40470   4.658   5.225  24.265 -0.0861 -0.2924 -0.0755
34021W        W40471   2.825   4.389  14.121  0.0542 -0.3592  0.0181
34022W        W40472  13.532   3.526  31.535  0.2712  0.0220  0.1980
34023W        W40473  17.982   5.419   7.510 -0.1493  0.0032  0.0912
34024W        W40474  20.497   4.929   2.743 -0.2497  0.0212 -0.0009
34025W        W40475  15.097   2.795  40.713  0.2171  0.0680  0.1241
34026W        W40476   4.942   3.490  11.763 -0.0741  0.0130  0.0214
34027W        W40477  13.756   5.381   2.155  0.1656 -0.0077  0.1683
34028W        W40478  16.918   2.453  18.069 -0.0814  0.1071  0.0515
34029W        W40479   3.093   4.471   3.903  0.2235 -0.0422  0.1917
34030W        W40480   6.325   6.137  15.108  0.0967 -0.0210  0.3722
34031W        W40481  17.017   1.839  14.486  0.2392  0.2549  0.0803
34032W        W40482   5.926   4.124  41.711  0.0320  0.1924 -0.0266
34033W        W40483  18.724   4.203   0.885  0.1641  0.3147 -0.0502
34034W        W40484  11.695   4.113   0.947 -0.2137 -0.1802  0.2600
34035W        W40485   0.639   1.712  15.617 -0.1269 -0.1473  0.1306
34036W        W40486   7.351   0.442  14.841  0.1643  0.0884  0.1118
34037W        W40487   1.168   0.473   2.604 -0.0123 -0.0622  0.0439
34038W        W40488   6.453   1.116  21.269  0.0835 -0.0863 -0.3324
34039W        W40489  13.880   4.748  42.033 -0.1572  0.1984 -0.1640
34040W        W40490  12.936   2.122   3.164  0.0268 -0.0422  0.0086
34041W        W40491   2.857   3.931  23.433  0.0160  0.1575  0.2236
34042W        W40492   7.190   0.204  15.799  0.4142 -0.0280 -0.0242
34043W        W40493  20.090   0.591   5.069  0.2043 -0.0263 -0.0035
34044W        W40494  13.059   0.197  33.417  0.3302 -0.1228  0.3310
34045W        W40495  11.701   1.887  32.224  0.0071 -0.1647  0.1906
34046W        W40496   2.697   5.371  10.107  0.1023  0.1658  0.2088
34047W        W40497   3.398   1.267   3.729  0.0560  0.0159  0.1479
34048W        W40498  15.984   2.375   7.548  0.0947 -0.2072 -0.2310
34049W        W40499   5.489   4.278  29.791 -0.1326 -0.2827 -0.2492
34050W        W40500  17.807   1.958  41.468 -0.2164  0.2128 -0.1552
34051W        W40501   2.410   3.586  35.233  0.0754 -0.1684  0.1485
34052W        W40502   1.755   4.363   1.097  0.2613  0.2905  0.3231
34053W        W40503  12.524   2.404  11.023  0.0428  0.2863 -0.0714
34054W        W40504   9.845   2.595   6.849 -0.0847  0.1159 -0.1722
34055W        W40505   9.481   3.137   7.631 -0.1159  0.4860 -0.0713
34056W        W40506  19.259   2.384  11.920 -0.0416 -0.2063 -0.1446
34057W        W40507   4.570   5.349   4.579 -0.1947 -0.2465 -0.0398
34058W        W40508   5.331   3.838  11.683  0.1625 -0.0558  0.2283
34059W        W40509  14.316   1.649  35.127 -0.0915  0.0928  0.0317
34060W        W40510   8.735   1.857  27.497  0.2615 -0.0792  0.0802
34061W        W40511  18.386   2.620   5.793 -0.0178 -0.1400 -0.0174
34062W        W40512  13.063   2.482  36.360  0.0866 -0.3696 -0.0895
34063W        W40513   3.499   5.168   6.329 -0.1006  0.0274  0.1224
34064W        W40514  15.397   5.632  32.609 -0.0124 -0.0349 -0.1447
34065W        W40515  16.203   1.635  28.957 -0.3198 -0.1979  0.0688
34066W        W40516   2.415   4.704  26.703 -0.0163 -0.1915  0.0149
34067W        W40517  20.708   5.763  42.384  0.1587  0.1096 -0.2736
34068W        W40518   0.217   6.184  38.909 -0.1189  0.0055  0.2019
34069W        W40519   2.876   2.790  34.039  0.0132  0.0459 -0.2244
34070W        W40520   4.678   5.636  14.931  0.1793  0.0583  0.2978
34071W        W40521  20.159   5.292   7.909  0.2172  0.1562  0.2460
34072W        W40522  10.355   4.024  27.840  0.2080  0.0912 -0.2592
34073W        W40523  15.967   1.898  40.050 -0.1216  0.0479  0.0274
34074W        W40524   5.404   0.864  34.155  0.2853 -0.2238  0.1422
34075W        W40525  15.624   0.426  31.428 -0.0271 -0.0763  0.2253
34076W        W40526   2.770   1.804   6.571  0.0078  0.0815 -0.0801
34077W        W40527  16.124   0.995  18.436 -0.0300  0.0450  0.0744
34078W        W40528   5.429   3.764  20.905  0.2942 -0.1734 -0.0162
34079W        W40529  10.494   6.245   3.036 -0.0865  0.2132 -0.0217
34080W        W40530  14.737   1.069  10.968  0.3472 -0.3418 -0.0479
34081W        W40531   8.086   3.001   3.978  0.0724 -0.0086  0.0226
34082W        W40532   3.465   5.892  13.101  0.2227  0.0817 -0.0998
34083W        W40533   5.790   0.789  13.895 -0.1279  0.0840 -0.3209
34084W        W40534  19.245   5.362  14.943 -0.0740  0.1961 -0.0025
34085W        W40535  18.336   0.858  37.116 -0.1295  0.0443 -0.0308
34086W        W40536  18.418   1.050   8.410  0.2145  0.3222 -0.0803
34087W        W40537   6.634   1.976  44.473 -0.0445  0.0830 -0.0684
34088W        W40538   9.409   0.047  11.275 -0.1482 -0.2119  0.0275
34089W        W40539   4.334   5.461  36.314 -0.1375 -0.2196 -0.1795
34090W        W40540  11.241   6.087  42.874  0.1104  0.1240 -0.0143
34091W        W40541   6.421   5.510  30.206  0.0722  0.3038 -0.2404
34092W        W40542   2.527   1.962  28.003  0.2812  0.0517 -0.0672
34093W        W40543  16.636   1.638  33.539 -0.2163 -0.1854 -0.1749
34094W        W40544   6.441   4.974  41.432  0.2160  0.1330  0.1424
34095W        W40545   7.775   4.110  25.676  0.1467 -0.3088 -0.0152
34096W        W40546   6.716   4.815  39.385 -0.1500 -0.0595  0.0554
34097W        W40547  15.618   2.628  40.645 -0.3028  0.0702  0.3713
34098W        W40548  16.092   6.304  11.915  0.1006 -0.1345 -0.2136
34099W        W40549   3.308   1.523  29.112  0.0735  0.0585 -0.2598
34100W        W40550   0.863   2.508   7.710  0.2641 -0.0906  0.0551
34101W        W40551  18.818   2.738  38.748  0.1673  0.0147 -0.2247
34102W        W40552   7.200   0.040  44.520  0.1562  0.0347  0.1050
34103W        W40553  13.511   3.640  43.721 -0.0485  0.1373  0.2808
34104W        W40554   9.091   6.232  34.092 -0.3160  0.1019  0.1640
34105W        W40555   7.387   5.595  45.004 -0.1768  0.1506 -0.0260
34106W        W40556   6.767   3.693  28.895  0.1766  0.1652 -0.1868
34107W        W40557   8.728   2.973  15.277 -0.0555 -0.2465 -0.0995
34108W        W40558   3.233   1.613  44.017  0.0158 -0.0324 -0.3143
34109W        W40559  12.298   2.526  29.084 -0.1997 -0.0967  0.2022
34110W        W40560   3.381   2.884  15.630 -0.1629 -0.1986 -0.1858
34111W        W40561  19.844   5.827   6.157  0.2671 -0.0795  0.1545
34112W        W40562  17.688   4.082   1.580  0.1277  0.0159 -0.2308
34113W        W40563  16.443   4.649  38.660 -0.0260 -0.3051  0.1110
34114W        W40564  15.360   5.813   0.431 -0.0712 -0.0182 -0.1398
34115W        W40565  20.320   2.566  38.078 -0.2407 -0.0535  0.2118
34116W        W40566  16.014   3.044  39.699 -0.1095  0.0132  0.3005
34117W        W40567  12.928   5.082  18.194 -0.0402  0.1182 -0.0272
34118W        W40568   1.397   6.596  11.780 -0.0309 -0.1146 -0.0029
34119W        W40569   4.152   3.729   8.214 -0.0364 -0.1315  0.2349
34120W        W40570   5.772   3.926  15.301 -0.1045  0.1378  0.1218
34121W        W40571  20.775   1.604   1.589  0.0636 -0.2747  0.2201
34122W        W40572   4.831   3.061  41.305  0.0872  0.0580 -0.0741
34123W        W40573   6.175   0.375   5.838  0.0020  0.3612  0.1129
34124W        W40574   7.418   6.481  32.936 -0.2963  0.0350 -0.0980
34125W        W40575   3.533   4.957  38.687 -0.2357  0.0114  0.0870
34126W        W40576   0.985   4.710   3.001  0.1900  0.0222  0.1710
34127W        W40577   0.910   0.916   8.576 -0.0896 -0.0097  0.2735
34128W        W40578  15.024   1.839  36.921  0.0440  0.2287  0.1676
34129W        W40579   8.335   1.841  35.218 -0.3715  0.0303  0.0333
34130W        W40580  19.411   1.614  20.090 -0.4415 -0.1486  0.0689
34131W        W40581  15.264   6.060   3.568 -0.0132  0.0565  0.2179
34132W        W40582  20.251   1.234   5.038  0.0775  0.1138 -0.1099
34133W        W40583  13.810   3.639  32.615 -0.2722  0.2556  0.1207
34134W        W40584  18.062   5.768  44.413  0.2595 -0.1743  0.0582
34135W        W40585  10.163   1.851   5.197 -0.1641 -0.1637 -0.1569
34136W        W40586  19.361   2.661   1.347 -0.0711  0.1988 -0.0495
34137W        W40587  16.424   4.787  22.948 -0.3001 -0.1364  0.1491
34138W        W40588   7.221   4.471  42.822  0.0774 -0.0157 -0.0916
34139W        W40589   2.115   1.658  36.369 -0.0750  0.3589 -0.0518
34140W        W40590   2.113   2.629  24.916  0.0712  0.2905 -0.0412
34141W        W40591  11.026   3.614  37.376  0.1343  0.1017 -0.2510
34142W        W40592   6.572   2.154   8.499 -0.0137 -0.0106 -0.1849
34143W        W40593   5.207   5.712  35.829 -0.2159 -0.3447  0.0061
34144W        W40594  11.066   5.955  40.687  0.0420 -0.2738 -0.3396
34145W        W40595  13.789   6.596  37.489 -0.1113 -0.0187  0.0352
34146W        W40596  10.430   0.798  37.017  0.2661  0.0152  0.0276
34147W        W40597   1.578   0.681  30.058  0.0630  0.0184 -0.1132
34148W        W40598   4.686   3.703  24.194 -0.0582  0.1934 -0.0438
34149W        W40599   4.302   3.176   7.418  0.4863  0.0198  0.3085
34150W        W40600  19.205   2.274  15.998 -0.1582 -0.2693 -0.0249
34151W        W40601  10.318   1.438   6.119 -0.1408  0.0458  0.3787
34152W        W40602  19.186   3.587  10.838 -0.2891  0.0213  0.1016
34153W        W40603   8.096   0.523  27.960  0.0940  0.1655 -0.2740
34154W        W40604  14.479   0.051  18.370  0.0055 -0.1819  0.0029
34155W        W40605   7.183   3.371  24.727  0.0256 -0.2400 -0.0091
34156W        W40606   1.515   4.046  33.002  0.0321  0.2103  0.0856
34157W        W40607  17.890   4.456  15.799 -0.1306  0.3871  0.0046
34158W        W40608  17.153   2.423  38.424  0.0480  0.0668 -0.0523
34159W        W40609   4.136   0.504  32.048  0.0413  0.2168  0.2099
34160W        W40610   2.172   3.624   6.596  0.1094 -0.2088  0.3319
34161W        W40611  14.073   4.483  43.882 -0.1631  0.3009  0.0076
34162W        W40612   8.228   3.055   7.646 -0.1205 -0.0301 -0.0196
34163W        W40613  12.447   5.699   5.541  0.2325 -0.1019 -0.0953
34164W        W40614   7.336   3.264   2.686  0.1644 -0.0630  0.0941
34165W        W40615  17.994   0.972  18.496  0.1656  0.0736  0.2084
34166W        W40616   3.646   0.996  34.890 -0.1941  0.0838 -0.2650
34167W        W40617  16.665   6.479  39.654  0.2661  0.0280  0.5834
34168W        W40618   8.063   5.481  29.575  0.0286  0.2442  0.1398
34169W        W40619   8.262   3.051  24.901  0.3369  0.0600 -0.2410
34170W        W40620  12.000   4.882  34.319  0.2051 -0.1058  0.0843
34171W        W40621  12.227   3.537  39.040  0.2966  0.1300  0.0478
34172W        W40622  11.546   4.242  11.414 -0.1326  0.1143  0.1028
34173W        W40623   4.194   3.752  36.917  0.0984  0.3201  0.3534
34174W        W40624  15.438   2.302   3.750  0.1079  0.0387 -0.0430
34175W        W40625   2.711   2.690  38.343  0.0866  0.1220 -0.0742
34176W        W40626   0.257   4.081   1.014  0.2977 -0.0064 -0.1764
34177W        W40627  18.376   2.056  43.207  0.4114 -0.0329  0.4265
34178W        W40628   3.969   0.521  41.322 -0.0472  0.1408  0.1652
34179W        W40629  18.461   0.933   2.469  0.1109 -0.0511  0.0304
34180W        W40630  13.955   0.730  40.474  0.1497  0.1443  0.2311
34181W        W40631  11.094   0.860   3.271 -0.0238  0.2171 -0.0437
34182W        W40632   6.697   5.647   4.783 -0.0861 -0.1891  0.2588
34183W        W40633   5.663   0.779  10.935  0.2502  0.1009  0.2030
34184W        W40634  10.018   1.859  15.366  0.0712  0.1237 -0.1299
34185W        W40635  20.806   6.515   8.043  0.3404 -0.0908 -0.1789
34186W        W40636   2.321   6.366  39.091 -0.0414  0.0777  0.1447
34187W        W40637   7.411   1.519  11.831 -0.0972  0.2902 -0.2851
34188W        W40638   1.917   5.929  40.081 -0.2514 -0.1502  0.0279
34189W        W40639   8.873   3.404  14.305  0.2269 -0.3561  0.0422
34190W        W40640   3.831   0.647  38.800 -0.0631  0.1872 -0.0671
34191W        W40641  11.301   0.054  38.402 -0.2217 -0.2861  0.3381
34192W        W40642  14.603   2.312  38.488  0.0181  0.0191 -0.1136
34193W        W40643  12.411   1.690  13.967 -0.0307 -0.1177 -0.1323
34194W        W40644   5.827   1.581  15.017  0.0648  0.2867 -0.0566
34195W        W40645  15.666   4.789  13.879  0.1534 -0.2234 -0.0360
34196W        W40646  15.017   3.440  17.036 -0.0156  0.2848  0.2975
34197W        W40647   7.925   3.413   3.700  0.2512 -0.0506 -0.3951
34198W        W40648   4.500   5.833  34.237 -0.0176 -0.4144  0.0661
34199W        W40649  13.197   5.145  40.017  0.1190  0.0990 -0.3302
34200W        W40650   3.267   0.147  36.922  0.2107 -0.0110  0.1843
34201W        W40651  18.330   4.275  19.264  0.0707 -0.1401  0.1942
34202W        W40652   1.258   0.780   9.999  0.1348 -0.0661  0.0541
34203W        W40653   7.157   6.323  22.693  0.1799 -0.1121  0.2422
34204W        W40654   5.417   3.153   0.483 -0.1411  0.1267  0.2070
34205W        W40655   1.522   2.813   4.772  0.1717 -0.0205  0.1556
34206W        W40656   1.934   0.783  40.020 -0.0743 -0.0145  0.0063
34207W        W40657   0.951   6.399  44.747  0.1176 -0.0454 -0.1896
34208W        W40658  13.721   3.456  38.763  0.5098  0.0504  0.2079
34209W        W40659   9.791   1.590  10.109 -0.2026 -0.0001 -0.1812
34210W        W40660   8.927   3.722   5.701 -0.1038 -0.2792  0.3628
34211W        W40661   9.525   1.570  41.354  0.0487  0.2295  0.1143
34212W        W40662  12.108   2.450  31.422  0.0083 -0.0473  0.1438
34213W        W40663  13.768   5.860  15.182 -0.0563 -0.0066 -0.2924
34214W        W40664  10.642   2.473   8.903 -0.2461 -0.1177  0.1067
34215W        W40665   5.988   5.013   5.573 -0.0045 -0.0597 -0.1828
34216W        W40666   7.127   5.234  28.562  0.1309 -0.4849  0.0569
34217W        W40667   6.119   5.315   8.992 -0.3267 -0.1026  0.0946
34218W        W40668  19.556   1.773  12.102 -0.1141 -0.1906 -0.1459
34219W        W40669   8.421   0.381  33.642  0.1388 -0.2551  0.2041
34220W        W40670  12.278   6.124  31.556 -0.0512  0.3517  0.1884
34221W        W40671  18.815   0.330  38.170  0.1231 -0.1397 -0.1098
34222W        W40672   3.572   0.943  38.146 -0.2955 -0.1450 -0.1928
34223W        W40673   4.202   5.905  29.344  0.0107 -0.0412 -0.0700
34224W        W40674  15.577   1.579  39.976 -0.0989  0.2345 -0.1451
34225W        W40675   2.697   1.484  28.309  0.0814 -0.0924 -0.0508
34226W        W40676  11.340   4.309  34.324 -0.2184 -0.0117  0.1407
34227W        W40677  19.011   5.823  22.372 -0.0616  0.1251  0.0711
34228W        W40678  11.356   1.408  38.073 -0.0987 -0.0967  0.0689
34229W        W40679   4.687   0.763  22.695 -0.1416  0.0511  0.5622
34230W        W40680   3.409   2.654  35.154 -0.0477  0.0460 -0.0639
34231W        W40681   8.364   5.552  10.720 -0.2069 -0.1471 -0.1380
34232W        W40682   1.781   3.327  10.439  0.0998  0.0124  0.2096
34233W        W40683   8.598   4.302  10.199 -0.1925  0.1478  0.3034
34234W        W40684   4.895   5.160  14.822  0.2169 -0.1259 -0.0076
34235W        W40685  15.833   0.598  18.244  0.2501 -0.2266 -0.0511
34236W        W40686   2.468   6.524  24.609  0.1038 -0.1953 -0.0306
34237W        W40687  16.779   2.800  37.911 -0.2745  0.2115 -0.4030
34238W        W40688  15.575   5.152  14.250  0.1277  0.3474 -0.0270
34239W        W40689  15.899   2.144  22.975 -0.0435 -0.2173 -0.2252
34240W        W40690   8.781   1.784   6.999  0.1331 -0.0432 -0.0978
34241W        W40691   6.831   4.398   9.674 -0.2107 -0.0969 -0.2550
34242W        W40692   6.316   1.820  33.779 -0.2805  0.1576  0.2738
34243W        W40693  11.195   6.037  37.161 -0.0867 -0.0314 -0.0269
34244W        W40694  17.908   5.104   5.347  0.0365  0.0914  0.0229
34245W        W40695  16.067   5.777  39.747 -0.3091 -0.2515  0.3121
34246W        W40696   3.314   0.230  38.266 -0.2655  0.0141  0.1031
34247W        W40697  19.700   0.871  10.530  0.1702 -0.0931  0.1087
34248W        W40698  19.732   0.622   3.495  0.0559 -0.1740 -0.1807
34249W        W40699  20.178   4.176  39.419  0.1162 -0.1209 -0.1333
34250W        W40700   0.633   4.220  32.052  0.2897 -0.2558  0.0113
34251W        W40701  13.561   4.644  22.581  0.0624 -0.2381 -0.1550
34252W        W40702   5.990   3.647  30.953  0.1651  0.0697 -0.2589
34253W        W40703   3.478   3.276  45.120 -0.0830 -0.3343  0.0275
34254W        W40704  21.001   4.792  29.401  0.0737 -0.1226 -0.2489
34255W        W40705  20.263   6.153  17.383  0.0581  0.0942  0.0546
34256W        W40706   7.801   6.075  35.278 -0.0334 -0.3584 -0.1019
34257W        W40707   3.146   3.647   8.032  0.1548 -0.3903 -0.2281
34258W        W40708  12.020   3.415  17.179 -0.1954  0.1151  0.0072
34259W        W40709   1.776   5.099  42.667  0.2412  0.1014  0.2540
34260W        W40710   5.960   2.982  35.354 -0.0604 -0.1997  0.2319
34261W        W40711  19.561   4.246  33.824 -0.3003  0.1393 -0.0001
34262W        W40712  13.521   0.834  11.632 -0.0784  0.1206 -0.1969
34263W        W40713  13.033   4.624  35.669  0.1840 -0.4743  0.1906
34264W        W40714  13.594   4.833  43.514  0.0882 -0.0008 -0.0225
34265W        W40715  16.001   4.220  19.923  0.0947  0.0655 -0.1640
34266W        W40716   7.722   1.166  44.967 -0.1111 -0.1569 -0.0457
34267W        W40717   0.970   0.662  33.540  0.2716  0.0288 -0.4313
34268W        W40718   2.543   6.245  44.152  0.0115 -0.1826  0.1142
34269W        W40719  16.950   1.577  41.835 -0.2168  0.0356 -0.0960
34270W        W40720  12.326   3.362   1.103 -0.0315 -0.1100  0.1036
34271W        W40721  17.575   4.166   8.343  0.2548 -0.1428  0.1136
34272W        W40722  11.744   2.557  44.136 -0.1255  0.0283  0.0696
34273W        W40723  13.142   2.297  29.967  0.2168  0.3764 -0.4311
34274W        W40724  20.051   1.177   3.415 -0.1379 -0.1639 -0.0416
34275W        W40725  21.073   5.980   8.994 -0.2199 -0.1723 -0.1885
34276W        W40726   6.828   1.629   0.705  0.1496 -0.0214 -0.2961
34277W        W40727   3.865   4.880   2.634  0.0187  0.0368  0.2304
34278W        W40728   5.912   4.023  11.205  0.2367  0.0146  0.1539
34279W        W40729  12.793   5.281   6.933 -0.1003  0.0611  0.1083
34280W        W40730   4.494   1.002  12.015  0.0441 -0.2271 -0.1406
34281W        W40731   9.526   0.747  28.183  0.0363 -0.1653 -0.0650
34282W        W40732   6.538   4.046  30.470 -0.0025 -0.3274  0.1921
34283W        W40733   6.163   3.060  12.449 -0.0378  0.1137  0.0628
34284W        W40734   8.210   1.026  13.486  0.2152 -0.0630  0.0318
34285W        W40735  15.820   2.604  14.455 -0.0841 -0.4811  0.0245
34286W        W40736  18.870   6.256  13.731  0.0621  0.2205  0.1644
34287W        W40737   9.155   3.655  10.156  0.1407  0.0419  0.2516
34288W        W40738  17.736   0.898  32.009 -0.0141  0.0578  0.0293
34289W        W40739  13.102   1.575  35.429 -0.0999 -0.2320 -0.0593
34290W        W40740   5.464   2.704   1.210 -0.0574 -0.0974 -0.1177
34291W        W40741  18.124   4.292  36.875  0.2056 -0.0650 -0.3820
34292W        W40742   1.365   0.798  43.959 -0.1271 -0.1014 -0.3025
34293W        W40743  20.858   3.782  20.154 -0.1921  0.3265  0.1469
34294W        W40744   2.254   4.287  43.411 -0.0373 -0.2769 -0.1083
34295W        W40745  14.048   5.718  30.074 -0.0104 -0.2361 -0.0345
34296W        W40746   4.501   2.092  15.191  0.1765 -0.2059  0.1446
34297W        W40747   7.284   4.591  10.041  0.1348  0.0752 -0.0083
34298W        W40748   1.185   2.336  41.409  0.4872  0.0674  0.1195
34299W        W40749  17.955   5.405   4.889  0.0265 -0.1038 -0.1363
34300W        W40750  17.586   2.637   2.257 -0.2416 -0.1288  0.2673
34301W        W40751   3.347   6.304   1.949 -0.2763  0.0534 -0.0013
34302W        W40752  10.835   3.193  26.899  0.0243  0.0817  0.0709
34303W        W40753  14.545   2.310  19.467 -0.0204  0.2764  0.1285
34304W        W40754  20.598   1.138  36.510  0.1000  0.0093  0.2206
34305W        W40755  20.846   4.201  10.934 -0.2683  0.1598  0.1125
34306W        W40756   2.467   0.637  34.335 -0.0895  0.0628 -0.2348
34307W        W40757   3.549   0.336  31.319 -0.0251  0.0031  0.2149
34308W        W40758  18.649   3.743   5.085  0.1707 -0.1839 -0.1686
34309W        W40759  17.982   2.100  22.159 -0.0838 -0.1351  0.2297
34310W        W40760  13.703   1.075  38.787 -0.1361 -0.2346 -0.0583
34311W        W40761  14.519   1.281  29.469 -0.1502 -0.5062 -0.0365
34312W        W40762  17.770   3.688   3.639 -0.0899  0.0885 -0.0338
34313W        W40763  10.806   1.307  38.078 -0.0592  0.1348 -0.3271
34314W        W40764  19.971   3.104   5.694  0.0565 -0.0591 -0.2807
34315W        W40765   7.723   2.141   6.253 -0.2851  0.1140 -0.0509
34316W        W40766  10.753   0.256  38.171  0.3938  0.0290  0.1513
34317W        W40767  17.251   2.213  29.592  0.0778 -0.2012 -0.1154
34318W        W40768   2.807   6.205  38.668  0.0389 -0.1290  0.0145
34319W        W40769   5.307   3.364  40.668  0.1414  0.4928 -0.0122
34320W        W40770   4.519   4.008  39.209  0.1803  0.0834  0.2318
34321W        W40771  13.058   6.596  10.109  0.0598 -0.0510  0.0766
34322W        W40772  17.329   1.855  18.683  0.1615 -0.0344 -0.1503
34323W        W40773  15.440   3.227   0.097  0.0865  0.2713 -0.2877
34324W        W40774  18.629   2.664   9.358  0.0995 -0.1725  0.1033
34325W        W40775  11.327   5.472  35.097  0.0914 -0.0080  0.1583
34326W        W40776   7.977   4.598  29.653  0.0766  0.3429 -0.0101
34327W        W40777   8.694   3.205  26.247  0.0669 -0.0546  0.1294
34328W        W40778   6.908   6.592  23.118  0.1143  0.1220  0.0331
34329W        W40779  15.830   1.949  18.410 -0.0144 -0.1595 -0.4401
34330W        W40780  10.028   1.424   8.365 -0.2750  0.1960  0.1444
34331W        W40781  19.185   2.124  35.162  0.1191 -0.0842 -0.0694
34332W        W40782   6.704   1.882  38.253 -0.0251 -0.0236 -0.2802
34333W        W40783   3.614   4.906  29.140 -0.0852  0.1137  0.1566
34334W        W40784  10.665   2.596  45.113 -0.0816  0.1574  0.0948
34335W        W40785  17.208   6.587   0.122 -0.1396 -0.1875 -0.0919
34336W        W40786  18.938   1.536  15.660 -0.1008  0.0273  0.3053
34337W        W40787  17.107   3.280   6.852 -0.0977  0.1844 -0.3042
34338W        W40788   3.593   5.714   3.735 -0.0391 -0.0003  0.1574
34339W        W40789   6.525   3.945   2.376 -0.0906 -0.0699 -0.2727
34340W        W40790   3.728   5.942  14.912 -0.0100  0.1057 -0.3942
34341W        W40791   9.372   1.182  38.818  0.1310  0.0427 -0.1516
34342W        W40792  18.351   5.449  36.805  0.1081 -0.2287 -0.0010
34343W        W40793  15.248   2.046  31.195  0.0331  0.1264  0.4207
34344W        W40794   3.269   2.177  32.746  0.0319  0.0756 -0.0154
34345W        W40795   2.859   6.313   6.721  0.2896 -0.1740  0.0324
34346W        W40796  16.937   3.187  43.941 -0.0330 -0.1435  0.0494
34347W        W40797  16.887   0.375  21.755  0.0233 -0.2016 -0.1536
34348W        W40798  17.966   5.292   6.238  0.0199 -0.2644 -0.1588
34349W        W40799   2.083   5.178  39.560  0.1192 -0.1243  0.2863
34350W        W40800  21.071   5.256   8.988  0.0019  0.1526  0.0183
34351W        W40801   7.648   1.763  24.800 -0.0099  0.1967 -0.0510
34352W        W40802  16.750   0.584  16.883 -0.2876  0.1568 -0.2822
34353W        W40803  13.011   5.724   1.911 -0.2419 -0.1306 -0.0508
34354W        W40804   9.288   5.978  16.001 -0.0910  0.0095 -0.1207
34355W        W40805  12.887   1.966  41.358  0.0232 -0.1409 -0.1280
34356W        W40806   0.042   5.761  36.167 -0.1441 -0.0045 -0.0378
34357W        W40807   3.806   5.220   8.019 -0.0900  0.4972 -0.3749
34358W        W40808  16.555   1.333  40.376 -0.0110  0.0977  0.0653
34359W        W40809   1.371   4.500  16.488 -0.2131 -0.2952 -0.0538
34360W        W40810   5.265   3.171  32.704 -0.2227  0.0084  0.1011
34361W        W40811  18.882   4.615   8.890  0.2287  0.2945 -0.1727
34362W        W40812   9.934   4.982  40.099  0.0458 -0.0529 -0.1680
34363W        W40813   3.816   1.665  22.829  0.2478  0.1760  0.0642
34364W        W40814  15.949   3.189  26.787  0.3040 -0.1341 -0.0172
34365W        W40815  12.852   4.426  11.104  0.2342  0.1983  0.1735
34366W        W40816  10.964   1.266  35.978 -0.1235  0.1041  0.0322
34367W        W40817   8.756   1.687  23.512  0.0631 -0.5155  0.2607
34368W        W40818   7.785   0.993  38.228 -0.1008 -0.0331 -0.2273
34369W        W40819   5.481   0.384  38.767 -0.0282  0.3282  0.1022
34370W        W40820   5.608   4.641  43.004 -0.1834  0.2662  0.1432
34371W        W40821  14.571   5.532  22.015 -0.0033 -0.2796 -0.1000
34372W        W40822   1.821   2.454   5.986  0.0239  0.0253  0.2535
34373W        W40823   0.950   1.335  42.963  0.0613  0.1418 -0.1004
34374W        W40824   6.173   3.961  29.031 -0.1732  0.2542  0.0180
34375W        W40825   4.921   2.581  23.951 -0.2173  0.2058 -0.1265
34376W        W40826  18.759   2.599  29.336 -0.2572 -0.0386 -0.1962
34377W        W40827  16.538   1.136   7.386  0.3769 -0.1462  0.1184
34378W        W40828   5.268   6.386  25.648 -0.2698  0.2749  0.0245
34379W        W40829  18.839   2.502  14.512 -0.0891 -0.0033  0.1531
34380W        W40830  21.018   3.725  18.898 -0.0341  0.6795  0.1949
34381W        W40831   2.784   2.827  31.415  0.0012 -0.0763 -0.0887
34382W        W40832   5.829   0.246  27.061 -0.0886  0.5222 -0.2093
34383W        W40833   7.438   4.579  13.917 -0.2223  0.1809 -0.0298
34384W        W40834  16.315   4.574  13.432  0.0681  0.3742  0.0956
34385W        W40835  19.099   3.582  44.756 -0.2406  0.1137  0.3460
34386W        W40836  18.896   3.139   0.332  0.1405  0.3280  0.2300
34387W        W40837   7.459   0.315  31.240  0.1797 -0.1522 -0.1929
34388W        W40838  13.883   1.779  33.644  0.3722  0.0057  0.0517
34389W        W40839   7.006   2.579  36.769  0.2366  0.0917  0.0230
34390W        W40840   7.461   3.362   4.916  0.2678 -0.0770  0.1172
34391W        W40841   5.734   4.813  20.090  0.0975 -0.1741  0.2019
34392W        W40842   0.489   2.346   2.345  0.0742  0.0133 -0.1456
34393W        W40843   4.329   6.219   4.996 -0.0260 -0.1572  0.0544
34394W        W40844   7.839   3.557  27.346  0.1143  0.0475  0.2082
34395W        W40845  13.493   2.611  41.793  0.2099  0.3175 -0.0734
34396W        W40846   5.730   1.334  38.427  0.0923  0.0110 -0.0810
34397W        W40847  12.278   3.145  42.203 -0.3918 -0.3229  0.0431
34398W        W40848  13.057   1.904   0.998 -0.1743  0.1717  0.0121
34399W        W40849   6.925   4.857  38.097 -0.2270  0.2292  0.1894
34400W        W40850   0.456   3.569  12.353  0.1351 -0.0635  0.1087
34401W        W40851  15.969   0.621   1.496  0.1967 -0.1981  0.1991
34402W        W40852   1.689   2.012  34.248 -0.0932  0.0743 -0.4533
34403W        W40853   1.554   3.839  44.638 -0.0801  0.0415  0.0796
34404W        W40854  20.958   6.283   1.084 -0.0879 -0.2517 -0.4685
34405W        W40855   0.758   2.015  16.133  0.3104  0.0712  0.3428
34406W        W40856  15.819   0.360  17.808  0.1176 -0.0868 -0.0810
34407W        W40857  10.203   1.543  30.088  0.0684 -0.0706 -0.1388
34408W        W40858  17.926   4.603  35.941 -0.1785  0.0535 -0.1082
34409W        W40859  12.667   4.790  41.277 -0.0915 -0.1335 -0.0911
34410W        W40860   1.096   2.139  42.806 -0.0453  0.1668 -0.2600
34411W        W40861  18.844   0.911  40.062 -0.0937 -0.0836 -0.2721
34412W        W40862   6.923   2.250   7.144  0.1299  0.1061  0.1819
34413W        W40863   3.056   5.453  42.918  0.3019  0.0451  0.0177
34414W        W40864   5.841   2.813  43.531  0.0990 -0.0811  0.2628
34415W        W40865  11.013   6.575   4.226 -0.1641  0.2473 -0.0409
34416W        W40866   8.782   2.155   0.201  0.0762  0.2586 -0.0124
34417W        W40867   5.475   1.545  21.824  0.0543  0.1074  0.1202
34418W        W40868   8.999   3.227   5.202 -0.0313 -0.0512 -0.0571
34419W        W40869  18.393   1.544  30.103 -0.0163 -0.1073  0.1289
34420W        W40870  12.160   4.660   4.840  0.1972 -0.0853  0.0573
34421W        W40871  11.222   5.190  11.144 -0.1274 -0.0915  0.3446
34422W        W40872   9.457   6.608   8.852 -0.0684 -0.0467  0.0585
34423W        W40873  14.896   3.539  30.756  0.0589 -0.2560  0.1049
34424W        W40874  15.547   5.274  16.569 -0.0279 -0.3030 -0.0601
34425W        W40875  18.057   4.563  40.584 -0.0416 -0.4012 -0.0400
34426W        W40876  21.102   2.952  40.294  0.0338  0.2810  0.0528
34427W        W40877  15.898   5.587  29.291  0.0020  0.1123  0.1980
34428W        W40878  19.392   4.425  10.437 -0.0877  0.1767  0.1552
34429W        W40879   6.728   0.213  29.615 -0.0637 -0.0389  0.2200
34430W        W40880   7.791   0.780  36.732  0.1183  0.0502  0.3564
34431W        W40881   0.656   4.269  12.647  0.4233 -0.0596  0.4088
34432W        W40882   7.410   6.466  35.066  0.2299 -0.0058 -0.2581
34433W        W40883  10.302   1.001  39.135  0.1102  0.2857  0.0896
34434W        W40884  16.631   3.301  22.426  0.0970  0.0053 -0.1871
34435W        W40885   2.695   1.211  31.307 -0.4220 -0.1761  0.1849
34436W        W40886  18.376   6.504  29.993  0.0345 -0.3060  0.2628
34437W        W40887  20.922   5.696  14.318  0.0857 -0.0234 -0.1945
34438W        W40888  13.670   3.090  10.699  0.3281 -0.1451 -0.3441
34439W        W40889   3.194   4.233   9.796  0.3241 -0.0154 -0.3143
34440W        W40890  10.388   3.369   9.661  0.0631 -0.0917  0.1761
34441W        W40891  20.369   0.718  15.265  0.1377  0.2286  0.0883
34442W        W40892  14.584   0.433  19.721  0.0775 -0.0801  0.2290
34443W        W40893  20.437   6.246  14.521  0.1299  0.1837 -0.0832
34444W        W40894  17.245   5.879  12.179 -0.1082  0.0097  0.0415
34445W        W40895  18.794   3.652   6.985 -0.1129  0.1397 -0.0464
34446W        W40896   9.948   3.947  42.086 -0.0120  0.2145 -0.3357
34447W        W40897  10.958   1.211   8.172  0.2980 -0.1122 -0.1727
34448W        W40898  19.959   5.876  30.991  0.2625  0.2330  0.3247
34449W        W40899  19.637   2.467  43.398  0.1610  0.1729  0.0657
34450W        W40900  12.967   0.376  17.707  0.0984 -0.2574 -0.1699
34451W        W40901  17.906   2.309  12.292  0.1873  0.2130 -0.0579
34452W        W40902  12.368   1.778  18.841  0.1678  0.1333 -0.2387
34453W        W40903   5.058   5.510  40.221  0.1589 -0.1433  0.0121
34454W        W40904  11.630   6.093   3.062 -0.0617  0.0352  0.1265
34455W        W40905  16.759   1.938  32.443  0.0711  0.1741 -0.2708
34456W        W40906  13.903   0.919   0.234  0.4715 -0.1129 -0.1238
34457W        W40907   4.096   5.580   9.730 -0.1505 -0.2630  0.3000
34458W        W40908   2.230   6.069  32.241  0.3260 -0.0478 -0.3868
34459W        W40909   4.216   2.495  31.394  0.0706  0.3853  0.2835
34460W        W40910   5.860   1.326  23.059 -0.3073  0.2878 -0.0366
34461W        W40911  13.000   4.163  39.223 -0.0964  0.1405  0.0663
34462W        W40912   1.669   6.258  39.352 -0.1399  0.2759 -0.1138
34463W        W40913  18.547   2.990  11.869  0.4584 -0.2517 -0.1876
34464W        W40914  15.506   4.694   5.449  0.0655  0.0387  0.0042
34465W        W40915   6.006   2.536  21.810 -0.2447  0.0082 -0.0280
34466W        W40916  19.491   0.066  18.898 -0.2214 -0.0490 -0.0738
34467W        W40917  19.477   6.473   8.507  0.2788  0.1785 -0.1146
34468W        W40918  18.967   1.879  37.150  0.0857 -0.0377 -0.0340
34469W        W40919   8.674   0.930   0.977  0.2123 -0.2084 -0.0619
34470W        W40920   6.461   0.319  41.066  0.1466 -0.0171  0.1228
34471W        W40921  16.825   4.414   0.745 -0.1111  0.0863  0.1730
34472W        W40922   9.605   2.778  28.700  0.0048  0.1743  0.2420
34473W        W40923  19.822   6.213   5.499  0.0874  0.1521 -0.0657
34474W        W40924   2.898   0.553   4.776 -0.4147 -0.1693  0.0283
34475W        W40925  20.865   1.379   7.181 -0.0811  0.0033 -0.0088
34476W        W40926  14.047   4.398  11.549 -0.4121  0.3284  0.1315
34477W        W40927   7.886   2.086  27.629  0.2499  0.1518  0.0198
34478W        W40928   4.647   1.627   3.125  0.1544  0.2020  0.1542
34479W        W40929   1.180   5.406  34.849 -0.1180  0.0492 -0.1980
34480W        W40930   0.032   4.779  28.500 -0.2578  0.1376  0.1422
34481W        W40931   9.211   1.590  10.964  0.1343 -0.2442 -0.1852
34482W        W40932   7.459   5.771  33.594 -0.2460  0.0169  0.3117
34483W        W40933   8.222   0.451   4.299  0.2712  0.0802 -0.1217
34484W        W40934  12.935   2.034  38.683 -0.0624 -0.5393 -0.2859
34485W        W40935  21.095   1.565   8.480 -0.0463  0.1033 -0.0712
34486W        W40936   3.503   1.067   3.150  0.2328  0.1359  0.0369
34487W        W40937  14.903   1.511  31.911  0.1930  0.1110  0.1836
34488W        W40938  10.874   6.570  15.112  0.0125 -0.1833 -0.0710
34489W        W40939  14.625   0.945  13.195 -0.2552  0.2973 -0.1497
34490W        W40940   6.245   2.483  42.623 -0.0698 -0.0483 -0.1404
34491W        W40941  15.032   3.052  14.536 -0.0172 -0.1863  0.1757
34492W        W40942  16.400   0.984  37.267  0.1623  0.0907  0.3372
34493W        W40943   9.755   5.071  40.581 -0.0974 -0.2953 -0.0728
34494W        W40944   1.334   0.259   7.979 -0.2195 -0.1265 -0.1078
34495W        W40945   7.288   3.228  22.468  0.0603  0.1546  0.0120
34496W        W40946   2.004   6.330  10.475 -0.0723  0.1803  0.0760
34497W        W40947   6.072   1.586  10.707  0.0484  0.0057  0.1295
34498W        W40948   7.581   3.921   7.691 -0.1592  0.1448  0.2606
34499W        W40949   1.756   4.272  13.079 -0.3448 -0.0454 -0.0542
34500W        W40950  20.467   3.727  44.582 -0.2315  0.3903  0.0796
34501W        W40951  16.627   2.299  24.920 -0.0649 -0.3892  0.1838
34502W        W40952  15.333   2.819  42.976 -0.1118  0.0124  0.0468
34503W        W40953  10.114   1.991  28.694 -0.1192  0.1393  0.0878
34504W        W40954   9.453   0.735  36.323  0.1318 -0.2174 -0.2996
34505W        W40955   8.630   0.973  24.679  0.0508  0.3937 -0.1344
34506W        W40956  14.141   2.840   2.790 -0.0902  0.0917  0.2058
34507W        W40957   3.787   3.342  14.134  0.1656 -0.0275 -0.0112
34508W        W40958  12.695   4.238  12.358 -0.1348  0.0990 -0.1023
34509W        W40959   5.448   1.075  21.168 -0.0420 -0.0597 -0.0608
34510W        W40960  17.658   0.981   4.560 -0.0746  0.0590  0.1651
34511W        W40961   6.210   0.051  20.722  0.0922 -0.0837 -0.1416
34512W        W40962   1.579   1.424  26.157  0.4281  0.1552 -0.1505
34513W        W40963  19.578   3.193  30.940 -0.0171  0.5010  0.0487
34514W        W40964  10.216   1.646  24.655 -0.1552 -0.0108  0.0228
34515W        W40965  14.427   0.537   0.210  0.3779  0.0775 -0.0596
34516W        W40966   3.575   2.289  41.326  0.0445  0.0754 -0.0107
34517W        W40967   2.418   0.285  40.667 -0.2127  0.0161  0.1549
34518W        W40968  12.463   1.467  44.421 -0.1687  0.0625 -0.2230
34519W        W40969  17.307   4.960   5.162 -0.1976 -0.0685 -0.3868
34520W        W40970  20.735   0.588  28.195  0.1343  0.0351 -0.0747
34521W        W40971   0.634   5.042   2.764  0.1697 -0.1069 -0.1634
34522W        W40972   5.059   5.213   4.575  0.0582 -0.0444  0.0979
34523W        W40973   6.225   2.122   6.112 -0.0603 -0.0309  0.0379
34524W        W40974  11.685   0.920  36.459  0.0549 -0.0425 -0.0708
34525W        W40975  11.322   5.839  11.949 -0.2447 -0.1538 -0.2152
34526W        W40976   2.191   0.005  15.500 -0.2087  0.3359 -0.2121
34527W        W40977  16.814   1.501  18.816  0.3415 -0.2318  0.1021
34528W        W40978  11.290   0.827  36.708 -0.0028  0.0565  0.0028
34529W        W40979  13.085   1.198  30.421  0.2215  0.3159  0.0671
34530W        W40980   4.942   2.088  24.641  0.3056 -0.4989 -0.0838
34531W        W40981  21.042   0.868  27.934 -0.0010 -0.2189  0.0396
34532W        W40982   1.822   3.728  13.237  0.1935  0.1434  0.2421
34533W        W40983  10.189   0.595   2.140 -0.1456  0.0868  0.0516
34534W        W40984  15.754   5.574  16.238  0.0171  0.0556 -0.0328
34535W        W40985  11.770   5.190  35.195 -0.0518 -0.1128 -0.0095
34536W        W40986  20.639   0.495   5.559 -0.1690 -0.1958 -0.2119
34537W        W40987  15.006   4.417   9.736  0.1801  0.0407  0.0504
34538W        W40988  13.785   2.263  19.382 -0.0706 -0.0580 -0.2363
34539W        W40989  13.218   5.276  16.530  0.2529 -0.0725  0.0524
34540W        W40990  11.194   5.225  41.395 -0.1200  0.0339 -0.3312
34541W        W40991   5.366   5.068   7.539 -0.1987  0.0099  0.1819
34542W        W40992   7.098   0.763  21.604 -0.2158  0.0631  0.2343
34543W        W40993  15.962   3.056  14.191  0.1751 -0.0432 -0.0470
34544W        W40994  14.391   0.452  38.401  0.0868  0.1377  0.1536
34545W        W40995  18.346   4.952  34.838  0.3378 -0.1748 -0.0305
34546W        W40996  10.276   1.988  14.285  0.0254  0.4419 -0.0658
34547W        W40997   3.316   3.346  34.306 -0.1879  0.0357  0.0556
34548W        W40998  14.849   0.449  34.571 -0.1923 -0.0166 -0.2898
34549W        W40999  17.088   1.430   4.485  0.0787 -0.2133 -0.2210
34550W        W41000  12.560   2.770   9.371  0.0687 -0.3930  0.0774
34551W        W41001  18.528   2.907   7.332  0.1640 -0.2091  0.0313
34552W        W41002  10.798   2.746   1.552  0.0575  0.0578  0.1416
34553W        W41003   6.208   1.604   1.131  0.0884 -0.0475 -0.0904
34554W        W41004  13.327   2.933  34.933  0.0762 -0.0237  0.0500
34555W        W41005   4.391   5.128  43.485 -0.1384  0.0368 -0.1187
34556W        W41006   5.725   3.745  10.821 -0.1263  0.1563  0.2549
34557W        W41007  12.758   5.293  43.260  0.4003 -0.0200  0.1704
34558W        W41008   0.100   4.572   2.461  0.1232 -0.0718  0.1228
34559W        W41009   1.215   5.440  29.822  0.1636  0.0513 -0.2334
34560W        W41010  16.590   2.680  38.998 -0.0720 -0.1343 -0.0038
34561W        W41011   7.683   3.894  35.687  0.2293  0.3363 -0.0522
34562W        W41012   5.561   3.691  23.090 -0.1613 -0.3360 -0.0902
34563W        W41013  17.446   0.209  22.061  0.1401 -0.2720 -0.2909
34564W        W41014   8.439   5.086  30.979 -0.2173  0.1192  0.2065
34565W        W41015   1.822   3.010  31.682  0.0709  0.0485  0.0896
34566W        W41016   3.437   3.596  23.573  0.0260  0.2354 -0.0076
34567W        W41017  15.371   5.807  35.674 -0.0485 -0.0100 -0.0522
34568W        W41018   5.846   0.413  32.524 -0.0424 -0.3202 -0.1210
34569W        W41019   8.001   6.045  10.105  0.1680 -0.0355  0.1705
34570W        W41020  19.334   0.546  36.440  0.0119 -0.3575  0.0812
34571W        W41021   3.513   4.333  41.760 -0.2900  0.0292  0.2039
34572W        W41022   3.025   3.398   6.018  0.2282  0.1781  0.4694
34573W        W41023   0.844   1.529  19.014 -0.3514  0.0885 -0.0452
34574W        W41024   5.696   0.566   4.468  0.0396 -0.2175 -0.2536
34575W        W41025   3.247   3.937  35.128  0.0890 -0.1541  0.1184
34576W        W41026  14.249   2.534  30.343  0.1052 -0.1186 -0.2627
34577W        W41027  14.795   5.099  21.644 -0.3932 -0.1643 -0.3155
34578W        W41028  16.266   0.956   0.377 -0.0815 -0.2250 -0.1774
34579W        W41029   0.922   2.215  45.073 -0.0453  0.2268  0.2617
34580W        W41030  20.499   0.482  17.919  0.0405  0.1244  0.0935
34581W        W41031  18.585   1.888  21.264 -0.1313  0.1885  0.1572
34582W        W41032   5.008   5.545  16.355 -0.1869 -0.4256  0.0724
34583W        W41033  11.661   4.279  34.672  0.1407 -0.1535  0.0303
34584W        W41034   5.951   5.209  44.165 -0.2556 -0.0172 -0.1945
34585W        W41035   2.412   2.687  31.841  0.1993  0.0152  0.2156
34586W        W41036  19.718   6.032  34.929 -0.0058 -0.0241 -0.0185
34587W        W41037  12.023   3.028  41.204 -0.1722  0.0383  0.2476
34588W        W41038  16.733   1.975  44.745 -0.2173 -0.0997 -0.1480
34589W        W41039  16.391   0.621  11.253 -0.2307 -0.4119 -0.0392
34590W        W41040   0.796   1.185  29.318  0.0774 -0.0683 -0.2665
34591W        W41041   6.774   6.472  16.406 -0.0330 -0.0814 -0.1181
34592W        W41042   8.744   3.023  23.977  0.0412 -0.2975  0.1025
34593W        W41043  17.727   6.526  16.433 -0.0873 -0.0999  0.0299
34594W        W41044   9.982   5.569   9.519  0.2870 -0.1224  0.0556
34595W        W41045  16.835   2.795  10.676 -0.0913 -0.0916 -0.0573
34596W        W41046   2.045   4.305  40.523 -0.1803 -0.0115 -0.0616
34597W        W41047  18.608   5.980  22.007  0.3330 -0.0389 -0.0680
34598W        W41048  14.936   3.661   4.842 -0.1506  0.2585  0.0279
34599W        W41049  14.919   0.210  43.796 -0.0393 -0.0764  0.1753
34600W        W41050  17.332   3.095  16.700  0.1231  0.1447 -0.0120
34601W        W41051   6.502   0.605  15.073 -0.0283  0.3060  0.2131
34602W        W41052   5.305   6.094   3.475  0.2291  0.1473  0.2329
34603W        W41053   3.946   2.899  33.752  0.1766  0.0467  0.2240
34604W        W41054  19.001   0.683  33.981  0.2450  0.2132  0.1639
34605W        W41055   9.012   5.805  38.410  0.1568  0.0065  0.0661
34606W        W41056   8.548   0.743  30.915  0.4194  0.3583  0.0776
34607W        W41057  10.712   5.857  44.919 -0.2953 -0.1994  0.0350
34608W        W41058  17.754   3.081  36.871 -0.2588 -0.1655 -0.2872
34609W        W41059  10.800   4.569  16.134  0.0277 -0.0124 -0.2879
34610W        W41060   4.520   4.484  15.572  0.0133 -0.4748  0.0247
34611W        W41061   3.588   1.831  36.158 -0.0227 -0.0994  0.2269
34612W        W41062  20.871   6.406  12.401 -0.0979  0.2329  0.0442
34613W        W41063  18.169   5.919  31.527  0.0664  0.1751  0.1447
34614W        W41064   1.886   5.186  13.010  0.3295  0.0115  0.2353
34615W        W41065   1.203   5.021   0.899 -0.0418 -0.2650 -0.2337
34616W        W41066   5.916   5.201  25.895  0.1531  0.0496 -0.1221
34617W        W41067  14.013   5.966  13.960 -0.0910 -0.0824  0.0785
34618W        W41068   9.117   2.788   8.428  0.1899 -0.0409 -0.1042
34619W        W41069  15.736   3.552  32.975  0.0720  0.1689  0.2020
34620W        W41070  16.955   5.072  14.790  0.0004 -0.4388  0.1914
34621W        W41071   0.816   3.169   4.563  0.1839  0.2211 -0.1401
34622W        W41072  18.708   6.261  19.184  0.0938 -0.0766  0.0419
34623W        W41073  14.938   5.966  17.538 -0.0657  0.0455 -0.0480
34624W        W41074   6.827   1.160  21.744 -0.2710  0.0972  0.1496
34625W        W41075   6.720   0.257  35.367 -0.3377  0.0836  0.2476
34626W        W41076  14.597   5.604  14.329  0.3260  0.0716 -0.0588
34627W        W41077  19.987   1.643  31.908  0.1890  0.2459 -0.2983
34628W        W41078  11.782   1.456  31.708  0.3060  0.1010  0.1353
34629W        W41079  20.600   0.328  35.635  0.1599 -0.2828  0.0399
34630W        W41080   9.199   0.218  36.462  0.0865  0.3020 -0.1816
34631W        W41081  15.031   0.957  33.101  0.0358 -0.1527  0.2263
34632W        W41082   9.354   0.725  32.100  0.1733  0.0722  0.0943
34633W        W41083   9.661   3.934  10.215  0.0404  0.0543  0.0403
34634W        W41084   3.392   6.246  26.219 -0.2874 -0.3569  0.1613
34635W        W41085   9.503   4.212  40.104  0.2963 -0.0190  0.0550
34636W        W41086  10.287   3.222  25.802 -0.4294 -0.0930 -0.2657
34637W        W41087  18.466   3.981  44.027 -0.0340  0.0260  0.2339
34638W        W41088   0.288   4.705  32.870  0.0634 -0.0415 -0.1385
34639W        W41089   7.370   1.007  25.282  0.0505 -0.1354 -0.3888
34640W        W41090  11.057   0.902  28.213  0.0030  0.1208 -0.0230
34641W        W41091   7.487   2.617   6.229 -0.2975 -0.0043  0.1828
34642W        W41092   9.498   1.763   8.794  0.1987  0.2378  0.0487
34643W        W41093  20.805   5.936  35.550  0.0775  0.0660  0.3041
34644W        W41094  19.416   4.265  30.829 -0.0986  0.2025 -0.0607
34645W        W41095  12.602   0.143  34.126  0.1673 -0.1982 -0.0816
34646W        W41096  20.552   4.382  16.653  0.0605 -0.2589  0.0590
34647W        W41097   7.341   2.188  15.294 -0.0330 -0.0562 -0.3356
34648W        W41098  11.160   1.380  15.253 -0.1194 -0.1670  0.0390
34649W        W41099  15.750   2.618  16.172  0.0995 -0.3167  0.0973
34650W        W41100   2.184   0.846  11.305  0.3534  0.2683  0.0884
34651W        W41101  19.068   3.454   2.141  0.1030  0.1682  0.2614
34652W        W41102  15.144   1.168  12.354  0.2453 -0.1139  0.1750
34653W        W41103  18.120   6.147  44.669 -0.0786 -0.1786  0.0680
34654W        W41104   1.257   4.892   8.261  0.1775  0.1847 -0.0348
34655W        W41105  18.777   0.414  13.246 -0.3475  0.1167 -0.0149
34656W        W41106  14.730   4.077   3.036  0.4178  0.1123 -0.2899
34657W        W41107   1.604   5.475  41.284  0.1216  0.0758 -0.1901
34658W        W41108  19.280   1.890  19.635 -0.3137  0.3478  0.0727
34659W        W41109  16.488   0.812  44.091 -0.1828 -0.2473 -0.1267
34660W        W41110  17.646   5.363  35.688  0.0361 -0.0257 -0.2403
34661W        W41111   6.956   0.923  28.471 -0.0219  0.0118  0.0588
34662W        W41112  19.768   1.208  41.000  0.0073 -0.0622 -0.0320
34663W        W41113  19.914   0.527  17.278  0.1913  0.0575 -0.0122
34664W        W41114   6.629   0.380  10.723  0.0295 -0.0406  0.1540
34665W        W41115  17.178   1.293   9.825  0.2614 -0.2192  0.2771
34666W        W41116   1.117   4.626  33.569 -0.1733 -0.0976  0.2444
34667W        W41117   0.673   4.662  14.835 -0.2200 -0.0589 -0.1593
34668W        W41118  16.598   5.615   6.532  0.1183  0.2307  0.1386
34669W        W41119  19.977   0.447  37.722 -0.1666 -0.1388  0.2279
34670W        W41120  14.387   3.559  12.570  0.0962  0.0472  0.0076
34671W        W41121  10.115   0.035  12.627 -0.0430  0.3422 -0.3352
34672W        W41122   1.165   0.198  14.904  0.1232  0.2187  0.3334
34673W        W41123   5.383   4.440  11.421 -0.0251 -0.1677  0.1516
34674W        W41124   4.050   5.697  28.634 -0.3804 -0.0329  0.1112
34675W        W41125   8.806   3.197   5.896 -0.0312  0.2409 -0.0900
34676W        W41126   3.603   6.136   4.692  0.1110  0.0661 -0.1340
34677W        W41127  13.557   1.022   3.686  0.2844  0.1454  0.0233
34678W        W41128   9.145   4.698   3.287  0.4196  0.3029 -0.1830
34679W        W41129  11.540   4.337  19.589 -0.0659 -0.0827 -0.1999
34680W        W41130  16.900   1.828  18.402 -0.2875 -0.2197 -0.3393
34681W        W41131  14.172   5.717  43.795  0.1391 -0.1617 -0.2035
34682W        W41132   6.620   3.579   4.045  0.0208 -0.0018 -0.1204
34683W        W41133   2.682   6.523  29.609  0.1580  0.0776  0.0657
34684W        W41134  16.066   4.363  31.700 -0.2782 -0.2241  0.2850
34685W        W41135  15.142   2.270  18.897  0.1532 -0.0569  0.1282
34686W        W41136  17.542   0.124  36.763  0.0002  0.0605 -0.1553
34687W        W41137  17.036   1.875   8.302 -0.4710 -0.0732 -0.1481
34688W        W41138   1.084   0.022   2.380 -0.3061  0.1733  0.1903
34689W        W41139  17.972   1.654  33.678  0.1289 -0.1727  0.1002
34690W        W41140  19.333   5.578   8.090 -0.0001  0.2281 -0.0734
34691W        W41141  14.310   6.553   5.437 -0.1898 -0.3189 -0.0131
34692W        W41142  13.059   5.417   3.786 -0.2052 -0.0230 -0.0089
34693W        W41143  16.190   1.867  14.907  0.0162 -0.2011  0.1236
34694W        W41144  13.960   5.522  10.634 -0.3222  0.0101 -0.3621
34695W        W41145   2.530   1.770   3.904 -0.0869  0.2799 -0.4947
34696W        W41146   8.992   2.160  38.599 -0.2414  0.1611 -0.0916
34697W        W41147   0.282   1.371   3.692 -0.2935  0.0310 -0.2708
34698W        W41148  18.855   0.337   0.160 -0.0950  0.1152  0.2247
34699W        W41149  13.419   6.604  10.491  0.1378  0.2509  0.1617
34700W        W41150   5.886   4.963  33.485  0.1316 -0.2485 -0.2593
34701W        W41151   4.970   5.019  12.563 -0.3079  0.2157  0.2541
34702W        W41152  11.555   2.291  15.414  0.0112 -0.2285 -0.1625
34703W        W41153  13.978   1.900  11.415 -0.1299  0.2596  0.0019
34704W        W41154   5.704   4.631  41.765 -0.1250 -0.3185 -0.1503
34705W        W41155  14.069   6.503   9.279 -0.0038  0.2963 -0.0941
34706W        W41156  20.278   4.558  30.246  0.1308  0.3466  0.0593
34707W        W41157   5.773   3.896  21.486 -0.2471 -0.0593  0.1912
34708W        W41158   4.473   6.202  15.579  0.1468  0.1408  0.2059
34709W        W41159   7.983   3.418  30.676 -0.1964  0.2533  0.2818
34710W        W41160   7.390   2.346  12.830  0.0521  0.0061 -0.1547
34711W        W41161  20.926   0.234   8.894 -0.1068  0.3807 -0.0322
34712W        W41162  12.914   3.283  13.775 -0.1269  0.1066 -0.0476
34713W        W41163  19.419   5.615  34.805  0.1480  0.1836 -0.1919
34714W        W41164   6.618   6.066  35.019  0.0968 -0.0962  0.1221
34715W        W41165  14.445   2.163  20.864  0.0456 -0.0812  0.1777
34716W        W41166   0.841   2.916   5.839  0.0460  0.1695  0.2182
34717W        W41167  12.033   5.808  35.237 -0.2882 -0.1831 -0.0614
34718W        W41168  11.307   0.642   4.598  0.0387  0.2376  0.3490
34719W        W41169  20.502   4.364  34.291  0.0649 -0.1978  0.2891
34720W        W41170  10.435   0.792  29.718 -0.0499 -0.2120  0.0558
34721W        W41171   4.592   0.785   4.376 -0.0226 -0.1925  0.2607
34722W        W41172  10.503   2.970  15.317 -0.0804  0.2869 -0.2145
34723W        W41173   4.967   3.780  44.721  0.0390 -0.2844  0.0279
34724W        W41174  13.233   2.489  14.337  0.1620  0.0112  0.2598
34725W        W41175  14.603   1.182  13.618 -0.0531 -0.0205  0.1347
34726W        W41176  19.966   1.386   9.716 -0.0615 -0.2349  0.2382
34727W        W41177   0.537   5.471  16.398 -0.1119  0.0678  0.2217
34728W        W41178  14.444   0.593  12.007 -0.1800  0.0041  0.1254
34729W        W41179  19.752   0.966   9.291 -0.0456 -0.0085  0.0818
34730W        W41180  20.863   4.322  28.308 -0.1909  0.1926  0.0856
34731W        W41181  10.086   5.743  36.551 -0.2857  0.0959  0.0014
34732W        W41182   6.611   1.653  42.519  0.0051 -0.1219 -0.0481
34733W        W41183  21.093   0.352  31.458 -0.0123 -0.1313 -0.0505
34734W        W41184  10.241   5.941  16.479  0.0913 -0.2689  0.1315
34735W        W41185  19.202   0.982  44.353  0.2671  0.0199 -0.3506
34736W        W41186   2.462   5.548   3.114 -0.1738  0.3238 -0.3269
34737W        W41187  18.012   2.414  42.630  0.0711  0.0474 -0.3256
34738W        W41188  14.676   4.157   0.152  0.0609  0.0174  0.3796
34739W        W41189   7.389   3.596   9.808 -0.3446  0.1614 -0.0424
34740W        W41190  12.807   3.209  19.875  0.2538 -0.3354  0.0381
34741W        W41191  10.506   0.617  33.849  0.2771  0.3553  0.0094
34742W        W41192   9.524   3.263  28.562 -0.0220  0.1096  0.1042
34743W        W41193  20.104   2.659  43.271  0.0435  0.1390 -0.2124
34744W        W41194   4.205   4.005  15.509  0.1108  0.1650 -0.0710
34745W        W41195   7.581   0.051   7.888  0.0348  0.0722 -0.1071
34746W        W41196   7.248   5.730  26.384 -0.0559 -0.2916 -0.2078
34747W        W41197  17.920   1.493  38.549 -0.2416  0.2935  0.0616
34748W        W41198   8.509   3.651  14.525 -0.2908 -0.4655 -0.0728
34749W        W41199  13.771   0.863  32.916 -0.0212  0.0230 -0.1518
34750W        W41200   2.840   2.411  28.267 -0.0495 -0.0440 -0.1452
34751W        W41201   6.596   0.962  15.496 -0.0545  0.0737  0.0064
34752W        W41202   2.876   5.431   5.354 -0.1244  0.0585 -0.2553
34753W        W41203   5.188   4.418  25.096  0.0295  0.0403 -0.0390
34754W        W41204  16.175   2.339  40.233 -0.1808 -0.1352 -0.0220
34755W        W41205   1.342   3.776  42.296  0.2344  0.3615  0.0820
34756W        W41206   2.695   3.235   4.544  0.0092 -0.2152  0.0195
34757W        W41207   5.617   5.610  44.596 -0.1193  0.1641  0.2419
34758W        W41208   1.138   5.596  14.076  0.1166  0.2114  0.1702
34759W        W41209   5.860   0.588   8.525 -0.1015 -0.1900 -0.0039
34760W        W41210  10.957   4.583   7.734  0.0044  0.1632 -0.1705
34761W        W41211   7.495   0.247  38.882  0.0094  0.0054 -0.2356
34762W        W41212   1.292   3.647  36.835  0.1344 -0.2611  0.0311
34763W        W41213  19.549   5.639  44.726 -0.0606  0.0697 -0.1201
34764W        W41214  10.387   5.489  15.913  0.0434  0.0148  0.0036
34765W        W41215  14.816   6.318  21.452 -0.2126  0.1719  0.1259
34766W        W41216   7.437   6.358  24.744  0.1239 -0.2124 -0.2227
34767W        W41217  15.301   2.031  17.979 -0.1511 -0.1511  0.0690
34768W        W41218  12.282   0.287   0.346 -0.1970  0.3516  0.0348
34769W        W41219   2.730   3.239  14.250 -0.1864 -0.2406 -0.2028
34770W        W41220  10.618   4.381  11.197 -0.3138 -0.0924  0.0526
34771W        W41221   5.172   2.347  32.863  0.0025 -0.0743 -0.1999
34772W        W41222  18.671   2.747  22.002  0.1181 -0.2162  0.2079
34773W        W41223  10.032   4.569   3.738  0.2774 -0.0209  0.0637
34774W        W41224  17.261   1.164  36.546  0.0114 -0.1107 -0.2844
34775W        W41225   3.730   4.697  10.713  0.0052 -0.1615  0.0167
34776W        W41226  10.393   2.485  39.289  0.1081  0.2391  0.1109
34777W        W41227  16.660   2.706  38.424  0.3713  0.0411 -0.0794
34778W        W41228   8.993   0.418   8.701  0.0347  0.0743 -0.1298
34779W        W41229  13.677   0.199   8.856 -0.0192  0.0291 -0.0396
34780W        W41230  13.953   0.580  16.691 -0.3915  0.4718  0.0350
34781W        W41231  14.634   2.501  22.437 -0.3162  0.0711 -0.0901
34782W        W41232   0.535   1.632   6.159  0.3613  0.2239  0.0087
34783W        W41233  19.113   1.185  44.968  0.0094 -0.1301 -0.0657
34784W        W41234   8.093   0.069  12.617 -0.0133 -0.0403 -0.0683
34785W        W41235  20.590   5.283  42.633  0.2090  0.2196 -0.1434
34786W        W41236  11.882   3.103  44.920  0.1156  0.2151 -0.1691
34787W        W41237  17.285   6.006  35.215 -0.1191 -0.0714 -0.3939
34788W        W41238  18.370   1.001   1.995 -0.3714  0.2972  0.1471
34789W        W41239  18.832   2.570   5.558  0.0707 -0.2306 -0.1706
34790W        W41240   9.202   4.724  26.855  0.0513 -0.3838 -0.1527
34791W        W41241   5.615   1.379  41.082 -0.1332  0.2118 -0.3444
34792W        W41242   5.694   3.457  21.207 -0.0345 -0.1114 -0.0067
34793W        W41243   0.163   0.399  17.186 -0.2339  0.2335  0.2451
34794W        W41244   6.995   0.278   1.087  0.1750 -0.0048 -0.0998
34795W        W41245  18.281   6.110  13.476 -0.1862 -0.2870  0.2645
34796W        W41246   6.896   2.621   5.791 -0.2740 -0.1520  0.2797
34797W        W41247  14.644   0.948  38.581  0.2393 -0.1874 -0.0304
34798W        W41248   0.454   5.235  32.109  0.0754  0.6612  0.1201
34799W        W41249   7.092   1.396  41.628  0.0563 -0.3060 -0.0491
34800W        W41250  11.384   2.716   0.075  0.2572 -0.1811 -0.0447
34801W        W41251  12.813   0.763  16.309  0.0470  0.0530  0.2726
34802W        W41252  20.805   5.946   8.525 -0.1239  0.0272 -0.0056
34803W        W41253  19.264   4.219  10.897 -0.0782 -0.1065  0.2478
34804W        W41254  12.716   3.915   6.233 -0.1637  0.0971 -0.0969
34805W        W41255   7.367   4.709  26.016  0.2882 -0.0891 -0.0177
34806W        W41256   8.197   2.247   6.703  0.2329 -0.2185  0.2782
34807W        W41257   2.071   1.866  33.299  0.1559 -0.2095  0.1408
34808W        W41258   5.126   5.445  31.375 -0.0672  0.0484 -0.1669
34809W        W41259   3.515   5.626  28.741 -0.2199  0.1211  0.4141
34810W        W41260   6.077   0.717   6.734  0.0002  0.2124 -0.0105
34811W        W41261  12.827   1.816   9.405 -0.1363 -0.1920 -0.0550
34812W        W41262  13.867   5.849  20.577 -0.1330 -0.2148 -0.2949
34813W        W41263   1.152   5.695  41.336  0.0039 -0.0127  0.0808
34814W        W41264  10.659   4.355  39.808  0.1033 -0.2210  0.1107
34815W        W41265   3.677   5.398  26.148 -0.1637  0.4173  0.1445
34816W        W41266  15.339   6.202   4.749 -0.0499  0.3348  0.0321
34817W        W41267   8.206   0.589  37.036 -0.1406  0.3700  0.1872
34818W        W41268  14.532   5.810   2.094 -0.0688 -0.0575  0.2599
34819W        W41269  16.633   4.015   8.846  0.0526  0.5597  0.1157
34820W        W41270  18.129   5.752   6.435  0.0919  0.0847  0.0100
34821W        W41271   8.482   1.299   5.336  0.1246  0.0740  0.1481
34822W        W41272   7.260   5.189  21.472  0.1731 -0.2245 -0.0547
34823W        W41273   8.899   0.920  33.136 -0.4364 -0.1782 -0.0173
34824W        W41274  14.660   3.378  14.197 -0.1715 -0.0363 -0.1607
34825W        W41275  13.206   5.028   6.344  0.2018 -0.0975 -0.0232
34826W        W41276  17.982   5.017  11.957  0.1294 -0.2463  0.0024
34827W        W41277   9.773   3.260  38.192 -0.1052 -0.0817  0.0357
34828W        W41278  19.543   5.290   5.897  0.1084 -0.1244  0.0227
34829W        W41279  10.655   0.168  29.058  0.2397  0.0429  0.1096
34830W        W41280  12.833   1.150  41.322  0.1086 -0.1173 -0.3320
34831W        W41281  13.960   6.266  40.465 -0.0237  0.0591  0.0650
34832W        W41282   8.442   5.490  31.287  0.2203  0.2831  0.1473
34833W        W41283   8.385   2.940  16.178 -0.2196  0.2276  0.0302
34834W        W41284  20.453   1.655   2.916 -0.0140  0.3167  0.2748
34835W        W41285  14.435   6.169   9.972  0.1001  0.0255 -0.2989
34836W        W41286   9.863   3.182  43.158 -0.1486  0.1050  0.0733
34837W        W41287  16.917   5.314  19.073 -0.1049  0.0745  0.3185
34838W        W41288  17.950   2.329   8.341 -0.2651  0.1032 -0.0730
34839W        W41289  19.609   2.011  16.114  0.1759 -0.0529  0.1259
34840W        W41290   7.747   2.696  15.006  0.0475 -0.1418 -0.1175
34841W        W41291   2.279   3.274  43.804  0.0984  0.0810 -0.2666
34842W        W41292  21.016   2.351   6.988  0.0205 -0.0335  0.1512
34843W        W41293  19.963   1.311   0.502 -0.0512  0.3048 -0.0854
34844W        W41294  17.157   4.080  22.770  0.2405  0.3488  0.0219
34845W        W41295   7.053   3.259  13.267  0.0437  0.1753  0.1445
34846W        W41296   1.682   1.871  42.090  0.0242 -0.0047 -0.0116
34847W        W41297   9.877   1.849  14.808  0.2783 -0.0338  0.0835
34848W        W41298   2.339   5.046   7.102  0.0705  0.3459  0.1165
34849W        W41299  20.385   0.118  29.566 -0.0893 -0.3072  0.0739
34850W        W41300   4.151   1.772  27.411  0.0052 -0.3703 -0.0087
34851W        W41301   8.876   0.401  25.727  0.1507  0.0912 -0.0733
34852W        W41302   6.275   2.230  11.532 -0.1803  0.0099  0.4324
34853W        W41303  16.492   6.266   0.547 -0.0340 -0.1084  0.0471
34854W        W41304   4.105   3.172  38.463 -0.1789  0.1497  0.0382
34855W        W41305  20.123   5.081  16.105 -0.0916 -0.0189  0.2447
34856W        W41306   5.029   5.475  23.404  0.0134 -0.0979 -0.1708
34857W        W41307   1.112   6.443   0.145  0.0841  0.0893  0.0734
34858W        W41308  11.121   3.498  13.725  0.3531  0.3474 -0.0316
34859W        W41309   0.437   5.414   9.753 -0.1596 -0.1477  0.1412
34860W        W41310  14.906   2.373  40.863 -0.0069 -0.0894  0.0332
34861W        W41311  18.335   2.249  31.133 -0.2816  0.2499 -0.2168
34862W        W41312   0.633   4.261  15.411 -0.0646  0.0413 -0.0429
34863W        W41313   8.608   5.301   1.132  0.2921  0.2743 -0.2576
34864W        W41314  11.032   2.745  26.917  0.3532  0.1628  0.1200
34865W        W41315   6.271   3.642   1.399  0.0384 -0.2214 -0.0393
34866W        W41316   9.624   0.679  23.622  0.0967  0.0817  0.0270
34867W        W41317   8.863   3.648  31.442  0.1308  0.1064  0.0968
34868W        W41318   4.489   6.173  23.167 -0.0064 -0.0554  0.1673
34869W        W41319   2.775   0.652   3.359 -0.3113 -0.6837  0.0400
34870W        W41320  13.295   5.608  31.686  0.2002 -0.1989  0.0200
34871W        W41321  21.141   5.400  31.199  0.0735 -0.2962  0.1016
34872W        W41322  19.217   2.600   7.856 -0.0275 -0.2968 -0.2512
34873W        W41323   4.091   5.863  39.553  0.2029  0.2664  0.0473
34874W        W41324  12.476   5.770  16.291  0.2930  0.2126  0.0061
34875W        W41325  11.772   4.079  19.000  0.0299  0.0365 -0.0241
34876W        W41326   1.208   2.306  24.651 -0.2034  0.1604 -0.2113
34877W        W41327   5.719   5.525  23.483  0.1382 -0.2138 -0.0399
34878W        W41328  16.672   2.222  11.724 -0.0643 -0.0444  0.2772
34879W        W41329  17.691   0.457  37.479 -0.0912  0.0227 -0.0806
34880W        W41330   5.364   4.550   9.782 -0.3502  0.1218  0.0445
34881W        W41331  11.638   2.240   1.636  0.0974  0.3346 -0.1280
34882W        W41332   1.625   5.298  30.245 -0.0295  0.1773  0.2329
34883W        W41333   3.224   0.556  24.885  0.1322 -0.0225  0.2233
34884W        W41334  14.654   2.106  39.419  0.1265 -0.1164  0.0544
34885W        W41335  18.536   1.910  39.170  0.3152  0.0050  0.0066
34886W        W41336   5.605   2.285  28.931  0.1093  0.1552  0.0446
34887W        W41337  16.585   1.483  22.116  0.0520 -0.1010 -0.1435
34888W        W41338   1.945   1.785   0.532  0.4220  0.0655 -0.0186
34889W        W41339  10.466   4.971  29.992 -0.0878 -0.0179 -0.1423
34890W        W41340   8.231   6.346  27.286 -0.4404 -0.1384  0.0695
34891W        W41341   6.502   2.264  38.895  0.0044 -0.1561 -0.0647
34892W        W41342  15.362   6.020  31.524 -0.2015  0.1957 -0.2333
34893W        W41343   7.487   0.474  25.352 -0.1910  0.2304 -0.1018
34894W        W41344  10.666   4.347  42.362 -0.1566  0.0371 -0.1024
34895W        W41345  10.839   0.278  43.028  0.1014 -0.2784  0.0053
34896W        W41346  18.157   0.614  34.505 -0.1210 -0.1471  0.0812
34897W        W41347   8.248   2.425  25.944  0.1372  0.1578 -0.0958
34898W        W41348  14.888   3.888  33.170  0.4632  0.0074  0.0036
34899W        W41349  14.526   3.361  41.424  0.1766  0.0545  0.0114
34900W        W41350   3.289   2.874  30.138 -0.2467  0.1222 -0.0294
34901W        W41351  13.495   5.419   0.054  0.1338  0.1560  0.0059
34902W        W41352   2.018   5.528  17.377 -0.1044 -0.2194  0.1399
34903W        W41353  19.381   5.785  10.747 -0.0103  0.0150  0.0012
34904W        W41354  19.391   4.579   8.366  0.0385 -0.0511  0.0721
34905W        W41355   3.678   4.201  14.404  0.1782 -0.0264  0.1879
34906W        W41356   2.015   4.393   2.492  0.0528 -0.0322 -0.0168
34907W        W41357   7.087   1.584  31.878  0.4114  0.2941  0.1838
34908W        W41358   3.722   0.325  25.560  0.0451  0.3959 -0.2826
34909W        W41359   6.784   1.753   1.947  0.0553 -0.3306  0.1899
34910W        W41360   5.803   0.448  40.199  0.0086 -0.0105  0.0357
34911W        W41361   0.253   2.880  35.472 -0.1048  0.2249 -0.1463
34912W        W41362  14.937   1.551  39.203  0.0792 -0.2078 -0.0055
34913W        W41363   4.634   4.383  36.096 -0.0744 -0.0884  0.0572
34914W        W41364  19.739   6.479  11.320 -0.2984  0.0694 -0.0827
34915W        W41365   5.700   4.722  25.032 -0.1951  0.1185  0.0805
34916W        W41366  16.336   0.154  42.032  0.1858  0.0989 -0.1358
34917W        W41367   0.109   5.563  28.422 -0.1314  0.2994 -0.2641
34918W        W41368  17.873   5.340  23.015  0.1587 -0.3250 -0.2646
34919W        W41369   9.106   4.200  36.686  0.0894  0.0577 -0.1402
34920W        W41370  10.556   0.244  27.598 -0.3798 -0.0009 -0.0928
34921W        W41371  15.400   3.592  30.821  0.1082  0.0285 -0.0388
34922W        W41372  17.175   5.299  34.186 -0.3386 -0.0020  0.1071
34923W        W41373  19.035   3.545   4.475 -0.0109  0.3419 -0.5559
34924W        W41374  10.785   2.880   7.537  0.0288 -0.1260 -0.0305
34925W        W41375   7.529   6.142   2.347 -0.1103 -0.1367  0.1799
34926W        W41376  18.741   6.198  13.229  0.0267  0.1296  0.2665
34927W        W41377  17.381   1.671  18.153 -0.2159 -0.0027  0.0780
34928W        W41378  10.810   3.297   6.841 -0.1049 -0.1006 -0.0093
34929W        W41379   5.301   6.144  14.223 -0.1371 -0.0807  0.0819
34930W        W41380  13.584   2.732  16.046 -0.1251 -0.1137 -0.0529
34931W        W41381  14.926   2.946  17.141 -0.0709 -0.2105 -0.1039
34932W        W41382   9.527   1.260  27.558  0.0408 -0.1786 -0.0350
34933W        W41383   4.559   6.057  38.066  0.3422  0.3644 -0.0006
34934W        W41384   2.617   5.640  14.634 -0.0151  0.0201  0.2010
34935W        W41385   6.090   5.989  41.235  0.2858  0.0273 -0.0593
34936W        W41386  11.361   4.878   2.493  0.0548  0.2263 -0.1218
34937W        W41387   5.803   0.146   6.787  0.0265  0.3203 -0.1565
34938W        W41388  11.536   3.743   7.644  0.5520  0.1529 -0.2811
34939W        W41389  16.420   4.093  12.722 -0.0608 -0.2048 -0.0159
34940W        W41390   7.634   0.548   8.932 -0.0024 -0.1353 -0.2279
34941W        W41391   9.106   2.702  33.462  0.2264 -0.1373  0.0122
34942W        W41392   8.336   6.236  13.521  0.0492 -0.2286 -0.2432
34943W        W41393   6.659   2.565  34.394 -0.0050 -0.0844  0.0080
34944W        W41394  19.977   3.099  28.129 -0.2247  0.2095 -0.3230
34945W        W41395  16.299   0.352  42.500 -0.1339  0.0385  0.2295
34946W        W41396  10.908   5.891  15.145 -0.1635 -0.0127 -0.0351
34947W        W41397  17.621   0.840  36.199 -0.0898  0.0734  0.1453
34948W        W41398  18.510   5.047  37.141  0.0463 -0.3792 -0.0407
34949W        W41399   9.348   1.333  35.745  0.0542 -0.2181  0.1804
34950W        W41400  13.891   3.733   2.833 -0.2397 -0.1002 -0.1530
34951W        W41401  11.021   4.491   3.460 -0.2282 -0.2692 -0.0003
34952W        W41402  14.637   0.322   8.865  0.1669 -0.0402  0.0666
34953W        W41403  14.197   0.221  22.306  0.2179 -0.0624  0.2282
34954W        W41404   9.685   5.111  13.587  0.2164 -0.0487 -0.0144
34955W        W41405  16.463   2.338   3.003  0.0381  0.3097 -0.0283
34956W        W41406  20.185   2.298   5.593  0.0081 -0.2789  0.0251
34957W        W41407  11.374   0.731  28.565  0.0251  0.2148  0.1817
34958W        W41408  16.523   1.177  39.857 -0.1150 -0.1317  0.4926
34959W        W41409  11.545   1.321  36.760  0.1040 -0.1020  0.4286
34960W        W41410   6.027   4.163  39.006 -0.0562 -0.0861  0.0080
34961W        W41411  17.382   4.082  13.899  0.0054 -0.2256  0.0561
34962W        W41412  17.925   2.514  20.419  0.1613  0.2107 -0.1358
34963W        W41413  15.552   3.828  17.057 -0.2092 -0.0823  0.3196
34964W        W41414  12.105   4.116  40.588  0.1319  0.0386  0.0980
34965W        W41415   6.171   5.569  36.574  0.1654  0.2230 -0.0880
34966W        W41416   9.851   3.986   9.716  0.3603 -0.3225  0.2953
34967W        W41417   8.736   2.547   2.365  0.0112  0.0980 -0.0086
34968W        W41418  17.345   3.854  23.492 -0.1325  0.0619  0.3348
34969W        W41419  10.327   3.515  36.911 -0.1574  0.3040  0.1267
34970W        W41420  13.611   6.264  40.124  0.1008 -0.1207  0.2252
34971W        W41421   7.386   5.114  38.210 -0.1911  0.0902 -0.3833
34972W        W41422   2.890   4.277   3.074 -0.0211  0.0119 -0.1332
34973W        W41423   1.345   4.386   4.897 -0.0554  0.2510 -0.3953
34974W        W41424   9.721   2.847   4.030  0.1783 -0.0041 -0.0538
34975W        W41425   9.580   4.996  16.757  0.1747  0.2441 -0.2172
34976W        W41426   1.970   4.423   7.689  0.1272 -0.2806 -0.1912
34977W        W41427   5.771   4.633   4.821  0.0772  0.1892  0.0434
34978W        W41428  13.220   4.970  15.349 -0.5369 -0.2531  0.2520
34979W        W41429  15.170   2.910  34.192 -0.0501  0.0306  0.2115
34980W        W41430  14.980   1.908   6.927  0.1126 -0.1457  0.2724
34981W        W41431  11.393   3.660  42.405 -0.1862  0.2010  0.1887
34982W        W41432  20.692   3.505   3.668 -0.0374  0.0889  0.1310
34983W        W41433   3.572   2.468  14.941 -0.0203 -0.2203  0.1720
34984W        W41434   7.366   4.052  44.379  0.1046  0.2057 -0.2456
34985W        W41435   7.996   4.146  27.403  0.1980 -0.0367 -0.3291
34986W        W41436   4.363   5.395   7.278  0.0896 -0.1771 -0.2236
34987W        W41437   4.467   1.822  12.474  0.1078 -0.1553  0.1134
34988W        W41438  20.181   4.402   6.561  0.0124  0.3327  0.1017
34989W        W41439   0.315   0.536  31.780  0.0512 -0.1112  0.0415
34990W        W41440   9.514   5.475   1.643  0.0772  0.0911 -0.3005
34991W        W41441  14.580   5.223   6.381 -0.2024  0.1601  0.0934
34992W        W41442   5.037   4.267  44.471 -0.1079  0.2541 -0.1979
34993W        W41443   3.340   4.682  38.312 -0.2461  0.1193 -0.0974
34994W        W41444  13.173   5.807   1.482  0.0467  0.1510 -0.2423
34995W        W41445   2.789   6.547  43.844 -0.0607  0.0310 -0.0368
34996W        W41446   8.396   2.536  31.988 -0.1966  0.3861 -0.0485
34997W        W41447  14.776   3.758   0.485 -0.1328  0.2372 -0.0456
34998W        W41448   9.452   0.681   8.235 -0.2928  0.1225  0.0847
34999W        W41449   9.300   1.299   0.229 -0.3025 -0.1625 -0.0716
35000W        W41450  13.344   4.396  32.568  0.0609 -0.1438 -0.0742
35001W        W41451   8.193   3.229  39.180  0.1284  0.1933 -0.3994
35002W        W41452   6.934   5.845   8.281  0.0655 -0.2171 -0.0259
35003W        W41453   6.532   6.363  32.846  0.0986  0.1591  0.1893
35004W        W41454   4.684   1.012  27.071 -0.0503  0.0535 -0.0531
35005W        W41455   5.329   5.263  43.635  0.1338  0.2071  0.1651
35006W        W41456  13.336   5.435  19.918 -0.1411  0.3336  0.0296
35007W        W41457  20.816   2.066  33.437 -0.0031  0.2087  0.2032
35008W        W41458  20.654   2.395   4.752 -0.4635  0.0163  0.1720
35009W        W41459  20.027   1.471  33.010  0.0675 -0.1339  0.3667
35010W        W41460  11.803   0.685  31.965 -0.0856 -0.0705  0.1529
35011W        W41461   6.151   3.440  31.683  0.0619 -0.0057  0.0885
35012W        W41462  20.984   5.826  36.776  0.1770 -0.2588  0.1024
35013W        W41463  12.625   4.970  10.754  0.1819  0.0662 -0.0706
35014W        W41464  16.724   1.291  34.857 -0.1697  0.0659 -0.1913
35015W        W41465   0.487   2.158  36.697  0.1558 -0.3869 -0.1194
35016W        W41466  19.359   4.638   0.501  0.1069  0.0083  0.0488
35017W        W41467   4.016   0.505  43.192 -0.1497  0.1040 -0.2201
35018W        W41468   2.083   1.710  14.818  0.1766  0.0524  0.0326
35019W        W41469   1.579   0.346  27.680 -0.2484 -0.3297  0.1460
35020W        W41470  16.112   0.822  19.774 -0.0254 -0.2195  0.4284
35021W        W41471   4.486   2.333  24.258 -0.1505  0.1849 -0.0027
35022W        W41472   7.510   2.571   0.772 -0.1379  0.0320  0.3683
35023W        W41473   6.190   1.470  37.764  0.1416 -0.1124 -0.0284
35024W        W41474  10.127   4.248  11.902  0.1947  0.1674 -0.1882
35025W        W41475  12.247   2.664  32.280  0.2008  0.0565  0.2233
35026W        W41476   2.032   1.713  40.193 -0.1289  0.0815  0.4061
35027W        W41477   1.374   6.211  16.990 -0.1107 -0.4439 -0.1311
35028W        W41478   2.061   5.557  36.775  0.2445 -0.0933 -0.2720
35029W        W41479   7.014   4.174   5.412 -0.0674  0.2136 -0.0560
35030W        W41480   9.106   2.298   2.071  0.0457  0.2090  0.0151
35031W        W41481   9.428   3.995  43.548  0.0921 -0.1821  0.0285
35032W        W41482   1.467   5.186  32.433 -0.0193 -0.1308 -0.2134
35033W        W41483  10.948   6.104  18.431  0.0978  0.1181  0.1566
35034W        W41484  16.811   2.385   4.538  0.1502  0.3372  0.0104
35035W        W41485   9.472   6.040  13.558  0.0519 -0.0254 -0.2441
35036W        W41486  17.268   1.925  42.090 -0.1412  0.1288 -0.1329
35037W        W41487   8.114   5.033   6.216  0.1867 -0.0565  0.1727
35038W        W41488   8.660   0.544  29.270  0.0713  0.0531 -0.2056
35039W        W41489  13.543   3.164  16.249  0.0600  0.0918 -0.1644
35040W        W41490  19.622   4.934  18.234 -0.2677  0.1957 -0.0885
35041W        W41491   0.225   4.479  16.729  0.2411  0.1597  0.0514
35042W        W41492   1.435   0.678   4.652 -0.0581 -0.0804 -0.2526
35043W        W41493  13.752   6.514  16.021  0.0393 -0.1397  0.1262
35044W        W41494  12.026   0.180  28.075  0.0640 -0.0014  0.0005
35045W        W41495   1.662   2.038  16.420 -0.1695  0.1674  0.0750
35046W        W41496  16.221   5.635  43.217  0.0774  0.1911 -0.0147
35047W        W41497  13.723   1.788  30.197  0.1101  0.0323 -0.0881
35048W        W41498  10.893   0.792  10.618  0.0719  0.1085  0.0160
35049W        W41499  19.890   5.073  41.151 -0.6008  0.1408  0.1337
35050W        W41500   1.936   3.737  32.363 -0.1774  0.1234 -0.2775
35051W        W41501  17.727   3.117  22.509  0.0176 -0.1341 -0.0024
35052W        W41502   6.051   5.931   1.130  0.0541  0.3820  0.0458
35053W        W41503   5.638   6.140  29.906 -0.3181 -0.1985  0.0099
35054W        W41504  13.903   4.567  34.296 -0.1416 -0.2123  0.0309
35055W        W41505  12.102   2.727   9.110  0.2136  0.1579 -0.0809
35056W        W41506  20.261   4.910  36.769 -0.1698 -0.2775 -0.1636
35057W        W41507   3.868   1.608  10.332  0.2053  0.1322  0.2154
35058W        W41508   9.558   5.158   2.626 -0.1124 -0.1438 -0.0363
35059W        W41509  14.448   5.906   4.573  0.0119  0.0943  0.1341
35060W        W41510   3.923   5.686  33.055 -0.2951 -0.0999 -0.2879
35061W        W41511   9.230   1.187  28.977 -0.1801  0.2521 -0.3041
35062W        W41512  17.350   0.588  41.670  0.1137  0.0057  0.1002
35063W        W41513  17.941   4.973  43.021  0.2086 -0.1763 -0.1728
35064W        W41514  15.726   3.017   9.525  0.3357  0.3101 -0.0293
35065W        W41515   4.790   6.015  27.434 -0.2849 -0.1501 -0.2338
35066W        W41516   8.959   3.506  35.614  0.1071 -0.2875  0.0581
35067W        W41517   6.053   4.342  32.859 -0.5958 -0.2213 -0.2438
35068W        W41518   9.356   2.304  29.594  0.0610 -0.1745  0.4136
35069W        W41519  14.803   2.840  42.916  0.0272  0.1603 -0.2781
35070W        W41520  16.900   4.219  12.610 -0.2488  0.0153 -0.3082
35071W        W41521   8.301   6.426   8.222 -0.2493  0.4119  0.1578
35072W        W41522   0.273   2.092   4.333 -0.0816 -0.0023  0.2649
35073W        W41523   0.642   1.547   9.290 -0.2047  0.1237 -0.0542
35074W        W41524  12.043   0.937   5.309  0.1839 -0.1318 -0.0170
35075W        W41525  14.415   4.840  21.385 -0.2549  0.2193  0.0465
35076W        W41526   5.973   4.458  19.788  0.0632 -0.2044  0.0281
35077W        W41527  15.566   4.625  21.643  0.1265  0.0960 -0.1405
35078W        W41528  16.578   4.464   4.741  0.2025  0.1334  0.2776
35079W        W41529   8.507   2.199  27.242  0.2684  0.2099 -0.2774
35080W        W41530  12.067   2.679  19.277 -0.0383  0.2644  0.1284
35081W        W41531  13.336   2.066  32.513 -0.1842 -0.0369 -0.0569
35082W        W41532   6.615   1.073  14.921  0.1946 -0.0543  0.3656
35083W        W41533   2.955   2.817  39.295  0.1708  0.0459  0.0391
35084W        W41534   0.184   1.506  11.797  0.1614 -0.2133 -0.0013
35085W        W41535   9.997   0.732  33.901  0.0577 -0.1657 -0.0766
35086W        W41536   9.752   1.423   4.013  0.1699  0.2655 -0.0585
35087W        W41537  19.057   2.330  36.942  0.0242  0.4853 -0.0128
35088W        W41538  17.579   3.966  37.347  0.0716  0.0610  0.3455
35089W        W41539  16.481   6.324  34.589  0.0699 -0.1563  0.2167
35090W        W41540  11.421   1.849  15.228 -0.2779 -0.2213 -0.0340
35091W        W41541  10.421   1.608  44.857  0.0982  0.0388  0.0573
35092W        W41542  16.326   1.089  17.533 -0.2970  0.1147 -0.2951
35093W        W41543  13.465   5.677  10.353  0.2884 -0.0863 -0.0808
35094W        W41544  14.866   2.729   9.171 -0.1014 -0.1108 -0.0089
35095W        W41545  16.092   0.487  42.945 -0.0495 -0.0494 -0.2309
35096W        W41546  18.083   5.058  33.307 -0.2907 -0.0988  0.0855
35097W        W41547  20.520   1.444   2.449  0.3004 -0.1846  0.0111
35098W        W41548   3.038   3.098   5.567  0.1029 -0.0689  0.0077
35099W        W41549   5.281   0.578  26.942 -0.0732  0.0488 -0.1151
35100W        W41550  18.422   0.489   0.498 -0.0340  0.2336  0.0388
35101W        W41551   7.894   0.785  11.968 -0.0083  0.2167 -0.2588
35102W        W41552  14.355   3.433  22.048 -0.0867  0.1859  0.0193
35103W        W41553   4.263   1.817   6.168 -0.0284  0.5317 -0.0793
35104W        W41554  20.834   6.533  33.859 -0.0559  0.2376 -0.0814
35105W        W41555  12.426   1.019  19.530 -0.2842  0.0321 -0.0253
35106W        W41556  10.045   2.182  31.059 -0.1635 -0.0392  0.1592
35107W        W41557   8.567   4.188  40.926  0.2740  0.3693 -0.1228
35108W        W41558   8.450   4.797  24.370 -0.1322  0.0101 -0.3693
35109W        W41559   1.550   0.422  16.674  0.1000 -0.1584  0.1228
35110W        W41560  17.404   2.161  18.147  0.0513 -0.0414  0.0973
35111W        W41561  11.809   0.206  44.787  0.0666  0.2046  0.1760
35112W        W41562   9.506   0.191  35.003 -0.1022  0.1048  0.0926
35113W        W41563   0.706   6.441  12.890  0.1760 -0.0283 -0.0979
35114W        W41564   8.303   5.811  27.467  0.0921  0.2319 -0.0520
35115W        W41565  20.568   0.325  14.154 -0.2742 -0.2625  0.1855
35116W        W41566  12.460   2.142   3.967 -0.1704 -0.1677  0.2466
35117W        W41567   5.907   0.202  21.625 -0.3296 -0.3403 -0.0431
35118W        W41568  19.072   3.166  10.563  0.0581 -0.4167 -0.2380
35119W        W41569   1.798   5.819   1.114  0.2767  0.1603 -0.0578
35120W        W41570   8.426   1.697  28.820  0.1343 -0.0583 -0.1772
35121W        W41571  19.766   0.109   0.656  0.0620 -0.3168 -0.1343
35122W        W41572   0.118   2.598  32.509  0.0105 -0.2112  0.1233
35123W        W41573   7.869   0.179  14.047 -0.0050 -0.1942 -0.0253
35124W        W41574   0.417   6.003   5.127  0.2685 -0.0470  0.0753
35125W        W41575   9.958   1.393  38.185  0.1343 -0.0904 -0.0179
35126W        W41576  14.226   5.945  16.123 -0.1466  0.0835 -0.1409
35127W        W41577   6.841   4.134  25.064  0.0038 -0.0117  0.0307
35128W        W41578   5.905   3.493  34.552 -0.2835  0.2089 -0.0800
35129W        W41579  19.575   0.457  40.524 -0.0486  0.2400  0.0679
35130W        W41580   8.956   5.560  38.856 -0.1761 -0.2123 -0.2498
35131W        W41581   1.141   2.453  10.640  0.1020  0.4455  0.1732
35132W        W41582  18.247   4.979   1.821  0.1828 -0.0326  0.0501
35133W        W41583  18.828   2.705   4.509 -0.4538  0.3577  0.0106
35134W        W41584   9.735   2.716  32.375 -0.0713  0.1057  0.0480
35135W        W41585   3.416   4.160  12.375  0.1263 -0.0065 -0.0601
35136W        W41586   3.179   6.031  24.414  0.1534  0.0263 -0.0181
35137W        W41587   7.839   1.624  32.954  0.2873  0.2483 -0.0422
35138W        W41588  13.934   1.808  19.523 -0.1171  0.1093 -0.2218
35139W        W41589  14.521   2.162   5.801  0.0903  0.1618  0.1258
35140W        W41590   5.304   2.526   6.063  0.1291  0.2244 -0.1337
35141W        W41591  18.437   4.860  44.570  0.2002  0.0010  0.1151
35142W        W41592  12.745   2.112  30.260 -0.0367  0.2726 -0.0802
35143W        W41593  12.961   3.399  41.630  0.1848  0.0256 -0.1210
35144W        W41594  19.898   6.381  15.850 -0.1208  0.1351  0.0283
35145W        W41595   7.913   5.585   9.917 -0.4060 -0.1174 -0.2813
35146W        W41596  14.982   3.121  44.979 -0.0609  0.0809 -0.2060
35147W        W41597  10.055   6.564   5.889  0.1639 -0.1829 -0.0277
35148W        W41598  11.226   5.493  15.285 -0.0234 -0.0186 -0.0039
35149W        W41599   8.955   3.043  29.295 -0.0895 -0.2161 -0.0659
35150W        W41600   3.851   6.238  27.935  0.2620 -0.0909  0.1048
35151W        W41601   8.526   4.639  23.917 -0.2466  0.0608  0.0881
35152W        W41602   7.000   2.178   8.179 -0.1121 -0.0205  0.0843
35153W        W41603  18.358   2.225  17.659  0.0951  0.1152  0.0006
35154W        W41604  15.615   3.727  39.171  0.1081 -0.2810  0.2349
35155W        W41605  19.794   1.124  33.307  0.1589  0.1040  0.1624
35156W        W41606   7.313   1.003  33.185  0.1380 -0.1425 -0.1488
35157W        W41607  12.894   6.598  41.982  0.1230  0.0977  0.4299
35158W        W41608  13.141   4.493  20.220  0.0613 -0.0728  0.0117
35159W        W41609   2.806   0.135  36.722  0.1515  0.0766  0.3920
35160W        W41610   6.848   3.364  37.879  0.4532  0.0721  0.0943
35161W        W41611   8.103   6.352  22.655  0.0954  0.2186  0.1161
35162W        W41612  16.953   6.355  10.646 -0.2152 -0.0549 -0.0511
35163W        W41613   0.207   0.894  30.829  0.0305  0.2232 -0.3156
35164W        W41614  11.910   4.703   8.994  0.1353 -0.0476  0.1385
35165W        W41615  14.013   6.595  14.049  0.0628 -0.0273  0.1653
35166W        W41616   6.783   5.578  11.816  0.3163 -0.0111  0.1323
35167W        W41617   2.194   3.705   3.263  0.0691 -0.0907  0.0189
35168W        W41618   7.758   6.583  24.343 -0.0338 -0.1997 -0.0433
35169W        W41619  17.494   6.168  17.347  0.1542  0.1084  0.2140
35170W        W41620   0.353   1.481   8.703 -0.2684  0.0811 -0.0449
35171W        W41621   8.443   1.777   2.250  0.0132 -0.1649 -0.0315
35172W        W41622  14.003   5.798  35.396 -0.0000  0.1475  0.0799
35173W        W41623   5.485   2.001  21.067  0.2101  0.0915 -0.2548
35174W        W41624  14.079   3.228   0.656 -0.0059  0.1992 -0.3639
35175W        W41625  10.907   3.547  40.862 -0.2827 -0.0432  0.3336
35176W        W41626  17.621   2.074  17.448 -0.4413  0.0405  0.1809
35177W        W41627  18.193   3.422  11.134 -0.1386 -0.0933  0.1308
35178W        W41628  17.795   5.633   2.320  0.1493  0.0701 -0.1419
35179W        W41629   7.354   5.567  14.923 -0.0663 -0.1332 -0.0253
35180W        W41630  14.770   5.383   9.193 -0.0235  0.2117 -0.1391
35181W        W41631   2.190   5.151  42.140  0.0830 -0.2496 -0.0019
35182W        W41632  12.909   3.528  32.691 -0.3477 -0.0214 -0.0126
35183W        W41633  20.905   4.505  45.053  0.0154 -0.0400 -0.0548
35184W        W41634  15.659   1.408  36.828 -0.1449 -0.1310  0.1543
35185W        W41635  18.997   0.430  35.472 -0.0696  0.2493 -0.0220
35186W        W41636  19.175   4.261  16.414 -0.0491 -0.1367  0.4821
35187W        W41637  15.390   0.855  14.204 -0.0881  0.0795  0.1335
35188W        W41638   2.272   0.114   2.315  0.0657 -0.4845 -0.1916
35189W        W41639   1.529   0.963  33.021 -0.1543 -0.2828 -0.0450
35190W        W41640   8.455   5.203  13.558  0.0915  0.1501 -0.3592
35191W        W41641   2.300   4.691  40.327 -0.1674 -0.3903  0.1138
35192W        W41642   3.763   2.578   5.157 -0.2944  0.0179 -0.1184
35193W        W41643   8.977   4.463   1.580  0.1722 -0.2397 -0.1569
35194W        W41644  13.651   1.009  43.563 -0.0309  0.0250 -0.0202
35195W        W41645   9.293   4.583  16.571  0.0705 -0.0377 -0.3251
35196W        W41646   6.164   0.550  42.379  0.1077 -0.1726 -0.1023
35197W        W41647   7.134   5.821  27.720  0.0508  0.0578  0.1879
35198W        W41648  19.469   4.623  19.283 -0.0400  0.2305 -0.0085
35199W        W41649  10.118   5.287  29.833 -0.4398  0.1210 -0.3542
35200W        W41650   2.283   4.734  33.389  0.2591  0.2128 -0.0355
35201W        W41651  13.996   1.169  22.905  0.1298  0.0663  0.2963
35202W        W41652  16.186   3.532  37.064 -0.1537 -0.1173 -0.1426
35203W        W41653   8.366   4.075  32.065 -0.0642  0.2849  0.0597
35204W        W41654   6.642   3.843  11.610 -0.0496 -0.3352  0.2150
35205W        W41655  14.776   1.701  29.699 -0.0693  0.0760  0.1847
35206W        W41656   2.338   2.580  36.006 -0.0233 -0.2732 -0.0385
35207W        W41657   7.166   3.152  12.732 -0.0071  0.1880 -0.0370
35208W        W41658   0.183   2.362  14.986  0.0277  0.1065 -0.1459
35209W        W41659  13.177   4.854  33.618 -0.0368 -0.0196 -0.1682
35210W        W41660  11.326   6.525  31.774 -0.1698  0.0926 -0.1460
35211W        W41661  17.190   1.845  10.908  0.1291  0.0963 -0.0552
35212W        W41662  20.670   2.619  17.010 -0.1616  0.0368 -0.1101
35213W        W41663  13.834   2.941  44.784 -0.3930  0.2822  0.1046
35214W        W41664   1.537   4.265  42.320  0.4160  0.0695 -0.2626
35215W        W41665   4.289   5.029  38.352 -0.2057 -0.4118  0.3211
35216W        W41666  18.620   4.094  20.085 -0.0483 -0.1438 -0.2334
35217W        W41667  10.103   1.129  27.592  0.1300 -0.0160  0.1305
35218W        W41668  13.897   5.714  11.669  0.0911  0.0395 -0.2866
35219W        W41669   6.357   0.946   7.172 -0.3393 -0.1422  0.3261
35220W        W41670   6.630   4.723   3.919  0.0433  0.2190 -0.2425
35221W        W41671   6.047   3.791  14.892  0.0323  0.2236 -0.1524
35222W        W41672   7.454   2.125  35.984 -0.1710  0.0657 -0.2938
35223W        W41673  18.554   5.400  30.823 -0.1590  0.0329  0.1563
35224W        W41674  18.956   3.253  30.772  0.0963 -0.0260  0.1851
35225W        W41675   1.821   3.238  12.986 -0.3267  0.0526  0.1349
35226W        W41676  10.828   3.818  27.685  0.2169 -0.1661  0.1459
35227W        W41677  16.211   5.201   4.681 -0.1698 -0.1748 -0.1320
35228W        W41678  10.999   0.440  13.546 -0.1404 -0.0191  0.2829
35229W        W41679   8.016   4.352  23.566  0.0600 -0.2557 -0.1709
35230W        W41680  18.912   4.047  12.158  0.0593  0.1096 -0.0148
35231W        W41681  10.048   6.549  34.270  0.1988 -0.1431  0.1519
35232W        W41682   9.501   5.519  35.291 -0.0980  0.0639  0.0745
35233W        W41683   8.384   5.436  27.005  0.0399 -0.2311 -0.0887
35234W        W41684  19.439   0.502   4.659  0.1012  0.2332  0.2030
35235W        W41685  14.894   3.025  19.474 -0.2571 -0.2090 -0.0854
35236W        W41686   8.577   2.616  41.491  0.1081  0.0557 -0.0273
35237W        W41687  16.989   0.864  15.434  0.0523  0.0797  0.0144
35238W        W41688  16.811   5.072   4.032 -0.0610  0.2005 -0.3296
35239W        W41689  20.319   1.960  17.230  0.2249 -0.0060  0.1480
35240W        W41690   5.240   0.208   6.558  0.0412  0.1534  0.1861
35241W        W41691   1.250   0.689  17.470  0.0132  0.2009  0.0527
35242W        W41692  13.104   2.278  13.522 -0.0216 -0.0333 -0.1448
35243W        W41693  14.943   1.584  21.474 -0.1215  0.2040 -0.0579
35244W        W41694  19.762   4.967  10.087 -0.2181 -0.0335  0.2007
35245W        W41695  11.100   0.265  35.899 -0.2425  0.1149 -0.0268
35246W        W41696  17.937   0.571  43.281  0.1032 -0.0366 -0.1337
35247W        W41697  20.820   5.588  40.599 -0.0365 -0.1486  0.1793
35248W        W41698   0.209   1.340   4.685 -0.0115 -0.0614 -0.3184
35249W        W41699   4.560   0.133   8.737  0.1269  0.1259  0.1718
35250W        W41700  12.895   5.077  31.175 -0.0914  0.0816  0.1062
35251W        W41701  20.352   1.983   9.767  0.0915 -0.0642 -0.3965
35252W        W41702   3.092   0.720  14.830  0.1521 -0.2258  0.1841
35253W        W41703  15.353   3.173  30.533  0.2034 -0.0575  0.1178
35254W        W41704   0.322   6.470   2.759 -0.1685 -0.1356 -0.4195
35255W        W41705   9.567   3.738   3.540  0.1576 -0.4125 -0.0358
35256W        W41706   1.785   4.022  31.266 -0.2973  0.0055 -0.3782
35257W        W41707  10.499   1.068  35.902  0.1695  0.1160 -0.4179
35258W        W41708   4.344   3.815   3.098  0.2469 -0.0992  0.0388
35259W        W41709   9.732   3.821  16.529  0.1222 -0.3835 -0.2224
35260W        W41710  11.607   6.536  38.008 -0.1590 -0.1252 -0.0844
35261W        W41711  18.180   4.284   7.288  0.3860  0.0126 -0.0674
35262W        W41712  18.877   1.179  10.974 -0.0856  0.2293 -0.1371
35263W        W41713  14.047   1.522  38.898  0.1492 -0.2800  0.0276
35264W        W41714   5.984   0.291  35.993 -0.1168 -0.0286  0.1697
35265W        W41715  17.727   4.111  34.747  0.1731 -0.0347 -0.0951
35266W        W41716  19.991   5.906  44.611 -0.3615  0.1180  0.2797
35267W        W41717   0.559   4.826   4.918  0.0826 -0.0486  0.0822
35268W        W41718  14.999   3.192  16.591 -0.3037  0.2489 -0.0554
35269W        W41719  15.526   2.804  21.082  0.1851  0.1561  0.0136
35270W        W41720   4.015   6.533  34.611  0.0939 -0.2377 -0.3542
35271W        W41721  18.302   2.424  31.750  0.2291 -0.2268  0.1931
35272W        W41722   1.907   0.185  13.876 -0.1804  0.1291 -0.1418
35273W        W41723   6.082   2.114  41.396  0.1254 -0.2041 -0.3623
35274W        W41724   8.025   0.894  32.053  0.2377 -0.1133  0.1255
35275W        W41725   3.824   2.726   8.209 -0.0068 -0.3166 -0.0923
35276W        W41726   1.860   5.371   1.369 -0.0082  0.0287  0.3118
35277W        W41727  17.425   1.192   2.329 -0.0254 -0.3032 -0.2845
35278W        W41728   3.772   5.619  44.502 -0.0841  0.3442 -0.1012
35279W        W41729   1.614   3.691   8.189 -0.1075  0.1119 -0.0775
35280W        W41730  13.994   1.346   4.561 -0.1470  0.3597  0.2796
35281W        W41731  18.871   0.145   7.124  0.0043 -0.2665  0.1520
35282W        W41732   6.098   0.335  10.787  0.2315  0.2832 -0.0266
35283W        W41733   3.617   2.160  42.402  0.1324 -0.0880 -0.0515
35284W        W41734   4.325   0.336   8.354 -0.1390  0.0237  0.0793
35285W        W41735   3.045   1.105  11.493  0.2970  0.0304 -0.0508
35286W        W41736  14.625   1.318  17.443  0.1801 -0.1994  0.1831
35287W        W41737  13.662   2.737  16.577 -0.1115 -0.1495 -0.2353
35288W        W41738  13.676   5.354  16.642  0.1646 -0.0931 -0.3684
35289W        W41739  12.636   0.547  18.735  0.1209  0.3958  0.2516
35290W        W41740  14.747   0.557  33.355 -0.1927  0.0210  0.1982
35291W        W41741  17.602   5.193  15.464 -0.1581  0.0174  0.2030
35292W        W41742  19.638   3.068  17.488 -0.2935 -0.2954 -0.0029
35293W        W41743   5.921   2.352   3.644  0.0523 -0.1401 -0.1497
35294W        W41744   4.626   2.561  27.332  0.0165  0.6076  0.2085
35295W        W41745   7.456   6.055  12.257  0.2008  0.2393  0.0508
35296W        W41746   2.509   1.096   5.495 -0.0554 -0.0963  0.0779
35297W        W41747   7.447   4.983  40.721  0.1238 -0.0304 -0.0315
35298W        W41748  21.112   3.291   1.978  0.0254  0.2626  0.2428
35299W        W41749  12.699   1.543   5.233  0.1231 -0.1060  0.0443
35300W        W41750  10.070   5.389   1.706 -0.1136  0.2009 -0.0115
35301W        W41751  12.800   6.606   0.052 -0.0288  0.1642  0.0480
35302W        W41752   3.399   3.905   0.787  0.2429  0.4981 -0.3973
35303W        W41753   8.747   4.026  28.118 -0.2242 -0.0778  0.1130
35304W        W41754  15.712   4.063   0.351  0.0882 -0.0027 -0.0453
35305W        W41755  14.862   0.924  11.946  0.0865  0.0807 -0.1011
35306W        W41756   9.923   2.454   5.110 -0.1433  0.0754 -0.0117
35307W        W41757  19.079   0.442  43.397 -0.3403 -0.0605 -0.1856
35308W        W41758   4.277   0.004  32.949  0.4863  0.2165  0.1607
35309W        W41759   3.435   2.380  12.440  0.1539  0.1213 -0.1895
35310W        W41760  14.800   1.970  43.101 -0.0192  0.2453 -0.2197
35311W        W41761  14.659   1.835  14.983  0.0977  0.0266 -0.3653
35312W        W41762  20.248   5.566   2.147  0.0748 -0.2449 -0.0225
35313W        W41763   9.748   0.799  34.399 -0.1726 -0.1314  0.1370
35314W        W41764   7.203   4.347  30.891 -0.0769 -0.0500  0.0137
35315W        W41765  18.088   5.267  20.842 -0.3150 -0.4775  0.0615
35316W        W41766   4.354   3.271  26.267  0.1212 -0.2542 -0.0561
35317W        W41767  14.059   1.299   1.110 -0.1224 -0.0003  0.0921
35318W        W41768  18.510   3.898  11.911 -0.0955 -0.2482 -0.0296
35319W        W41769  14.143   2.940  30.845  0.2838  0.1528  0.2656
35320W        W41770   0.733   3.119  31.322  0.1687  0.1525  0.2353
35321W        W41771   1.468   4.094   2.444 -0.4202  0.3644 -0.2745
35322W        W41772  21.023   5.071  30.819  0.0401 -0.3190  0.0617
35323W        W41773  14.858   6.521   9.703 -0.3815  0.0790  0.0157
35324W        W41774  14.220   1.144  10.789  0.1528 -0.0870 -0.1425
35325W        W41775   5.362   1.033   9.515 -0.1785 -0.0349  0.1470
35326W        W41776  14.857   5.988   0.246 -0.1668  0.2387 -0.2813
35327W        W41777   9.501   1.461  44.464 -0.0830 -0.1418  0.4647
35328W        W41778  10.750   3.529   2.903  0.3441  0.1408 -0.0999
35329W        W41779  16.053   3.469  14.461  0.1182  0.0694  0.1063
35330W        W41780  18.279   3.920  22.749 -0.0077  0.2083 -0.1595
35331W        W41781   6.962   5.597  11.014  0.0968 -0.0948 -0.1312
35332W        W41782   4.870   6.006   3.110 -0.0452 -0.0118  0.0767
35333W        W41783  10.301   4.051   2.259 -0.0215  0.2545 -0.0019
35334W        W41784  17.718   6.010  39.702  0.3190 -0.1714  0.0309
35335W        W41785  20.320   0.439  36.796  0.2498 -0.1876 -0.2404
35336W        W41786   2.006   4.084  24.585 -0.0844  0.0881  0.0205
35337W        W41787   7.198   2.282  13.339  0.2915  0.0905  0.0030
35338W        W41788   1.055   5.671  27.989 -0.1451  0.0649  0.0779
35339W        W41789  17.279   6.068   2.111  0.3146 -0.1748 -0.0328
35340W        W41790   0.207   2.239  33.479  0.2983  0.1532 -0.1812
35341W        W41791  16.358   2.187   8.949  0.0047 -0.1888  0.1340
35342W        W41792   0.614   1.057  26.905  0.0436 -0.1580 -0.0635
35343W        W41793   9.733   4.513  30.980 -0.0741 -0.1910  0.0601
35344W        W41794  13.472   2.032   8.781 -0.2762  0.0511 -0.0007
35345W        W41795  20.834   6.592   0.136 -0.0699 -0.3522  0.2164
35346W        W41796  13.644   2.165   5.819  0.2433 -0.1368  0.0402
35347W        W41797  20.741   0.138  42.609  0.0473  0.0775 -0.1950
35348W        W41798  15.159   4.241  38.282 -0.0371  0.0383 -0.2242
35349W        W41799  17.022   4.241  36.201 -0.2925 -0.0319  0.1067
35350W        W41800   7.556   5.482   1.825  0.2501  0.4070 -0.0319
35351W        W41801  18.513   3.873  35.357  0.1755  0.1009 -0.4326
35352W        W41802   5.076   6.581  35.694 -0.1051  0.1179  0.2169
35353W        W41803   1.792   0.796  31.330  0.1390  0.0142  0.0424
35354W        W41804   9.414   1.009   4.350 -0.0898  0.0625 -0.1288
35355W        W41805   5.126   5.211  38.081  0.0064 -0.0329 -0.1954
35356W        W41806   9.425   1.103  40.419 -0.0461 -0.0506 -0.3175
35357W        W41807   2.986   3.202  27.456  0.1324  0.1562 -0.0586
35358W        W41808  17.614   0.259  15.335  0.1755 -0.0217  0.0602
35359W        W41809  11.340   0.836  42.410  0.2830  0.0043 -0.2271
35360W        W41810   5.614   6.382  33.277 -0.0165 -0.0976 -0.0048
35361W        W41811  17.380   2.083  34.951  0.4084  0.3391  0.0357
35362W        W41812   3.662   4.657  34.064 -0.0040 -0.0108 -0.5382
35363W        W41813   2.584   4.706  24.276 -0.0491 -0.0360  0.0202
35364W        W41814  17.282   0.424  31.612  0.0496 -0.0537  0.0634
35365W        W41815  17.800   2.114  36.630 -0.0229  0.0069 -0.1045
35366W        W41816  10.318   0.047  45.092 -0.2488 -0.0880  0.0787
35367W        W41817  16.089   5.143  22.045  0.0662  0.1496 -0.2092
35368W        W41818   8.203   0.686   7.472  0.0092  0.0208  0.0972
35369W        W41819   2.472   4.798  12.990 -0.2083  0.1138 -0.2763
35370W        W41820  19.623   1.393   2.755  0.0820  0.2523  0.2748
35371W        W41821   2.562   5.828   5.605  0.1299  0.0505 -0.1762
35372W        W41822  18.812   4.636  19.995 -0.0228 -0.0983 -0.0739
35373W        W41823  14.235   3.549  38.850 -0.2356  0.0205 -0.0159
35374W        W41824  18.684   0.091   2.335  0.1595  0.0907  0.2862
35375W        W41825  13.787   4.746  10.211  0.0471  0.2109  0.1201
35376W        W41826   8.081   4.132  44.931  0.2112 -0.1703 -0.0182
35377W        W41827  19.428   0.825   1.350 -0.4098  0.0393 -0.2429
35378W        W41828   6.547   4.726  18.975  0.2394  0.0807  0.0729
35379W        W41829   4.693   2.701   6.086  0.3870 -0.1685  0.0650
35380W        W41830   8.322   1.961  22.864  0.1623  0.4400  0.3897
35381W        W41831  20.014   3.466   8.158  0.2057 -0.1006 -0.0852
35382W        W41832  18.188   0.745  32.193 -0.2899  0.2023 -0.0602
35383W        W41833  19.815   3.114  40.992  0.1445 -0.0580  0.1523
35384W        W41834  15.921   5.716  32.263  0.0105  0.2071 -0.0388
35385W        W41835   5.309   1.244   5.514 -0.0280 -0.0137 -0.3491
35386W        W41836   5.624   3.248  37.550  0.1668  0.1042 -0.2797
35387W        W41837   8.798   0.611  43.794 -0.2241  0.2007 -0.2839
35388W        W41838  15.622   3.948   7.690  0.0194  0.2747  0.1098
35389W        W41839   2.070   0.931  39.576  0.2373  0.0402  0.0381
35390W        W41840  10.828   0.642  12.264 -0.1490 -0.1388  0.0081
35391W        W41841   5.989   3.898   2.695  0.0188  0.0550 -0.1750
35392W        W41842   3.523   4.422  43.100  0.1699  0.3104  0.0411
35393W        W41843  13.981   0.233  10.768 -0.0123 -0.0970  0.1509
35394W        W41844   6.976   2.104  25.869  0.0545  0.1123 -0.2154
35395W        W41845  14.469   6.034  14.127  0.0071  0.4080  0.0392
35396W        W41846  16.717   6.071  36.932  0.0846 -0.1425 -0.1974
35397W        W41847  20.893   0.161  12.936 -0.0190 -0.0282  0.0978
35398W        W41848  16.157   0.640  16.718  0.1588 -0.1224 -0.1109
35399W        W41849   6.709   6.120  28.575  0.1430 -0.2914  0.0204
35400W        W41850   5.486   1.631  30.647 -0.0760  0.1225 -0.1265
35401W        W41851   2.201   0.223  10.245  0.1627 -0.2471 -0.1935
35402W        W41852  19.125   5.758  38.404  0.1062  0.1680  0.2477
35403W        W41853   7.077   1.866  36.259 -0.2993  0.0047  0.1500
35404W        W41854   4.547   4.790  11.684 -0.0581  0.1232  0.2053
35405W        W41855   4.434   0.163  29.584 -0.0873  0.2031  0.2195
35406W        W41856  15.009   6.524  20.777  0.3539 -0.1438 -0.1332
35407W        W41857   5.966   2.782  13.639 -0.2268  0.0823 -0.0070
35408W        W41858  16.364   6.376   8.705  0.0255 -0.1695  0.1252
35409W        W41859   8.341   4.405   8.073  0.3385  0.0458  0.0359
35410W        W41860  15.436   2.996  44.786 -0.0741  0.0594 -0.0138
35411W        W41861  16.629   2.002  30.632  0.1849  0.3632  0.2082
35412W        W41862  21.046   1.780   3.483 -0.2375 -0.0856 -0.2272
35413W        W41863  20.128   1.628   2.156  0.0948  0.0320  0.2700
35414W        W41864  16.031   6.556  31.939  0.2377 -0.1508 -0.2001
35415W        W41865   8.981   0.171  34.916  0.1172 -0.0383 -0.1361
35416W        W41866  15.447   0.591  32.773 -0.0201 -0.0685  0.2609
35417W        W41867   0.143   2.258  37.173  0.2869  0.1848 -0.0112
35418W        W41868   2.683   5.327   2.358  0.2467  0.2224 -0.1257
35419W        W41869  12.178   3.531  32.663  0.1048 -0.0226  0.1956
35420W        W41870   1.548   2.615  35.864 -0.2631  0.3275 -0.0231
35421W        W41871  11.998   1.264  34.970  0.0732 -0.0300 -0.1201
35422W        W41872   7.351   5.210   1.403  0.0946 -0.0324 -0.1207
35423W        W41873   2.164   3.917  14.734 -0.2890 -0.0874 -0.1657
35424W        W41874  15.488   6.319   8.096 -0.1335 -0.3242 -0.1986
35425W        W41875   3.039   1.121  45.067  0.2257  0.0482 -0.0414
35426W        W41876  18.744   5.395   1.410  0.1703  0.0260  0.3133
35427W        W41877  12.194   5.771  28.896  0.0898  0.1801 -0.0190
35428W        W41878   1.970   0.188  44.225 -0.0453  0.2537  0.0022
35429W        W41879  17.399   6.337  14.290  0.1040  0.1637  0.0661
35430W        W41880   0.759   2.743  28.637 -0.0026 -0.1794  0.2702
35431W        W41881   0.065   5.696  37.238  0.2195 -0.1703  0.3333
35432W        W41882   0.594   3.953  10.322 -0.1851 -0.0637  0.0122
35433W        W41883  10.722   4.397  12.106 -0.0451  0.1582 -0.0490
35434W        W41884   8.247   3.353  25.910 -0.0244  0.0952 -0.0082
35435W        W41885   3.908   2.405  32.136  0.0747 -0.0076 -0.0248
35436W        W41886  16.966   6.210   6.100 -0.1443  0.1997 -0.0468
35437W        W41887  19.304   2.060   8.162 -0.2655 -0.2599 -0.2048
35438W        W41888   0.200   2.374   1.887  0.0704  0.0714  0.0798
35439W        W41889  16.167   0.028   2.340  0.0920  0.1495  0.0354
35440W        W41890   9.064   2.588  41.736  0.0644  0.0441 -0.0699
35441W        W41891   7.230   3.969   1.824 -0.2552  0.0269 -0.1419
35442W        W41892  18.937   3.979   3.541 -0.0225  0.2019 -0.3018
35443W        W41893  16.533   5.866  35.736 -0.0406 -0.0152 -0.0641
35444W        W41894  10.866   5.673  44.085  0.2697  0.0503 -0.1667
35445W        W41895   2.193   2.195   2.075 -0.2860  0.0075  0.2072
35446W        W41896  13.674   3.819   5.744 -0.2661  0.2106 -0.1875
35447W        W41897   2.874   3.169  34.477 -0.1183 -0.1285  0.0427
35448W        W41898  11.332   3.704  12.169  0.0029  0.0679  0.0772
35449W        W41899  21.077   6.046  30.014  0.1994 -0.0173  0.1201
35450W        W41900  20.558   0.782   5.073 -0.0311 -0.0285 -0.1421
35451W        W41901   3.621   0.987  37.039  0.2993 -0.0666  0.0319
35452W        W41902  14.353   3.742  32.632  0.1739 -0.0063  0.2950
35453W        W41903  15.006   1.745  10.325 -0.0134  0.3563  0.0364
35454W        W41904  12.535   5.491   0.281 -0.1985 -0.2490  0.1978
35455W        W41905   3.255   2.414   5.330  0.1127  0.1576  0.0790
35456W        W41906  15.992   4.804  44.106 -0.2559  0.1403  0.0317
35457W        W41907   0.473   3.552  38.712  0.1796  0.1144  0.0210
35458W        W41908  11.483   3.986   6.870 -0.1545 -0.2603  0.1589
35459W        W41909   2.512   4.906  14.597  0.1158 -0.1829  0.0973
35460W        W41910  15.743   6.412  33.712 -0.1357  0.1458 -0.3044
35461W        W41911  14.705   2.578  11.560 -0.0092  0.1207  0.0167
35462W        W41912  14.038   5.100  28.922 -0.2138 -0.0095 -0.2144
35463W        W41913   3.090   5.986  30.499  0.1483  0.0099 -0.0511
35464W        W41914  11.360   6.139   0.492 -0.2346 -0.1148 -0.0605
35465W        W41915   2.659   3.672   4.345  0.0520  0.3625 -0.0506
35466W        W41916  13.524   2.073  39.644 -0.0259 -0.0954 -0.2632
35467W        W41917  11.317   2.218  10.376 -0.2624 -0.2052  0.2365
35468W        W41918   1.056   1.909   9.301 -0.0663  0.0003  0.0034
35469W        W41919   1.691   2.050   7.274 -0.1814  0.0333  0.4331
35470W        W41920   0.512   4.529   5.928  0.0589 -0.0543  0.2307
35471W        W41921  17.516   6.529  29.859  0.1927 -0.2383 -0.4290
35472W        W41922  15.585   5.584  34.777  0.0120  0.1165  0.2876
35473W        W41923  19.018   4.307  39.482  0.1947 -0.0265  0.2761
35474W        W41924   9.649   1.878  27.660  0.3162 -0.0449  0.0157
35475W        W41925  11.444   3.098  42.484 -0.0203 -0.0208  0.1639
35476W        W41926   6.634   1.118  32.726  0.2625  0.2130 -0.2341
35477W        W41927  15.897   1.551  17.528  0.0807  0.0334 -0.2566
35478W        W41928  10.420   0.773  44.266 -0.0720  0.3484 -0.0198
35479W        W41929   9.388   6.437  30.169  0.0287  0.2049  0.0912
35480W        W41930  20.069   5.325  19.314  0.0981 -0.0918  0.1232
35481W        W41931  20.434   6.290  16.026  0.1393  0.1647  0.1716
35482W        W41932   4.889   2.171  13.090  0.2717 -0.0235  0.0061
35483W        W41933  13.586   3.663   4.723 -0.3842 -0.0610  0.1019
35484W        W41934   5.010   4.273  40.022  0.0145 -0.0230  0.1670
35485W        W41935  15.008   1.238  10.482 -0.2259  0.3244  0.1578
35486W        W41936  17.750   2.030  22.678 -0.2081  0.0820  0.1131
35487W        W41937  12.886   0.574   9.553 -0.1506  0.2090  0.3866
35488W        W41938   1.937   1.283   0.621  0.3294 -0.2487 -0.1392
35489W        W41939  16.223   2.169   3.912 -0.2521 -0.1902 -0.2598
35490W        W41940   1.761   4.001  35.903 -0.1536 -0.0598 -0.0504
35491W        W41941  10.640   3.099  41.713  0.2723 -0.2449  0.1220
35492W        W41942  17.112   3.223  38.967 -0.1803  0.3186  0.1786
35493W        W41943  12.152   2.244  34.698  0.0676  0.0093  0.0926
35494W        W41944   3.696   2.556  13.234  0.0813 -0.4175 -0.0253
35495W        W41945   2.813   3.815  38.534 -0.0674 -0.0318  0.1466
35496W        W41946   7.395   3.271   9.373 -0.1899 -0.1254  0.0707
35497W        W41947   5.048   0.128  26.836 -0.3207 -0.5961 -0.2970
35498W        W41948  13.259   4.151  13.644  0.2731  0.0200  0.0709
35499W        W41949   6.817   1.921  31.661 -0.3551 -0.2464  0.2367
35500W        W41950   6.646   5.822  27.687  0.2855 -0.0009  0.2381
35501W        W41951  15.497   2.791  38.952  0.0032 -0.0708 -0.0564
35502W        W41952   3.430   0.495   4.812  0.0876  0.1697  0.3943
35503W        W41953   2.861   4.579   7.799  0.0023 -0.3329 -0.0434
35504W        W41954  19.518   0.993  39.246  0.2341  0.3972  0.1294
35505W        W41955   7.121   5.266  11.299 -0.1312 -0.1260  0.0499
35506W        W41956  11.201   4.612   4.557 -0.0096  0.1838 -0.2466
35507W        W41957  15.043   0.010   8.102 -0.2536 -0.1508  0.0341
35508W        W41958   5.456   3.101  31.306  0.2761 -0.3352 -0.3461
35509W        W41959  11.059   3.415  36.403 -0.3843  0.1621  0.1226
35510W        W41960   6.982   0.637  29.391 -0.1977 -0.1941  0.0091
35511W        W41961   4.809   6.455  37.426  0.0118  0.0221  0.0938
35512W        W41962   8.844   4.983   8.464  0.1230 -0.0586 -0.3573
35513W        W41963   1.728   5.087  14.485 -0.0433  0.1140  0.0349
35514W        W41964  14.064   1.867   4.103 -0.1151  0.0186 -0.0768
35515W        W41965  20.859   6.567  36.290  0.0931 -0.1316 -0.1205
35516W        W41966   5.544   3.616  43.310 -0.1766 -0.1473  0.0592
35517W        W41967  17.374   5.174  21.519  0.1610  0.2797  0.2945
35518W        W41968  10.625   0.858   2.216 -0.0556  0.2160  0.1268
35519W        W41969  17.673   2.741  38.437 -0.0577  0.2360  0.1549
35520W        W41970   9.003   1.451  12.275  0.2220  0.2004  0.0495
35521W        W41971   3.809   5.365  24.691 -0.0071  0.0969 -0.0450
35522W        W41972   9.740   5.433   8.556  0.3569  0.0690 -0.0301
35523W        W41973   9.930   5.093  11.606  0.1666  0.2292  0.2604
35524W        W41974   0.018   5.528   7.295  0.0950 -0.0494 -0.0510
35525W        W41975  15.924   3.563  10.366 -0.1324 -0.0641 -0.0156
35526W        W41976   7.891   5.877  38.763  0.1624  0.0481  0.0437
35527W        W41977   1.601   0.798  12.585  0.1131  0.1639 -0.1570
35528W        W41978  14.373   3.625  18.845  0.1996  0.2722 -0.2620
35529W        W41979   0.908   2.324   4.934  0.0703 -0.2089 -0.1115
35530W        W41980  17.103   4.061  31.471  0.1709  0.1508  0.2177
35531W        W41981   7.363   6.532  11.884  0.0343 -0.0223  0.2062
35532W        W41982   8.369   4.264   6.807 -0.2408 -0.0369  0.1582
35533W        W41983  13.134   1.958   5.811  0.0242 -0.1356 -0.0787
35534W        W41984  14.893   0.169  20.123 -0.0584  0.2306 -0.1764
35535W        W41985   7.363   2.124  27.706 -0.3596 -0.2099  0.2851
35536W        W41986   5.962   5.671  32.615 -0.0712 -0.0149 -0.1326
35537W        W41987  15.965   5.357  31.279  0.0812  0.0223  0.3055
35538W        W41988   6.504   0.931  37.031  0.0383 -0.2040 -0.0713
35539W        W41989  20.272   2.097  42.689  0.0901  0.1327 -0.5145
35540W        W41990  12.240   5.886   0.046 -0.2327  0.2214  0.2737
35541W        W41991  19.564   3.619  20.446  0.0579 -0.0462 -0.1953
35542W        W41992  11.496   4.263   7.663  0.1401  0.0471  0.2678
35543W        W41993  10.271   4.375   6.507 -0.1807 -0.1576  0.2125
35544W        W41994   5.221   3.561  14.409  0.1785 -0.1231 -0.1405
35545W        W41995  12.979   0.957   3.719 -0.0700  0.2356  0.0269
35546W        W41996   5.506   6.438   8.275  0.2971 -0.0733 -0.1436
35547W        W41997   7.118   3.178  23.058  0.0944  0.0318  0.2128
35548W        W41998  15.366   0.875  22.522 -0.1409  0.0180 -0.1106
35549W        W41999  15.429   1.606  43.649  0.1952 -0.1654 -0.0716
35550W        W42000   5.612   3.685   8.782  0.2871 -0.1153 -0.3110
35551W        W42001  19.522   1.079   0.908 -0.0125  0.3937  0.2023
35552W        W42002   9.432   2.846  11.629  0.2448  0.0477 -0.1013
35553W        W42003   3.436   6.146  34.106  0.5608 -0.2715  0.0824
35554W        W42004   2.411   4.843   5.265  0.5276  0.0108 -0.2976
35555W        W42005  14.777   4.577  40.893  0.1597  0.0787 -0.1700
35556W        W42006  20.742   2.789  19.248 -0.0578 -0.1824  0.0040
35557W        W42007  20.600   5.348  40.221 -0.0907 -0.2254  0.0078
35558W        W42008  10.842   5.962  36.711 -0.2324 -0.0384  0.0967
35559W        W42009  13.198   0.819  41.065 -0.0797  0.0335 -0.0491
35560W        W42010   4.626   0.460  26.018 -0.1824  0.0542 -0.1605
35561W        W42011  16.940   3.390   0.433  0.0421 -0.1553 -0.2908
35562W        W42012   8.479   0.118  15.342 -0.4218 -0.1205  0.0401
35563W        W42013  17.451   3.229  43.811  0.1125  0.0873  0.3127
35564W        W42014  10.994   4.035  14.029  0.2028  0.0121 -0.3097
35565W        W42015   8.861   2.247  25.169  0.2481  0.0614 -0.0631
35566W        W42016   8.365   0.799  30.027  0.0884  0.0833 -0.3438
35567W        W42017   7.415   4.839  11.258  0.0588  0.4124 -0.0481
35568W        W42018   7.741   6.260  13.389  0.0481  0.0220 -0.3130
35569W        W42019   3.000   3.652  26.859  0.3254  0.2472 -0.1593
35570W        W42020  19.520   5.636  31.087  0.2189  0.0678 -0.0211
35571W        W42021   8.710   1.643  31.144 -0.2388 -0.0254  0.0774
35572W        W42022   6.941   5.079  11.770  0.1893  0.3297  0.0667
35573W        W42023  13.808   3.644  34.444  0.0636 -0.1777  0.0966
35574W        W42024  20.614   2.038  15.032 -0.0015 -0.2008  0.1858
35575W        W42025   7.508   4.499  30.463 -0.2257  0.1369 -0.2138
35576W        W42026   3.663   0.256  25.059 -0.2267  0.0052  0.1117
35577W        W42027  10.058   5.468  26.325 -0.0944  0.0398  0.1179
35578W        W42028   2.780   3.331  12.295 -0.1172  0.2001  0.1465
35579W        W42029  13.334   3.386  36.345  0.3269  0.1042  0.2872
35580W        W42030  12.140   3.116  40.711  0.5487 -0.0710 -0.2372
35581W        W42031  15.004   4.944  16.209  0.1560  0.3342 -0.1751
35582W        W42032   7.223   0.764  39.160 -0.0941 -0.3848  0.4931
35583W        W42033   9.042   0.032  32.415  0.0134 -0.1193 -0.2808
35584W        W42034   8.706   1.565   9.327 -0.2793  0.1885  0.0136
35585W        W42035   6.866   1.815  12.464 -0.1085  0.2506  0.2829
35586W        W42036  12.593   4.410   9.461  0.1634  0.1446 -0.2436
35587W        W42037   9.213   6.527  42.596 -0.1170  0.4022  0.0170
35588W        W42038  20.200   4.378  11.597 -0.0995 -0.0506 -0.0328
35589W        W42039   5.301   3.076  13.042 -0.1202 -0.0318  0.2005
35590W        W42040  19.574   4.371   0.936  0.0988  0.0267  0.0071
35591W        W42041   8.763   4.403  35.561 -0.0057  0.0311  0.2130
35592W        W42042   3.500   5.257   2.345 -0.0222  0.0311 -0.1376
35593W        W42043  12.544   4.082  30.047  0.0107 -0.2664  0.2880
35594W        W42044  20.992   0.835  31.702  0.2653 -0.3907  0.0688
35595W        W42045  20.812   2.432  38.001  0.3782 -0.1529  0.0683
35596W        W42046  15.064   1.941  41.156 -0.1849  0.0856  0.2465
35597W        W42047  19.697   5.648  19.029 -0.0541 -0.2881 -0.0770
35598W        W42048  14.583   6.252   0.843  0.3532 -0.0028  0.1045
35599W        W42049  12.472   5.750   3.940  0.1086  0.0666  0.1116
35600W        W42050   5.550   0.610  39.641  0.2341  0.0792  0.0051
35601W        W42051   5.860   1.556  14.471  0.1634 -0.1435 -0.2858
35602W        W42052   4.713   4.439  12.056  0.1930  0.3552 -0.0132
35603W        W42053   2.314   4.743  25.023 -0.0536  0.2140 -0.0555
35604W        W42054  17.566   6.144  39.159  0.0793  0.0388 -0.3662
35605W        W42055  20.966   1.684  28.327  0.2872 -0.2159  0.0764
35606W        W42056  13.416   2.096  43.674 -0.1892 -0.0958  0.0985
35607W        W42057  12.324   3.764  33.620 -0.0814 -0.1729  0.2695
35608W        W42058   2.163   1.971  29.427 -0.0273 -0.1002  0.0412
35609W        W42059  17.635   2.519  22.663  0.4311  0.0894  0.2642
35610W        W42060  18.195   2.977  30.694  0.1068 -0.0671  0.2558
35611W        W42061  20.431   2.234   8.833 -0.1707  0.2426  0.0286
35612W        W42062  15.909   2.739   0.186  0.0597  0.2819  0.2395
35613W        W42063  11.719   4.479   8.135 -0.1247  0.3271  0.0334
35614W        W42064  14.122   0.101  18.712 -0.0254  0.2182 -0.0581
35615W        W42065   9.684   0.500   4.373 -0.3307 -0.0784 -0.1566
35616W        W42066  19.218   3.454  32.857 -0.4453  0.0014  0.1915
35617W        W42067  18.342   5.771  13.042 -0.0996  0.1610 -0.1811
35618W        W42068  18.929   5.519   6.058  0.1450 -0.0306  0.1165
35619W        W42069  14.952   5.111  36.880 -0.0541  0.0188  0.1034
35620W        W42070  17.244   0.326  30.743 -0.0537 -0.1178 -0.0578
35621W        W42071   5.032   4.442   7.462  0.0484  0.2373 -0.1501
35622W        W42072  12.675   2.405  38.874  0.4099 -0.2018  0.2020
35623W        W42073  15.933   2.613  13.067  0.0244  0.0265  0.2190
35624W        W42074   4.334   3.525  37.694 -0.1326  0.1951 -0.1615
35625W        W42075  18.051   4.185   4.315 -0.2699 -0.0378 -0.2137
35626W        W42076  19.387   2.965  34.982  0.3417 -0.1506  0.0799
35627W        W42077   7.930   2.986   8.699  0.0954  0.0490 -0.3696
35628W        W42078   2.617   4.172   4.139  0.2898 -0.0999 -0.2999
35629W        W42079  12.346   2.319   2.626  0.0488 -0.0337 -0.1600
35630W        W42080  15.129   0.485  40.880  0.1353 -0.0969  0.2831
35631W        W42081   4.484   3.310  40.454  0.3862 -0.1430  0.0608
35632W        W42082   2.042   5.191   6.452 -0.0739  0.3004  0.1989
35633W        W42083  19.119   4.231  36.460 -0.3036  0.0567  0.4966
35634W        W42084   8.829   2.704   5.191 -0.2062 -0.2471 -0.0851
35635W        W42085  10.293   0.679   5.620  0.0939 -0.0800  0.0758
35636W        W42086  20.065   5.335   0.578  0.0318 -0.3055 -0.2663
35637W        W42087  13.642   2.178  14.239  0.2674  0.2738  0.2108
35638W        W42088   5.877   0.390  30.390  0.2254  0.0192 -0.0688
35639W        W42089  10.820   5.873  14.659 -0.0875  0.1870 -0.0345
35640W        W42090  16.904   2.990  36.653  0.0045  0.1208 -0.0817
35641W        W42091  15.261   4.914  21.884 -0.0070 -0.1254  0.0094
35642W        W42092  13.789   3.205  43.692 -0.0083 -0.2592  0.0614
35643W        W42093   5.850   3.210  22.541 -0.0807 -0.1637 -0.0845
35644W        W42094  10.860   1.121  26.751 -0.1874 -0.0194  0.0243
35645W        W42095   1.040   5.577  39.405 -0.0232  0.1719  0.0227
35646W        W42096  17.839   2.142   0.444 -0.0157 -0.3735 -0.0273
35647W        W42097  17.725   2.318  36.014  0.3093  0.2483 -0.2102
35648W        W42098   0.092   4.508   9.985  0.1039  0.0545  0.5116
35649W        W42099   0.646   1.948  30.392  0.2787  0.0929  0.1412
35650W        W42100   2.881   1.125  14.063 -0.1759  0.1240  0.2251
35651W        W42101   9.748   2.566  16.744  0.2286  0.4248 -0.1514
35652W        W42102  10.079   2.673  44.632 -0.0034  0.1887 -0.0412
35653W        W42103   7.187   2.625  29.783 -0.1108  0.4288 -0.0616
35654W        W42104   3.353   2.347   1.786 -0.1006 -0.4351  0.0755
35655W        W42105  20.344   1.050  33.774 -0.0323 -0.0293 -0.2461
35656W        W42106  17.726   6.357  44.986  0.0481 -0.1829  0.2548
35657W        W42107   4.052   6.423   3.188 -0.1771 -0.0665  0.0796
35658W        W42108   7.862   4.092  27.998  0.0979 -0.0757 -0.2138
35659W        W42109   6.410   6.244   9.591  0.0028  0.1804 -0.0402
35660W        W42110   0.178   1.190   5.889  0.0182  0.1620  0.1188
35661W        W42111   6.459   1.679   2.473 -0.1014 -0.1862  0.0718
35662W        W42112  17.819   2.798   3.098  0.1034  0.0962 -0.0762
35663W        W42113   9.665   5.573  40.773 -0.0094 -0.0216  0.1534
35664W        W42114  18.900   5.714  20.106  0.1522  0.1825 -0.1792
35665W        W42115   3.724   2.425  31.402  0.0914  0.2273  0.2875
35666W        W42116  16.571   0.869  12.206  0.0246 -0.1492 -0.1450
35667W        W42117  18.343   5.268  41.635  0.1467  0.1422 -0.0685
35668W        W42118  18.464   1.230  13.702  0.0171  0.0628 -0.2664
35669W        W42119   0.905   0.203  28.184 -0.0152 -0.0343 -0.0191
35670W        W42120  19.784   3.622   1.005 -0.0882  0.1984 -0.0849
35671W        W42121   9.544   2.541   4.494  0.1537  0.2561  0.0495
35672W        W42122  11.492   1.503  37.521  0.0127  0.1100 -0.1050
35673W        W42123  16.365   5.902  32.423  0.1904  0.3878 -0.0079
35674W        W42124   4.422   3.512   4.181  0.2077  0.0808  0.1720
35675W        W42125  19.443   4.213   3.126 -0.0216  0.1452  0.3028
35676W        W42126   0.634   6.387  34.896 -0.0612  0.2474 -0.3865
35677W        W42127  10.967   0.629  33.674 -0.1355  0.0263  0.1937
35678W        W42128  17.271   1.197  19.781  0.1227 -0.0871  0.3528
35679W        W42129   5.480   0.945  41.503 -0.0786  0.1128 -0.1481
35680W        W42130   5.753   4.616  28.295 -0.0086 -0.0426 -0.5074
35681W        W42131   8.260   2.529  39.107 -0.0275 -0.3086 -0.1320
35682W        W42132  15.873   0.131  34.597  0.0000 -0.3231 -0.2146
35683W        W42133   3.633   4.368   1.653  0.0847 -0.4988  0.1016
35684W        W42134  16.762   4.560   3.952 -0.2108 -0.0297  0.3073
35685W        W42135  12.750   6.297   2.442  0.0737  0.0265  0.0392
35686W        W42136   3.822   1.697   6.505 -0.0357 -0.1523 -0.0650
35687W        W42137   7.828   5.855   1.530 -0.1166 -0.0334  0.2628
35688W        W42138  10.648   4.001  12.530 -0.2648 -0.2425  0.1349
35689W        W42139  20.301   4.648  41.991 -0.1866 -0.1657 -0.4276
35690W        W42140  19.464   5.110  13.073  0.0683 -0.0657 -0.1997
35691W        W42141   5.218   1.312  30.999  0.0294 -0.2145  0.2035
35692W        W42142  19.087   5.622  43.098 -0.0050 -0.0020 -0.0173
35693W        W42143  13.993   1.446   9.441  0.0878  0.0768 -0.1263
35694W        W42144  12.236   2.732   0.473  0.2436 -0.1235  0.0727
35695W        W42145  19.476   4.281  34.340  0.1661  0.0387  0.1207
35696W        W42146   8.814   3.625  11.371  0.1630  0.0781  0.3315
35697W        W42147  16.757   5.666   5.537 -0.0493 -0.1962  0.1362
35698W        W42148   1.808   6.088   0.136 -0.0035  0.0411  0.3288
35699W        W42149  16.130   1.936  41.352 -0.0418 -0.2407 -0.0206
35700W        W42150   7.669   0.409   0.523  0.3687  0.1397 -0.0765
35701W        W42151   1.612   1.118  16.076  0.1223 -0.2108  0.0501
35702W        W42152  16.195   4.331  40.700 -0.0524 -0.0567 -0.2657
35703W        W42153  15.566   3.397  34.334  0.2738  0.2284  0.2355
35704W        W42154  10.494   4.630  31.605 -0.1977  0.1585 -0.3363
35705W        W42155   7.749   6.342   6.790 -0.1306  0.2601 -0.3995
35706W        W42156   3.906   3.784  36.099 -0.3426  0.0023  0.1553
35707W        W42157   7.175   0.305  33.188  0.1148 -0.0694  0.1872
35708W        W42158  18.424   2.476  41.550  0.0239 -0.0179 -0.0459
35709W        W42159  13.097   5.311  38.034 -0.3133  0.2006  0.1400
35710W        W42160  15.328   5.669  34.339 -0.1889 -0.0905  0.0409
35711W        W42161  16.571   1.817  19.784 -0.0614  0.1891  0.2443
35712W        W42162   9.647   1.156   5.621 -0.4680 -0.1927 -0.2278
35713W        W42163   0.432   3.646   9.715 -0.0568  0.3242  0.1366
35714W        W42164   8.984   2.554  23.769 -0.1786  0.4437 -0.2201
35715W        W42165   6.370   3.795  11.188  0.1135 -0.2008  0.0671
35716W        W42166  19.042   2.055  35.976 -0.3105  0.1604  0.0325
35717W        W42167  19.613   0.177  17.586  0.0988 -0.2749 -0.2958
35718W        W42168  17.193   5.674  32.493  0.2221 -0.0144  0.2835
35719W        W42169  18.115   4.094  32.654  0.0687  0.0755 -0.2757
35720W        W42170  16.621   5.658  23.485 -0.0578 -0.4971  0.3290
35721W        W42171   1.095   2.617  10.147 -0.1033 -0.2953  0.1565
35722W        W42172  15.479   0.610  39.981 -0.1243 -0.1333  0.1202
35723W        W42173   7.812   1.700  14.443 -0.0478  0.0542 -0.0181
35724W        W42174  15.121   1.727  20.910 -0.0808 -0.3438 -0.2032
35725W        W42175   0.738   0.004  31.658  0.4113 -0.0955  0.1716
35726W        W42176  17.594   3.716  19.002 -0.4580 -0.0530  0.2380
35727W        W42177  20.141   5.676   0.252 -0.1864 -0.0856  0.1238
35728W        W42178   6.661   4.371  20.318  0.1713  0.2051 -0.1108
35729W        W42179  19.633   2.338  20.708 -0.2224  0.1891  0.0802
35730W        W42180  18.922   2.342   0.940  0.1861 -0.0430  0.1876
35731W        W42181  18.711   0.017  38.820  0.1290 -0.2599 -0.0144
35732W        W42182   2.486   2.722  15.174  0.2410  0.2122 -0.1346
35733W        W42183  20.345   1.704  39.087 -0.1767  0.3111 -0.0069
35734W        W42184   9.629   5.018   1.420  0.0780 -0.0337  0.0400
35735W        W42185   7.608   4.373  33.066 -0.2202 -0.2726  0.1089
35736W        W42186  11.114   1.237  38.525 -0.3243 -0.1980  0.2059
35737W        W42187   8.807   6.153  13.596  0.1248 -0.1149  0.0918
35738W        W42188  20.718   2.538  10.830 -0.3467  0.0278 -0.1815
35739W        W42189   1.896   4.271  32.187  0.2576 -0.3445  0.0866
35740W        W42190   5.782   2.787   3.814  0.1582  0.0166 -0.3185
35741W        W42191   8.460   2.690   7.391 -0.1004 -0.0491 -0.1117
35742W        W42192   5.232   4.466  27.411  0.1171 -0.0379  0.2038
35743W        W42193  21.011   5.404  38.873 -0.0284 -0.0464  0.0481
35744W        W42194   6.081   2.679   6.414  0.0337 -0.0714  0.2571
35745W        W42195   0.515   2.922  13.845 -0.3104  0.0753 -0.2937
35746W        W42196   4.799   2.063   7.714  0.2412  0.3132 -0.2294
35747W        W42197  13.627   6.457  44.052  0.0569  0.1078 -0.1028
35748W        W42198  18.381   3.215  15.514 -0.3667  0.1840 -0.2730
35749W        W42199   2.874   5.229  40.742 -0.0600  0.3350  0.0384
35750W        W42200   7.140   0.316  40.566  0.1369 -0.2251 -0.2170
35751W        W42201  18.599   6.052  29.662  0.1426 -0.1376  0.1456
35752W        W42202   1.596   4.757   5.788 -0.1674 -0.0992 -0.2171
35753W        W42203   6.170   5.162  14.283  0.0741  0.0711  0.1735
35754W        W42204   6.547   5.674  10.158 -0.2342 -0.0312  0.0431
35755W        W42205  12.057   1.985  37.076 -0.0533  0.1275 -0.3530
35756W        W42206  11.496   4.078  42.703  0.0243  0.2562  0.1025
35757W        W42207   0.157   3.166  34.240  0.0046 -0.1715  0.0471
35758W        W42208   6.566   3.219  14.045  0.3178  0.0972  0.0047
35759W        W42209  15.863   2.134  43.223  0.0292 -0.0374 -0.0648
35760W        W42210  16.122   6.272  41.425  0.0809  0.2671  0.0879
35761W        W42211   4.204   2.310  26.447  0.0681  0.0988  0.0148
35762W        W42212  18.863   1.043  13.945  0.0133 -0.1423  0.1988
35763W        W42213  13.388   0.734   8.198  0.1108  0.1886  0.1819
35764W        W42214   6.180   2.825  14.709  0.1725 -0.4716 -0.2106
35765W        W42215  14.792   4.673  20.922 -0.1575  0.0264 -0.3304
35766W        W42216  14.930   6.320  28.099 -0.1013 -0.0518  0.0346
35767W        W42217   7.869   1.771  36.072  0.1004  0.2339 -0.0625
35768W        W42218  10.521   1.908  25.893 -0.0946  0.1364  0.1289
35769W        W42219  10.002   0.932  37.241  0.0858  0.0962 -0.1068
35770W        W42220   6.527   4.386   4.280  0.2222 -0.1386 -0.1457
35771W        W42221  13.921   5.394  17.496 -0.2637 -0.0392  0.1320
35772W        W42222   1.107   4.838  31.649  0.0366  0.1614  0.0381
35773W        W42223  10.523   1.994  33.921 -0.0630  0.0928  0.1765
35774W        W42224  10.696   2.612  37.520  0.1875  0.0120  0.0619
35775W        W42225  11.010   2.017   3.351  0.0033 -0.0650  0.2420
35776W        W42226  14.287   2.041  18.679  0.1280 -0.1441  0.0587
35777W        W42227  11.160   5.986   8.711  0.2389  0.1453 -0.0641
35778W        W42228   6.049   2.835  41.803  0.1176 -0.1352 -0.1523
35779W        W42229  14.832   6.365  33.801 -0.0303 -0.1348 -0.1153
35780W        W42230  14.415   0.478  33.703  0.1078  0.1139 -0.0208
35781W        W42231  16.315   0.509  17.763  0.0693 -0.0120  0.0085
35782W        W42232  11.765   3.286  20.071 -0.0993 -0.1921 -0.1808
35783W        W42233   3.571   5.914   4.190  0.2944  0.1198  0.0355
35784W        W42234  11.631   5.228  40.941  0.0516 -0.2510  0.1352
35785W        W42235  11.382   5.748  17.112 -0.2984  0.2369  0.0231
35786W        W42236  12.785   1.052  34.017 -0.1651  0.1036 -0.0179
35787W        W42237  10.271   5.061   2.489 -0.0168  0.3154  0.0518
35788W        W42238   3.559   6.091  23.046  0.1949  0.0805 -0.2102
35789W        W42239   2.802   3.845   5.945  0.0932  0.3576  0.2084
35790W        W42240  17.524   6.215   6.032 -0.1591  0.0136  0.1910
35791W        W42241  11.683   2.113  44.035  0.0091 -0.1823  0.0943
35792W        W42242  11.185   3.264  25.703  0.2921 -0.1168 -0.0879
35793W        W42243   4.532   0.929   3.226 -0.2277  0.1382  0.0912
35794W        W42244  19.073   2.148  41.894  0.2580 -0.0602 -0.4062
35795W        W42245   3.888   4.187   2.103  0.1371  0.0340  0.0727
35796W        W42246  13.704   0.354  15.787  0.1066 -0.0629  0.0451
35797W        W42247   6.588   2.634   0.688  0.0993 -0.1409  0.2346
35798W        W42248  14.413   4.549  34.319 -0.0433  0.0600  0.0794
35799W        W42249  11.461   4.917  40.066  0.0617 -0.0206 -0.2573
35800W        W42250  12.088   5.669  12.570  0.4436  0.1799 -0.1959
35801W        W42251   8.936   1.570  10.472 -0.1191 -0.0866  0.2952
35802W        W42252  11.475   4.207  44.694 -0.1906  0.2769  0.1593
35803W        W42253  14.610   2.796  30.704  0.0316 -0.0013  0.0583
35804W        W42254   6.291   0.071  43.368  0.1980 -0.1963  0.0038
35805W        W42255  19.094   3.106  17.570 -0.2434  0.0718  0.0334
35806W        W42256  17.182   0.764  40.119 -0.1430  0.1975 -0.2684
35807W        W42257  17.157   3.347  24.059 -0.1132  0.1683 -0.1462
35808W        W42258   0.364   5.528  15.881  0.1909  0.0045  0.1675
35809W        W42259   6.837   2.370  13.762 -0.1614 -0.1293  0.0140
35810W        W42260  10.131   5.649  43.225  0.0273  0.3745  0.0748
35811W        W42261   2.137   1.857  40.624 -0.1674 -0.1012 -0.0439
35812W        W42262  12.437   3.018   0.098  0.0480  0.3728 -0.2921
35813W        W42263   2.479   1.977  10.330  0.0161  0.1025 -0.1271
35814W        W42264   1.888   6.098  35.177  0.2171 -0.0613  0.2134
35815W        W42265   1.392   1.906  15.492  0.3732 -0.5091  0.1648
35816W        W42266  10.962   1.265  13.022  0.1469 -0.1585  0.1893
35817W        W42267   0.779   3.769   0.305  0.2076  0.1858 -0.0154
35818W        W42268   0.846   0.071   3.739  0.2044 -0.0911  0.0640
35819W        W42269  20.478   6.066  31.683  0.0134  0.2601  0.1375
35820W        W42270  14.419   3.055  42.407  0.1988  0.2354 -0.1882
35821W        W42271   2.133   6.006  14.643 -0.1154 -0.3860  0.3205
35822W        W42272  17.723   2.089  44.710 -0.1689  0.0854  0.1305
35823W        W42273  15.907   1.673   2.329  0.0070 -0.1044  0.0403
35824W        W42274   8.898   2.718  44.664  0.0034  0.1061  0.0559
35825W        W42275  13.652   1.789  20.392 -0.3654  0.0939 -0.3141
35826W        W42276   1.453   0.402  36.855 -0.1821  0.3212 -0.0024
35827W        W42277  11.414   3.105  36.244  0.1013  0.1141  0.0925
35828W        W42278  17.196   4.283  34.798 -0.0323 -0.0864  0.3326
35829W        W42279  18.158   4.048   6.504 -0.1240  0.0346  0.0150
35830W        W42280  19.235   4.746   0.963 -0.2990 -0.1243  0.1103
35831W        W42281   7.982   0.745  10.996 -0.1783  0.1104  0.0870
35832W        W42282  15.453   2.398  19.278 -0.1402 -0.3374 -0.3734
35833W        W42283   5.142   1.921  27.065 -0.0183 -0.2194  0.2148
35834W        W42284   0.819   6.503   9.547 -0.2166  0.2917  0.1673
35835W        W42285  18.446   0.303  14.324 -0.0575  0.0218  0.2093
35836W        W42286   0.713   1.117  40.364 -0.1312 -0.2804  0.0697
35837W        W42287   9.655   4.293   7.958 -0.5967 -0.2010 -0.4037
35838W        W42288  11.142   3.983  35.125 -0.0128  0.0724  0.0404
35839W        W42289  14.915   5.702  22.352  0.0121  0.1294  0.1097
35840W        W42290  16.330   3.099  29.866  0.0030 -0.1786 -0.1708
35841W        W42291   5.425   5.904   8.954 -0.1302  0.1756 -0.2911
35842W        W42292   1.452   3.306  29.309 -0.1598  0.3022 -0.0846
35843W        W42293  18.159   6.503  16.673 -0.0433 -0.3489 -0.0793
35844W        W42294  17.996   5.200  35.138  0.0249 -0.1924 -0.2189
35845W        W42295  10.164   2.815  38.971  0.1871 -0.1923 -0.1033
35846W        W42296   5.597   5.688  26.162  0.4610  0.3416  0.0482
35847W        W42297   4.555   2.196  37.600  0.0005  0.0460 -0.0463
35848W        W42298  16.852   0.397  39.924 -0.3137  0.3143 -0.2105
35849W        W42299  15.181   0.797  38.790  0.0663  0.0097 -0.2186
35850W        W42300   7.291   4.075  30.026 -0.0317  0.0975 -0.3688
35851W        W42301  18.539   4.615  35.244 -0.2171  0.0984 -0.1037
35852W        W42302  11.380   4.979  16.716 -0.1913 -0.2369  0.6088
35853W        W42303   9.156   3.282  39.106  0.1445  0.0443  0.0240
35854W        W42304   9.624   6.344   0.721  0.0494 -0.2412  0.1094
35855W        W42305  13.344   6.602  40.448  0.0940 -0.0324 -0.0987
35856W        W42306  13.875   5.517  16.145  0.2733 -0.0166  0.1179
35857W        W42307   1.811   5.789  34.770  0.1147 -0.1344  0.1458
35858W        W42308  15.582   4.932   4.953 -0.0315 -0.1775  0.1412
35859W        W42309  14.997   5.014   0.966 -0.1088  0.3816 -0.0226
35860W        W42310   0.205   4.990  32.465 -0.0406  0.2330 -0.0909
35861W        W42311  11.467   5.193  30.323 -0.2910 -0.0303 -0.0767
35862W        W42312  14.860   4.750  36.136  0.0130 -0.0560 -0.0115
35863W        W42313   5.951   3.370  23.051 -0.1222 -0.1191 -0.0794
35864W        W42314  16.269   1.951  34.235 -0.0453 -0.3416  0.2470
35865W        W42315   8.334   1.826  38.643  0.0488  0.0061 -0.2743
35866W        W42316  13.181   2.578   3.306  0.1253  0.1323  0.1455
35867W        W42317  10.832   4.243  27.386 -0.3498  0.1239 -0.3085
35868W        W42318  15.720   4.146  29.287  0.0315 -0.1955 -0.4333
35869W        W42319  11.773   5.386  40.251  0.0850  0.1499  0.2179
35870W        W42320   7.195   5.731  23.694  0.4628 -0.0301  0.1289
35871W        W42321   9.097   1.945   5.155 -0.0875  0.0127 -0.1331
35872W        W42322  20.411   4.675   0.050 -0.0858 -0.0573  0.0234
35873W        W42323   6.156   3.973  42.769 -0.0075  0.2922  0.0559
35874W        W42324  13.701   6.293  20.345  0.0084 -0.3832  0.1228
35875W        W42325  19.052   6.237  14.634  0.0985 -0.0304  0.3456
35876W        W42326  12.979   1.897  44.534 -0.3923  0.0853  0.2414
35877W        W42327  14.856   5.425  17.932  0.0404  0.1366 -0.0303
35878W        W42328   5.861   1.369   3.090 -0.0012  0.0783  0.5981
35879W        W42329   5.718   5.332  20.018  0.0868 -0.4357 -0.0220
35880W        W42330  16.844   5.712  44.906  0.2624  0.1367  0.0610
35881W        W42331   6.689   1.407   6.293 -0.0312  0.1013  0.0275
35882W        W42332   5.303   5.961  27.773  0.2766 -0.3093 -0.1567
35883W        W42333   8.215   1.807  24.138  0.3118  0.0739  0.1184
35884W        W42334   3.438   1.635  24.730  0.1059 -0.2155 -0.2517
35885W        W42335   0.682   1.286  33.603 -0.0469  0.0324  0.1377
35886W        W42336   8.796   5.776  43.219  0.1004 -0.0726 -0.0554
35887W        W42337   5.377   5.407  30.102  0.5048 -0.0093 -0.0326
35888W        W42338   1.090   2.048  40.472  0.2170  0.0444  0.1436
35889W        W42339   9.774   4.714   0.262  0.2176  0.1358 -0.3277
35890W        W42340  20.750   4.073  41.592  0.2707 -0.0805 -0.0392
35891W        W42341   8.018   1.503   1.515  0.0905 -0.4539 -0.2046
35892W        W42342   5.070   5.099  39.900  0.0115  0.0600 -0.0917
35893W        W42343  17.541   3.263  18.180  0.1203 -0.3588  0.0105
35894W        W42344  17.064   0.833  21.940 -0.1260  0.0637  0.0428
35895W        W42345  17.403   2.155  36.888 -0.2267 -0.0097  0.1640
35896W        W42346  18.823   3.194  44.432  0.2365 -0.2200 -0.0275
35897W        W42347   4.536   3.350   1.405  0.0928  0.2642 -0.1175
35898W        W42348  16.496   4.993  39.140 -0.0669 -0.1545  0.0471
35899W        W42349  10.319   3.346   8.322 -0.1026 -0.1032  0.0330
35900W        W42350   2.031   4.279  42.552  0.2657  0.0205 -0.0229
35901W        W42351  16.309   3.352  13.856 -0.0571  0.0301 -0.2387
35902W        W42352  10.057   0.654  28.423 -0.0413  0.3052 -0.1398
35903W        W42353  13.880   6.536  11.372 -0.5151 -0.1258  0.2164
35904W        W42354   8.039   4.798  31.279 -0.0420 -0.0682 -0.0978
35905W        W42355   9.892   4.364  43.055  0.0483  0.0911 -0.1289
35906W        W42356  16.738   4.847  22.560  0.0819 -0.0503  0.0494
35907W        W42357  18.061   2.249  17.227  0.1299 -0.1280  0.0397
35908W        W42358   0.972   3.163  27.814  0.1379  0.2986  0.1649
35909W        W42359   7.674   1.885  39.127  0.0820 -0.0698  0.1769
35910ION     NA42360   9.494   5.676  15.409 -0.7063  0.0607  0.2118
35911ION     NA42361   0.577   1.152   9.392 -0.1181 -0.1591 -0.1802
35912ION     NA42362  10.799   5.438  33.736  0.0490  0.4097 -0.1499
35913ION     NA42363  10.675   1.879  33.548 -0.0894  0.1181 -0.4210
35914ION     NA42364   7.298   0.545  40.886 -0.0866  0.3596  0.6827
35915ION     NA42365   5.210   0.615  40.815 -0.0287  0.0407 -0.1431
35916ION     NA42366   5.259   1.352  41.403 -0.1190  0.2448 -0.2372
35917ION     NA42367   7.386   6.026  22.546 -0.1992 -0.0749  0.3086
35918ION     NA42368   5.127   0.706  35.030  0.1251 -0.5014  0.4354
35919ION     NA42369   2.593   0.870   7.931  0.0650 -0.1808  0.0753
35920ION     NA42370  20.653   3.230  33.582  0.3552 -0.1417  0.0475
35921ION     NA42371  14.579   3.576  15.023 -0.3222 -0.0579 -0.1081
35922ION     NA42372   0.696   4.979  16.906  0.2210  0.2153 -0.0619
35923ION     NA42373   8.442   5.256   5.290 -0.2275  0.0521  0.4783
35924ION     NA42374   9.574   5.229  13.207  0.3672  0.2158 -0.3015
35925ION     NA42375   6.740   2.259  40.864  0.5619  0.1922 -0.0847
35926ION     NA42376  19.689   3.536  32.138 -0.0061 -0.4332  0.0551
35927ION     NA42377  19.516   1.602  38.896  0.0089  0.0354  0.0597
35928ION     NA42378  20.919   1.312  44.215 -0.0162  0.2183  0.0736
35929ION     NA42379  14.448   6.035   9.064  0.2130 -0.1252 -0.2638
35930ION     NA42380  16.819   4.238  19.466 -0.2163 -0.0547  0.1537
35931ION     NA42381   7.268   6.283  15.111 -0.1741  0.0178 -0.3059
35932ION     NA42382  11.914   1.384   1.803  0.0822  0.5682 -0.0492
35933ION     NA42383  18.798   3.810  33.490  0.1501  0.2485 -0.2252
35934ION     NA42384   8.318   3.248  29.350  0.0527  0.0248 -0.2758
35935ION     NA42385   7.511   5.918  41.829  0.0893 -0.1849  0.1577
35936ION     NA42386   5.632   0.179   0.636  0.1944 -0.1501  0.1926
35937ION     NA42387   0.864   0.833   1.946 -0.0922 -0.2893 -0.1628
35938ION     NA42388   3.016   1.908  40.402  0.0198 -0.0471 -0.1699
35939ION     NA42389   7.933   0.360  27.556  0.0541  0.2721  0.1147
35940ION     NA42390  14.446   2.537  17.612 -0.1066 -0.0518 -0.2187
35941ION     NA42391  13.052   4.662   5.249 -0.0222 -0.0443 -0.2890
35942ION     NA42392   6.270   4.335   7.519 -0.0580 -0.3013 -0.0178
35943ION     NA42393   8.449   4.960  44.995  0.0157  0.2308 -0.6712
35944ION     NA42394  12.064   3.052   5.974 -0.1069  0.0055  0.0725
35945ION     NA42395   3.082   5.291   2.518 -0.0347 -0.2942 -0.1556
35946ION     NA42396   0.543   0.296   4.038 -0.8425  0.2692 -0.5947
35947ION     NA42397   3.046   5.700  41.857 -0.3424  0.1624  0.3728
35948ION     NA42398  17.634   1.323  32.032 -0.1093  0.2521  0.3212
35949ION     NA42399  13.615   1.131  16.352 -0.1549  0.4157 -0.1042
35950ION     NA42400   9.886   3.131   3.745  0.0621 -0.0653  0.1719
35951ION     NA42401  17.569   4.193   3.328  0.0960  0.1856  0.0793
35952ION     NA42402   9.425   2.120  31.960  0.0668  0.1572  0.0649
35953ION     NA42403   3.440   0.445   3.322  0.3177  0.0188 -0.1925
35954ION     NA42404   1.133   2.730  31.664 -0.2704  0.0354 -0.3568
35955ION     NA42405   3.377   6.427  31.028 -0.5121 -0.1667 -0.2476
35956ION     NA42406  15.768   4.364  37.812 -0.2213 -0.2578  0.0448
35957ION     NA42407  16.920   4.661  31.663 -0.0256  0.2814 -0.1228
35958ION     NA42408  12.232   2.667  15.174  0.0387 -0.3990  0.1404
35959ION     NA42409  16.430   2.979  14.065  0.2439 -0.2632 -0.3491
35960ION     NA42410   0.098   1.409   3.244  0.3069  0.1308 -0.6025
35961ION     NA42411  12.572   2.981  44.523 -0.1950 -0.1363 -0.4293
35962ION     NA42412  19.854   1.991  14.370  0.0158  0.0472  0.0324
35963ION     NA42413   0.763   5.150   2.310 -0.3127 -0.4030 -0.0899
35964ION     NA42414   9.213   4.690   3.769 -0.0549 -0.2447 -0.1872
35965ION     NA42415  19.510   1.317  34.182  0.0109 -0.3509  0.6715
35966ION     NA42416  16.275   5.335  20.141 -0.0103 -0.0226  0.2402
35967ION     NA42417  15.147   5.204   5.615  0.2995  0.4056  0.0083
35968ION     NA42418  11.231   3.916  15.945  0.2252 -0.2402  0.2418
35969ION     NA42419  10.630   1.308  16.229 -0.2471  0.0787 -0.1371
35970ION     NA42420   3.400   6.574  39.356 -0.2077  0.2019 -0.2051
35971ION     NA42421  13.999   1.756   8.300  0.0801 -0.1473  0.2150
35972ION     NA42422  13.655   5.699  33.859 -0.0720  0.2360 -0.2566
35973ION     NA42423   6.306   5.895   2.266  0.0010  0.2070 -0.7570
35974ION     NA42424  14.134   0.869  17.604 -0.0216 -0.1655  0.0530
35975ION     NA42425  19.815   0.518  33.782  0.3148  0.2302 -0.2195
35976ION     NA42426   7.444   5.664  33.075 -0.1356  0.0447 -0.0478
35977ION     NA42427  16.660   3.427  18.060 -0.4461  0.0836  0.0222
35978ION     NA42428   2.973   6.532  41.795  0.2981 -0.3361 -0.0045
35979ION     NA42429   2.701   0.336   8.867 -0.1960 -0.1421 -0.2131
35980ION     NA42430  20.279   0.307  10.246  0.1522  0.2272  0.2025
35981ION     NA42431  20.638   3.244  37.426 -0.1265 -0.0491  0.2364
35982ION     NA42432   5.090   1.824  23.899  0.3126  0.1148 -0.0885
35983ION     NA42433  20.169   3.690   5.605 -0.0117 -0.0939  0.2811
35984ION     NA42434  17.549   0.638  45.057 -0.2876 -0.2149  0.1979
35985ION     NA42435  14.891   6.099   6.181  0.1644 -0.0680  0.1634
35986ION     NA42436   1.224   4.340  41.764 -0.3125 -0.0998 -0.2977
35987ION     NA42437   1.877   0.386  26.078 -0.3363  0.2518 -0.0147
35988ION     NA42438  17.815   4.367  33.523  0.0705 -0.0492  0.0942
35989ION     NA42439  16.930   3.767  36.984  0.3042 -0.2180  0.0406
35990ION     NA42440   5.682   1.891   7.883 -0.2277 -0.3286  0.1361
35991ION     NA42441   5.715   0.655  22.881  0.1911 -0.2983 -0.1524
35992ION     NA42442  16.546   4.033  20.029 -0.1533 -0.2066 -0.3369
35993ION     NA42443  14.448   4.279  14.733  0.3561  0.1786 -0.3010
35994ION     NA42444   3.189   2.537  14.366 -0.0191 -0.3510  0.5346
35995ION     NA42445  12.315   5.846  15.503 -0.2685  0.0281  0.0030
35996ION     NA42446   2.461   4.441  14.385  0.0371  0.1582 -0.0303
35997ION     NA42447  19.416   0.280  21.146 -0.0478  0.0832  0.1698
35998ION     NA42448  10.109   3.800  12.045  0.1224 -0.0346 -0.3170
35999ION     NA42449  11.133   1.032   4.641 -0.2236  0.0773 -0.1732
36000ION     NA42450  19.750   5.805   2.712  0.0980 -0.1483 -0.0645
36001ION     NA42451   0.968   2.158   7.367  0.1100  0.0014  0.1180
36002ION     NA42452  20.598   5.306  43.619 -0.3488  0.1414  0.3777
36003ION     NA42453  12.397   1.516  27.972  0.0768  0.1702 -0.3768
36004ION     NA42454  19.844   4.395   6.228 -0.4450 -0.0902 -0.0562
36005ION     NA42455   8.999   4.544  38.633 -0.4651  0.4636  0.2470
36006ION     NA42456  10.985   0.001  38.891 -0.0736  0.2610  0.0707
36007ION     NA42457   5.722   4.209  27.975 -0.2651  0.3755  0.2929
36008ION     NA42458   2.203   2.976  32.100  0.2845  0.4219 -0.2857
36009ION     NA42459   0.750   2.793  40.549 -0.4959 -0.2097 -0.0064
36010ION     NA42460   1.596   3.706   7.723 -0.7280 -0.1587  0.3015
36011ION     NA42461  18.623   0.755  33.616  0.0835  0.0264 -0.1757
36012ION     NA42462   7.111   6.577  31.739  0.2560 -0.1091  0.0130
36013ION     NA42463  10.609   0.867  34.719 -0.0130  0.0291 -0.0757
36014ION     NA42464   6.477   5.730   1.126 -0.1829  0.0295  0.1503
36015ION     NA42465  14.528   4.462   5.091  0.0231 -0.0351 -0.2744
36016ION     NA42466   7.260   2.004  25.531 -0.0648  0.0581  0.3415
36017ION     NA42467   0.654   0.658  10.414  0.2275 -0.2368 -0.1848
36018ION     NA42468   7.678   0.032   1.189  0.0878 -0.1848  0.3368
36019ION     NA42469  19.071   4.654  19.169  0.3378 -0.1180  0.5534
36020ION     NA42470   8.425   5.397   0.722  0.2298 -0.3973  0.2289
36021ION     NA42471  12.720   1.989  11.761 -0.3008 -0.0253 -0.3314
36022ION     NA42472   6.491   5.542   8.751 -0.0653 -0.0392  0.2264
36023ION     NA42473   0.601   5.886   8.312  0.2117  0.0033  0.0929
36024ION     NA42474  18.841   4.750  44.105 -0.1374  0.0594 -0.3888
36025ION     NA42475  14.382   1.356  10.462 -0.3165 -0.0951  0.4234
36026ION     NA42476   6.020   1.445  40.903  0.1294  0.1565  0.3313
36027ION     NA42477   1.622   1.698  29.864  0.4141  0.2206  0.1063
36028ION     NA42478  18.810   1.880   4.429 -0.0057 -0.8919  0.5256
36029ION     NA42479  14.691   6.300  15.536  0.0304 -0.2193  0.0274
36030ION     NA42480  20.260   5.736   4.476 -0.1721 -0.5901  0.6086
36031ION     NA42481  11.493   3.619  28.413  0.1434 -0.3044  0.2042
36032ION     NA42482   1.283   0.236   3.727 -0.0548 -0.0265 -0.0071
36033ION     NA42483   7.455   5.335  29.766 -0.4124 -0.5608  0.1697
36034ION     NA42484  15.945   3.265  31.730 -0.3816 -0.0734  0.0470
36035ION     NA42485  15.155   0.838  19.924 -0.2351 -0.2315 -0.0019
36036ION     NA42486  19.802   4.481   8.244  0.0924  0.3062  0.0605
36037ION     NA42487  13.479   4.820  17.816  0.1251 -0.3655  0.0359
36038ION     NA42488  19.278   3.717  18.025  0.1415 -0.0270 -0.0553
36039ION     NA42489  18.135   5.571  19.920  0.1260 -0.1640 -0.5381
36040ION     NA42490   0.251   6.426  41.431 -0.0683  0.2289  0.6175
36041ION     NA42491  14.788   6.137  14.426 -0.2279 -0.3236 -0.1161
36042ION     NA42492  17.096   5.977  42.719 -0.0484 -0.2336  0.2270
36043ION     NA42493   5.884   4.205  43.493 -0.0319  0.3165 -0.3789
36044ION     NA42494   7.550   4.860  36.059  0.0827  0.1695 -0.0634
36045ION     NA42495  10.945   0.486   7.293  0.4016  0.1335  0.0192
36046ION     NA42496   5.393   3.903  32.660 -0.2374 -0.4063 -0.0097
36047ION     NA42497  14.625   2.693  10.724  0.2795  0.1068 -0.3685
36048ION     NA42498   8.841   5.866  39.209 -0.2058  0.4237  0.0171
36049ION     NA42499   0.496   5.459  31.698 -0.0428  0.2484 -0.0617
36050ION     NA42500  18.676   6.283   8.081  0.0829 -0.0873 -0.1580
36051ION     NA42501   3.067   5.223  44.621 -0.1244 -0.1366 -0.1463
36052ION     NA42502   8.944   1.279  32.616 -0.0605 -0.3305 -0.2037
36053ION     NA42503  12.342   0.623  18.332  0.3485 -0.1191  0.4753
36054ION     NA42504   6.727   3.849  28.248  0.1776 -0.0233 -0.1562
36055ION     NA42505  17.150   5.367  40.450 -0.2846 -0.0413 -0.0561
36056ION     NA42506  17.901   3.142  39.227  0.2799 -0.1847 -0.2409
36057ION     NA42507   9.029   4.742  36.592 -0.1181 -0.2191  0.0651
36058ION     NA42508  16.825   3.658   8.072  0.1270  0.1201 -0.2649
36059ION     NA42509  20.048   0.821   4.325 -0.3899 -0.3036  0.2224
36060ION     NA42510  20.111   1.920  33.037  0.0413  0.1227 -0.1832
36061ION     NA42511   7.209   4.938  23.801 -0.2157  0.0103 -0.2342
36062ION     NA42512  12.385   0.827   0.845  0.4496  0.2534  0.4495
36063ION     NA42513  20.878   6.258  11.341 -0.0878 -0.2301 -0.2932
36064ION     NA42514   4.716   4.518  24.011  0.0576 -0.0537 -0.1161
36065ION     NA42515   8.807   3.299  12.158 -0.0166  0.1341  0.1537
36066ION     NA42516   3.131   1.878  44.349 -0.2988 -0.0350  0.1643
36067ION     NA42517  12.463   3.043  40.942  0.3126 -0.3601  0.4857
36068ION     NA42518  18.928   2.749  30.045 -0.0672 -0.0640  0.1006
36069ION     NA42519  13.980   5.848  36.964 -0.0999  0.2807  0.0931
36070ION     NA42520   7.369   3.016   8.176  0.0486  0.4727  0.2126
36071ION     NA42521   2.201   2.425   7.241  0.4082 -0.1096 -0.1301
36072ION     NA42522  10.235   6.186   5.848  0.2454 -0.5650  0.0414
36073ION     NA42523  10.889   0.151  28.735  0.0303 -0.0885 -0.0699
36074ION     NA42524  20.676   4.185  44.940 -0.0669 -0.3166 -0.3551
36075ION     NA42525   7.698   4.436   5.154  0.1538 -0.2910  0.2169
36076ION     NA42526  16.177   0.110  39.263  0.1408  0.0158 -0.5088
36077ION     NA42527  17.402   5.825  32.059  0.1319  0.0623  0.0540
36078ION     NA42528   2.628   0.299  40.315 -0.0451  0.3631 -0.3271
36079ION     NA42529   5.692   0.036  39.587  0.3613  0.0315  0.2066
36080ION     NA42530   7.049   0.334   0.187  0.2272  0.1317 -0.2761
36081ION     NA42531   2.924   6.278  36.009 -0.2614 -0.2036 -0.1088
36082ION     NA42532  15.671   5.545  19.455 -0.4493  0.1006 -0.4259
36083ION     NA42533  20.528   2.016  41.556 -0.0345 -0.4103  0.4806
36084ION     NA42534  16.864   2.265  42.408 -0.2472  0.1553 -0.1472
36085ION     NA42535  15.735   3.622  12.052 -0.3015 -0.1158 -0.0928
36086ION     NA42536  20.348   5.119   7.595 -0.1600 -0.0076  0.0525
36087ION     NA42537   8.238   2.378  40.534  0.2342  0.1859  0.1299
36088ION     NA42538  19.204   2.237  13.194 -0.0811 -0.0852  0.4429
36089ION     NA42539  14.290   0.960   5.296 -0.2251  0.2179  0.3139
36090ION     NA42540   3.248   2.551  35.504  0.2788 -0.0363 -0.1313
36091ION     NA42541  20.580   0.108   6.929 -0.1711 -0.3317 -0.1534
36092ION     NA42542  11.136   2.262   3.893  0.2008 -0.1775  0.0077
36093ION     NA42543  11.634   0.002  43.185 -0.4078  0.0450  0.0590
36094ION     NA42544  16.457   3.305  42.707  0.1622 -0.0490  0.3149
36095ION     NA42545  16.377   4.127  11.919 -0.0713 -0.2452 -0.0820
36096ION     NA42546   0.986   4.055  27.756  0.0523  0.4857 -0.1214
36097ION     NA42547  19.034   2.381   7.496  0.3007 -0.0913 -0.1332
36098ION     NA42548   7.457   0.908   1.080 -0.1702 -0.1821  0.0306
36099ION     NA42549  16.606   2.081  10.488  0.3359 -0.2976  0.0364
36100ION     NA42550   1.582   5.823  16.247 -0.4003 -0.2004 -0.1995
36101ION     NA42551  11.897   3.255  34.132 -0.6431 -0.1714  0.0419
36102ION     NA42552  16.180   5.014   2.205  0.2462  0.0372  0.0476
36103ION     NA42553   6.034   3.018  13.089 -0.0156  0.3318  0.0030
36104ION     NA42554  18.228   3.328   8.429  0.3173 -0.0734  0.1754
36105ION     CL42555  14.650   4.055  29.948 -0.1489 -0.1057 -0.2256
36106ION     CL42556  14.946   4.698   8.772  0.4634 -0.3654 -0.0270
36107ION     CL42557  16.680   5.273   7.712 -0.2275  0.3504 -0.2460
36108ION     CL42558  10.499   4.910  16.855 -0.2022 -0.0601 -0.0537
36109ION     CL42559   1.907   0.016  32.658 -0.3320 -0.1321  0.0147
36110ION     CL42560  18.407   2.640  11.578 -0.0766  0.3363  0.2455
36111ION     CL42561  18.341   5.342  33.466 -0.0365 -0.2316 -0.5696
36112ION     CL42562   7.530   3.581  30.588  0.4119 -0.4273  0.2106
36113ION     CL42563  10.692   3.028   9.621 -0.1411 -0.3789  0.1396
36114ION     CL42564   3.551   2.104  34.485  0.1743  0.1470 -0.3039
36115ION     CL42565  19.995   3.042  31.887 -0.0442  0.1196 -0.5869
36116ION     CL42566  15.967   2.088  18.032  0.1220 -0.1742  0.0402
36117ION     CL42567  10.819   1.531  30.663 -0.3653 -0.1876 -0.3817
36118ION     CL42568   1.030   1.510   9.112  0.0365 -0.0719 -0.1101
36119ION     CL42569   4.781   1.078   8.378 -0.1160 -0.3746 -0.1481
36120ION     CL42570  14.420   6.500  19.000 -0.4991 -0.2613  0.1719
36121ION     CL42571  12.065   2.738  39.268 -0.1846 -0.0994 -0.3862
36122ION     CL42572   4.825   6.443   8.564  0.3908  0.1116  0.0015
36123ION     CL42573  15.716   3.539  31.671  0.4705 -0.0740 -0.0515
36124ION     CL42574  14.931   4.372  13.303  0.9779 -0.4578 -0.1685
36125ION     CL42575   3.882   4.510  29.818  0.7831 -0.1333 -0.0256
36126ION     CL42576  17.759   4.717  33.315 -0.4353 -0.0487 -0.1564
36127ION     CL42577   2.494   0.723  30.878  0.1322  0.1667  0.0670
36128ION     CL42578  21.132   1.121  33.193  0.0037  0.1248  0.5021
36129ION     CL42579  12.490   0.042  11.463 -0.1027 -0.4627 -0.0788
36130ION     CL42580  18.643   4.415  37.583  0.2218  0.1599  0.0792
36131ION     CL42581  17.417   1.583  42.714  0.0104 -0.0745  0.1204
36132ION     CL42582  19.510   1.364  41.952 -0.4141 -0.1701 -0.1142
36133ION     CL42583   3.416   2.097  38.034 -0.0136  0.1671  0.2822
36134ION     CL42584   6.477   0.114  33.118  0.1207 -0.0153 -0.1375
36135ION     CL42585   6.902   2.864  30.175 -0.3392 -0.4112  0.0340
36136ION     CL42586   2.842   5.443   2.740  0.2045 -0.1852  0.0575
36137ION     CL42587   5.096   0.092  22.810 -0.0666 -0.0433  0.1529
36138ION     CL42588  16.406   1.065  42.192 -0.2114  0.0760  0.1234
36139ION     CL42589   3.672   1.213  32.688 -0.3895 -0.3084 -0.0677
36140ION     CL42590   6.931   5.959  29.846  0.0131  0.1217  0.0432
36141ION     CL42591  14.158   2.476  20.965 -0.3153  0.0787  0.5208
36142ION     CL42592  20.464   5.105  43.885 -0.4771  0.1345 -0.2527
36143ION     CL42593  14.899   2.769  14.841 -0.0234 -0.0652  0.0431
36144ION     CL42594  12.044   3.245   2.134 -0.0139 -0.0266 -0.3767
36145ION     CL42595  15.007   2.647  11.963  0.2924  0.2412  0.2581
36146ION     CL42596   8.358   4.360   0.243  0.3475  0.1392 -0.0272
36147ION     CL42597  20.743   4.447  17.355  0.4763  0.2301 -0.0275
36148ION     CL42598   5.358   6.020  34.580 -0.0142  0.1720  0.3102
36149ION     CL42599  14.232   1.944  11.792 -0.1025 -0.0470 -0.2975
36150ION     CL42600   6.090   1.486  13.870  0.2297 -0.5977 -0.1649
36151ION     CL42601  14.559   5.133  35.418 -0.1828  0.2985 -0.2788
36152ION     CL42602  19.644   5.087   2.587 -0.2026  0.1092  0.0123
36153ION     CL42603   9.983   0.853  30.315  0.0704  0.3019  0.3761
36154ION     CL42604  20.563   5.820   7.571  0.3377  0.1136  0.1112
36155ION     CL42605   8.653   5.906  16.110  0.0265  0.1073  0.0891
36156ION     CL42606   1.768   4.108  26.677 -0.2371 -0.0219 -0.5020
36157ION     CL42607  11.307   1.364   5.342  0.0233  0.1992 -0.1494
36158ION     CL42608  18.472   4.257   4.204 -0.1029 -0.2448 -0.4650
36159ION     CL42609  19.578   1.506  32.625  0.3159 -0.0734  0.2239
36160ION     CL42610  11.561   6.323  42.559  0.0938  0.0884 -0.0832
36161ION     CL42611  11.004   3.383  15.887 -0.1558 -0.0722  0.2078
36162ION     CL42612  15.628   3.575   4.178 -0.4190 -0.0460  0.1304
36163ION     CL42613  16.613   3.694  19.940  0.4011 -0.0427 -0.2065
36164ION     CL42614   2.335   1.822  27.645  0.2172 -0.1347 -0.0550
36165ION     CL42615  13.871   1.379  17.908 -0.0440 -0.0365 -0.2823
36166ION     CL42616  12.282   4.133  31.311  0.3287 -0.4635 -0.0272
36167ION     CL42617  10.352   1.872  26.353  0.0387  0.2269  0.1102
36168ION     CL42618   0.248   5.870  41.744 -0.1142 -0.3396  0.1665
36169ION     CL42619   7.934   0.587  40.473 -0.2010  0.4638  0.3087
36170ION     CL42620   8.210   2.456  43.749  0.0592 -0.0400 -0.1401
36171ION     CL42621  17.826   0.830   0.010 -0.2993 -0.3748  0.1349
36172ION     CL42622  13.950   4.972   2.057  0.1068 -0.3368  0.1274
36173ION     CL42623  13.823   5.294   1.224 -0.0023  0.0237 -0.1019
36174ION     CL42624  20.303   0.401   2.618  0.1304 -0.0425 -0.2218
36175ION     CL42625   3.239   4.149  41.345  0.0377  0.5023  0.0263
36176ION     CL42626  12.208   2.011  32.736  0.0631  0.1293 -0.4380
36177ION     CL42627   7.987   2.119  34.330  0.1666 -0.8437  0.0365
36178ION     CL42628  12.640   3.997  43.039 -0.3175 -0.0471  0.0571
36179ION     CL42629  20.992   5.214   5.216  0.0016  0.2185  0.0037
36180ION     CL42630   0.216   3.261  34.677  0.1867  0.5045  0.1515
36181ION     CL42631   2.457   5.212   8.468 -0.3719  0.1661 -0.0414
36182ION     CL42632   0.266   2.667  44.293  0.4787  0.4855  0.6494
36183ION     CL42633   2.569   1.789  43.615  0.2289  0.2530 -0.1311
36184ION     CL42634   4.476   0.557  29.760 -0.2955  0.2999 -0.2330
36185ION     CL42635  11.417   1.985  16.464 -0.0009 -0.2675 -0.2979
36186ION     CL42636   7.907   6.199  41.787 -0.0150  0.4565 -0.0291
36187ION     CL42637   1.387   5.053   2.452  0.0314  0.0809  0.1289
36188ION     CL42638   3.403   5.361  11.905 -0.0719 -0.1917  0.0660
36189ION     CL42639  15.714   5.193  31.679 -0.4075  0.0261 -0.0174
36190ION     CL42640  13.382   4.162   6.702  0.2003 -0.1340  0.0713
36191ION     CL42641  11.932   2.863   3.252  0.0550  0.4157  0.1634
36192ION     CL42642  13.021   3.586  30.098 -0.0580  0.1796  0.0911
36193ION     CL42643   8.980   4.396   3.694 -0.1579  0.0933 -0.2554
36194ION     CL42644   7.668   4.223   4.742 -0.4093  0.0182 -0.0441
36195ION     CL42645   4.805   5.327   9.447 -0.2048 -0.4164 -0.0451
36196ION     CL42646  20.213   2.219  13.808 -0.0436  0.2784 -0.3010
36197ION     CL42647  10.930   0.024  40.949 -0.0673 -0.1478 -0.0966
36198ION     CL42648   3.442   2.555  29.346 -0.0177  0.1582  0.1034
36199ION     CL42649  17.504   0.288  37.148 -0.3170  0.2314  0.0110
36200ION     CL42650  13.323   5.173  18.080 -0.3701  0.2480 -0.1654
36201ION     CL42651  14.273   6.569  38.428 -0.0234 -0.0480  0.1216
36202ION     CL42652   0.077   0.943  41.319 -0.0036 -0.4959  0.5274
36203ION     CL42653  17.793   5.595  19.814 -0.1653 -0.1629  0.1419
36204ION     CL42654   1.072   4.805  16.679 -0.2786 -0.1973  0.4288
36205ION     CL42655   3.735   5.405  29.869 -0.1511 -0.0029 -0.1263
36206ION     CL42656  18.539   6.514   8.706  0.0516  0.2488  0.1167
36207ION     CL42657   1.746   4.915  26.220  0.4961 -0.1039 -0.0459
36208ION     CL42658   7.453   3.417  39.555  0.0572 -0.0229 -0.1140
36209ION     CL42659   5.645   0.531   0.015 -0.2714 -0.2288  0.1089
36210ION     CL42660   7.246   4.604  36.132 -0.2109  0.2252  0.1267
36211ION     CL42661   7.118   5.928  10.847  0.1596 -0.5225  0.3541
36212ION     CL42662   2.331   5.547   2.370 -0.1824  0.1300  0.0900
36213ION     CL42663  12.673   2.724   3.630  0.0090  0.4829  0.1152
36214ION     CL42664  11.396   3.219   5.746 -0.2308  0.2634  0.0998
36215ION     CL42665   9.557   5.217  11.356  0.1681  0.1248  0.0377
36216ION     CL42666   1.975   4.499   9.204  0.1607  0.3041  0.4646
36217ION     CL42667  20.810   1.688   6.421 -0.4277 -0.0667  0.3142
36218ION     CL42668   3.291   2.527  41.094 -0.1883  0.1800 -0.1382
36219ION     CL42669   6.114   3.888  10.820 -0.5122  0.2007 -0.5728
36220ION     CL42670   6.116   2.724   0.370 -0.0982 -0.0913  0.1017
36221ION     CL42671  12.360   4.692  16.755 -0.1056  0.2277  0.0014
36222ION     CL42672   1.121   3.939  43.097 -0.2448 -0.1476  0.6177
36223ION     CL42673   4.796   0.579  35.118  0.1174 -0.0170  0.1746
36224ION     CL42674  18.013   5.103  17.044 -0.0787 -0.3567 -0.0801
36225ION     CL42675   8.890   4.260  10.674 -0.1213  0.2177  0.1535
36226ION     CL42676   5.342   2.592  32.119 -0.0242  0.1749  0.1722
36227ION     CL42677  13.989   3.580   9.252 -0.2008  0.0050  0.0914
36228ION     CL42678  14.459   2.792  31.113 -0.2342 -0.0143  0.4391
36229ION     CL42679  20.929   1.457  44.523 -0.1669  0.1502 -0.0053
36230ION     CL42680  10.530   2.817   3.883 -0.2519 -0.2072  0.3290
36231ION     CL42681  15.395   5.436  33.376  0.1630 -0.5252  0.2475
36232ION     CL42682  16.639   4.387  10.281  0.1914 -0.0114 -0.0605
36233ION     CL42683  14.998   0.510  19.944 -0.0644  0.1655  0.0422
36234ION     CL42684   1.300   3.835   7.307 -0.5474 -0.3805 -0.2843
36235ION     CL42685   2.412   2.972  35.887  0.0809  0.3016 -0.2336
36236ION     CL42686  17.061   3.706  17.176  0.2395 -0.2133 -0.0591
36237ION     CL42687   0.671   2.638   5.124  0.1565  0.0648 -0.0535
36238ION     CL42688   7.374   4.415  34.506  0.0152 -0.1323  0.0387
36239ION     CL42689  18.266   1.026  16.044  0.0622 -0.3937 -0.2167
36240ION     CL42690   0.830   0.699   2.440 -0.6251  0.0707 -0.1959
36241ION     CL42691   5.710   4.393  23.388 -0.3597 -0.2043 -0.0835
36242ION     CL42692  18.057   2.757  41.563  0.0099  0.2020  0.1216
36243ION     CL42693  14.803   2.269  38.002  0.1091 -0.2954  0.4945
36244ION     CL42694   5.042   2.798  37.146 -0.1887  0.5051 -0.1308
36245ION     CL42695  17.408   1.507   9.427 -0.1087  0.1977 -0.3287
36246ION     CL42696   4.119   4.566   3.435 -0.1682 -0.5111 -0.3394
36247ION     CL42697  11.099   4.865  40.361 -0.0965 -0.1210 -0.5029
36248ION     CL42698   0.973   1.025  12.060  0.4420  0.0151  0.0453
36249ION     CL42699   6.416   6.246   2.277 -0.1095  0.3958 -0.0891
36250DPPC   NC342700  14.523   2.188  29.147 -0.0247  0.0285  0.1879
36250DPPC   PO442701  14.559   1.886  28.888 -0.0788  0.0243  0.1760
36250DPPC   GL142702  14.511   1.946  28.458 -0.0747  0.1777  0.1789
36250DPPC   GL242703  14.830   1.920  28.446  0.3127 -0.3217  0.2618
36250DPPC   C1A42704  14.486   1.790  28.142  0.2852 -0.0731 -0.2244
36250DPPC   C2A42705  14.260   1.865  27.759 -0.2912  0.0146  0.0811
36250DPPC   C3A42706  14.050   2.132  27.424 -0.0111 -0.0017 -0.1740
36250DPPC   C4A42707  13.740   2.055  27.001  0.0342 -0.2468  0.1171
36250DPPC   C1B42708  15.012   2.024  28.134  0.0560  0.2441 -0.1301
36250DPPC   C2B42709  15.246   2.033  27.814  0.0466 -0.1560  0.0125
36250DPPC   C3B42710  15.545   1.979  27.376  0.2922  0.0447 -0.0085
36250DPPC   C4B42711  15.734   1.923  26.949  0.2530  0.3056 -0.0333
36251DPPC   NC342712  15.015   6.455  28.694 -0.0259  0.3475  0.2334
36251DPPC   PO442713  15.153   6.810  28.816  0.0592 -0.1396  0.1437
36251DPPC   GL142714  15.261   7.139  28.488  0.1229 -0.2180 -0.2316
36251DPPC   GL242715  15.356   6.845  28.433 -0.0302  0.0820 -0.2765
36251DPPC   C1A42716  15.216   7.227  28.153 -0.2605  0.0683  0.3620
36251DPPC   C2A42717  15.322   7.180  27.744 -0.5028  0.2774  0.3724
36251DPPC   C3A42718  15.530   7.226  27.303  0.2804  0.2207 -0.0583
36251DPPC   C4A42719  15.770   7.205  26.920  0.2677  0.0086 -0.0748
36251DPPC   C1B42720  15.482   6.831  28.113  0.1448 -0.1269 -0.2435
36251DPPC   C2B42721  15.684   6.839  27.750 -0.3995 -0.1026  0.0819
36251DPPC   C3B42722  15.808   6.805  27.297 -0.1207 -0.3868  0.1858
36251DPPC   C4B42723  16.013   6.745  26.848  0.1491  0.1512 -0.0537
36252DPPC   NC342724  20.640   5.167  27.936  0.1543  0.2790  0.1523
36252DPPC   PO442725  20.933   5.073  27.646  0.2051  0.2423  0.2471
36252DPPC   GL142726  20.627   5.034  27.336  0.1651  0.1729 -0.1055
36252DPPC   GL242727  20.471   4.831  27.475 -0.1131  0.2481  0.2962
36252DPPC   C1A42728  20.490   5.086  27.003 -0.1256  0.1885  0.4024
36252DPPC   C2A42729  20.130   4.931  26.861  0.0919 -0.0463 -0.0591
36252DPPC   C3A42730  19.838   4.858  26.507  0.0952 -0.1835 -0.4021
36252DPPC   C4A42731  19.492   4.851  26.173  0.0953  0.0753  0.0758
36252DPPC   C1B42732  20.192   4.874  27.305 -0.4306  0.3598 -0.0557
36252DPPC   C2B42733  19.818   4.794  27.221 -0.3844 -0.0993  0.1183
36252DPPC   C3B42734  19.476   4.735  26.853 -0.3511  0.2467 -0.1352
36252DPPC   C4B42735  19.086   4.666  26.492  0.0793  0.1107  0.0414
36253DPPC   NC342736  10.953   6.265  25.580 -0.0020 -0.0044 -0.1062
36253DPPC   PO442737  10.728   6.578  25.461 -0.0492 -0.0248 -0.0995
36253DPPC   GL142738  10.733   6.645  25.081  0.1914  0.0501  0.0002
36253DPPC   GL242739  10.962   6.494  25.109  0.2113 -0.2922  0.2697
36253DPPC   C1A42740  10.930   6.885  24.870 -0.2420 -0.1053  0.2129
36253DPPC   C2A42741  11.022   6.913  24.450 -0.0131  0.1461 -0.0677
36253DPPC   C3A42742  11.326   6.847  24.061 -0.0360  0.2568  0.1568
36253DPPC   C4A42743  11.638   6.804  23.693  0.0234  0.3139  0.1785
36253DPPC   C1B42744  11.156   6.510  24.795 -0.1414  0.0592  0.0964
36253DPPC   C2B42745  11.432   6.502  24.456  0.0343  0.1261 -0.1703
36253DPPC   C3B42746  11.703   6.485  24.045  0.1129  0.0650  0.1444
36253DPPC   C4B42747  12.027   6.424  23.690 -0.0615 -0.1203 -0.0344
36254DPPC   NC342748  18.973   5.873  28.780 -0.0960  0.1729 -0.1843
36254DPPC   PO442749  18.909   6.222  28.898  0.3217 -0.0054  0.0729
36254DPPC   GL142750  18.877   6.566  28.637  0.0489  0.1362 -0.1596
36254DPPC   GL242751  19.134   6.491  28.551  0.0709 -0.0804  0.3424
36254DPPC   C1A42752  18.736   6.851  28.410  0.1455  0.1449  0.0718
36254DPPC   C2A42753  18.563   7.064  28.095 -0.1335  0.2517  0.3520
36254DPPC   C3A42754  18.305   7.354  27.843 -0.2554  0.3942 -0.0553
36254DPPC   C4A42755  18.028   7.760  27.820 -0.4041 -0.1282 -0.0317
36254DPPC   C1B42756  19.238   6.266  28.303 -0.1356  0.0144 -0.3340
36254DPPC   C2B42757  19.213   5.991  27.979 -0.0016 -0.2399  0.2798
36254DPPC   C3B42758  19.200   5.605  27.639  0.2432  0.1213  0.1112
36254DPPC   C4B42759  19.002   5.469  27.258 -0.0768  0.0291  0.2033
36255DPPC   NC342760  11.920   4.629  27.320 -0.0466  0.1608  0.0889
36255DPPC   PO442761  11.597   4.703  27.078 -0.0777  0.0187 -0.2420
36255DPPC   GL142762  11.651   4.832  26.704 -0.2204 -0.2981 -0.1744
36255DPPC   GL242763  11.913   4.902  26.912  0.1631  0.0411  0.4941
36255DPPC   C1A42764  11.797   4.708  26.384  0.0564 -0.0498 -0.0573
36255DPPC   C2A42765  11.972   4.532  26.073 -0.3098 -0.0822  0.1791
36255DPPC   C3A42766  12.308   4.492  25.776 -0.0313 -0.2121 -0.3918
36255DPPC   C4A42767  12.594   4.531  25.395 -0.0640  0.0843  0.2375
36255DPPC   C1B42768  12.279   4.748  26.980 -0.1247 -0.3937  0.0616
36255DPPC   C2B42769  12.688   4.673  26.813  0.3364 -0.3053 -0.1262
36255DPPC   C3B42770  13.000   4.768  26.500  0.0883 -0.1050  0.0365
36255DPPC   C4B42771  13.254   4.650  26.109 -0.1768 -0.1143  0.3100
36256DPPC   NC342772  15.610   2.618  29.117 -0.0562 -0.1441 -0.1889
36256DPPC   PO442773  15.312   2.431  28.936  0.1117  0.4338  0.2510
36256DPPC   GL142774  15.164   2.538  28.583  0.0078 -0.0503  0.0184
36256DPPC   GL242775  15.480   2.632  28.548  0.0111 -0.3980  0.0709
36256DPPC   C1A42776  14.937   2.442  28.338 -0.2193 -0.0336 -0.2890
36256DPPC   C2A42777  14.606   2.258  28.111 -0.1834 -0.2193 -0.3577
36256DPPC   C3A42778  14.288   2.387  27.819 -0.0208  0.1609 -0.0780
36256DPPC   C4A42779  13.814   2.579  27.661  0.0225 -0.0447 -0.3319
36256DPPC   C1B42780  15.807   2.807  28.721  0.2420  0.2566  0.0144
36256DPPC   C2B42781  15.937   3.186  28.646 -0.2494  0.5169 -0.0856
36256DPPC   C3B42782  16.153   3.538  28.549  0.1218  0.1396  0.1502
36256DPPC   C4B42783  16.357   3.937  28.478  0.2227 -0.2931 -0.2490
36257DPPC   NC342784  17.110   5.691  29.284 -0.0168  0.1747 -0.1635
36257DPPC   PO442785  16.990   5.731  28.913 -0.5200 -0.0034 -0.0458
36257DPPC   GL142786  17.203   5.741  28.544 -0.0151  0.0396 -0.0467
36257DPPC   GL242787  16.858   5.757  28.508 -0.5523  0.1107  0.2692
36257DPPC   C1A42788  17.421   5.647  28.213 -0.0895  0.1043  0.1554
36257DPPC   C2A42789  17.495   5.364  27.972 -0.1240 -0.0952 -0.1263
36257DPPC   C3A42790  17.515   5.079  27.638  0.1283 -0.0531  0.0756
36257DPPC   C4A42791  17.552   4.837  27.233  0.0468  0.0710 -0.0360
36257DPPC   C1B42792  16.927   5.701  28.168  0.0948  0.1166 -0.4229
36257DPPC   C2B42793  17.169   5.787  27.834 -0.1509 -0.1521 -0.1928
36257DPPC   C3B42794  17.419   5.522  27.477  0.2988 -0.1758 -0.1814
36257DPPC   C4B42795  17.548   5.309  27.065 -0.3671 -0.1646  0.2176
36258DPPC   NC342796  11.146   3.315  26.240  0.0135  0.3436 -0.1670
36258DPPC   PO442797  11.349   3.258  26.602 -0.2375 -0.0830  0.1959
36258DPPC   GL142798  11.692   3.351  26.331 -0.2978 -0.1347  0.0960
36258DPPC   GL242799  11.787   3.112  26.393  0.1776 -0.1023 -0.1252
36258DPPC   C1A42800  12.024   3.549  26.355 -0.1318  0.0745 -0.0982
36258DPPC   C2A42801  12.249   3.680  26.000 -0.1557 -0.3188  0.1149
36258DPPC   C3A42802  12.587   3.739  25.631 -0.2767 -0.3085 -0.0046
36258DPPC   C4A42803  12.904   3.656  25.258 -0.0376  0.1121  0.4806
36258DPPC   C1B42804  12.054   3.187  26.128  0.3316 -0.1426 -0.3381
36258DPPC   C2B42805  12.198   3.214  25.808 -0.3227  0.0188 -0.0258
36258DPPC   C3B42806  12.485   3.218  25.397  0.0538  0.3428 -0.2423
36258DPPC   C4B42807  12.854   3.171  25.055  0.0502  0.0385  0.1121
36259DPPC   NC342808  14.849   1.608  29.184 -0.0089  0.1236 -0.0639
36259DPPC   PO442809  15.175   1.718  28.964  0.1743  0.1227  0.0959
36259DPPC   GL142810  15.209   1.807  28.534 -0.1142  0.1358 -0.1088
36259DPPC   GL242811  15.286   2.135  28.581 -0.1801  0.2599  0.1267
36259DPPC   C1A42812  15.441   1.728  28.289 -0.3045 -0.0790  0.0622
36259DPPC   C2A42813  15.647   1.587  27.943 -0.0244 -0.3298  0.0217
36259DPPC   C3A42814  15.818   1.547  27.487  0.1336  0.1381  0.3106
36259DPPC   C4A42815  16.105   1.637  27.096  0.2549 -0.1787  0.0480
36259DPPC   C1B42816  15.342   2.337  28.272  0.0797 -0.1693 -0.3554
36259DPPC   C2B42817  15.559   2.398  27.937  0.1065  0.1605  0.0533
36259DPPC   C3B42818  15.699   2.454  27.473  0.0891 -0.2405  0.3617
36259DPPC   C4B42819  15.956   2.442  27.022 -0.1895 -0.0007 -0.3433
36260DPPC   NC342820  19.933   6.586  28.637  0.2267  0.0147  0.0166
36260DPPC   PO442821  20.062   6.827  28.397 -0.0119  0.2742  0.0131
36260DPPC   GL142822  19.799   6.950  28.131 -0.2964  0.2817  0.3507
36260DPPC   GL242823  19.649   7.175  28.219 -0.2127  0.4717 -0.1677
36260DPPC   C1A42824  19.638   6.879  27.795  0.2467  0.0553 -0.4310
36260DPPC   C2A42825  19.326   6.909  27.606 -0.1489 -0.0402  0.0192
36260DPPC   C3A42826  18.940   6.904  27.289  0.1170  0.4218  0.2476
36260DPPC   C4A42827  18.652   6.875  26.883  0.1976  0.1759 -0.0557
36260DPPC   C1B42828  19.402   7.198  27.962 -0.4350  0.0678 -0.0777
36260DPPC   C2B42829  19.070   7.331  27.799 -0.1066  0.0188  0.2394
36260DPPC   C3B42830  18.675   7.229  27.433  0.0042  0.2023 -0.1235
36260DPPC   C4B42831  18.377   7.242  27.091 -0.0762  0.0471  0.2430
36261DPPC   NC342832  18.252   2.983  29.494  0.2780  0.0230  0.2796
36261DPPC   PO442833  18.132   3.385  29.504 -0.1584  0.3639 -0.1166
36261DPPC   GL142834  17.979   3.387  29.076 -0.4909 -0.1123 -0.3894
36261DPPC   GL242835  18.025   3.111  29.020  0.1115  0.3078  0.2618
36261DPPC   C1A42836  17.620   3.564  29.036 -0.1001 -0.1179  0.1662
36261DPPC   C2A42837  17.484   3.783  28.663 -0.0347 -0.0515 -0.1874
36261DPPC   C3A42838  17.223   3.891  28.145  0.0303  0.1881 -0.0801
36261DPPC   C4A42839  16.737   3.853  27.992  0.0404  0.1647 -0.2108
36261DPPC   C1B42840  17.964   2.959  28.659  0.2355 -0.4118 -0.1104
36261DPPC   C2B42841  17.879   2.825  28.236  0.0090 -0.2294  0.2924
36261DPPC   C3B42842  17.672   2.608  27.841  0.5124 -0.1137  0.0705
36261DPPC   C4B42843  17.313   2.653  27.499 -0.0856 -0.3259  0.2283
36262DPPC   NC342844  20.673   1.990  27.407  0.1507 -0.2793 -0.0862
36262DPPC   PO442845  20.694   2.297  27.649 -0.3015  0.0887 -0.0454
36262DPPC   GL142846  20.402   2.654  27.541  0.0610 -0.2964 -0.2219
36262DPPC   GL242847  20.170   2.482  27.697  0.0648  0.1569 -0.1062
36262DPPC   C1A42848  20.149   2.802  27.324  0.2007 -0.0310  0.2403
36262DPPC   C2A42849  19.927   2.637  27.018  0.0737  0.3066 -0.2247
36262DPPC   C3A42850  19.665   2.585  26.661  0.0360 -0.0189 -0.1887
36262DPPC   C4A42851  19.303   2.623  26.313 -0.1940  0.2889  0.1846
36262DPPC   C1B42852  19.901   2.491  27.454  0.4101  0.0873  0.0290
36262DPPC   C2B42853  19.523   2.564  27.316 -0.0725  0.1432 -0.1136
36262DPPC   C3B42854  19.249   2.544  26.944  0.0183 -0.1938 -0.0207
36262DPPC   C4B42855  18.872   2.510  26.617  0.0439  0.1627 -0.2941
36263DPPC   NC342856  12.338   2.615  28.300  0.2375  0.2522 -0.0611
36263DPPC   PO442857  12.453   2.740  27.931  0.0279  0.1705 -0.1039
36263DPPC   GL142858  12.826   2.627  27.809  0.1564 -0.1004 -0.1477
36263DPPC   GL242859  12.920   2.419  27.775 -0.1931 -0.0335  0.0900
36263DPPC   C1A42860  13.058   2.775  27.532  0.1882  0.4954  0.1343
36263DPPC   C2A42861  13.254   3.058  27.276 -0.0611  0.0093  0.2773
36263DPPC   C3A42862  13.611   3.095  26.859 -0.4035 -0.1628 -0.0980
36263DPPC   C4A42863  13.863   3.039  26.498 -0.2565 -0.0782 -0.3254
36263DPPC   C1B42864  13.043   2.250  27.405 -0.2329  0.1784  0.1514
36263DPPC   C2B42865  13.137   2.063  27.038 -0.1837 -0.0514  0.0513
36263DPPC   C3B42866  13.294   2.054  26.627  0.2748  0.1040  0.0382
36263DPPC   C4B42867  13.578   2.102  26.246  0.0276 -0.0420  0.1329
36264DPPC   NC342868  11.634   0.933  27.251  0.1605  0.1199  0.0115
36264DPPC   PO442869  11.680   0.705  26.955 -0.1479 -0.1405  0.3314
36264DPPC   GL142870  11.852   0.731  26.517 -0.1596 -0.1708 -0.2339
36264DPPC   GL242871  11.580   0.842  26.459  0.2548 -0.0206 -0.1020
36264DPPC   C1A42872  12.101   0.580  26.280  0.2272  0.2528  0.2136
36264DPPC   C2A42873  12.357   0.575  25.985  0.0422  0.2670  0.3039
36264DPPC   C3A42874  12.602   0.574  25.589 -0.1343 -0.0797  0.0018
36264DPPC   C4A42875  12.881   0.543  25.146 -0.0346  0.0805  0.0942
36264DPPC   C1B42876  11.555   0.706  26.102 -0.0944  0.0581  0.0326
36264DPPC   C2B42877  11.889   0.559  25.852  0.2322 -0.1015  0.1355
36264DPPC   C3B42878  12.121   0.467  25.484  0.0306 -0.1172  0.0807
36264DPPC   C4B42879  12.404   0.441  25.138 -0.0603 -0.2028  0.0435
36265DPPC   NC342880  12.846   3.102  28.026  0.0827 -0.1335 -0.0720
36265DPPC   PO442881  12.603   3.446  28.006 -0.1297 -0.0071  0.1235
36265DPPC   GL142882  12.914   3.657  27.706  0.2458  0.1708  0.1791
36265DPPC   GL242883  13.097   3.405  27.792 -0.1080  0.1405 -0.2255
36265DPPC   C1A42884  13.027   3.856  27.419 -0.3911 -0.0034  0.1227
36265DPPC   C2A42885  13.210   3.904  27.071 -0.0992  0.0439  0.1583
36265DPPC   C3A42886  13.530   3.863  26.736  0.2496 -0.1665 -0.1863
36265DPPC   C4A42887  13.848   3.837  26.333 -0.2507 -0.1118 -0.2277
36265DPPC   C1B42888  13.304   3.477  27.516  0.1662  0.0795 -0.1557
36265DPPC   C2B42889  13.592   3.483  27.159 -0.1125 -0.0746 -0.1804
36265DPPC   C3B42890  13.904   3.532  26.804  0.0803  0.0526 -0.1154
36265DPPC   C4B42891  14.177   3.463  26.432  0.1166  0.0730 -0.2496
36266DPPC   NC342892  18.172   0.096  29.110  0.2743 -0.1734  0.2456
36266DPPC   PO442893  18.464  -0.111  28.984 -0.3255 -0.1130  0.2326
36266DPPC   GL142894  18.375  -0.285  28.582 -0.3113  0.2193 -0.0707
36266DPPC   GL242895  18.629  -0.426  28.565 -0.1481 -0.3275  0.0201
36266DPPC   C1A42896  18.125  -0.602  28.515 -0.0573 -0.2559  0.1029
36266DPPC   C2A42897  18.009  -0.929  28.272  0.2669 -0.0689 -0.2437
36266DPPC   C3A42898  17.676  -1.262  28.498  0.2156 -0.2349  0.1681
36266DPPC   C4A42899  17.236  -1.432  28.384 -0.3493 -0.0911  0.1485
36266DPPC   C1B42900  18.698  -0.551  28.258  0.0662  0.4116 -0.1482
36266DPPC   C2B42901  18.690  -0.673  27.875  0.2352  0.0126 -0.2175
36266DPPC   C3B42902  18.758  -0.711  27.452  0.1699  0.1166  0.1368
36266DPPC   C4B42903  18.916  -0.662  26.972 -0.0208  0.1459  0.1507
36267DPPC   NC342904  18.335   4.316  29.357 -0.2996 -0.0495 -0.3942
36267DPPC   PO442905  18.194   4.534  29.072 -0.1626  0.0865 -0.0343
36267DPPC   GL142906  18.251   4.638  28.666  0.1167 -0.4422  0.2853
36267DPPC   GL242907  18.422   4.793  28.740  0.0139 -0.2077  0.1683
36267DPPC   C1A42908  18.138   4.582  28.334 -0.3477 -0.0288  0.3058
36267DPPC   C2A42909  18.114   4.343  27.997 -0.1320 -0.2418  0.2622
36267DPPC   C3A42910  18.018   4.163  27.591 -0.0102  0.1192 -0.1642
36267DPPC   C4A42911  17.902   3.857  27.197  0.1063 -0.2135 -0.0257
36267DPPC   C1B42912  18.662   4.669  28.427 -0.0994 -0.0012 -0.0395
36267DPPC   C2B42913  18.640   4.324  28.213 -0.1389  0.3453  0.0532
36267DPPC   C3B42914  18.510   4.154  27.738 -0.0747  0.0143 -0.2262
36267DPPC   C4B42915  18.390   4.091  27.313  0.0501  0.1792  0.0955
36268DPPC   NC342916  15.708   5.152  29.019 -0.3046  0.1261  0.1872
36268DPPC   PO442917  15.635   5.514  28.799 -0.2696  0.0300  0.0632
36268DPPC   GL142918  15.825   5.344  28.391 -0.0169  0.5369 -0.6033
36268DPPC   GL242919  15.498   5.333  28.328 -0.3790  0.1533  0.0981
36268DPPC   C1A42920  16.087   5.215  28.131 -0.2558 -0.0758  0.2896
36268DPPC   C2A42921  16.381   5.104  27.902 -0.2163 -0.1334  0.0068
36268DPPC   C3A42922  16.648   5.143  27.478 -0.2051  0.0975  0.3024
36268DPPC   C4A42923  16.786   4.972  27.012  0.0324  0.0445  0.3427
36268DPPC   C1B42924  15.335   5.136  28.073  0.1883  0.0294 -0.0474
36268DPPC   C2B42925  15.098   4.864  27.842 -0.1424  0.0206 -0.3271
36268DPPC   C3B42926  14.687   4.729  27.575  0.0438 -0.0813 -0.2482
36268DPPC   C4B42927  14.238   4.850  27.339 -0.1290 -0.0099  0.0567
36269DPPC   NC342928  13.835   2.683  28.972  0.2283  0.1077 -0.0217
36269DPPC   PO442929  13.940   2.493  28.617  0.0950  0.0040 -0.1437
36269DPPC   GL142930  14.165   2.631  28.327 -0.0072 -0.0229  0.1815
36269DPPC   GL242931  14.137   2.866  28.449 -0.1032  0.2581  0.1605
36269DPPC   C1A42932  14.130   2.748  27.972  0.1214 -0.2470 -0.0588
36269DPPC   C2A42933  14.093   3.113  27.727 -0.0410 -0.1907 -0.0507
36269DPPC   C3A42934  13.844   3.497  27.716 -0.2870  0.2877  0.1024
36269DPPC   C4A42935  13.702   3.895  27.983  0.3039 -0.0417 -0.1790
36269DPPC   C1B42936  14.335   3.138  28.250  0.0829 -0.2500  0.3221
36269DPPC   C2B42937  14.576   3.441  28.126  0.1008 -0.0433 -0.0199
36269DPPC   C3B42938  14.952   3.748  28.102  0.1507 -0.1120 -0.0582
36269DPPC   C4B42939  15.345   3.930  28.328  0.0976  0.0285 -0.2760
36270DPPC   NC342940  10.545   2.818  25.681 -0.2430  0.2089 -0.2264
36270DPPC   PO442941  10.919   2.772  25.669  0.0744  0.0821 -0.0818
36270DPPC   GL142942  11.193   2.745  25.398 -0.1771  0.1933  0.2495
36270DPPC   GL242943  11.425   2.899  25.553  0.3899  0.0700 -0.1801
36270DPPC   C1A42944  11.373   2.558  25.165  0.2802  0.4591 -0.0364
36270DPPC   C2A42945  11.565   2.518  24.794  0.0237 -0.3480 -0.0101
36270DPPC   C3A42946  11.833   2.550  24.389  0.0822  0.0166 -0.3785
36270DPPC   C4A42947  12.093   2.475  24.008  0.0577  0.0864  0.0929
36270DPPC   C1B42948  11.678   2.646  25.507  0.2402  0.0166 -0.0462
36270DPPC   C2B42949  11.890   2.508  25.152 -0.5062 -0.1830 -0.2714
36270DPPC   C3B42950  12.190   2.516  24.776  0.2675  0.0237  0.1005
36270DPPC   C4B42951  12.426   2.558  24.371  0.1034 -0.0663  0.1528
36271DPPC   NC342952  16.105   5.932  29.014 -0.1692  0.1885  0.0154
36271DPPC   PO442953  15.813   6.054  28.823  0.2476  0.0281 -0.3588
36271DPPC   GL142954  15.723   6.054  28.401  0.1894  0.0767 -0.4394
36271DPPC   GL242955  15.602   5.780  28.453  0.3302 -0.0113 -0.2270
36271DPPC   C1A42956  16.000   6.163  28.152 -0.0667  0.4486  0.2784
36271DPPC   C2A42957  16.264   6.076  27.803  0.0479 -0.0887  0.0625
36271DPPC   C3A42958  16.516   6.062  27.370 -0.2085  0.0038 -0.1622
36271DPPC   C4A42959  16.768   6.020  26.972  0.2009  0.0712  0.0421
36271DPPC   C1B42960  15.861   5.752  28.155  0.2591  0.5653 -0.1886
36271DPPC   C2B42961  16.053   5.540  27.821 -0.1304 -0.2173 -0.1943
36271DPPC   C3B42962  16.282   5.582  27.361 -0.1914 -0.0804 -0.0937
36271DPPC   C4B42963  16.574   5.523  26.934 -0.0517  0.3760  0.0777
36272DPPC   NC342964  19.418   5.158  28.929 -0.3349  0.1381  0.2358
36272DPPC   PO442965  19.090   5.360  28.848  0.0960 -0.3478  0.3504
36272DPPC   GL142966  19.076   5.397  28.409  0.0278  0.2818 -0.2421
36272DPPC   GL242967  18.969   5.571  28.358 -0.0520  0.1746  0.0138
36272DPPC   C1A42968  19.062   5.153  28.085  0.1568  0.6068  0.0332
36272DPPC   C2A42969  19.137   4.993  27.712  0.3772  0.3100  0.0089
36272DPPC   C3A42970  18.897   4.928  27.349  0.1980 -0.1256 -0.0503
36272DPPC   C4A42971  18.799   4.623  26.959 -0.1032  0.3032  0.0176
36272DPPC   C1B42972  18.955   5.555  27.986  0.3483  0.1635 -0.0373
36272DPPC   C2B42973  18.697   5.351  27.663  0.1228 -0.0334 -0.1046
36272DPPC   C3B42974  18.353   5.079  27.454 -0.2218 -0.0664  0.0406
36272DPPC   C4B42975  18.004   5.014  27.128  0.2703 -0.1334 -0.0487
36273DPPC   NC342976  11.959   0.993  27.692  0.1822  0.1714  0.0171
36273DPPC   PO442977  12.283   1.119  27.886 -0.1256  0.1533 -0.1158
36273DPPC   GL142978  12.601   0.968  27.729  0.0102 -0.0387  0.1550
36273DPPC   GL242979  12.432   0.969  27.454 -0.0579 -0.0899  0.3988
36273DPPC   C1A42980  12.790   0.777  27.482 -0.0866  0.0683 -0.1014
36273DPPC   C2A42981  13.159   0.714  27.346  0.1498  0.0612  0.2055
36273DPPC   C3A42982  13.623   0.834  27.309  0.1762  0.1458  0.1521
36273DPPC   C4A42983  14.105   0.798  27.222 -0.1364  0.3400  0.3751
36273DPPC   C1B42984  12.487   1.025  27.135 -0.1806  0.1258  0.0040
36273DPPC   C2B42985  12.632   1.088  26.712  0.1296 -0.1004 -0.0550
36273DPPC   C3B42986  12.981   1.124  26.337  0.0388 -0.1746 -0.1818
36273DPPC   C4B42987  13.255   1.086  25.931  0.0142 -0.0199  0.0321
36274DPPC   NC342988  11.530   2.889  26.858 -0.2055  0.2661 -0.3625
36274DPPC   PO442989  11.537   2.709  26.517  0.2331  0.1869  0.1139
36274DPPC   GL142990  11.775   2.519  26.272 -0.3253  0.0944  0.0257
36274DPPC   GL242991  12.050   2.358  26.296 -0.1834  0.3752  0.2159
36274DPPC   C1A42992  11.712   2.373  25.947  0.5126  0.3757  0.2592
36274DPPC   C2A42993  11.919   2.231  25.552  0.0164  0.2403  0.0158
36274DPPC   C3A42994  12.263   2.155  25.208  0.2409 -0.1456 -0.2608
36274DPPC   C4A42995  12.499   2.066  24.801  0.3249  0.0593 -0.2332
36274DPPC   C1B42996  12.207   2.333  25.964  0.1996 -0.2869  0.3531
36274DPPC   C2B42997  12.467   2.314  25.633 -0.0037 -0.0402  0.0159
36274DPPC   C3B42998  12.731   2.304  25.252  0.0125  0.2289 -0.0714
36274DPPC   C4B42999  13.007   2.282  24.854 -0.0831 -0.1444  0.2482
36275DPPC   NC343000  11.157   4.875  27.012 -0.2445  0.0663 -0.3556
36275DPPC   PO443001  11.147   4.708  26.655 -0.3998  0.1317 -0.0793
36275DPPC   GL143002  11.337   4.574  26.259  0.0919 -0.0314  0.0547
36275DPPC   GL243003  11.363   4.924  26.220  0.2846  0.2873  0.1748
36275DPPC   C1A43004  11.542   4.539  25.914  0.1841  0.3335 -0.3821
36275DPPC   C2A43005  11.800   4.430  25.624 -0.0501 -0.0537  0.0588
36275DPPC   C3A43006  12.105   4.399  25.226  0.1364 -0.3015 -0.1550
36275DPPC   C4A43007  12.408   4.376  24.831 -0.0944  0.0285 -0.0527
36275DPPC   C1B43008  11.699   5.052  26.113 -0.0799 -0.1664 -0.1725
36275DPPC   C2B43009  11.926   4.933  25.778  0.0595  0.2215 -0.0203
36275DPPC   C3B43010  12.223   4.911  25.358 -0.0899 -0.1778  0.0279
36275DPPC   C4B43011  12.519   4.881  24.986 -0.1001  0.1881  0.0882
36276DPPC   NC343012  20.456   2.557  28.006 -0.2643  0.1957 -0.1196
36276DPPC   PO443013  20.346   2.192  27.984 -0.0426 -0.1955  0.0697
36276DPPC   GL143014  20.122   2.058  27.670  0.1818  0.0590  0.0638
36276DPPC   GL243015  20.252   2.173  27.422 -0.2112  0.1536 -0.2531
36276DPPC   C1A43016  19.764   2.112  27.588  0.0566  0.2720 -0.2049
36276DPPC   C2A43017  19.510   2.058  27.283 -0.1074 -0.3775 -0.0666
36276DPPC   C3A43018  19.104   2.028  26.966  0.0055 -0.0756 -0.2410
36276DPPC   C4A43019  18.719   1.995  26.666  0.2339  0.3026  0.1445
36276DPPC   C1B43020  20.012   2.187  27.133 -0.3806 -0.0210 -0.1513
36276DPPC   C2B43021  19.725   2.134  26.850  0.0714  0.3039  0.0546
36276DPPC   C3B43022  19.368   2.141  26.553  0.0897  0.1580 -0.2695
36276DPPC   C4B43023  18.999   2.130  26.190  0.1190 -0.0791  0.1494
36277DPPC   NC343024  19.159   0.845  28.896  0.1569  0.3417 -0.1654
36277DPPC   PO443025  18.808   0.832  29.095 -0.1159 -0.1132  0.1307
36277DPPC   GL143026  18.591   0.897  28.770 -0.2209  0.1437 -0.2385
36277DPPC   GL243027  18.336   0.974  28.939  0.3321  0.0140  0.1157
36277DPPC   C1A43028  18.502   0.587  28.570 -0.1159  0.0657 -0.0319
36277DPPC   C2A43029  18.130   0.531  28.335 -0.1059 -0.0367  0.0363
36277DPPC   C3A43030  17.869   0.695  27.971  0.2322  0.0506  0.0988
36277DPPC   C4A43031  17.562   0.921  27.593 -0.0774  0.0348 -0.2207
36277DPPC   C1B43032  18.049   0.859  28.725 -0.3156 -0.0184 -0.0138
36277DPPC   C2B43033  17.722   0.820  28.503  0.0158 -0.0077  0.3062
36277DPPC   C3B43034  17.604   1.119  28.131 -0.3072 -0.1671  0.0818
36277DPPC   C4B43035  17.147   1.123  27.926  0.1366  0.0108 -0.1676
36278DPPC   NC343036  19.005   4.967  28.507  0.2026  0.3230 -0.2461
36278DPPC   PO443037  19.329   4.728  28.644 -0.2226 -0.0543 -0.0234
36278DPPC   GL143038  19.403   4.459  28.283 -0.0880 -0.0797 -0.1842
36278DPPC   GL243039  19.290   4.818  28.165 -0.2970  0.1371 -0.0112
36278DPPC   C1A43040  19.550   4.358  27.953 -0.0386 -0.1378  0.0175
36278DPPC   C2A43041  19.504   4.080  27.691  0.0462 -0.1567  0.1036
36278DPPC   C3A43042  19.305   3.926  27.258 -0.0129 -0.0208  0.2855
36278DPPC   C4A43043  19.053   3.772  26.865 -0.0588  0.1182 -0.1501
36278DPPC   C1B43044  18.943   4.660  28.118 -0.0460 -0.1117  0.1518
36278DPPC   C2B43045  18.701   4.682  27.825 -0.2453 -0.0151  0.1006
36278DPPC   C3B43046  18.541   4.593  27.418  0.0483 -0.0773  0.1415
36278DPPC   C4B43047  18.249   4.586  27.017  0.2187  0.1482  0.1090
36279DPPC   NC343048  12.255   2.275  27.178  0.2754  0.0806  0.1977
36279DPPC   PO443049  12.367   2.356  27.558  0.0497  0.1548  0.0775
36279DPPC   GL143050  12.695   2.498  27.424  0.0631 -0.3404  0.0848
36279DPPC   GL243051  12.695   2.836  27.377  0.3328 -0.2727  0.1514
36279DPPC   C1A43052  12.933   2.508  27.125 -0.0398 -0.1003 -0.1469
36279DPPC   C2A43053  12.945   2.473  26.705 -0.0582 -0.0501 -0.1361
36279DPPC   C3A43054  13.220   2.498  26.323 -0.2381 -0.1451  0.0724
36279DPPC   C4A43055  13.447   2.440  25.864  0.0932 -0.2658 -0.0296
36279DPPC   C1B43056  12.781   2.988  27.103 -0.4189  0.2384  0.0878
36279DPPC   C2B43057  13.075   2.976  26.820  0.2454  0.3159  0.2516
36279DPPC   C3B43058  13.400   2.914  26.417  0.2877 -0.1250  0.2232
36279DPPC   C4B43059  13.650   2.885  26.028 -0.1136  0.1370  0.2232
36280DPPC   NC343060  12.643   4.032  27.899 -0.0600  0.1335  0.2334
36280DPPC   PO443061  12.424   4.338  27.745 -0.1343  0.3296 -0.2446
36280DPPC   GL143062  12.612   4.448  27.471 -0.3237 -0.0530 -0.0811
36280DPPC   GL243063  12.360   4.444  27.315 -0.0542  0.0112 -0.0976
36280DPPC   C1A43064  12.688   4.723  27.265 -0.2454 -0.2492 -0.3465
36280DPPC   C2A43065  12.788   5.109  27.122 -0.1039 -0.0848 -0.3733
36280DPPC   C3A43066  13.130   5.131  26.769  0.0578  0.1131  0.2395
36280DPPC   C4A43067  13.368   5.086  26.304  0.3178 -0.0321 -0.1495
36280DPPC   C1B43068  12.464   4.342  26.998  0.1393  0.3749 -0.0229
36280DPPC   C2B43069  12.582   4.221  26.639 -0.1598  0.0965 -0.2492
36280DPPC   C3B43070  12.922   4.218  26.277 -0.1472  0.1758 -0.1965
36280DPPC   C4B43071  13.227   4.198  25.897 -0.1001  0.1573 -0.2001
36281DPPC   NC343072  15.955   1.410  29.355 -0.0526  0.2674 -0.1251
36281DPPC   PO443073  15.705   1.559  29.107 -0.2107  0.2538  0.0496
36281DPPC   GL143074  15.611   1.545  28.697  0.1455 -0.0468  0.0477
36281DPPC   GL243075  15.856   1.657  28.682 -0.2684 -0.3579  0.1071
36281DPPC   C1A43076  15.595   1.360  28.412  0.1376  0.0685 -0.0483
36281DPPC   C2A43077  15.492   1.184  28.086  0.1920  0.3003  0.2127
36281DPPC   C3A43078  15.563   1.190  27.661 -0.1279  0.2160  0.0080
36281DPPC   C4A43079  15.784   1.080  27.208  0.0735 -0.0510  0.0816
36281DPPC   C1B43080  16.097   1.950  28.550  0.0563  0.3941 -0.1085
36281DPPC   C2B43081  16.357   1.975  28.217 -0.0449  0.0565 -0.0953
36281DPPC   C3B43082  16.590   1.950  27.804 -0.1047 -0.2934  0.1879
36281DPPC   C4B43083  16.654   1.937  27.271 -0.1291 -0.0331  0.1364
36282DPPC   NC343084  17.545   5.974  28.660  0.1093  0.0288  0.1526
36282DPPC   PO443085  17.749   5.834  28.954  0.1176  0.1671  0.2429
36282DPPC   GL143086  18.088   5.607  28.879  0.3220 -0.3597  0.0128
36282DPPC   GL243087  17.858   5.384  28.957 -0.0075  0.3516 -0.1098
36282DPPC   C1A43088  18.161   5.381  28.531  0.0417 -0.0977 -0.1067
36282DPPC   C2A43089  18.031   5.102  28.254  0.0508 -0.1072 -0.0999
36282DPPC   C3A43090  17.784   4.799  27.984 -0.3155 -0.1357  0.2068
36282DPPC   C4A43091  17.591   4.518  27.643 -0.2298 -0.0539  0.2219
36282DPPC   C1B43092  17.831   5.028  28.783 -0.0891 -0.0948  0.0787
36282DPPC   C2B43093  17.654   4.713  28.536  0.2595 -0.0667  0.0310
36282DPPC   C3B43094  17.850   4.247  28.524  0.1628  0.1310  0.0081
36282DPPC   C4B43095  17.990   3.832  28.715 -0.0577 -0.1256 -0.0881
36283DPPC   NC343096  11.648   1.666  27.415  0.0046 -0.1487  0.0823
36283DPPC   PO443097  11.810   1.434  27.137 -0.0399 -0.1970  0.1619
36283DPPC   GL143098  12.143   1.222  27.216 -0.0110  0.1573  0.3842
36283DPPC   GL243099  12.050   0.944  27.036 -0.1811 -0.1758 -0.1281
36283DPPC   C1A43100  12.447   1.419  27.029  0.3682  0.2633 -0.1664
36283DPPC   C2A43101  12.782   1.599  26.826  0.0526  0.0130 -0.2227
36283DPPC   C3A43102  13.116   1.642  26.423  0.3058 -0.0750  0.2913
36283DPPC   C4A43103  13.421   1.653  26.131  0.0018  0.1737 -0.2496
36283DPPC   C1B43104  12.241   0.822  26.743 -0.0202 -0.0009 -0.0602
36283DPPC   C2B43105  12.491   0.586  26.513 -0.1521 -0.3549  0.0852
36283DPPC   C3B43106  12.832   0.553  26.159 -0.0346 -0.1220 -0.2191
36283DPPC   C4B43107  13.157   0.634  25.816  0.1431  0.1297  0.2768
36284DPPC   NC343108  12.332   6.293  27.692 -0.0582  0.0428  0.2706
36284DPPC   PO443109  12.368   6.711  27.642  0.1040  0.1425 -0.0250
36284DPPC   GL143110  12.510   6.784  27.262 -0.3001  0.0781 -0.0500
36284DPPC   GL243111  12.554   7.034  27.346  0.1259 -0.0471  0.2783
36284DPPC   C1A43112  12.816   6.601  27.135  0.0154 -0.0135  0.0729
36284DPPC   C2A43113  13.094   6.461  26.889  0.0196 -0.1385  0.0133
36284DPPC   C3A43114  13.384   6.528  26.447  0.0952 -0.1748  0.1010
36284DPPC   C4A43115  13.675   6.473  26.025 -0.2532 -0.0812 -0.1354
36284DPPC   C1B43116  12.727   7.182  27.037 -0.3428 -0.0211  0.2447
36284DPPC   C2B43117  12.954   7.354  26.666 -0.0721 -0.1226 -0.2105
36284DPPC   C3B43118  13.291   7.290  26.313  0.2313 -0.1474  0.1644
36284DPPC   C4B43119  13.630   7.336  25.963 -0.0255 -0.2776  0.0224
36285DPPC   NC343120  20.161   0.677  28.236  0.2538 -0.2010  0.1203
36285DPPC   PO443121  19.876   0.929  28.306  0.2882 -0.0597  0.3020
36285DPPC   GL143122  19.823   0.773  27.815 -0.0283  0.0466 -0.0315
36285DPPC   GL243123  19.955   1.017  27.833  0.0703 -0.1471  0.0929
36285DPPC   C1A43124  19.571   0.778  27.512  0.0229 -0.0419 -0.1272
36285DPPC   C2A43125  19.243   0.724  27.289 -0.1838  0.0102  0.0634
36285DPPC   C3A43126  18.954   0.680  26.966  0.0146  0.1578 -0.0321
36285DPPC   C4A43127  18.600   0.735  26.589  0.2552  0.0452  0.1631
36285DPPC   C1B43128  19.782   1.164  27.545  0.1812  0.1577  0.0042
36285DPPC   C2B43129  19.557   1.202  27.232 -0.4034 -0.1478  0.1207
36285DPPC   C3B43130  19.174   1.139  26.938 -0.4234  0.0359  0.0433
36285DPPC   C4B43131  18.794   1.165  26.638  0.0880 -0.0011 -0.0449
36286DPPC   NC343132  18.328   3.722  29.059 -0.1233 -0.0415  0.0395
36286DPPC   PO443133  18.421   3.367  29.082 -0.2176  0.0636  0.2368
36286DPPC   GL143134  18.400   3.194  28.684 -0.2087  0.1731  0.2095
36286DPPC   GL243135  18.109   3.379  28.623 -0.2306 -0.2714 -0.1887
36286DPPC   C1A43136  18.627   3.259  28.427 -0.2175 -0.2340 -0.1454
36286DPPC   C2A43137  18.837   3.017  28.258  0.3297  0.0910  0.0328
36286DPPC   C3A43138  19.200   2.749  28.057  0.0894 -0.1232  0.0302
36286DPPC   C4A43139  19.396   2.345  27.798 -0.1655 -0.0712  0.0659
36286DPPC   C1B43140  18.000   3.588  28.339 -0.0202  0.0966  0.1152
36286DPPC   C2B43141  17.759   3.899  28.208 -0.3037  0.1526  0.2122
36286DPPC   C3B43142  17.506   4.339  28.149  0.3471 -0.1763 -0.2821
36286DPPC   C4B43143  17.292   4.775  28.053  0.0764  0.2157  0.1881
36287DPPC   NC343144  16.437   5.025  29.021 -0.1114  0.3635 -0.1717
36287DPPC   PO443145  16.183   5.345  28.933  0.0030 -0.0127 -0.0506
36287DPPC   GL143146  16.244   5.518  28.522  0.0044 -0.2145 -0.0319
36287DPPC   GL243147  16.071   5.746  28.600  0.0075  0.0310 -0.2909
36287DPPC   C1A43148  16.432   5.537  28.205  0.3017 -0.2822 -0.4786
36287DPPC   C2A43149  16.581   5.613  27.831  0.1353  0.0956  0.5487
36287DPPC   C3A43150  16.822   5.673  27.387 -0.1263  0.0184  0.0468
36287DPPC   C4A43151  17.174   5.583  27.042 -0.0864  0.1355 -0.0458
36287DPPC   C1B43152  16.391   5.942  28.486 -0.1988 -0.1819  0.1013
36287DPPC   C2B43153  16.638   6.042  28.176 -0.1418  0.0949 -0.1627
36287DPPC   C3B43154  16.817   6.139  27.713  0.2141  0.1200 -0.1434
36287DPPC   C4B43155  17.152   6.053  27.345  0.0322 -0.1466  0.0228
36288DPPC   NC343156  19.302   2.000  28.746 -0.1623 -0.1148 -0.1062
36288DPPC   PO443157  19.042   2.255  28.885 -0.0795 -0.0948  0.0768
36288DPPC   GL143158  18.656   2.426  28.821 -0.2688  0.1145 -0.2723
36288DPPC   GL243159  18.730   2.693  28.808  0.1580 -0.0428  0.1155
36288DPPC   C1A43160  18.329   2.328  28.725 -0.1919  0.2185 -0.1691
36288DPPC   C2A43161  17.985   2.347  28.531 -0.0920  0.0477  0.1167
36288DPPC   C3A43162  17.576   2.314  28.274 -0.2011 -0.2300  0.1598
36288DPPC   C4A43163  17.164   2.502  28.026  0.3278  0.0089 -0.1347
36288DPPC   C1B43164  18.475   2.757  28.578  0.1613  0.0698 -0.1138
36288DPPC   C2B43165  18.330   2.981  28.205  0.1076  0.0706  0.0765
36288DPPC   C3B43166  18.160   3.251  27.981  0.5262 -0.3445  0.0176
36288DPPC   C4B43167  17.935   3.619  27.823 -0.5403 -0.0894 -0.3482
36289DPPC   NC343168  11.915   6.232  26.946  0.0725  0.1791  0.2622
36289DPPC   PO443169  12.094   6.133  27.267  0.2018  0.2842 -0.1872
36289DPPC   GL143170  12.531   6.194  27.190 -0.1373  0.0318  0.2967
36289DPPC   GL243171  12.436   6.387  26.966  0.1277 -0.3589 -0.0597
36289DPPC   C1A43172  12.768   5.943  26.996  0.0337  0.0928 -0.0460
36289DPPC   C2A43173  12.989   5.995  26.641 -0.0573  0.2275  0.0506
36289DPPC   C3A43174  13.308   6.063  26.311  0.0849  0.3772 -0.0290
36289DPPC   C4A43175  13.574   6.026  25.916 -0.3588 -0.0507  0.4232
36289DPPC   C1B43176  12.710   6.362  26.692  0.2129  0.0374  0.1479
36289DPPC   C2B43177  12.855   6.361  26.307  0.0689  0.4132 -0.0671
36289DPPC   C3B43178  13.170   6.364  25.965 -0.0573 -0.2742  0.0214
36289DPPC   C4B43179  13.452   6.337  25.519 -0.1656  0.0852 -0.2098
36290DPPC   NC343180  10.489   4.734  25.843 -0.1462  0.0123  0.1388
36290DPPC   PO443181  10.777   5.037  25.796  0.1932 -0.0708  0.0350
36290DPPC   GL143182  11.034   5.262  25.422  0.1151 -0.2307 -0.2869
36290DPPC   GL243183  11.095   5.436  25.605 -0.2904  0.1343 -0.2945
36290DPPC   C1A43184  11.323   5.209  25.241 -0.2372  0.1898  0.1579
36290DPPC   C2A43185  11.603   5.256  24.891 -0.0497 -0.2072  0.3979
36290DPPC   C3A43186  11.902   5.156  24.521  0.1698  0.2000 -0.0118
36290DPPC   C4A43187  12.206   5.106  24.167 -0.0144 -0.1811 -0.2073
36290DPPC   C1B43188  11.414   5.607  25.439 -0.1917 -0.0151  0.2018
36290DPPC   C2B43189  11.627   5.741  25.119 -0.0078 -0.0635 -0.0478
36290DPPC   C3B43190  11.977   5.670  24.741  0.3569  0.1033 -0.3463
36290DPPC   C4B43191  12.258   5.639  24.335  0.1300 -0.1649  0.0241
36291DPPC   NC343192  12.100   5.542  27.581 -0.0894  0.1048 -0.0133
36291DPPC   PO443193  11.960   5.631  27.213 -0.0305  0.0696  0.2081
36291DPPC   GL143194  12.089   5.612  26.844 -0.2333 -0.1185  0.1148
36291DPPC   GL243195  12.014   5.356  26.807 -0.2146  0.2733  0.1333
36291DPPC   C1A43196  12.341   5.845  26.768  0.1461 -0.1627 -0.0732
36291DPPC   C2A43197  12.542   5.994  26.444  0.0608 -0.0657  0.1602
36291DPPC   C3A43198  12.852   5.908  26.108 -0.0157  0.0125  0.2413
36291DPPC   C4A43199  13.092   5.841  25.734 -0.1357 -0.2134  0.2046
36291DPPC   C1B43200  12.182   5.425  26.492  0.0278 -0.1565 -0.4462
36291DPPC   C2B43201  12.428   5.464  26.269 -0.1086  0.0009  0.0255
36291DPPC   C3B43202  12.728   5.491  25.837 -0.2025 -0.1228 -0.0912
36291DPPC   C4B43203  12.916   5.427  25.401  0.0133 -0.1255  0.0097
36292DPPC   NC343204  12.119   2.820  27.594  0.1558 -0.0757 -0.1480
36292DPPC   PO443205  12.163   2.756  27.226 -0.0428 -0.0554 -0.2107
36292DPPC   GL143206  12.337   2.808  26.918  0.1378  0.0149 -0.0382
36292DPPC   GL243207  12.393   2.517  26.813  0.1159 -0.0050  0.3354
36292DPPC   C1A43208  12.611   2.994  26.694 -0.2676  0.4861  0.0104
36292DPPC   C2A43209  12.804   2.858  26.327 -0.0025  0.0496 -0.1284
36292DPPC   C3A43210  13.124   2.851  25.966  0.1236 -0.4119  0.1882
36292DPPC   C4A43211  13.405   2.863  25.556 -0.0546 -0.0604 -0.1230
36292DPPC   C1B43212  12.475   2.513  26.436 -0.1268 -0.3823 -0.3643
36292DPPC   C2B43213  12.699   2.413  26.087 -0.0757  0.0215  0.1399
36292DPPC   C3B43214  12.969   2.379  25.689 -0.3208 -0.1560  0.2625
36292DPPC   C4B43215  13.267   2.309  25.329  0.1666 -0.2492 -0.0925
36293DPPC   NC343216  15.772   4.870  28.479 -0.0277 -0.0822  0.0754
36293DPPC   PO443217  16.044   4.830  28.793  0.0534  0.0277  0.0821
36293DPPC   GL143218  16.458   4.563  28.696 -0.0655 -0.1042  0.0952
36293DPPC   GL243219  16.378   4.707  28.439  0.0569 -0.0273  0.2731
36293DPPC   C1A43220  16.678   4.386  28.529 -0.1850  0.2292  0.2172
36293DPPC   C2A43221  16.920   4.271  28.189  0.2264 -0.0544  0.1708
36293DPPC   C3A43222  17.135   4.242  27.737 -0.1653 -0.0573  0.1652
36293DPPC   C4A43223  17.390   4.103  27.336  0.2595  0.0513  0.0230
36293DPPC   C1B43224  16.580   4.700  28.120  0.0329  0.2752 -0.1516
36293DPPC   C2B43225  16.847   4.700  27.774  0.0090 -0.0381 -0.0618
36293DPPC   C3B43226  17.141   4.608  27.404  0.0762  0.1271  0.0675
36293DPPC   C4B43227  17.174   4.463  26.891  0.0863  0.1082 -0.1031
36294DPPC   NC343228  15.312   6.055  28.685  0.1030 -0.1647  0.3144
36294DPPC   PO443229  14.992   5.968  28.447 -0.0014 -0.0803  0.1931
36294DPPC   GL143230  15.134   5.679  28.141  0.4124 -0.0979 -0.3426
36294DPPC   GL243231  15.362   5.896  28.082  0.3006  0.0270 -0.0967
36294DPPC   C1A43232  14.919   5.670  27.843 -0.0371  0.0671 -0.1315
36294DPPC   C2A43233  14.652   5.971  27.725 -0.2870  0.0575 -0.0916
36294DPPC   C3A43234  14.386   6.278  27.492  0.0065 -0.2035 -0.1726
36294DPPC   C4A43235  14.131   6.393  27.045 -0.0203 -0.1413 -0.0984
36294DPPC   C1B43236  15.307   5.839  27.776 -0.0222  0.1675  0.3511
36294DPPC   C2B43237  15.341   5.912  27.367 -0.1217 -0.1501 -0.0708
36294DPPC   C3B43238  15.639   5.835  26.979  0.0437 -0.2255 -0.0892
36294DPPC   C4B43239  15.932   5.907  26.604  0.2143 -0.1290 -0.3607
36295DPPC   NC343240  14.465   5.644  28.779  0.0782  0.1642 -0.2404
36295DPPC   PO443241  14.742   5.338  28.838  0.0295 -0.0744  0.2236
36295DPPC   GL143242  14.789   5.136  28.524  0.2342  0.0897 -0.4344
36295DPPC   GL243243  15.012   5.156  28.321  0.1373  0.3202  0.0217
36295DPPC   C1A43244  14.499   5.044  28.293  0.3715 -0.2489 -0.0407
36295DPPC   C2A43245  14.396   4.828  27.968  0.0557  0.4935  0.0097
36295DPPC   C3A43246  13.977   4.738  27.742 -0.3478 -0.1433 -0.2239
36295DPPC   C4A43247  13.723   4.793  27.301 -0.0285  0.1313 -0.1624
36295DPPC   C1B43248  14.885   5.204  27.939 -0.1638  0.0157 -0.2421
36295DPPC   C2B43249  14.663   5.205  27.559  0.0635  0.2910  0.0233
36295DPPC   C3B43250  14.446   5.389  27.142  0.4874  0.2073  0.1440
36295DPPC   C4B43251  14.112   5.491  26.775  0.2641  0.0872 -0.1757
36296DPPC   NC343252  19.264   6.543  29.021  0.2437 -0.1511  0.2431
36296DPPC   PO443253  19.476   6.682  28.715  0.2498  0.1880  0.0229
36296DPPC   GL143254  19.303   6.852  28.337  0.1991 -0.2321  0.0303
36296DPPC   GL243255  19.271   7.063  28.510  0.0625  0.0587 -0.2285
36296DPPC   C1A43256  19.120   6.908  28.030 -0.1336 -0.0725 -0.4468
36296DPPC   C2A43257  18.792   6.838  27.757 -0.2833  0.0780 -0.2984
36296DPPC   C3A43258  18.546   6.374  27.719  0.0398 -0.0010 -0.0521
36296DPPC   C4A43259  18.219   6.112  28.032 -0.1573 -0.0126  0.0054
36296DPPC   C1B43260  18.928   7.218  28.350 -0.2218 -0.2593 -0.2633
36296DPPC   C2B43261  18.600   7.475  28.274 -0.1472 -0.0519  0.1582
36296DPPC   C3B43262  18.142   7.720  28.301 -0.4469 -0.0301 -0.2386
36296DPPC   C4B43263  17.913   8.127  28.131  0.2232  0.0347  0.1443
36297DPPC   NC343264  15.639   0.262  28.917  0.2092  0.1904  0.0131
36297DPPC   PO443265  15.805  -0.030  28.670  0.0146  0.0923 -0.0017
36297DPPC   GL143266  15.987  -0.052  28.358 -0.1215 -0.1432  0.0150
36297DPPC   GL243267  15.826  -0.082  28.124  0.1311 -0.0769  0.1156
36297DPPC   C1A43268  16.302  -0.155  28.197 -0.1953 -0.1992  0.2009
36297DPPC   C2A43269  16.503  -0.078  27.859  0.0817  0.0248 -0.3400
36297DPPC   C3A43270  16.795  -0.034  27.459 -0.1509  0.0983  0.2813
36297DPPC   C4A43271  16.990  -0.023  26.993  0.2402 -0.2625  0.0014
36297DPPC   C1B43272  16.038  -0.076  27.823 -0.0516 -0.1471  0.0330
36297DPPC   C2B43273  16.233  -0.118  27.433 -0.1400  0.0177 -0.0078
36297DPPC   C3B43274  16.475  -0.222  27.022 -0.0849 -0.0047  0.3762
36297DPPC   C4B43275  16.636  -0.222  26.578 -0.2438  0.0191  0.1377
36298DPPC   NC343276  10.955   5.706  26.415 -0.2462 -0.1156  0.0122
36298DPPC   PO443277  10.819   5.941  26.108  0.2641  0.2122 -0.3208
36298DPPC   GL143278  11.107   5.899  25.830 -0.5139  0.2696 -0.0455
36298DPPC   GL243279  11.209   5.647  25.974 -0.0175  0.0169  0.0998
36298DPPC   C1A43280  11.453   5.985  25.738  0.1642 -0.3012  0.1862
36298DPPC   C2A43281  11.629   6.136  25.391 -0.1056 -0.1846  0.4539
36298DPPC   C3A43282  11.964   6.142  25.065 -0.0116 -0.0066 -0.0423
36298DPPC   C4A43283  12.256   6.077  24.682  0.1936 -0.0747  0.0379
36298DPPC   C1B43284  11.565   5.612  25.850  0.0773 -0.1064 -0.2309
36298DPPC   C2B43285  11.905   5.781  25.637  0.0217  0.0256  0.1344
36298DPPC   C3B43286  12.158   5.743  25.241 -0.1378  0.0772 -0.1569
36298DPPC   C4B43287  12.440   5.688  24.861  0.0218  0.2983 -0.0221
36299DPPC   NC343288  14.894   2.236  28.748  0.0990 -0.0854 -0.2829
36299DPPC   PO443289  14.802   2.604  28.912  0.1216  0.0151  0.1505
36299DPPC   GL143290  14.934   2.903  28.571 -0.0330  0.3465  0.2105
36299DPPC   GL243291  14.611   2.815  28.472 -0.0773  0.0455  0.0882
36299DPPC   C1A43292  15.163   2.864  28.290  0.2515  0.3347 -0.0479
36299DPPC   C2A43293  15.227   2.839  27.853  0.0528 -0.3069 -0.1730
36299DPPC   C3A43294  15.426   2.829  27.410  0.0736  0.1335  0.0747
36299DPPC   C4A43295  15.650   2.826  26.981  0.0341 -0.1238  0.2037
36299DPPC   C1B43296  14.619   2.727  28.129 -0.2723  0.1984  0.0571
36299DPPC   C2B43297  14.526   2.804  27.741  0.1967  0.1004  0.1124
36299DPPC   C3B43298  14.247   2.696  27.411  0.0568  0.1826 -0.0691
36299DPPC   C4B43299  13.891   2.563  26.988 -0.0832  0.1896  0.0277
36300DPPC   NC343300  11.935   0.405  27.620  0.1990  0.1744  0.1112
36300DPPC   PO443301  12.089   0.630  27.328 -0.0071 -0.0278 -0.3681
36300DPPC   GL143302  12.327   0.474  26.972  0.7231  0.2785 -0.1529
36300DPPC   GL243303  12.049   0.439  26.768  0.1744  0.0865  0.1831
36300DPPC   C1A43304  12.627   0.227  26.867  0.3376  0.1512  0.0500
36300DPPC   C2A43305  12.923   0.223  26.557 -0.2986  0.0882  0.0567
36300DPPC   C3A43306  13.193   0.232  26.139  0.0193  0.0546  0.2346
36300DPPC   C4A43307  13.515   0.247  25.781  0.4051 -0.1375  0.0091
36300DPPC   C1B43308  12.246   0.249  26.529  0.2654  0.2604  0.2230
36300DPPC   C2B43309  12.518   0.164  26.255  0.0148  0.1293  0.0916
36300DPPC   C3B43310  12.798   0.087  25.900  0.1086  0.0095  0.1382
36300DPPC   C4B43311  13.051   0.210  25.493 -0.0389  0.1433  0.0915
36301DPPC   NC343312  18.133   5.148  29.269 -0.3628 -0.0071 -0.0307
36301DPPC   PO443313  18.523   5.106  29.168 -0.1217 -0.1552 -0.0019
36301DPPC   GL143314  18.593   5.285  28.831 -0.1925 -0.1693  0.1331
36301DPPC   GL243315  18.657   5.549  28.871 -0.1057  0.1242 -0.0569
36301DPPC   C1A43316  18.587   5.237  28.459  0.0552  0.1133  0.0092
36301DPPC   C2A43317  18.504   5.081  28.085 -0.0267 -0.2940 -0.2656
36301DPPC   C3A43318  18.251   4.786  27.891  0.2047 -0.0624  0.2331
36301DPPC   C4A43319  17.993   4.651  27.489 -0.2040  0.1286 -0.1371
36301DPPC   C1B43320  18.634   5.683  28.559  0.0808 -0.2982  0.2605
36301DPPC   C2B43321  18.509   5.600  28.167  0.1533 -0.1494 -0.2493
36301DPPC   C3B43322  18.184   5.475  27.810 -0.1947  0.2038 -0.3952
36301DPPC   C4B43323  17.919   5.361  27.434 -0.0676 -0.1739  0.1337
36302DPPC   NC343324  11.920   3.439  27.483  0.2844 -0.0954  0.1376
36302DPPC   PO443325  11.775   3.214  27.214 -0.0691  0.1613  0.0374
36302DPPC   GL143326  12.130   3.204  26.924  0.1382 -0.0410 -0.4628
36302DPPC   GL243327  11.978   3.005  26.764 -0.2528 -0.1631  0.3389
36302DPPC   C1A43328  12.278   3.373  26.670 -0.0631 -0.4171 -0.0511
36302DPPC   C2A43329  12.449   3.262  26.349  0.0257  0.1402 -0.0455
36302DPPC   C3A43330  12.702   3.251  25.951  0.0225  0.0220  0.2445
36302DPPC   C4A43331  13.042   3.246  25.581 -0.0124  0.0154 -0.1285
36302DPPC   C1B43332  12.213   2.933  26.526 -0.2541  0.0908 -0.4067
36302DPPC   C2B43333  12.379   2.803  26.128  0.1853  0.0162 -0.2244
36302DPPC   C3B43334  12.602   2.796  25.718 -0.0197  0.1784  0.0092
36302DPPC   C4B43335  12.959   2.728  25.371 -0.0122 -0.2304 -0.1762
36303DPPC   NC343336  12.921   6.298  28.016  0.1912 -0.1625  0.1521
36303DPPC   PO443337  12.704   6.003  27.873 -0.3485  0.2585 -0.0082
36303DPPC   GL143338  12.889   5.988  27.400 -0.2522 -0.0719 -0.2396
36303DPPC   GL243339  12.898   6.255  27.461  0.4750 -0.1295  0.0170
36303DPPC   C1A43340  13.184   6.010  27.146 -0.0558  0.3657 -0.0790
36303DPPC   C2A43341  13.454   6.146  26.839 -0.0963 -0.2018 -0.4030
36303DPPC   C3A43342  13.742   6.548  26.776 -0.1229  0.0606  0.2342
36303DPPC   C4A43343  14.064   6.964  26.733 -0.0096 -0.0392  0.0468
36303DPPC   C1B43344  13.171   6.448  27.407  0.3597 -0.1714 -0.0003
36303DPPC   C2B43345  13.495   6.680  27.282  0.3152 -0.2368  0.0343
36303DPPC   C3B43346  13.682   7.035  27.024 -0.0368 -0.0287  0.1941
36303DPPC   C4B43347  13.462   7.388  26.824  0.0168 -0.3321  0.1184
36304DPPC   NC343348  15.669   1.069  28.763  0.0749  0.0294 -0.2086
36304DPPC   PO443349  16.019   1.160  28.923  0.0041  0.0615  0.1878
36304DPPC   GL143350  16.258   0.874  28.588 -0.2113  0.0966  0.0881
36304DPPC   GL243351  16.117   1.093  28.455 -0.3688  0.0991 -0.1985
36304DPPC   C1A43352  16.500   0.688  28.384  0.4292 -0.0666 -0.0027
36304DPPC   C2A43353  16.581   0.271  28.298  0.1469 -0.0078  0.0308
36304DPPC   C3A43354  16.823  -0.073  28.312 -0.0087  0.1400 -0.0413
36304DPPC   C4A43355  17.088  -0.429  28.172  0.0991 -0.0977  0.1459
36304DPPC   C1B43356  16.143   0.795  28.202 -0.1114 -0.0882  0.2416
36304DPPC   C2B43357  16.359   0.722  27.806  0.2822 -0.0893  0.1956
36304DPPC   C3B43358  16.665   0.699  27.452  0.0372 -0.1486  0.0939
36304DPPC   C4B43359  16.683   0.768  27.061 -0.3670  0.1610 -0.0253
36305DPPC   NC343360  13.091   1.059  28.325  0.3021 -0.0120 -0.1165
36305DPPC   PO443361  13.273   1.297  28.072  0.1823 -0.1159  0.4574
36305DPPC   GL143362  13.225   1.179  27.646  0.0895  0.2062  0.1529
36305DPPC   GL243363  12.967   1.270  27.652  0.1615  0.3981  0.3670
36305DPPC   C1A43364  13.373   1.272  27.344  0.1755 -0.3572  0.0569
36305DPPC   C2A43365  13.673   1.252  27.058  0.1035  0.1754  0.0471
36305DPPC   C3A43366  13.974   1.039  26.807  0.2324  0.2913  0.0234
36305DPPC   C4A43367  13.849   0.816  26.424 -0.0372  0.1073 -0.0281
36305DPPC   C1B43368  12.845   1.223  27.301  0.0138  0.3755 -0.1801
36305DPPC   C2B43369  13.084   1.133  26.956  0.0171  0.0174  0.2029
36305DPPC   C3B43370  13.431   1.139  26.511 -0.0692 -0.2667 -0.1403
36305DPPC   C4B43371  13.708   1.246  26.176 -0.1184 -0.0967  0.1796
36306DPPC   NC343372  14.274   0.221  28.504 -0.1780 -0.3780 -0.2261
36306DPPC   PO443373  14.512  -0.098  28.416  0.0837 -0.0632  0.0952
36306DPPC   GL143374  14.476  -0.161  27.987  0.0895 -0.2308  0.0674
36306DPPC   GL243375  14.422   0.183  27.914 -0.2355 -0.1259 -0.0400
36306DPPC   C1A43376  14.714  -0.185  27.720 -0.4607 -0.0339  0.0953
36306DPPC   C2A43377  14.993  -0.300  27.475  0.1742  0.0467 -0.0361
36306DPPC   C3A43378  15.196  -0.358  27.022 -0.2872 -0.2511  0.1236
36306DPPC   C4A43379  15.517  -0.362  26.620  0.0117 -0.0280 -0.3476
36306DPPC   C1B43380  14.195   0.097  27.735  0.3306  0.3860 -0.0102
36306DPPC   C2B43381  13.933  -0.168  27.558 -0.1977  0.0901 -0.2582
36306DPPC   C3B43382  13.646  -0.447  27.303 -0.0976  0.0283  0.1828
36306DPPC   C4B43383  13.628  -0.874  27.032  0.0429 -0.0723 -0.4208
36307DPPC   NC343384  17.043   1.402  29.252  0.1370  0.1936  0.0338
36307DPPC   PO443385  17.146   1.041  29.170  0.1507  0.0013 -0.1938
36307DPPC   GL143386  16.970   1.254  28.804  0.1398  0.3838 -0.2194
36307DPPC   GL243387  16.937   0.944  28.764 -0.0174  0.2416  0.0957
36307DPPC   C1A43388  16.841   1.422  28.490 -0.1429  0.0492  0.0605
36307DPPC   C2A43389  16.863   1.541  28.075 -0.1691  0.0520  0.2186
36307DPPC   C3A43390  16.958   1.590  27.610  0.1470 -0.2660  0.0021
36307DPPC   C4A43391  17.037   1.604  27.130  0.0149  0.0278 -0.4164
36307DPPC   C1B43392  16.835   0.917  28.390 -0.3919  0.0119 -0.0815
36307DPPC   C2B43393  16.813   0.697  28.049 -0.2074  0.0672 -0.1803
36307DPPC   C3B43394  16.914   0.285  27.894 -0.1387  0.0499 -0.1129
36307DPPC   C4B43395  17.192  -0.168  27.816  0.1319 -0.2205  0.3122
36308DPPC   NC343396  11.600   5.249  27.008  0.0108  0.1395 -0.3070
36308DPPC   PO443397  11.808   5.099  27.337  0.0654 -0.0388  0.2744
36308DPPC   GL143398  12.196   5.108  27.146  0.2886 -0.1208  0.0110
36308DPPC   GL243399  12.338   5.272  27.362  0.1513 -0.1362  0.3596
36308DPPC   C1A43400  12.381   5.144  26.834  0.3935  0.0175 -0.0588
36308DPPC   C2A43401  12.579   5.044  26.510 -0.2481 -0.1340  0.0671
36308DPPC   C3A43402  12.876   5.094  26.113  0.2786 -0.2026 -0.2248
36308DPPC   C4A43403  13.142   5.066  25.710 -0.1400 -0.1919  0.1404
36308DPPC   C1B43404  12.463   5.458  27.096 -0.0505  0.0490 -0.1145
36308DPPC   C2B43405  12.656   5.527  26.748 -0.0384  0.0715 -0.2449
36308DPPC   C3B43406  12.989   5.481  26.362 -0.2300  0.1885  0.0445
36308DPPC   C4B43407  13.345   5.531  26.048  0.1089 -0.0459 -0.0996
36309DPPC   NC343408  16.592   2.015  29.758 -0.1321  0.0644  0.0110
36309DPPC   PO443409  16.518   1.753  29.460  0.2274 -0.1589 -0.1851
36309DPPC   GL143410  16.702   1.723  29.072  0.1487  0.0198  0.1411
36309DPPC   GL243411  16.533   1.905  28.924  0.0352  0.1876  0.0666
36309DPPC   C1A43412  16.962   1.700  28.836  0.3697  0.0397  0.4472
36309DPPC   C2A43413  17.218   1.707  28.531 -0.0535 -0.2032 -0.2008
36309DPPC   C3A43414  17.381   1.551  28.100  0.1579 -0.0615  0.1776
36309DPPC   C4A43415  17.449   1.488  27.606  0.2384 -0.0945 -0.0038
36309DPPC   C1B43416  16.570   2.227  28.837  0.4122  0.0457 -0.1912
36309DPPC   C2B43417  16.772   2.535  28.931  0.0911 -0.0966 -0.3674
36309DPPC   C3B43418  17.198   2.765  28.871 -0.1772  0.1667 -0.0542
36309DPPC   C4B43419  17.481   2.767  28.485 -0.1030  0.3400  0.2166
36310DPPC   NC343420  14.755   3.645  29.329  0.2935 -0.1247  0.0938
36310DPPC   PO443421  14.680   3.429  29.022  0.0935 -0.1711 -0.1289
36310DPPC   GL143422  14.830   3.536  28.696 -0.2763  0.1613 -0.0024
36310DPPC   GL243423  14.825   3.294  28.547  0.0355 -0.1756 -0.4189
36310DPPC   C1A43424  15.196   3.567  28.540 -0.0351 -0.0191 -0.0129
36310DPPC   C2A43425  15.623   3.596  28.546 -0.3440  0.0413  0.3049
36310DPPC   C3A43426  15.863   3.970  28.520 -0.1638  0.0732 -0.0648
36310DPPC   C4A43427  16.087   4.371  28.336 -0.0502  0.0813  0.0285
36310DPPC   C1B43428  14.998   3.228  28.243 -0.0373  0.2902 -0.1220
36310DPPC   C2B43429  15.279   3.358  28.033 -0.3922 -0.1517 -0.0214
36310DPPC   C3B43430  15.529   3.299  27.640 -0.0757  0.0464 -0.1674
36310DPPC   C4B43431  15.802   3.230  27.251  0.1597  0.3037  0.0682
36311DPPC   NC343432  15.587   1.955  28.872  0.2357 -0.2799 -0.0061
36311DPPC   PO443433  15.919   2.110  29.036 -0.0522  0.1441  0.2139
36311DPPC   GL143434  16.117   2.463  28.925 -0.4071 -0.4067  0.1277
36311DPPC   GL243435  15.834   2.409  28.710  0.1007  0.0705 -0.0034
36311DPPC   C1A43436  16.257   2.745  28.721  0.3779  0.0560 -0.0388
36311DPPC   C2A43437  16.249   2.920  28.337  0.0476 -0.0602 -0.3225
36311DPPC   C3A43438  16.455   2.894  27.841  0.0526 -0.1549 -0.2366
36311DPPC   C4A43439  16.525   2.934  27.353  0.1570  0.1533 -0.3079
36311DPPC   C1B43440  15.928   2.503  28.360  0.0353 -0.4050 -0.1658
36311DPPC   C2B43441  16.157   2.563  27.993 -0.2221  0.0067  0.4025
36311DPPC   C3B43442  16.316   2.465  27.596 -0.0255 -0.1641  0.1305
36311DPPC   C4B43443  16.411   2.463  27.172  0.0157  0.2099 -0.0102
36312DPPC   NC343444  11.355   4.163  27.004  0.1816 -0.0150  0.0774
36312DPPC   PO443445  11.518   4.274  26.665 -0.0143  0.0585 -0.2883
36312DPPC   GL143446  11.740   4.121  26.401 -0.2967  0.0841 -0.2116
36312DPPC   GL243447  11.653   4.148  26.123 -0.2361 -0.4435  0.0700
36312DPPC   C1A43448  12.084   4.032  26.319 -0.0541 -0.1852 -0.3552
36312DPPC   C2A43449  12.437   4.162  26.155 -0.0234 -0.2743  0.1553
36312DPPC   C3A43450  12.726   4.173  25.829  0.0283 -0.1032 -0.0815
36312DPPC   C4A43451  12.998   4.188  25.398 -0.2480 -0.1086 -0.1712
36312DPPC   C1B43452  11.959   4.102  25.899  0.1678 -0.0935 -0.2384
36312DPPC   C2B43453  12.207   4.064  25.587 -0.0658 -0.0521  0.0758
36312DPPC   C3B43454  12.522   4.043  25.207 -0.0221 -0.0978 -0.0826
36312DPPC   C4B43455  12.810   3.964  24.836  0.0680  0.0773  0.3627
36313DPPC   NC343456  10.840   4.807  26.274  0.0770 -0.3624  0.0468
36313DPPC   PO443457  10.934   4.513  26.009  0.2539 -0.0476 -0.0854
36313DPPC   GL143458  10.876   4.429  25.509 -0.1225 -0.0150  0.6128
36313DPPC   GL243459  11.170   4.417  25.601  0.0270  0.2678  0.0303
36313DPPC   C1A43460  10.933   4.380  25.124 -0.1572  0.1432  0.1199
36313DPPC   C2A43461  11.221   4.318  24.827 -0.0097 -0.0828  0.0882
36313DPPC   C3A43462  11.443   4.222  24.424 -0.0155 -0.0892 -0.0648
36313DPPC   C4A43463  11.751   4.183  24.083  0.0088  0.0737  0.1038
36313DPPC   C1B43464  11.365   4.306  25.326 -0.1974  0.0532 -0.4604
36313DPPC   C2B43465  11.652   4.267  25.036  0.0846  0.1747  0.0087
36313DPPC   C3B43466  11.961   4.272  24.660  0.0019 -0.1252  0.0061
36313DPPC   C4B43467  12.262   4.165  24.243 -0.4087  0.0663  0.1031
36314DPPC   NC343468  13.724   0.241  28.472 -0.1673  0.0209 -0.3163
36314DPPC   PO443469  13.937  -0.106  28.437  0.3771  0.4218 -0.1483
36314DPPC   GL143470  14.060  -0.347  28.068  0.1418 -0.0788  0.1049
36314DPPC   GL243471  13.786  -0.420  28.073  0.0649 -0.1470  0.3061
36314DPPC   C1A43472  14.200  -0.667  27.910  0.0794 -0.4023  0.2008
36314DPPC   C2A43473  14.247  -0.805  27.532  0.4728  0.1315 -0.0348
36314DPPC   C3A43474  14.177  -0.715  27.108  0.0750 -0.0618 -0.0132
36314DPPC   C4A43475  13.915  -0.609  26.715 -0.2400 -0.0136 -0.3926
36314DPPC   C1B43476  13.711  -0.660  27.799  0.1236  0.1684 -0.4164
36314DPPC   C2B43477  13.796  -0.988  27.560 -0.1396 -0.0523 -0.1198
36314DPPC   C3B43478  13.939  -1.311  27.262  0.0865  0.1523  0.1565
36314DPPC   C4B43479  13.975  -1.663  26.883  0.3223  0.1310 -0.1569
36315DPPC   NC343480  11.019   4.214  26.373  0.1989 -0.2016  0.1285
36315DPPC   PO443481  10.764   3.983  26.197 -0.0511 -0.0215 -0.0257
36315DPPC   GL143482  10.925   4.069  25.787  0.2321  0.0743  0.2008
36315DPPC   GL243483  11.223   4.163  25.967  0.0853 -0.4091  0.0545
36315DPPC   C1A43484  11.089   3.962  25.426  0.0927  0.2307  0.0407
36315DPPC   C2A43485  11.263   3.830  25.071  0.1473  0.2067  0.0437
36315DPPC   C3A43486  11.646   3.798  24.778  0.0168 -0.1269 -0.0041
36315DPPC   C4A43487  11.942   3.768  24.417  0.1071  0.0187  0.0801
36315DPPC   C1B43488  11.459   4.108  25.713  0.0057  0.1401 -0.0264
36315DPPC   C2B43489  11.762   3.958  25.454  0.0795  0.1398  0.1936
36315DPPC   C3B43490  12.051   3.954  25.044  0.0692  0.0120 -0.1628
36315DPPC   C4B43491  12.348   3.917  24.687 -0.2718 -0.0360  0.0850
36316DPPC   NC343492  10.089   1.727  25.161 -0.1395  0.1242 -0.3053
36316DPPC   PO443493  10.205   1.943  25.479  0.1066 -0.0202 -0.0698
36316DPPC   GL143494  10.540   2.046  25.299  0.3524  0.0794  0.1232
36316DPPC   GL243495  10.734   1.964  25.475  0.0334  0.0720 -0.0520
36316DPPC   C1A43496  10.724   2.201  24.995 -0.2453 -0.4752  0.1150
36316DPPC   C2A43497  10.867   2.423  24.692 -0.0271 -0.1328  0.0367
36316DPPC   C3A43498  11.198   2.453  24.394 -0.3019 -0.2173 -0.0162
36316DPPC   C4A43499  11.596   2.347  23.999  0.3630 -0.2487 -0.2525
36316DPPC   C1B43500  11.057   1.863  25.400 -0.0292  0.4220  0.3189
36316DPPC   C2B43501  11.361   1.653  25.166 -0.0194 -0.3271  0.0090
36316DPPC   C3B43502  11.672   1.624  24.785  0.0527  0.1670  0.1733
36316DPPC   C4B43503  11.968   1.574  24.367 -0.1174 -0.1008 -0.3280
36317DPPC   NC343504  19.823   2.339  28.659  0.2459 -0.0038 -0.2671
36317DPPC   PO443505  19.485   2.541  28.812 -0.1583 -0.0629  0.0239
36317DPPC   GL143506  19.343   2.751  28.481  0.1712 -0.1856 -0.2767
36317DPPC   GL243507  19.034   2.660  28.534  0.2832 -0.3065 -0.0494
36317DPPC   C1A43508  19.542   2.948  28.186  0.1018  0.0178 -0.4849
36317DPPC   C2A43509  19.584   3.212  27.814  0.0451 -0.1844  0.0440
36317DPPC   C3A43510  19.607   3.529  27.434 -0.0994  0.1833 -0.0672
36317DPPC   C4A43511  19.463   3.521  26.959  0.1168 -0.0021  0.1205
36317DPPC   C1B43512  18.788   2.533  28.301  0.1108 -0.3318 -0.0552
36317DPPC   C2B43513  18.403   2.423  28.161 -0.2946  0.2234 -0.0520
36317DPPC   C3B43514  18.076   2.129  27.980  0.2305 -0.0374  0.4026
36317DPPC   C4B43515  17.665   1.915  27.888 -0.0089  0.0872 -0.0835
36318DPPC   NC343516  11.409   0.425  26.617 -0.3128  0.1657  0.0005
36318DPPC   PO443517  11.637   0.210  26.855 -0.0135 -0.0645  0.0864
36318DPPC   GL143518  11.850  -0.010  26.588  0.1989 -0.3173 -0.2265
36318DPPC   GL243519  11.763   0.297  26.387 -0.1128 -0.2014  0.5441
36318DPPC   C1A43520  12.187  -0.220  26.562 -0.1876 -0.0563  0.4160
36318DPPC   C2A43521  12.320  -0.283  26.173 -0.1613  0.2387 -0.3154
36318DPPC   C3A43522  12.605  -0.342  25.797 -0.0741 -0.0809 -0.0082
36318DPPC   C4A43523  12.950  -0.385  25.417 -0.2427 -0.1908  0.1417
36318DPPC   C1B43524  11.962   0.225  26.066 -0.1548 -0.4481 -0.0142
36318DPPC   C2B43525  12.248   0.064  25.821  0.3014  0.1468 -0.1476
36318DPPC   C3B43526  12.577   0.065  25.467  0.2333  0.0396 -0.2476
36318DPPC   C4B43527  12.790   0.053  25.003 -0.4117  0.1171 -0.0302
36319DPPC   NC343528  18.625   1.975  28.773  0.2329  0.0413  0.0213
36319DPPC   PO443529  18.897   1.716  28.931 -0.0623 -0.0517 -0.1808
36319DPPC   GL143530  19.198   1.618  28.530  0.0672  0.4411 -0.2997
36319DPPC   GL243531  18.997   1.835  28.480  0.1569  0.1758  0.0615
36319DPPC   C1A43532  19.227   1.517  28.167  0.1544 -0.0267  0.2162
36319DPPC   C2A43533  19.000   1.476  27.791  0.0579  0.0670 -0.0610
36319DPPC   C3A43534  18.676   1.591  27.469  0.3220  0.1001 -0.0527
36319DPPC   C4A43535  18.492   2.013  27.187 -0.2211 -0.3461 -0.0924
36319DPPC   C1B43536  18.806   1.707  28.153 -0.3172  0.3376  0.1399
36319DPPC   C2B43537  18.680   1.935  27.778  0.0826 -0.0003 -0.0621
36319DPPC   C3B43538  18.519   2.333  27.630 -0.1658 -0.2552 -0.1448
36319DPPC   C4B43539  18.217   2.678  27.740  0.0274 -0.1069 -0.1311
36320DPPC   NC343540  12.679   4.455  28.183 -0.2519  0.0051 -0.1521
36320DPPC   PO443541  13.027   4.659  28.207  0.0482 -0.0795 -0.0144
36320DPPC   GL143542  12.989   4.901  27.982  0.0156  0.1984 -0.2534
36320DPPC   GL243543  12.845   4.757  27.794 -0.1351  0.1899  0.0918
36320DPPC   C1A43544  13.246   5.162  27.991  0.2227 -0.1138  0.1433
36320DPPC   C2A43545  13.614   5.104  27.805  0.2782 -0.0915 -0.0512
36320DPPC   C3A43546  14.125   5.207  27.753 -0.1856  0.0993 -0.1134
36320DPPC   C4A43547  14.491   5.442  27.940  0.3685 -0.0472  0.0062
36320DPPC   C1B43548  13.050   4.805  27.484 -0.2705 -0.0659 -0.1192
36320DPPC   C2B43549  13.181   4.727  27.088  0.1793  0.0487  0.0628
36320DPPC   C3B43550  13.499   4.698  26.693 -0.0076 -0.1029  0.0186
36320DPPC   C4B43551  13.732   4.606  26.310 -0.2570  0.1695 -0.3750
36321DPPC   NC343552  10.769   0.701  25.925 -0.0139 -0.1109 -0.0494
36321DPPC   PO443553  10.768   0.341  25.871  0.0962  0.0176  0.0292
36321DPPC   GL143554  11.035   0.189  25.703  0.0420 -0.0605  0.2666
36321DPPC   GL243555  11.089   0.430  25.496 -0.0775 -0.2518  0.0624
36321DPPC   C1A43556  11.287   0.013  25.535 -0.1147 -0.0734  0.1024
36321DPPC   C2A43557  11.483  -0.079  25.172 -0.1494 -0.0757  0.1216
36321DPPC   C3A43558  11.786  -0.032  24.821 -0.1535 -0.1716  0.1762
36321DPPC   C4A43559  12.109  -0.007  24.415 -0.2075 -0.0723  0.4305
36321DPPC   C1B43560  11.246   0.351  25.201 -0.2064  0.1151  0.0778
36321DPPC   C2B43561  11.436   0.326  24.840  0.0597  0.2571 -0.1426
36321DPPC   C3B43562  11.738   0.297  24.438  0.1015  0.1396  0.1327
36321DPPC   C4B43563  12.053   0.277  24.020  0.0392  0.0363  0.2364
36322DPPC   NC343564  10.737   5.562  25.786  0.0536 -0.1250 -0.3193
36322DPPC   PO443565  10.617   5.790  25.509  0.1555 -0.2447 -0.0085
36322DPPC   GL143566  10.952   5.871  25.305 -0.2969 -0.0816 -0.2789
36322DPPC   GL243567  11.013   5.624  25.183  0.0472 -0.1048  0.0436
36322DPPC   C1A43568  11.190   6.085  25.148 -0.2112 -0.4321  0.0201
36322DPPC   C2A43569  11.469   6.134  24.828 -0.2196 -0.0113  0.0773
36322DPPC   C3A43570  11.775   6.122  24.478 -0.1325  0.1205  0.2649
36322DPPC   C4A43571  12.080   6.175  24.178  0.1655 -0.2077  0.6060
36322DPPC   C1B43572  11.251   5.594  24.864  0.0571  0.0866 -0.1565
36322DPPC   C2B43573  11.508   5.650  24.555  0.0228  0.1616 -0.1590
36322DPPC   C3B43574  11.813   5.683  24.198 -0.0190 -0.1380  0.0127
36322DPPC   C4B43575  12.130   5.589  23.813 -0.0438 -0.0714 -0.0165
36323DPPC   NC343576  17.501   0.407  29.675  0.1811 -0.1682 -0.0714
36323DPPC   PO443577  17.724   0.349  29.345  0.2977  0.0558  0.0376
36323DPPC   GL143578  17.778   0.279  28.936  0.1359 -0.2099 -0.4211
36323DPPC   GL243579  17.709   0.006  28.977  0.1698 -0.3203  0.1851
36323DPPC   C1A43580  17.792   0.398  28.638 -0.0155 -0.1217 -0.3487
36323DPPC   C2A43581  17.706   0.306  28.251  0.0290 -0.0680  0.0131
36323DPPC   C3A43582  17.542   0.191  27.809 -0.1764 -0.0282 -0.1644
36323DPPC   C4A43583  17.266   0.101  27.393  0.1324 -0.0261 -0.0784
36323DPPC   C1B43584  17.720  -0.159  28.641  0.4230  0.0708  0.1771
36323DPPC   C2B43585  18.005  -0.095  28.269  0.1780  0.0109  0.4425
36323DPPC   C3B43586  18.075   0.219  27.854  0.0378 -0.0953  0.0422
36323DPPC   C4B43587  18.320   0.211  27.481 -0.3836  0.1627  0.4254
36324DPPC   NC343588  19.997   1.430  28.425  0.1759 -0.0231  0.0049
36324DPPC   PO443589  20.261   1.246  28.194  0.0235 -0.2174  0.2340
36324DPPC   GL143590  20.228   1.394  27.766  0.1725  0.0288  0.0798
36324DPPC   GL243591  20.365   1.197  27.614 -0.0814 -0.0553  0.0889
36324DPPC   C1A43592  19.931   1.565  27.662  0.1844  0.1073  0.0264
36324DPPC   C2A43593  19.545   1.593  27.516 -0.0639  0.5852  0.0504
36324DPPC   C3A43594  19.096   1.647  27.281 -0.2477 -0.1062 -0.2444
36324DPPC   C4A43595  18.754   1.587  26.928 -0.0189  0.3815  0.0782
36324DPPC   C1B43596  20.096   1.295  27.362  0.0667 -0.2812  0.2673
36324DPPC   C2B43597  19.902   1.314  26.967 -0.2135 -0.4795  0.2847
36324DPPC   C3B43598  19.551   1.267  26.676 -0.1239  0.3906  0.0783
36324DPPC   C4B43599  19.209   1.227  26.287  0.0848 -0.3382 -0.1914
36325DPPA   PO443600  12.942   0.123  28.213 -0.3121 -0.1007 -0.1051
36325DPPA   GL143601  13.153   0.115  27.821  0.3741  0.1738  0.0273
36325DPPA   GL243602  12.828   0.098  27.724 -0.2398  0.0242  0.4277
36325DPPA   C1A43603  13.425   0.240  27.692 -0.0234 -0.0177  0.0184
36325DPPA   C2A43604  13.774   0.450  27.573  0.0849  0.1205 -0.0325
36325DPPA   C3A43605  14.286   0.553  27.675 -0.0419 -0.2203  0.0476
36325DPPA   C4A43606  14.735   0.700  27.782  0.4932  0.1676  0.2449
36325DPPA   C1B43607  12.974   0.277  27.400  0.0492  0.1948  0.0152
36325DPPA   C2B43608  13.113   0.300  27.029 -0.1662  0.2083 -0.1273
36325DPPA   C3B43609  13.392   0.327  26.654  0.2036 -0.4372 -0.1296
36325DPPA   C4B43610  13.733   0.330  26.298 -0.0052 -0.1127 -0.1171
36326DPPA   PO443611  13.224   3.074  28.285 -0.0857 -0.0320  0.0753
36326DPPA   GL143612  13.261   2.937  27.947 -0.1301  0.2226  0.1297
36326DPPA   GL243613  13.239   2.651  27.946  0.1167 -0.0412 -0.3428
36326DPPA   C1A43614  13.527   2.961  27.645 -0.0300 -0.2247 -0.1083
36326DPPA   C2A43615  13.797   2.988  27.308 -0.1782  0.0776 -0.1095
36326DPPA   C3A43616  14.105   3.090  26.942 -0.0458  0.0568 -0.0533
36326DPPA   C4A43617  14.436   3.046  26.537  0.0340 -0.0453  0.1556
36326DPPA   C1B43618  13.356   2.499  27.646  0.0329 -0.2410 -0.4171
36326DPPA   C2B43619  13.397   2.565  27.240 -0.1331  0.1776  0.1069
36326DPPA   C3B43620  13.453   2.581  26.752 -0.0716 -0.1789 -0.2082
36326DPPA   C4B43621  13.815   2.540  26.454  0.1928  0.0642  0.1712
36327DPPA   PO443622  20.365   4.236  28.176  0.1527  0.0228 -0.3009
36327DPPA   GL143623  20.066   4.224  27.860  0.1641 -0.1328 -0.0003
36327DPPA   GL243624  20.017   4.473  28.062 -0.2355 -0.2527  0.2029
36327DPPA   C1A43625  19.885   4.376  27.550 -0.1745  0.2494  0.2223
36327DPPA   C2A43626  19.618   4.301  27.240 -0.0085 -0.0143 -0.2377
36327DPPA   C3A43627  19.242   4.256  26.923 -0.2459  0.0790  0.0129
36327DPPA   C4A43628  18.897   4.170  26.597 -0.1271  0.0464  0.1566
36327DPPA   C1B43629  19.849   4.687  27.832  0.1058 -0.3934  0.0540
36327DPPA   C2B43630  19.715   5.003  27.649  0.0684 -0.1372  0.0142
36327DPPA   C3B43631  19.411   5.161  27.262 -0.0358  0.4456 -0.0510
36327DPPA   C4B43632  19.084   5.008  26.954  0.1195 -0.1100  0.2357
36328DPPA   PO443633  16.839   0.844  26.043 -0.0701  0.2175  0.2277
36328DPPA   GL143634  16.918   0.513  26.237 -0.3709 -0.1234 -0.0844
36328DPPA   GL243635  16.806   0.511  26.464 -0.1602  0.0995 -0.2697
36328DPPA   C1A43636  17.282   0.540  26.324  0.0092 -0.2676 -0.2202
36328DPPA   C2A43637  17.515   0.586  26.647  0.1878  0.0806  0.0255
36328DPPA   C3A43638  17.603   0.664  27.087 -0.1835 -0.0162 -0.1743
36328DPPA   C4A43639  17.980   0.641  27.429  0.0403 -0.4002  0.0871
36328DPPA   C1B43640  17.022   0.396  26.734  0.0063 -0.4061 -0.0602
36328DPPA   C2B43641  17.171   0.504  27.093 -0.0664 -0.0565 -0.1024
36328DPPA   C3B43642  17.179   0.545  27.589  0.1089  0.1040 -0.4546
36328DPPA   C4B43643  17.359   0.598  28.055  0.1472 -0.1292 -0.2960
36329DPPA   PO443644  12.129   4.047  27.405  0.2449  0.1710 -0.2356
36329DPPA   GL143645  12.565   3.837  27.234 -0.0900 -0.0523 -0.0026
36329DPPA   GL243646  12.607   4.060  27.318 -0.3625 -0.0326  0.1132
36329DPPA   C1A43647  12.713   3.836  26.874 -0.0165  0.1258 -0.2917
36329DPPA   C2A43648  12.996   3.831  26.552  0.0951 -0.1051  0.4311
36329DPPA   C3A43649  13.313   3.820  26.207 -0.0296 -0.1221 -0.1680
36329DPPA   C4A43650  13.624   3.748  25.838  0.2205 -0.0339 -0.2477
36329DPPA   C1B43651  12.868   4.211  27.096 -0.2546  0.3773 -0.0609
36329DPPA   C2B43652  13.076   4.325  26.732 -0.1567 -0.1273 -0.0773
36329DPPA   C3B43653  13.410   4.250  26.396 -0.0436  0.0291  0.0365
36329DPPA   C4B43654  13.674   4.176  26.005 -0.0219 -0.1344 -0.2004
36330DPPA   PO443655  18.398   1.836  29.218 -0.2009  0.2587 -0.0612
36330DPPA   GL143656  18.252   1.695  28.895 -0.0628 -0.3315 -0.2765
36330DPPA   GL243657  18.110   1.963  28.790  0.3542 -0.3348  0.5935
36330DPPA   C1A43658  18.349   1.442  28.659 -0.2266 -0.0616 -0.4490
36330DPPA   C2A43659  18.670   1.333  28.390  0.3504  0.0950  0.1487
36330DPPA   C3A43660  19.012   1.090  28.188  0.0389 -0.0462  0.0775
36330DPPA   C4A43661  19.380   1.083  27.825 -0.2844  0.1066 -0.1885
36330DPPA   C1B43662  18.285   1.997  28.454  0.1800 -0.0225  0.2951
36330DPPA   C2B43663  18.355   1.789  28.146 -0.0738  0.1337  0.2487
36330DPPA   C3B43664  18.444   1.404  27.916  0.1779 -0.2668 -0.3907
36330DPPA   C4B43665  18.659   1.069  27.843 -0.0669  0.0043 -0.0070
36331DPPA   PO443666  11.031   5.282  26.178  0.2780 -0.0944  0.1841
36331DPPA   GL143667  11.217   5.101  25.850  0.2303 -0.2215 -0.0365
36331DPPA   GL243668  11.227   4.886  25.812 -0.1282  0.0789 -0.0436
36331DPPA   C1A43669  11.516   5.221  25.653  0.3578 -0.1168 -0.1850
36331DPPA   C2A43670  11.786   5.302  25.356  0.2770  0.1058 -0.1826
36331DPPA   C3A43671  12.122   5.235  24.957  0.0611 -0.2631 -0.2717
36331DPPA   C4A43672  12.450   5.191  24.584  0.0223 -0.1616 -0.0947
36331DPPA   C1B43673  11.463   4.787  25.529 -0.1133 -0.0667 -0.1421
36331DPPA   C2B43674  11.747   4.796  25.227  0.1546 -0.0966  0.0675
36331DPPA   C3B43675  12.039   4.747  24.814  0.1831  0.3153  0.1796
36331DPPA   C4B43676  12.345   4.698  24.443  0.0476  0.0323 -0.1810
36332DPPA   PO443677  20.323   3.037  27.816 -0.2731 -0.0863  0.0660
36332DPPA   GL143678  19.928   2.972  27.705  0.2782 -0.2451  0.2179
36332DPPA   GL243679  19.872   2.755  27.891 -0.2070  0.1007  0.0220
36332DPPA   C1A43680  19.771   3.031  27.434  0.0672  0.2708  0.2553
36332DPPA   C2A43681  19.483   3.051  27.135  0.1247  0.0300 -0.1311
36332DPPA   C3A43682  19.280   3.093  26.739 -0.0838  0.0182  0.0798
36332DPPA   C4A43683  19.157   3.438  26.453 -0.0294 -0.1310  0.1020
36332DPPA   C1B43684  19.525   2.773  27.742  0.0638  0.0842 -0.1380
36332DPPA   C2B43685  19.176   2.844  27.505 -0.0422  0.0445  0.0070
36332DPPA   C3B43686  18.704   3.065  27.410  0.4512  0.0794  0.0362
36332DPPA   C4B43687  18.246   3.215  27.477 -0.0790  0.3149 -0.0532
36333DPPA   PO443688  19.887   5.525  28.358 -0.1042  0.0158 -0.1937
36333DPPA   GL143689  20.089   5.599  28.015  0.0494  0.2632  0.3851
36333DPPA   GL243690  20.170   5.331  27.947 -0.1533 -0.1554 -0.1771
36333DPPA   C1A43691  19.792   5.699  27.828  0.2864  0.1262 -0.0092
36333DPPA   C2A43692  19.499   5.946  27.600 -0.2452 -0.3096 -0.1468
36333DPPA   C3A43693  19.159   6.129  27.365  0.0348 -0.1857  0.1000
36333DPPA   C4A43694  18.688   6.354  27.237  0.0758  0.1133 -0.2445
36333DPPA   C1B43695  20.051   5.318  27.633  0.0406  0.1441  0.2081
36333DPPA   C2B43696  20.051   5.289  27.259 -0.1639  0.2939  0.1714
36333DPPA   C3B43697  19.714   5.213  26.870  0.0932  0.1679 -0.1833
36333DPPA   C4B43698  19.295   5.166  26.533  0.0415 -0.2377  0.0496
36334DPPA   PO443699  11.276   2.919  26.052 -0.3047  0.0872  0.4723
36334DPPA   GL143700  11.659   2.998  25.968  0.1818  0.0230 -0.0280
36334DPPA   GL243701  11.644   3.278  25.837  0.0024 -0.0943  0.0804
36334DPPA   C1A43702  11.963   2.768  25.909  0.2399 -0.0049  0.2242
36334DPPA   C2A43703  12.105   2.703  25.549  0.1033 -0.0336  0.0913
36334DPPA   C3A43704  12.431   2.684  25.199  0.0778 -0.0674 -0.1356
36334DPPA   C4A43705  12.755   2.711  24.832  0.0179  0.1130 -0.0778
36334DPPA   C1B43706  11.819   3.145  25.553  0.4784 -0.1465 -0.1243
36334DPPA   C2B43707  12.052   3.106  25.202  0.1113  0.1028  0.2521
36334DPPA   C3B43708  12.344   3.052  24.860  0.0636  0.2148 -0.1182
36334DPPA   C4B43709  12.663   3.006  24.419 -0.0366 -0.0123 -0.1424
36335DPPA   PO443710  11.495   6.201  26.744 -0.0595 -0.0315  0.2037
36335DPPA   GL143711  11.730   6.135  26.424 -0.1611  0.4153  0.0280
36335DPPA   GL243712  11.697   6.310  26.205  0.0764  0.2799  0.1713
36335DPPA   C1A43713  12.065   5.942  26.272  0.1610  0.1337  0.1193
36335DPPA   C2A43714  12.323   5.889  25.999 -0.2259 -0.3039 -0.0813
36335DPPA   C3A43715  12.538   5.837  25.533 -0.3773  0.0178  0.3056
36335DPPA   C4A43716  12.852   5.832  25.130 -0.1571  0.0370  0.0139
36335DPPA   C1B43717  11.920   6.233  25.909  0.1776 -0.1060 -0.3043
36335DPPA   C2B43718  12.172   6.191  25.577 -0.0601  0.2414  0.0021
36335DPPA   C3B43719  12.472   6.231  25.218 -0.0953  0.0864 -0.2201
36335DPPA   C4B43720  12.747   6.099  24.753 -0.1503  0.1033 -0.0341
36336DPPA   PO443721  19.736   1.834  28.411  0.1247 -0.3129 -0.0489
36336DPPA   GL143722  19.405   1.899  28.156  0.1415 -0.0734  0.1873
36336DPPA   GL243723  19.586   1.861  27.881 -0.2579 -0.1011  0.2319
36336DPPA   C1A43724  19.089   2.059  28.056 -0.2780 -0.0326  0.1868
36336DPPA   C2A43725  18.903   2.403  27.914 -0.0402  0.0675  0.0837
36336DPPA   C3A43726  18.692   2.772  27.855 -0.0189 -0.0183  0.2364
36336DPPA   C4A43727  18.663   3.269  27.866  0.0993 -0.1163 -0.2009
36336DPPA   C1B43728  19.286   1.899  27.705  0.2335  0.3938  0.0331
36336DPPA   C2B43729  18.997   2.106  27.456 -0.0381  0.0921  0.0228
36336DPPA   C3B43730  18.822   2.539  27.304  0.2617  0.1963  0.1232
36336DPPA   C4B43731  18.848   2.862  26.973 -0.1924  0.0689  0.3517
36337DPPA   PO443732  11.470   1.172  26.745 -0.2585 -0.0535  0.0026
36337DPPA   GL143733  11.831   1.369  26.505  0.0862 -0.1708 -0.2129
36337DPPA   GL243734  11.950   1.213  26.734 -0.1183  0.1332 -0.1858
36337DPPA   C1A43735  12.021   1.466  26.217  0.0326 -0.1964  0.2837
36337DPPA   C2A43736  12.350   1.439  25.945  0.0209  0.0454  0.1934
36337DPPA   C3A43737  12.640   1.374  25.552 -0.1418 -0.1550  0.1310
36337DPPA   C4A43738  13.016   1.401  25.176  0.2884  0.3792  0.0872
36337DPPA   C1B43739  12.188   1.143  26.483  0.1573  0.2167 -0.1899
36337DPPA   C2B43740  12.450   1.009  26.188 -0.3037 -0.0438  0.2355
36337DPPA   C3B43741  12.782   0.971  25.862 -0.0997 -0.1510 -0.0014
36337DPPA   C4B43742  13.062   0.886  25.424 -0.0771 -0.0676  0.0550
36338DPPA   PO443743  15.061   4.119  29.071  0.0992 -0.1163  0.1785
36338DPPA   GL143744  15.099   4.153  28.625  0.3134  0.0263  0.0083
36338DPPA   GL243745  14.892   3.969  28.599  0.0756  0.1448 -0.0660
36338DPPA   C1A43746  15.018   4.281  28.251  0.0572  0.3208 -0.1331
36338DPPA   C2A43747  14.775   4.371  27.923 -0.0873  0.0491  0.0405
36338DPPA   C3A43748  14.382   4.315  27.663 -0.3213  0.0403  0.0966
36338DPPA   C4A43749  14.094   4.408  27.228  0.1806 -0.1247 -0.2483
36338DPPA   C1B43750  14.665   4.106  28.323  0.1887 -0.1051 -0.1312
36338DPPA   C2B43751  14.426   3.929  28.033  0.0346  0.4422  0.0987
36338DPPA   C3B43752  14.192   3.820  27.608 -0.2081 -0.1469 -0.1885
36338DPPA   C4B43753  14.196   3.481  27.260 -0.0235 -0.1158  0.1113
36339DPPA   PO443754  10.841   1.122  26.256  0.0070 -0.0924  0.0990
36339DPPA   GL143755  11.262   1.080  26.051  0.2402 -0.0173  0.3460
36339DPPA   GL243756  11.362   1.173  26.298  0.2697  0.0454 -0.3055
36339DPPA   C1A43757  11.476   1.019  25.764 -0.1177 -0.1134 -0.1770
36339DPPA   C2A43758  11.790   0.927  25.522 -0.0798 -0.2744  0.1356
36339DPPA   C3A43759  12.093   0.852  25.136  0.1331  0.0874  0.0111
36339DPPA   C4A43760  12.469   0.826  24.797 -0.1431  0.1615 -0.2084
36339DPPA   C1B43761  11.694   1.156  26.136 -0.2687  0.0384  0.0173
36339DPPA   C2B43762  12.005   1.031  25.973 -0.1309 -0.0239  0.0635
36339DPPA   C3B43763  12.306   1.028  25.634  0.2770  0.0626 -0.1520
36339DPPA   C4B43764  12.616   0.928  25.282 -0.1107 -0.0381  0.2655
36340DPPA   PO443765  10.869   5.277  26.633  0.3251 -0.2261  0.0845
36340DPPA   GL143766  11.307   5.437  26.587 -0.2223 -0.1419  0.3568
36340DPPA   GL243767  11.372   5.176  26.558 -0.1171  0.0888 -0.0274
36340DPPA   C1A43768  11.559   5.460  26.268 -0.0149  0.0186 -0.0827
36340DPPA   C2A43769  11.923   5.506  26.098 -0.0093 -0.0531  0.2071
36340DPPA   C3A43770  12.233   5.403  25.791 -0.0161 -0.1987  0.3052
36340DPPA   C4A43771  12.462   5.334  25.302  0.0633  0.0879 -0.1236
36340DPPA   C1B43772  11.714   5.205  26.510 -0.4581  0.0091 -0.1513
36340DPPA   C2B43773  12.096   4.967  26.502 -0.1235  0.0196 -0.1608
36340DPPA   C3B43774  12.307   4.984  26.041 -0.1217 -0.0051 -0.1502
36340DPPA   C4B43775  12.632   5.006  25.683 -0.4637 -0.1161 -0.0090
36341DPPA   PO443776  12.141   3.248  27.849 -0.1287  0.1419  0.2922
36341DPPA   GL143777  12.487   3.071  27.659  0.0570 -0.2476 -0.2690
36341DPPA   GL243778  12.323   3.174  27.390 -0.0320 -0.0112  0.2055
36341DPPA   C1A43779  12.835   3.202  27.520 -0.0626 -0.3894 -0.0385
36341DPPA   C2A43780  12.924   3.476  27.228  0.2169 -0.0948  0.0329
36341DPPA   C3A43781  13.210   3.490  26.853 -0.1599 -0.1555  0.4778
36341DPPA   C4A43782  13.533   3.423  26.436 -0.0083  0.1424 -0.2951
36341DPPA   C1B43783  12.495   3.394  27.166 -0.1892  0.0399  0.1529
36341DPPA   C2B43784  12.716   3.395  26.814  0.3769  0.0115 -0.1935
36341DPPA   C3B43785  13.003   3.322  26.407 -0.1449 -0.1388 -0.2897
36341DPPA   C4B43786  13.257   3.301  26.045  0.0507  0.0301 -0.1758
36342DPPA   PO443787  11.655   3.815  27.209 -0.1236 -0.2108  0.1131
36342DPPA   GL143788  11.949   3.972  26.931  0.1584  0.0796 -0.1275
36342DPPA   GL243789  11.970   4.296  26.968  0.0999  0.1698  0.3501
36342DPPA   C1A43790  12.204   3.806  26.719  0.5410 -0.0262  0.1751
36342DPPA   C2A43791  12.490   3.686  26.480 -0.1598 -0.1364 -0.0619
36342DPPA   C3A43792  12.780   3.762  26.122  0.1020  0.4490 -0.2526
36342DPPA   C4A43793  13.068   3.697  25.773  0.1992  0.1940  0.0390
36342DPPA   C1B43794  12.171   4.507  26.656 -0.0488  0.0022 -0.1419
36342DPPA   C2B43795  12.392   4.597  26.322  0.1205  0.0307  0.2360
36342DPPA   C3B43796  12.749   4.627  26.063  0.3910 -0.2326  0.0860
36342DPPA   C4B43797  13.029   4.577  25.673 -0.3063  0.1204  0.2110
36343DPPA   PO443798  10.608   1.049  25.637  0.2561 -0.1768  0.3290
36343DPPA   GL143799  11.043   0.915  25.623  0.1127  0.0504 -0.5044
36343DPPA   GL243800  11.106   1.173  25.545 -0.2681 -0.1392 -0.2240
36343DPPA   C1A43801  11.303   0.832  25.383 -0.1506 -0.0675  0.0840
36343DPPA   C2A43802  11.552   0.771  25.057  0.1821  0.0394 -0.0461
36343DPPA   C3A43803  11.848   0.751  24.632 -0.1086  0.2032  0.1260
36343DPPA   C4A43804  12.125   0.711  24.293 -0.3709 -0.3305 -0.0166
36343DPPA   C1B43805  11.452   1.293  25.447  0.0011 -0.1520  0.2347
36343DPPA   C2B43806  11.752   1.224  25.109 -0.0386 -0.2311  0.0459
36343DPPA   C3B43807  12.017   1.201  24.724  0.1496  0.0568 -0.3939
36343DPPA   C4B43808  12.272   1.204  24.297 -0.1245 -0.0657 -0.1204
36344DPPA   PO443809  12.844   1.902  27.771  0.1006 -0.1419  0.0988
36344DPPA   GL143810  12.775   1.808  27.434 -0.0019  0.0392  0.0716
36344DPPA   GL243811  12.659   2.048  27.197 -0.0866 -0.0962 -0.5136
36344DPPA   C1A43812  13.045   1.588  27.239 -0.1435 -0.0743  0.1687
36344DPPA   C2A43813  13.430   1.657  27.041 -0.0835  0.0793 -0.1687
36344DPPA   C3A43814  13.672   1.678  26.687  0.1719  0.1792  0.1753
36344DPPA   C4A43815  13.904   1.702  26.230 -0.0298  0.0312 -0.0823
36344DPPA   C1B43816  12.701   2.061  26.848  0.0608  0.3353 -0.2924
36344DPPA   C2B43817  12.805   2.035  26.426 -0.1905 -0.2485 -0.2816
36344DPPA   C3B43818  13.106   2.094  26.105 -0.2391  0.4432 -0.1793
36344DPPA   C4B43819  13.410   1.962  25.700  0.4351  0.0288 -0.1532
36345DPPA   PO443820  18.722   4.044  29.187  0.1055  0.3128  0.1683
36345DPPA   GL143821  18.864   3.872  28.765  0.1520 -0.1134 -0.3886
36345DPPA   GL243822  18.641   3.671  28.765  0.0664  0.2746 -0.2163
36345DPPA   C1A43823  19.090   3.941  28.494  0.3378 -0.2147 -0.1075
36345DPPA   C2A43824  19.118   4.166  28.117 -0.2021 -0.4204  0.1859
36345DPPA   C3A43825  19.089   4.384  27.684  0.4777 -0.2913 -0.0003
36345DPPA   C4A43826  19.369   4.691  27.367  0.1167 -0.1464 -0.1167
36345DPPA   C1B43827  18.452   3.701  28.449  0.1689  0.3194 -0.1422
36345DPPA   C2B43828  18.456   3.697  28.066 -0.0310  0.1753 -0.1153
36345DPPA   C3B43829  18.407   3.660  27.615  0.1936  0.0652  0.1426
36345DPPA   C4B43830  18.529   3.593  27.161  0.2166 -0.1057  0.0374
36346DPPA   PO443831  11.819   2.030  27.000 -0.2495 -0.1875  0.1255
36346DPPA   GL143832  11.837   1.779  26.609  0.1342  0.4390  0.1749
36346DPPA   GL243833  12.023   1.632  26.802 -0.0306 -0.0138 -0.4050
36346DPPA   C1A43834  12.070   1.891  26.313 -0.1570 -0.0890 -0.2186
36346DPPA   C2A43835  12.415   1.956  26.039  0.0614 -0.1130  0.1491
36346DPPA   C3A43836  12.786   1.911  25.706  0.0013  0.2952  0.1659
36346DPPA   C4A43837  13.097   1.848  25.307 -0.1392  0.1056  0.0705
36346DPPA   C1B43838  12.271   1.521  26.610  0.4540 -0.0119  0.1778
36346DPPA   C2B43839  12.599   1.463  26.360 -0.1601 -0.1017  0.0161
36346DPPA   C3B43840  12.864   1.470  25.990 -0.2633  0.0028 -0.1232
36346DPPA   C4B43841  13.209   1.436  25.646  0.4112  0.0706 -0.2512
36347DPPA   PO443842  14.017   0.616  28.479  0.1616 -0.1601  0.0537
36347DPPA   GL143843  13.789   0.549  28.074  0.2217  0.0869  0.1051
36347DPPA   GL243844  13.982   0.245  28.028 -0.1304  0.3369  0.0003
36347DPPA   C1A43845  13.824   0.859  27.839 -0.0019  0.2810 -0.0958
36347DPPA   C2A43846  13.775   1.232  27.583  0.2522 -0.1235  0.2403
36347DPPA   C3A43847  13.732   1.703  27.384 -0.3008  0.2166  0.0301
36347DPPA   C4A43848  13.525   2.128  27.414 -0.2556  0.0061  0.1051
36347DPPA   C1B43849  13.757   0.032  27.946 -0.0256 -0.5692 -0.3219
36347DPPA   C2B43850  13.456  -0.215  27.807  0.5396 -0.1969  0.2935
36347DPPA   C3B43851  13.315  -0.569  27.624  0.0693 -0.1004  0.2680
36347DPPA   C4B43852  13.346  -1.025  27.468  0.1287  0.0776  0.3085
36348DPPA   PO443853  12.959   4.030  28.514 -0.1230 -0.1918 -0.1343
36348DPPA   GL143854  13.027   4.178  28.092 -0.2438  0.3387 -0.0886
36348DPPA   GL243855  13.287   4.129  28.130  0.1557 -0.0878  0.1776
36348DPPA   C1A43856  13.035   4.302  27.753 -0.0308  0.1505 -0.1809
36348DPPA   C2A43857  13.275   4.339  27.417 -0.3004  0.1755  0.2359
36348DPPA   C3A43858  13.561   4.308  27.018 -0.2113  0.1241  0.0485
36348DPPA   C4A43859  13.963   4.345  26.675 -0.1184  0.0390 -0.0841
36348DPPA   C1B43860  13.293   3.890  27.838  0.3718 -0.2368 -0.0418
36348DPPA   C2B43861  13.516   3.910  27.426 -0.2109 -0.1490  0.1155
36348DPPA   C3B43862  13.907   3.936  27.092 -0.1879 -0.2021  0.1204
36348DPPA   C4B43863  14.283   3.980  26.765  0.1672  0.0304  0.0770
36349DPPA   PO443864  15.958   1.234  25.854  0.1945  0.0433 -0.0256
36349DPPA   GL143865  15.593   1.092  26.028 -0.1457 -0.0977  0.3425
36349DPPA   GL243866  15.464   1.301  26.110  0.1390  0.1403  0.2015
36349DPPA   C1A43867  15.621   0.897  26.355 -0.0015 -0.3079  0.1700
36349DPPA   C2A43868  15.409   0.573  26.461 -0.1256 -0.0481  0.1145
36349DPPA   C3A43869  15.231   0.545  26.876 -0.1362  0.1512  0.0560
36349DPPA   C4A43870  14.969   0.552  27.276 -0.0937  0.2464 -0.4568
36349DPPA   C1B43871  15.312   1.326  26.427  0.2827  0.1715 -0.2046
36349DPPA   C2B43872  15.140   1.425  26.778 -0.0696 -0.0297  0.0313
36349DPPA   C3B43873  14.794   1.529  27.140  0.1902 -0.0412  0.2505
36349DPPA   C4B43874  14.468   1.864  27.292 -0.0183 -0.0324  0.1001
36350DPPC   NC343875  15.231   1.690  24.251  0.1156  0.2493 -0.2204
36350DPPC   PO443876  15.475   1.591  24.614  0.0844 -0.2235  0.0924
36350DPPC   GL143877  15.416   1.600  25.016  0.1723 -0.0486  0.0654
36350DPPC   GL243878  15.370   1.300  24.967 -0.2385 -0.0758 -0.4494
36350DPPC   C1A43879  15.221   1.631  25.294  0.1203 -0.0165 -0.1905
36350DPPC   C2A43880  14.987   1.751  25.585  0.0260  0.0139 -0.1269
36350DPPC   C3A43881  14.738   1.649  25.987 -0.2644 -0.0646 -0.4298
36350DPPC   C4A43882  14.442   1.741  26.365 -0.0299  0.1028 -0.2372
36350DPPC   C1B43883  15.121   1.222  25.172 -0.1241  0.1691 -0.1997
36350DPPC   C2B43884  14.850   1.205  25.482 -0.0877  0.0786 -0.3397
36350DPPC   C3B43885  14.516   1.111  25.860 -0.1900 -0.0015 -0.0138
36350DPPC   C4B43886  14.213   1.211  26.259  0.1824  0.1104 -0.1667
36351DPPC   NC343887  14.320   2.891  22.648  0.0815  0.0706  0.1298
36351DPPC   PO443888  14.185   2.519  22.654 -0.3525 -0.2550 -0.2851
36351DPPC   GL143889  14.171   2.448  23.083  0.1424 -0.3037  0.0255
36351DPPC   GL243890  13.850   2.428  23.008  0.0286 -0.1139 -0.3723
36351DPPC   C1A43891  14.224   2.350  23.477  0.1475  0.0573 -0.3222
36351DPPC   C2A43892  13.969   2.249  23.780  0.1547  0.0085  0.1519
36351DPPC   C3A43893  13.672   2.205  24.112 -0.0387 -0.0588  0.1094
36351DPPC   C4A43894  13.390   2.244  24.466 -0.2562  0.1218 -0.2629
36351DPPC   C1B43895  13.788   2.486  23.364 -0.1133  0.0543  0.0711
36351DPPC   C2B43896  13.570   2.623  23.666  0.0585  0.0013 -0.1198
36351DPPC   C3B43897  13.337   2.572  24.094  0.0155  0.0409  0.2765
36351DPPC   C4B43898  13.045   2.638  24.426 -0.4148 -0.2493  0.3386
36352DPPC   NC343899  16.944   0.739  24.608 -0.0031 -0.2670  0.1583
36352DPPC   PO443900  17.338   0.655  24.592  0.1070  0.1193  0.0370
36352DPPC   GL143901  17.615   0.932  24.717  0.2065 -0.0122  0.0741
36352DPPC   GL243902  17.584   1.186  24.756 -0.0944  0.2434 -0.1662
36352DPPC   C1A43903  17.887   0.814  24.922 -0.1626  0.1648 -0.0042
36352DPPC   C2A43904  18.183   0.777  25.231  0.1326  0.1392 -0.0721
36352DPPC   C3A43905  18.509   0.763  25.581 -0.2387  0.1438 -0.5248
36352DPPC   C4A43906  18.798   0.684  25.961 -0.2373  0.0954  0.0984
36352DPPC   C1B43907  17.798   1.179  25.131  0.0062 -0.3262 -0.3204
36352DPPC   C2B43908  17.987   1.193  25.531 -0.0166  0.0646  0.0165
36352DPPC   C3B43909  18.301   1.185  25.845 -0.0315  0.3463  0.1594
36352DPPC   C4B43910  18.603   1.163  26.181 -0.1290  0.0068  0.0955
36353DPPC   NC343911  14.701   1.507  23.533 -0.1021  0.1830 -0.0881
36353DPPC   PO443912  14.918   1.548  23.870  0.2372 -0.0661 -0.0917
36353DPPC   GL143913  14.824   1.575  24.358  0.0408 -0.0692  0.0171
36353DPPC   GL243914  14.639   1.455  24.145  0.1075  0.2331 -0.2220
36353DPPC   C1A43915  14.514   1.608  24.578  0.2709  0.0503  0.2534
36353DPPC   C2A43916  14.303   1.542  24.908 -0.0056  0.2380  0.2244
36353DPPC   C3A43917  13.989   1.464  25.301 -0.2104 -0.2294 -0.0088
36353DPPC   C4A43918  13.708   1.512  25.704  0.0495 -0.4160 -0.1290
36353DPPC   C1B43919  14.328   1.379  24.141  0.1070  0.4323  0.1656
36353DPPC   C2B43920  14.038   1.425  24.452 -0.0589  0.3552 -0.0603
36353DPPC   C3B43921  13.729   1.434  24.821 -0.0387  0.3695 -0.3358
36353DPPC   C4B43922  13.491   1.439  25.212  0.0127  0.0327  0.0212
36354DPPC   NC343923  13.778   5.884  22.181  0.1210  0.1762 -0.1792
36354DPPC   PO443924  13.761   6.098  22.504  0.1619 -0.0304  0.0116
36354DPPC   GL143925  13.474   6.213  22.675  0.0330  0.2523 -0.0415
36354DPPC   GL243926  13.575   5.936  22.869  0.3960  0.0179 -0.2467
36354DPPC   C1A43927  13.246   6.374  22.921  0.1063 -0.1912  0.3567
36354DPPC   C2A43928  12.996   6.460  23.180 -0.0452  0.2939 -0.0493
36354DPPC   C3A43929  12.724   6.498  23.593  0.1887 -0.1418  0.2227
36354DPPC   C4A43930  12.392   6.490  23.991 -0.2429 -0.0873 -0.1643
36354DPPC   C1B43931  13.476   5.931  23.256  0.2119 -0.0913  0.3273
36354DPPC   C2B43932  13.199   6.060  23.518 -0.4359  0.0423 -0.2795
36354DPPC   C3B43933  12.899   6.037  23.823  0.3239  0.0171  0.1865
36354DPPC   C4B43934  12.548   6.088  24.249  0.2801 -0.0836  0.1715
36355DPPC   NC343935  14.202   5.971  22.835 -0.2128 -0.4508 -0.1758
36355DPPC   PO443936  14.500   5.933  23.140  0.1920  0.1918  0.1093
36355DPPC   GL143937  14.330   5.839  23.466 -0.2779  0.0135 -0.0249
36355DPPC   GL243938  14.213   6.107  23.384 -0.1333  0.0185 -0.4645
36355DPPC   C1A43939  14.128   5.764  23.730 -0.0379 -0.0242 -0.1837
36355DPPC   C2A43940  13.770   5.664  23.959  0.1499 -0.0247 -0.1336
36355DPPC   C3A43941  13.537   5.701  24.379  0.1161  0.0479 -0.0841
36355DPPC   C4A43942  13.249   5.763  24.755  0.1145 -0.3070  0.0570
36355DPPC   C1B43943  14.196   6.189  23.788 -0.0574  0.3022  0.0894
36355DPPC   C2B43944  13.966   6.180  24.100 -0.0374  0.0251  0.2005
36355DPPC   C3B43945  13.658   6.186  24.482 -0.1078 -0.0615 -0.0199
36355DPPC   C4B43946  13.301   6.254  24.812 -0.1911 -0.1352  0.0522
36356DPPC   NC343947  17.217   3.781  24.884 -0.2903  0.1178  0.1416
36356DPPC   PO443948  16.998   4.095  24.725  0.0438 -0.1276 -0.0530
36356DPPC   GL143949  17.480   4.163  24.825  0.4286  0.2910  0.3416
36356DPPC   GL243950  17.336   4.236  25.082  0.2990 -0.1820 -0.0810
36356DPPC   C1A43951  17.766   4.226  25.032  0.0192  0.3289  0.1083
36356DPPC   C2A43952  17.962   4.213  25.378 -0.1830 -0.0293 -0.0512
36356DPPC   C3A43953  18.358   4.242  25.652 -0.1752  0.2306  0.1578
36356DPPC   C4A43954  18.650   4.255  26.107 -0.1909  0.0915 -0.1086
36356DPPC   C1B43955  17.457   4.387  25.458 -0.1946  0.1374  0.0007
36356DPPC   C2B43956  17.531   4.368  25.847  0.2268 -0.0931  0.0259
36356DPPC   C3B43957  17.737   4.544  26.229  0.1595 -0.2145 -0.0948
36356DPPC   C4B43958  17.585   4.617  26.640  0.0754 -0.1327 -0.3110
36357DPPC   NC343959  15.271   0.850  23.757  0.1337  0.1795  0.0673
36357DPPC   PO443960  14.966   0.645  23.962  0.0322 -0.0001 -0.1146
36357DPPC   GL143961  14.537   0.631  24.029  0.0363  0.1537 -0.2713
36357DPPC   GL243962  14.540   0.872  24.107 -0.2162 -0.1504 -0.0481
36357DPPC   C1A43963  14.340   0.474  24.332 -0.3177  0.3110  0.0190
36357DPPC   C2A43964  14.071   0.556  24.585 -0.1816  0.0538  0.0144
36357DPPC   C3A43965  13.728   0.526  24.967 -0.1989  0.2949  0.0878
36357DPPC   C4A43966  13.346   0.526  25.287  0.0524 -0.2004 -0.1348
36357DPPC   C1B43967  14.352   0.940  24.423 -0.1717  0.0294  0.1541
36357DPPC   C2B43968  14.194   1.006  24.752  0.2758  0.0699 -0.0940
36357DPPC   C3B43969  13.928   0.952  25.173  0.1443  0.4145 -0.1573
36357DPPC   C4B43970  13.583   0.992  25.518 -0.0051  0.1554 -0.3269
36358DPPC   NC343971  16.648   2.808  25.776  0.3832 -0.1318 -0.1390
36358DPPC   PO443972  16.930   2.648  25.596 -0.1042 -0.1670  0.2098
36358DPPC   GL143973  17.296   2.438  25.740 -0.1374 -0.0428 -0.1600
36358DPPC   GL243974  17.369   2.729  25.857 -0.1106 -0.0606 -0.5763
36358DPPC   C1A43975  17.595   2.272  25.860 -0.0888 -0.0187  0.0910
36358DPPC   C2A43976  17.891   2.320  26.150  0.3486  0.2556  0.5280
36358DPPC   C3A43977  18.114   2.355  26.507  0.1131  0.1062 -0.4217
36358DPPC   C4A43978  18.444   2.376  26.858  0.0114 -0.3331  0.2091
36358DPPC   C1B43979  17.550   2.709  26.153  0.0661 -0.0567 -0.0757
36358DPPC   C2B43980  17.730   2.693  26.541  0.2550  0.1251 -0.1560
36358DPPC   C3B43981  18.030   2.734  26.872 -0.1218  0.0146 -0.0070
36358DPPC   C4B43982  18.392   2.714  27.256 -0.0000  0.0790 -0.1213
36359DPPC   NC343983  15.802   1.684  25.943 -0.0071 -0.4970  0.0669
36359DPPC   PO443984  15.912   1.947  26.247  0.0664  0.0706  0.0597
36359DPPC   GL143985  16.013   2.333  26.479  0.1214 -0.1167 -0.0968
36359DPPC   GL243986  16.174   2.140  26.687 -0.1697  0.0227 -0.0887
36359DPPC   C1A43987  15.697   2.281  26.673  0.2070  0.0426  0.1043
36359DPPC   C2A43988  15.421   2.317  26.974  0.1378  0.0933 -0.0001
36359DPPC   C3A43989  15.198   2.380  27.373 -0.1441 -0.1778 -0.4476
36359DPPC   C4A43990  14.955   2.456  27.782 -0.1344  0.0256 -0.2114
36359DPPC   C1B43991  16.192   2.091  27.030 -0.2213  0.1266  0.0063
36359DPPC   C2B43992  16.173   2.049  27.392 -0.1854  0.1309 -0.1798
36359DPPC   C3B43993  16.064   2.042  27.850 -0.1201 -0.1841 -0.1016
36359DPPC   C4B43994  15.749   2.061  28.244  0.0808 -0.0008  0.2141
36360DPPC   NC343995  15.746   6.078  25.416  0.2669 -0.2361  0.0572
36360DPPC   PO443996  15.930   5.968  25.689 -0.0730 -0.1499  0.2498
36360DPPC   GL143997  15.737   5.558  25.681 -0.1123 -0.3249 -0.0643
36360DPPC   GL243998  15.884   5.602  25.875 -0.0603 -0.1751  0.2236
36360DPPC   C1A43999  15.437   5.608  25.845 -0.3671  0.2719  0.2283
36360DPPC   C2A44000  15.148   5.697  26.103 -0.2319  0.1901  0.1715
36360DPPC   C3A44001  14.772   5.698  26.422  0.0360 -0.0986 -0.1431
36360DPPC   C4A44002  14.572   5.768  26.826  0.0385  0.1868 -0.1522
36360DPPC   C1B44003  15.706   5.658  26.246 -0.0443 -0.1575  0.3709
36360DPPC   C2B44004  15.422   5.739  26.563  0.1574  0.2504  0.1214
36360DPPC   C3B44005  15.074   5.802  26.853  0.3825 -0.0130 -0.0382
36360DPPC   C4B44006  14.781   5.831  27.262 -0.1102 -0.1105 -0.0031
36361DPPC   NC344007  15.500   0.268  25.588 -0.1681 -0.0485  0.0043
36361DPPC   PO444008  15.680   0.525  25.841 -0.2340 -0.0027 -0.0864
36361DPPC   GL144009  15.351   0.648  25.936  0.3473 -0.1415  0.1144
36361DPPC   GL244010  15.211   0.374  26.007  0.0522  0.0480 -0.3851
36361DPPC   C1A44011  15.231   0.889  26.173  0.0164 -0.0296 -0.2793
36361DPPC   C2A44012  15.050   0.922  26.519  0.3484  0.4144 -0.2233
36361DPPC   C3A44013  14.796   0.960  26.937 -0.0344  0.0835 -0.2294
36361DPPC   C4A44014  14.573   0.918  27.381  0.3088 -0.0899 -0.0115
36361DPPC   C1B44015  14.976   0.415  26.244  0.2158 -0.2657  0.1428
36361DPPC   C2B44016  14.835   0.453  26.582 -0.1708 -0.0465 -0.0387
36361DPPC   C3B44017  14.512   0.473  26.994  0.0104 -0.0927 -0.2406
36361DPPC   C4B44018  14.176   0.194  27.282 -0.2522 -0.0511  0.4047
36362DPPC   NC344019  15.612   5.155  24.087  0.0768  0.1384 -0.1973
36362DPPC   PO444020  15.566   4.824  24.229 -0.0976  0.1496  0.1240
36362DPPC   GL144021  15.232   4.659  24.446 -0.2638  0.5886 -0.0470
36362DPPC   GL244022  15.045   4.650  24.268 -0.0318  0.5614 -0.3197
36362DPPC   C1A44023  15.046   4.604  24.789  0.0151 -0.2748  0.1097
36362DPPC   C2A44024  14.714   4.697  25.042  0.0900  0.0144 -0.0168
36362DPPC   C3A44025  14.375   4.702  25.419  0.0436 -0.1249  0.0296
36362DPPC   C4A44026  14.119   4.606  25.807 -0.1566  0.3567 -0.0240
36362DPPC   C1B44027  14.827   4.803  24.513 -0.3495 -0.2638 -0.1260
36362DPPC   C2B44028  14.574   5.027  24.715 -0.5007 -0.1051 -0.0910
36362DPPC   C3B44029  14.287   5.120  25.119  0.1576  0.1877 -0.0301
36362DPPC   C4B44030  14.004   5.088  25.531  0.0538  0.0326 -0.0580
36363DPPC   NC344031  15.754   3.362  24.930 -0.2394 -0.2860 -0.0992
36363DPPC   PO444032  15.824   3.569  24.573 -0.0808  0.0311 -0.0942
36363DPPC   GL144033  15.549   3.749  24.773 -0.1003 -0.1255 -0.2684
36363DPPC   GL244034  15.327   3.785  24.613 -0.0345  0.0604 -0.1631
36363DPPC   C1A44035  15.338   3.573  25.029  0.0064 -0.0158  0.4484
36363DPPC   C2A44036  15.056   3.437  25.303  0.1351 -0.2131 -0.2198
36363DPPC   C3A44037  14.780   3.428  25.660  0.2477  0.0225  0.0488
36363DPPC   C4A44038  14.447   3.361  25.978 -0.0488 -0.0516  0.1030
36363DPPC   C1B44039  15.030   3.869  24.795 -0.1473  0.3279  0.3580
36363DPPC   C2B44040  14.764   3.875  25.121 -0.2062  0.2653  0.1402
36363DPPC   C3B44041  14.497   3.803  25.525 -0.2631 -0.0130  0.3144
36363DPPC   C4B44042  14.151   3.817  25.859 -0.1598 -0.1729  0.0711
36364DPPC   NC344043  15.048   5.173  24.328 -0.0980 -0.0220 -0.2441
36364DPPC   PO444044  15.303   5.085  24.606  0.1608  0.0303  0.0018
36364DPPC   GL144045  15.214   5.012  25.039  0.1746 -0.4849  0.0827
36364DPPC   GL244046  14.951   5.090  24.996  0.0104 -0.0217 -0.0586
36364DPPC   C1A44047  15.219   5.112  25.391  0.0327 -0.0797 -0.2174
36364DPPC   C2A44048  15.112   5.222  25.740 -0.3568 -0.0393  0.1938
36364DPPC   C3A44049  14.781   5.248  26.044  0.0934 -0.0716 -0.3190
36364DPPC   C4A44050  14.498   5.255  26.472  0.1192  0.2530  0.0762
36364DPPC   C1B44051  14.728   5.099  25.249 -0.1523  0.1069 -0.1604
36364DPPC   C2B44052  14.534   5.143  25.594 -0.0576 -0.4508  0.0523
36364DPPC   C3B44053  14.221   5.189  25.977 -0.0987 -0.5658  0.1343
36364DPPC   C4B44054  13.708   5.097  25.931  0.0067  0.0227  0.3724
36365DPPC   NC344055  17.022   5.094  26.061  0.0629 -0.1444 -0.0315
36365DPPC   PO444056  16.654   4.881  26.160  0.1916 -0.2256  0.4050
36365DPPC   GL144057  16.467   4.754  26.538  0.1865 -0.0252  0.0771
36365DPPC   GL244058  16.404   4.468  26.456  0.5222 -0.0135 -0.1189
36365DPPC   C1A44059  16.338   4.916  26.844  0.0381 -0.1859  0.1869
36365DPPC   C2A44060  16.207   5.082  27.170  0.0157  0.2508 -0.2104
36365DPPC   C3A44061  16.009   5.111  27.574 -0.0666  0.0430 -0.4518
36365DPPC   C4A44062  15.733   4.997  27.939 -0.2372 -0.4491 -0.0602
36365DPPC   C1B44063  16.170   4.481  26.743  0.2132  0.1975  0.1097
36365DPPC   C2B44064  15.953   4.607  27.073 -0.2592  0.0054 -0.1485
36365DPPC   C3B44065  15.717   4.664  27.480  0.1653 -0.4661 -0.1280
36365DPPC   C4B44066  15.510   4.582  27.898  0.2176 -0.1820  0.3105
36366DPPC   NC344067  14.953   3.501  23.032  0.2039 -0.0379 -0.0419
36366DPPC   PO444068  14.746   3.710  23.299  0.1039  0.2519 -0.0748
36366DPPC   GL144069  14.302   3.771  23.284  0.3445 -0.1832  0.1424
36366DPPC   GL244070  14.294   3.974  23.455 -0.1323 -0.0706  0.3913
36366DPPC   C1A44071  13.948   3.607  23.332  0.4322 -0.0756 -0.0510
36366DPPC   C2A44072  13.656   3.459  23.609  0.2251  0.3952 -0.1097
36366DPPC   C3A44073  13.317   3.442  23.900  0.2533  0.0594 -0.1702
36366DPPC   C4A44074  13.047   3.483  24.260  0.3543 -0.0463 -0.2694
36366DPPC   C1B44075  14.174   3.992  23.825 -0.0206  0.1876 -0.2195
36366DPPC   C2B44076  13.943   4.031  24.192  0.0553 -0.2240 -0.0545
36366DPPC   C3B44077  13.646   4.113  24.586 -0.1346  0.0134 -0.1153
36366DPPC   C4B44078  13.366   4.111  24.995  0.3183 -0.1212 -0.0812
36367DPPC   NC344079  14.648   6.099  23.720 -0.2979 -0.2826 -0.1191
36367DPPC   PO444080  14.703   6.409  23.427  0.1020  0.2063 -0.1706
36367DPPC   GL144081  14.468   6.694  23.529  0.0607  0.3108  0.2681
36367DPPC   GL244082  14.234   6.582  23.341 -0.3084  0.2051 -0.0188
36367DPPC   C1A44083  14.260   6.885  23.766  0.1131  0.1081  0.1141
36367DPPC   C2A44084  13.952   7.035  24.064  0.1514 -0.2246  0.0551
36367DPPC   C3A44085  13.570   7.104  24.397 -0.2598  0.2034  0.1827
36367DPPC   C4A44086  13.266   7.128  24.804 -0.1959  0.0578  0.1703
36367DPPC   C1B44087  14.023   6.568  23.634  0.1208 -0.0466  0.1093
36367DPPC   C2B44088  13.658   6.500  23.806  0.0029 -0.0024  0.0675
36367DPPC   C3B44089  13.398   6.573  24.204  0.0025  0.3346  0.0662
36367DPPC   C4B44090  13.076   6.581  24.568 -0.0674  0.0509  0.2291
36368DPPC   NC344091  15.632   4.746  24.799  0.1344  0.1538  0.2414
36368DPPC   PO444092  15.671   4.409  25.006  0.2822 -0.0858  0.1699
36368DPPC   GL144093  15.433   4.710  25.241  0.0968  0.1056 -0.1296
36368DPPC   GL244094  15.517   4.452  25.384  0.0162 -0.0953  0.0397
36368DPPC   C1A44095  15.094   4.716  25.294 -0.0584  0.0135  0.0704
36368DPPC   C2A44096  14.842   4.745  25.631 -0.2013 -0.0553  0.1831
36368DPPC   C3A44097  14.527   4.760  26.029 -0.0574  0.2505  0.0302
36368DPPC   C4A44098  14.208   4.791  26.428 -0.2333 -0.1076 -0.1859
36368DPPC   C1B44099  15.267   4.276  25.564 -0.0573 -0.2116  0.1088
36368DPPC   C2B44100  15.025   4.349  25.904 -0.1580  0.1261  0.2422
36368DPPC   C3B44101  14.645   4.281  26.275 -0.0835 -0.1442  0.0409
36368DPPC   C4B44102  14.437   4.404  26.764 -0.0784 -0.2226  0.1052
36369DPPC   NC344103  17.264   1.117  26.222  0.1001 -0.1724 -0.1296
36369DPPC   PO444104  16.988   1.003  26.504 -0.2354 -0.3216  0.1027
36369DPPC   GL144105  17.172   0.895  26.837 -0.5025 -0.0898 -0.2682
36369DPPC   GL244106  17.411   1.025  26.787 -0.0291 -0.0216 -0.2174
36369DPPC   C1A44107  17.066   1.110  27.120  0.0894  0.1125 -0.4096
36369DPPC   C2A44108  17.000   1.076  27.457 -0.1529 -0.0894 -0.1651
36369DPPC   C3A44109  16.644   1.135  27.797 -0.0629  0.0755  0.1236
36369DPPC   C4A44110  16.491   1.237  28.235  0.0618  0.1714 -0.0567
36369DPPC   C1B44111  17.772   1.034  26.851 -0.0459 -0.0937 -0.5586
36369DPPC   C2B44112  18.162   1.054  26.990 -0.2358  0.1009 -0.0291
36369DPPC   C3B44113  18.603   1.117  27.108  0.1812 -0.0658 -0.0816
36369DPPC   C4B44114  19.051   1.170  27.398  0.1963 -0.0527 -0.1179
36370DPPC   NC344115  14.299   5.194  22.260  0.1850 -0.0413  0.2582
36370DPPC   PO444116  13.976   5.405  22.223  0.0927  0.0179  0.0283
36370DPPC   GL144117  13.461   5.364  22.307 -0.1919 -0.1654  0.0100
36370DPPC   GL244118  13.594   5.542  22.506  0.2467  0.0359  0.0202
36370DPPC   C1A44119  13.265   5.185  22.552 -0.0476 -0.0258  0.3299
36370DPPC   C2A44120  13.123   5.099  22.944 -0.0613 -0.2015 -0.1050
36370DPPC   C3A44121  12.844   5.135  23.369 -0.1155  0.1725 -0.0809
36370DPPC   C4A44122  12.547   5.136  23.742 -0.0336  0.0055 -0.1553
36370DPPC   C1B44123  13.499   5.456  22.834  0.3932  0.2421  0.0684
36370DPPC   C2B44124  13.205   5.570  23.131 -0.1777 -0.0982  0.1763
36370DPPC   C3B44125  12.895   5.645  23.515 -0.2596 -0.1701 -0.2419
36370DPPC   C4B44126  12.658   5.620  23.940 -0.1335 -0.1572 -0.2018
36371DPPC   NC344127  15.399   5.800  23.634 -0.1229 -0.1006  0.2985
36371DPPC   PO444128  15.005   5.783  23.728 -0.3705 -0.3246  0.1262
36371DPPC   GL144129  14.852   5.625  24.055 -0.1979 -0.0338  0.2132
36371DPPC   GL244130  14.552   5.623  23.919  0.2247  0.1989  0.2275
36371DPPC   C1A44131  14.650   5.779  24.348 -0.0472 -0.0045 -0.2122
36371DPPC   C2A44132  14.443   5.819  24.711 -0.0334 -0.1470  0.2799
36371DPPC   C3A44133  14.203   5.878  25.063 -0.1968  0.1465  0.0098
36371DPPC   C4A44134  13.881   5.926  25.467  0.1939 -0.0974 -0.1066
36371DPPC   C1B44135  14.242   5.727  24.129 -0.2813 -0.2980 -0.0792
36371DPPC   C2B44136  14.030   5.785  24.471 -0.4932 -0.1662 -0.1850
36371DPPC   C3B44137  13.715   5.825  24.855 -0.0013  0.1064  0.2166
36371DPPC   C4B44138  13.398   5.975  25.224 -0.1460 -0.0960  0.0378
36372DPPC   NC344139  16.117   4.411  25.135 -0.2356  0.0952 -0.0512
36372DPPC   PO444140  15.947   4.782  25.267  0.1840 -0.0771 -0.0948
36372DPPC   GL144141  15.626   4.894  25.539 -0.1104 -0.1951  0.2982
36372DPPC   GL244142  15.793   4.705  25.734 -0.2850 -0.1321  0.2038
36372DPPC   C1A44143  15.361   4.774  25.723  0.0112  0.1225 -0.0201
36372DPPC   C2A44144  15.111   4.817  26.079 -0.0826  0.1264  0.2222
36372DPPC   C3A44145  14.785   4.819  26.481  0.2812  0.0898  0.0385
36372DPPC   C4A44146  14.522   4.851  26.850 -0.0392 -0.1954 -0.0138
36372DPPC   C1B44147  15.691   4.805  26.033  0.2363 -0.2474  0.0715
36372DPPC   C2B44148  15.462   4.832  26.369 -0.0124 -0.1529  0.0264
36372DPPC   C3B44149  15.243   4.869  26.814 -0.1270 -0.1438  0.0885
36372DPPC   C4B44150  14.959   5.003  27.200 -0.0864 -0.1058  0.0147
36373DPPC   NC344151  14.722   4.152  23.630 -0.1901 -0.2027  0.1381
36373DPPC   PO444152  14.921   4.222  23.952 -0.3987  0.2112  0.0331
36373DPPC   GL144153  14.681   4.429  24.307 -0.3926  0.0700 -0.1047
36373DPPC   GL244154  14.485   4.400  24.056  0.2032 -0.2333 -0.1637
36373DPPC   C1A44155  14.445   4.602  24.580 -0.1005  0.5852  0.3229
36373DPPC   C2A44156  14.222   4.592  24.900 -0.1300 -0.0368 -0.1934
36373DPPC   C3A44157  13.926   4.600  25.255 -0.3097 -0.0046  0.0573
36373DPPC   C4A44158  13.593   4.637  25.662  0.1105  0.0289  0.0630
36373DPPC   C1B44159  14.177   4.378  24.214  0.3702 -0.4743 -0.1808
36373DPPC   C2B44160  13.916   4.501  24.492 -0.0108 -0.0584  0.0256
36373DPPC   C3B44161  13.609   4.540  24.829 -0.0647  0.2178 -0.2960
36373DPPC   C4B44162  13.363   4.552  25.230 -0.0054 -0.0067 -0.2496
36374DPPC   NC344163  14.402   3.802  22.390  0.1296  0.0187  0.0112
36374DPPC   PO444164  14.095   4.017  22.590 -0.0731 -0.1816  0.0803
36374DPPC   GL144165  13.918   3.983  22.960  0.0064  0.2443  0.0812
36374DPPC   GL244166  13.664   3.917  22.863  0.1591  0.0516 -0.0388
36374DPPC   C1A44167  13.860   4.080  23.309  0.1805  0.0870 -0.0532
36374DPPC   C2A44168  13.720   3.944  23.715  0.1840 -0.3009  0.1379
36374DPPC   C3A44169  13.413   3.970  24.090  0.0506  0.0638 -0.0626
36374DPPC   C4A44170  13.076   3.923  24.430  0.0630  0.3087 -0.1121
36374DPPC   C1B44171  13.456   3.827  23.163 -0.2967  0.2545  0.0771
36374DPPC   C2B44172  13.219   3.811  23.532  0.2004  0.0949  0.1319
36374DPPC   C3B44173  12.899   3.811  23.905 -0.2511 -0.0672 -0.0783
36374DPPC   C4B44174  12.614   3.826  24.289 -0.2586  0.1485  0.3449
36375DPPC   NC344175  14.028   3.544  22.871  0.1069 -0.1219  0.2710
36375DPPC   PO444176  14.163   3.384  22.547  0.1611 -0.1761  0.0907
36375DPPC   GL144177  13.842   3.166  22.648  0.3014 -0.1037 -0.2391
36375DPPC   GL244178  13.620   3.354  22.588 -0.1249  0.1076  0.1667
36375DPPC   C1A44179  13.728   3.049  22.897 -0.3445 -0.0304 -0.0887
36375DPPC   C2A44180  13.536   2.994  23.260 -0.1670  0.1592  0.0686
36375DPPC   C3A44181  13.246   2.969  23.627  0.1902 -0.3357  0.1003
36375DPPC   C4A44182  12.983   2.998  24.021  0.0406  0.3446 -0.1734
36375DPPC   C1B44183  13.470   3.371  22.923  0.1217  0.0320 -0.0712
36375DPPC   C2B44184  13.169   3.387  23.183  0.2167 -0.0756  0.0990
36375DPPC   C3B44185  12.897   3.318  23.581  0.1863  0.0322 -0.2956
36375DPPC   C4B44186  12.582   3.338  24.019 -0.3030 -0.2347  0.1256
36376DPPC   NC344187  14.731   3.188  23.517 -0.1635  0.1269 -0.0689
36376DPPC   PO444188  14.872   2.908  23.706 -0.1010  0.3800 -0.1541
36376DPPC   GL144189  14.750   3.095  24.073  0.5243 -0.2626 -0.4866
36376DPPC   GL244190  14.542   3.288  23.921 -0.1253  0.3545 -0.1128
36376DPPC   C1A44191  14.782   2.948  24.411 -0.0961 -0.3243 -0.0647
36376DPPC   C2A44192  14.567   2.908  24.800 -0.0862 -0.0207 -0.1189
36376DPPC   C3A44193  14.241   2.892  25.235  0.1156  0.0966 -0.1482
36376DPPC   C4A44194  13.924   2.904  25.589 -0.0219 -0.0645  0.1790
36376DPPC   C1B44195  14.220   3.248  24.140 -0.1625  0.2411  0.3108
36376DPPC   C2B44196  13.920   3.189  24.465  0.1465 -0.2282  0.0638
36376DPPC   C3B44197  13.613   3.184  24.781  0.0642  0.1738  0.0961
36376DPPC   C4B44198  13.324   3.203  25.148 -0.1524  0.0960 -0.1988
36377DPPC   NC344199  13.689   6.539  22.201  0.2011 -0.0359 -0.1048
36377DPPC   PO444200  13.450   6.248  22.055 -0.2042 -0.1718 -0.1613
36377DPPC   GL144201  13.332   5.894  22.297  0.1107 -0.0223 -0.1715
36377DPPC   GL244202  13.357   5.708  22.096 -0.1436  0.1366 -0.3794
36377DPPC   C1A44203  13.223   5.847  22.616  0.0485  0.3385 -0.2002
36377DPPC   C2A44204  12.987   5.981  22.926 -0.0247  0.1144 -0.0472
36377DPPC   C3A44205  12.715   6.061  23.284  0.0060  0.2331  0.0282
36377DPPC   C4A44206  12.442   6.078  23.653  0.2636  0.1198 -0.1957
36377DPPC   C1B44207  13.066   5.525  22.321  0.0068 -0.0851  0.1980
36377DPPC   C2B44208  12.921   5.462  22.664  0.1515 -0.3521 -0.1718
36377DPPC   C3B44209  12.688   5.588  23.020  0.1756 -0.0002  0.0195
36377DPPC   C4B44210  12.423   5.608  23.415 -0.4570  0.2059  0.0802
36378DPPC   NC344211  16.751   0.388  25.848  0.1957 -0.0035 -0.0282
36378DPPC   PO444212  16.484   0.494  26.116  0.5537 -0.2149 -0.2339
36378DPPC   GL144213  16.542   0.093  26.245  0.0329 -0.1653  0.1568
36378DPPC   GL244214  16.313   0.104  26.457  0.1214 -0.2792  0.0490
36378DPPC   C1A44215  16.913   0.072  26.281 -0.0098  0.1999  0.2983
36378DPPC   C2A44216  17.263   0.141  26.519  0.1438  0.1520 -0.0485
36378DPPC   C3A44217  17.496   0.180  26.932  0.2563  0.1339 -0.1636
36378DPPC   C4A44218  17.737   0.208  27.339  0.1218  0.2574 -0.1910
36378DPPC   C1B44219  16.492   0.208  26.808  0.1908  0.0497  0.0721
36378DPPC   C2B44220  16.508   0.242  27.213  0.3388  0.0166 -0.2597
36378DPPC   C3B44221  16.243   0.301  27.645 -0.0243  0.0488  0.1141
36378DPPC   C4B44222  16.107   0.366  28.173 -0.1134  0.1008 -0.2794
36379DPPC   NC344223  15.688   1.749  25.348 -0.0055  0.3285  0.0734
36379DPPC   PO444224  15.577   2.047  25.110  0.2271 -0.0507  0.0914
36379DPPC   GL144225  15.174   2.179  25.218  0.0814  0.2056  0.1516
36379DPPC   GL244226  15.264   2.095  25.499  0.1228 -0.0355 -0.2923
36379DPPC   C1A44227  14.822   2.055  25.268  0.1840  0.2135  0.3517
36379DPPC   C2A44228  14.681   2.135  25.670 -0.0495 -0.0139  0.0867
36379DPPC   C3A44229  14.378   2.147  26.048  0.0555  0.1010  0.0700
36379DPPC   C4A44230  14.095   2.097  26.503  0.2127 -0.0999 -0.1118
36379DPPC   C1B44231  15.084   2.239  25.788  0.0653  0.1006 -0.2263
36379DPPC   C2B44232  14.886   2.096  26.129 -0.1086 -0.0521 -0.1951
36379DPPC   C3B44233  14.613   2.204  26.542  0.0441  0.2917  0.3515
36379DPPC   C4B44234  14.281   2.205  26.939 -0.0050  0.1742  0.2420
36380DPPC   NC344235  15.726   0.362  24.393 -0.1263 -0.3036 -0.1511
36380DPPC   PO444236  15.630   0.597  24.700 -0.1422 -0.3019 -0.3135
36380DPPC   GL144237  15.286   0.403  24.902 -0.0099 -0.0668 -0.1236
36380DPPC   GL244238  15.374   0.612  25.122 -0.1361  0.1277 -0.2284
36380DPPC   C1A44239  14.909   0.345  24.973 -0.0350  0.1353  0.0143
36380DPPC   C2A44240  14.572   0.230  25.208  0.0586  0.1155 -0.0666
36380DPPC   C3A44241  14.238   0.218  25.491  0.0229  0.1088  0.2011
36380DPPC   C4A44242  13.975   0.260  25.898 -0.1591 -0.1865 -0.0377
36380DPPC   C1B44243  15.194   0.665  25.419 -0.1770  0.2396  0.2633
36380DPPC   C2B44244  14.910   0.727  25.755 -0.0722 -0.0668  0.1705
36380DPPC   C3B44245  14.715   0.739  26.161 -0.1361  0.2818  0.0954
36380DPPC   C4B44246  14.415   0.848  26.579  0.1590  0.0646  0.1728
36381DPPC   NC344247  15.606   3.322  24.174  0.3814 -0.4315 -0.3807
36381DPPC   PO444248  15.471   3.703  24.153 -0.0642  0.0801 -0.1673
36381DPPC   GL144249  15.092   3.823  24.256  0.2009 -0.2121 -0.1234
36381DPPC   GL244250  15.209   4.115  24.276 -0.2763  0.2088 -0.2089
36381DPPC   C1A44251  14.726   3.756  24.365 -0.0647  0.0138  0.4059
36381DPPC   C2A44252  14.480   3.760  24.683 -0.1077  0.1073  0.1187
36381DPPC   C3A44253  14.170   3.754  25.060 -0.0168 -0.1047  0.0969
36381DPPC   C4A44254  13.905   3.740  25.426  0.0374 -0.5106  0.0480
36381DPPC   C1B44255  14.992   4.291  24.545 -0.0942  0.5304 -0.0893
36381DPPC   C2B44256  14.657   4.220  24.803  0.1726  0.0818  0.0722
36381DPPC   C3B44257  14.360   4.179  25.189  0.3585 -0.0969 -0.0390
36381DPPC   C4B44258  14.036   4.188  25.523 -0.0842 -0.1795 -0.0803
36382DPPC   NC344259  16.423   6.078  25.741  0.1007 -0.1629 -0.2310
36382DPPC   PO444260  16.753   5.859  25.822 -0.1188  0.0458 -0.1025
36382DPPC   GL144261  16.766   6.152  26.191  0.0123 -0.0958 -0.1357
36382DPPC   GL244262  16.536   5.901  26.276  0.1010 -0.2876  0.2384
36382DPPC   C1A44263  17.034   6.219  26.485 -0.0912 -0.2822  0.1254
36382DPPC   C2A44264  17.254   6.216  26.853  0.2034 -0.1083  0.1942
36382DPPC   C3A44265  17.574   6.318  27.233 -0.0037  0.1082 -0.0682
36382DPPC   C4A44266  17.836   6.349  27.639 -0.0476  0.1730  0.0379
36382DPPC   C1B44267  16.459   5.934  26.612 -0.0863 -0.0573  0.1198
36382DPPC   C2B44268  16.213   5.952  26.992 -0.3623 -0.1331  0.0511
36382DPPC   C3B44269  15.974   5.955  27.350  0.1467  0.1872 -0.0554
36382DPPC   C4B44270  15.749   6.042  27.797 -0.1339  0.1189 -0.0680
36383DPPC   NC344271  16.325   4.243  26.085 -0.1291 -0.0866  0.0304
36383DPPC   PO444272  16.678   4.396  26.010 -0.1025 -0.1291 -0.1378
36383DPPC   GL144273  16.843   4.446  26.331  0.0669  0.1689  0.0044
36383DPPC   GL244274  16.787   4.223  26.518 -0.1024 -0.1349  0.2719
36383DPPC   C1A44275  17.063   4.707  26.517 -0.1469 -0.0413  0.1988
36383DPPC   C2A44276  17.242   4.945  26.817  0.2669 -0.0476 -0.0267
36383DPPC   C3A44277  17.134   5.065  27.291  0.0291 -0.1169 -0.0968
36383DPPC   C4A44278  17.059   5.303  27.750 -0.4515  0.0449  0.0917
36383DPPC   C1B44279  16.622   4.418  26.821  0.1959  0.2945  0.0851
36383DPPC   C2B44280  16.523   4.559  27.132  0.1678  0.1610 -0.0730
36383DPPC   C3B44281  16.359   4.731  27.534 -0.1527 -0.3085  0.0151
36383DPPC   C4B44282  16.112   4.679  27.971  0.2194 -0.3354  0.0294
36384DPPC   NC344283  15.784   4.113  25.383  0.0487  0.0526 -0.3748
36384DPPC   PO444284  15.766   3.755  25.292  0.1009  0.3649 -0.3061
36384DPPC   GL144285  15.470   3.555  25.516 -0.1266  0.4316  0.2070
36384DPPC   GL244286  15.509   3.833  25.690 -0.1326  0.3821  0.0491
36384DPPC   C1A44287  15.311   3.353  25.786  0.2940 -0.0974 -0.0067
36384DPPC   C2A44288  15.044   3.437  26.106  0.1038  0.0221 -0.0116
36384DPPC   C3A44289  14.711   3.454  26.421 -0.1052 -0.1137 -0.0719
36384DPPC   C4A44290  14.466   3.502  26.859 -0.1135 -0.0665  0.0794
36384DPPC   C1B44291  15.281   3.952  26.039 -0.3089  0.2398 -0.3931
36384DPPC   C2B44292  14.996   3.926  26.378  0.0410  0.0643 -0.1334
36384DPPC   C3B44293  14.777   3.922  26.774 -0.1124  0.0694  0.2369
36384DPPC   C4B44294  14.449   3.973  27.224 -0.0885  0.1403  0.1175
36385DPPC   NC344295  17.080   1.515  25.507 -0.1276 -0.0814 -0.0210
36385DPPC   PO444296  17.015   1.807  25.240  0.0220 -0.0630  0.4125
36385DPPC   GL144297  17.229   2.116  25.326 -0.2263  0.2492 -0.3560
36385DPPC   GL244298  17.055   2.142  25.641 -0.1950 -0.0610 -0.0001
36385DPPC   C1A44299  17.526   2.406  25.401 -0.3484  0.2718 -0.4135
36385DPPC   C2A44300  17.915   2.469  25.598  0.0155 -0.1828  0.2385
36385DPPC   C3A44301  18.247   2.448  25.831 -0.1693 -0.2460 -0.2243
36385DPPC   C4A44302  18.561   2.475  26.205 -0.1246  0.0589 -0.2765
36385DPPC   C1B44303  17.287   1.977  25.861  0.0349  0.1410  0.0936
36385DPPC   C2B44304  17.587   1.923  26.160  0.0103  0.0108  0.2259
36385DPPC   C3B44305  17.859   1.872  26.535  0.0545  0.2476  0.0617
36385DPPC   C4B44306  18.229   1.872  26.820  0.2600 -0.2107  0.2584
36386DPPC   NC344307  15.382   2.447  24.414  0.0238 -0.2255 -0.1001
36386DPPC   PO444308  15.544   2.434  24.763  0.0490  0.2559 -0.3170
36386DPPC   GL144309  15.171   2.453  24.871  0.1596 -0.0084  0.4605
36386DPPC   GL244310  15.265   2.604  25.125  0.0083  0.0671  0.2416
36386DPPC   C1A44311  14.853   2.366  25.027  0.0022 -0.1660  0.1112
36386DPPC   C2A44312  14.562   2.523  25.314  0.0232  0.2517 -0.1151
36386DPPC   C3A44313  14.314   2.493  25.658 -0.1669 -0.0811 -0.0607
36386DPPC   C4A44314  13.967   2.461  25.997 -0.1278  0.1041  0.3884
36386DPPC   C1B44315  15.154   2.567  25.488 -0.1551 -0.4776 -0.0340
36386DPPC   C2B44316  14.813   2.563  25.757  0.0250  0.0015  0.0238
36386DPPC   C3B44317  14.535   2.565  26.179  0.1530 -0.0224 -0.0292
36386DPPC   C4B44318  14.268   2.577  26.599 -0.0739 -0.1589 -0.0944
36387DPPC   NC344319  15.811   0.684  25.335  0.0673  0.1997  0.2232
36387DPPC   PO444320  15.664   1.003  25.182 -0.0948  0.2580  0.0731
36387DPPC   GL144321  15.546   1.310  25.446  0.1614  0.1474  0.0423
36387DPPC   GL244322  15.598   1.004  25.577  0.0757 -0.2615  0.1336
36387DPPC   C1A44323  15.420   1.528  25.743 -0.2618  0.4636 -0.1207
36387DPPC   C2A44324  15.221   1.703  26.065  0.1983  0.1746  0.2141
36387DPPC   C3A44325  14.943   1.730  26.456  0.2199 -0.1230 -0.0051
36387DPPC   C4A44326  14.583   1.828  26.834  0.0332  0.1236 -0.0457
36387DPPC   C1B44327  15.276   1.050  25.737  0.3219 -0.2917 -0.1678
36387DPPC   C2B44328  14.989   1.202  25.969  0.0098 -0.0878  0.0986
36387DPPC   C3B44329  14.689   1.254  26.388  0.0499 -0.1677  0.1497
36387DPPC   C4B44330  14.463   1.302  26.773  0.0642  0.1635 -0.1536
36388DPPC   NC344331  15.808   1.965  24.686  0.1802 -0.0405 -0.0437
36388DPPC   PO444332  15.548   2.040  24.397  0.1523  0.1893  0.1451
36388DPPC   GL144333  15.279   2.032  24.698 -0.0734  0.0077  0.1288
36388DPPC   GL244334  15.051   2.104  24.522 -0.3861 -0.5436 -0.1171
36388DPPC   C1A44335  15.081   1.869  24.953 -0.0087 -0.3417  0.0835
36388DPPC   C2A44336  14.806   1.638  25.076 -0.0189 -0.1256  0.1019
36388DPPC   C3A44337  14.522   1.613  25.454  0.1567  0.1603  0.0396
36388DPPC   C4A44338  14.293   1.581  25.889  0.1380  0.2275  0.0316
36388DPPC   C1B44339  14.725   1.988  24.661 -0.0925 -0.2781 -0.3344
36388DPPC   C2B44340  14.465   2.036  24.992  0.0964  0.2113 -0.2169
36388DPPC   C3B44341  14.164   1.994  25.368 -0.1522  0.4215 -0.0884
36388DPPC   C4B44342  13.910   1.972  25.779 -0.0572  0.1041 -0.0180
36389DPPC   NC344343  15.582   1.119  24.586  0.0118 -0.0177 -0.2454
36389DPPC   PO444344  15.491   0.876  24.292  0.0107  0.0026 -0.1125
36389DPPC   GL144345  15.104   0.794  24.452 -0.1075  0.0821 -0.2512
36389DPPC   GL244346  15.207   0.867  24.712  0.1238  0.2999 -0.4792
36389DPPC   C1A44347  14.754   0.932  24.586  0.0375 -0.0037  0.0880
36389DPPC   C2A44348  14.619   1.138  24.992  0.0982 -0.1127  0.1319
36389DPPC   C3A44349  14.370   1.095  25.366  0.2233  0.0729 -0.2658
36389DPPC   C4A44350  14.022   1.166  25.730 -0.2904 -0.1169  0.1259
36389DPPC   C1B44351  14.969   0.746  24.956  0.1651 -0.0825 -0.2355
36389DPPC   C2B44352  14.773   0.725  25.286  0.2640 -0.0036 -0.1787
36389DPPC   C3B44353  14.399   0.697  25.614 -0.2429  0.3552  0.1301
36389DPPC   C4B44354  14.105   0.758  25.995  0.1329  0.2792 -0.3221
36390DPPC   NC344355  17.038   3.116  25.290 -0.1075 -0.4050 -0.0679
36390DPPC   PO444356  17.090   3.487  25.262  0.0938 -0.1321  0.1184
36390DPPC   GL144357  17.390   3.735  25.357 -0.1727  0.3012 -0.0961
36390DPPC   GL244358  17.522   3.962  25.338 -0.1180  0.0693  0.2164
36390DPPC   C1A44359  17.500   3.605  25.629 -0.0833  0.1307 -0.3005
36390DPPC   C2A44360  17.789   3.597  25.948 -0.2937 -0.0325  0.0567
36390DPPC   C3A44361  18.068   3.608  26.306 -0.2368 -0.2113 -0.0912
36390DPPC   C4A44362  18.221   3.683  26.799 -0.4580 -0.2035 -0.1959
36390DPPC   C1B44363  17.713   3.976  25.618  0.1009  0.3137 -0.1477
36390DPPC   C2B44364  18.002   4.063  25.926 -0.1636  0.0864 -0.0324
36390DPPC   C3B44365  18.194   4.125  26.355  0.2657 -0.1108  0.0454
36390DPPC   C4B44366  18.425   4.158  26.813 -0.0178  0.1247  0.5151
36391DPPC   NC344367  14.904   5.100  23.501 -0.0558  0.2057  0.1640
36391DPPC   PO444368  14.845   5.241  23.834  0.0229  0.1229  0.0940
36391DPPC   GL144369  14.463   5.137  24.022 -0.2278  0.3460  0.0860
36391DPPC   GL244370  14.576   5.269  24.192 -0.0561  0.2309 -0.2632
36391DPPC   C1A44371  14.124   5.233  24.009 -0.0097  0.0406  0.1432
36391DPPC   C2A44372  13.898   5.318  24.300 -0.0924  0.0903 -0.0914
36391DPPC   C3A44373  13.548   5.310  24.693 -0.1703  0.0916 -0.0574
36391DPPC   C4A44374  13.311   5.440  25.090  0.0962  0.0772  0.2002
36391DPPC   C1B44375  14.320   5.392  24.472 -0.2163 -0.1837 -0.2412
36391DPPC   C2B44376  14.099   5.474  24.830 -0.0287  0.3926  0.0359
36391DPPC   C3B44377  13.804   5.513  25.232  0.1064  0.0125 -0.0850
36391DPPC   C4B44378  13.497   5.416  25.595 -0.1104 -0.1205 -0.0903
36392DPPC   NC344379  14.448   1.962  23.323 -0.1014 -0.2961  0.2449
36392DPPC   PO444380  14.593   1.690  23.094  0.1448 -0.2500  0.0697
36392DPPC   GL144381  14.316   1.451  23.297  0.2010 -0.3309  0.1914
36392DPPC   GL244382  14.105   1.535  23.166  0.1684  0.1046  0.2679
36392DPPC   C1A44383  14.167   1.501  23.663  0.1286  0.4293  0.0364
36392DPPC   C2A44384  13.865   1.371  23.956  0.1554  0.0695  0.1597
36392DPPC   C3A44385  13.570   1.292  24.332 -0.0700 -0.0173  0.0768
36392DPPC   C4A44386  13.245   1.369  24.695 -0.0442  0.0948  0.1298
36392DPPC   C1B44387  13.770   1.586  23.155  0.2579  0.0163 -0.0690
36392DPPC   C2B44388  13.399   1.693  23.242  0.1728  0.2410 -0.0122
36392DPPC   C3B44389  13.038   1.591  23.600 -0.1705  0.0054  0.0554
36392DPPC   C4B44390  12.769   1.673  23.986 -0.0630 -0.1094  0.0257
36393DPPC   NC344391  15.834   4.002  24.297 -0.1339  0.0183 -0.0415
36393DPPC   PO444392  15.622   4.226  24.506  0.4376 -0.0032 -0.0191
36393DPPC   GL144393  15.278   4.188  24.837 -0.1934 -0.4162  0.3536
36393DPPC   GL244394  15.413   4.072  25.023  0.1144  0.4441  0.3241
36393DPPC   C1A44395  15.065   4.306  25.132 -0.0621 -0.1973 -0.2562
36393DPPC   C2A44396  14.723   4.320  25.414  0.0806  0.0386 -0.1034
36393DPPC   C3A44397  14.478   4.203  25.809 -0.0651 -0.4089  0.4093
36393DPPC   C4A44398  14.142   4.301  26.206 -0.1299 -0.2224 -0.2488
36393DPPC   C1B44399  15.215   3.942  25.302 -0.2547  0.0046  0.1249
36393DPPC   C2B44400  15.013   3.873  25.607  0.0431 -0.3448  0.0257
36393DPPC   C3B44401  14.709   3.816  26.004 -0.1386 -0.0438  0.1150
36393DPPC   C4B44402  14.371   3.863  26.311 -0.2434  0.2129  0.1239
36394DPPC   NC344403  16.591   5.174  25.746  0.1487 -0.3100  0.0276
36394DPPC   PO444404  16.797   4.853  25.682 -0.0970 -0.2216 -0.0890
36394DPPC   GL144405  17.075   4.641  25.791  0.0437  0.1552 -0.0587
36394DPPC   GL244406  17.085   4.391  25.781 -0.1276 -0.1155  0.1340
36394DPPC   C1A44407  17.286   4.677  26.100 -0.2403 -0.2054  0.2823
36394DPPC   C2A44408  17.392   4.982  26.344  0.0577  0.1484 -0.1970
36394DPPC   C3A44409  17.271   5.420  26.516  0.0393  0.0562 -0.1588
36394DPPC   C4A44410  16.933   5.784  26.575 -0.0267  0.0406 -0.4261
36394DPPC   C1B44411  17.194   4.291  26.096  0.0063 -0.1600  0.2180
36394DPPC   C2B44412  17.308   4.182  26.483 -0.1442  0.0131 -0.1742
36394DPPC   C3B44413  17.367   3.963  26.844  0.1398  0.1630 -0.2883
36394DPPC   C4B44414  17.170   3.645  27.068 -0.2335  0.3453  0.0450
36395DPPC   NC344415  14.005   4.745  22.310 -0.1617 -0.0443  0.0556
36395DPPC   PO444416  14.108   4.550  22.627  0.3002 -0.0855 -0.0058
36395DPPC   GL144417  13.870   4.397  22.840 -0.0482 -0.1697  0.0180
36395DPPC   GL244418  13.839   4.461  23.128 -0.2448  0.0296  0.1975
36395DPPC   C1A44419  13.502   4.298  22.875  0.0743 -0.1211 -0.1649
36395DPPC   C2A44420  13.152   4.194  23.040  0.2663  0.1840 -0.1167
36395DPPC   C3A44421  12.848   4.268  23.433 -0.1448  0.1150 -0.0004
36395DPPC   C4A44422  12.560   4.204  23.835  0.1008 -0.1052 -0.2133
36395DPPC   C1B44423  13.568   4.366  23.348  0.2002  0.1040  0.0652
36395DPPC   C2B44424  13.307   4.340  23.674 -0.1616 -0.1765 -0.1753
36395DPPC   C3B44425  13.012   4.343  24.052  0.0434  0.0274  0.1464
36395DPPC   C4B44426  12.700   4.312  24.448 -0.0382  0.4055 -0.0868
36396DPPC   NC344427  14.617   2.507  22.988 -0.1292  0.0593 -0.2620
36396DPPC   PO444428  14.522   2.801  23.288  0.0410  0.0689 -0.0306
36396DPPC   GL144429  14.380   2.897  23.666  0.1450  0.1459  0.0128
36396DPPC   GL244430  14.124   2.798  23.646  0.1284 -0.2734  0.0461
36396DPPC   C1A44431  14.417   2.824  24.014  0.3898 -0.0966  0.0271
36396DPPC   C2A44432  14.323   2.873  24.380 -0.1806 -0.2421 -0.2136
36396DPPC   C3A44433  14.018   2.791  24.778  0.0789 -0.2921 -0.0557
36396DPPC   C4A44434  13.723   2.856  25.143 -0.1295  0.0462 -0.0919
36396DPPC   C1B44435  13.998   2.646  23.956 -0.1163  0.0513 -0.5528
36396DPPC   C2B44436  13.821   2.692  24.332  0.1445 -0.0881  0.1078
36396DPPC   C3B44437  13.514   2.721  24.626  0.1166 -0.1302  0.1468
36396DPPC   C4B44438  13.222   2.762  25.000 -0.1383  0.3148  0.2052
36397DPPC   NC344439  14.546   5.203  23.121 -0.3106 -0.3695 -0.0954
36397DPPC   PO444440  14.278   5.494  23.160 -0.1685  0.2859  0.1445
36397DPPC   GL144441  13.925   5.377  23.332 -0.3499 -0.1470  0.1031
36397DPPC   GL244442  13.915   5.159  23.497  0.1722 -0.1005 -0.1082
36397DPPC   C1A44443  13.613   5.564  23.390 -0.2263  0.3659  0.1626
36397DPPC   C2A44444  13.330   5.589  23.697  0.1440 -0.2295  0.1963
36397DPPC   C3A44445  13.088   5.666  24.091 -0.2283 -0.2496  0.2443
36397DPPC   C4A44446  12.751   5.632  24.443  0.1038  0.1111 -0.1398
36397DPPC   C1B44447  13.688   5.184  23.785 -0.1233 -0.0534 -0.1314
36397DPPC   C2B44448  13.471   5.255  24.107  0.0970  0.1007 -0.0740
36397DPPC   C3B44449  13.145   5.235  24.464  0.0802  0.1150  0.1683
36397DPPC   C4B44450  12.871   5.320  24.872 -0.3725 -0.2906  0.1846
36398DPPC   NC344451  15.928   2.848  26.188 -0.1312  0.1507 -0.3471
36398DPPC   PO444452  16.120   3.168  26.326  0.0324  0.2013  0.1939
36398DPPC   GL144453  16.389   3.187  26.566  0.0491 -0.1764  0.1540
36398DPPC   GL244454  16.364   3.474  26.508  0.0652  0.1216  0.1743
36398DPPC   C1A44455  16.409   3.251  26.945  0.0012  0.1191 -0.1021
36398DPPC   C2A44456  16.265   3.338  27.315 -0.1975 -0.0682 -0.0328
36398DPPC   C3A44457  16.016   3.407  27.713  0.1226  0.5059 -0.1065
36398DPPC   C4A44458  15.821   3.381  28.145  0.3825  0.0045 -0.1008
36398DPPC   C1B44459  16.165   3.594  26.784  0.0734 -0.1318  0.1666
36398DPPC   C2B44460  16.022   3.708  27.144  0.0711  0.1272 -0.0431
36398DPPC   C3B44461  15.827   3.835  27.531 -0.3802 -0.3910  0.0527
36398DPPC   C4B44462  15.551   3.761  27.910 -0.0951  0.0545  0.0214
36399DPPC   NC344463  14.509   1.257  22.917 -0.2272  0.0035 -0.0036
36399DPPC   PO444464  14.602   1.104  23.242 -0.0043  0.1116 -0.2394
36399DPPC   GL144465  14.313   1.117  23.630 -0.1890 -0.2242  0.1133
36399DPPC   GL244466  14.119   1.066  23.391  0.0008  0.5354  0.3068
36399DPPC   C1A44467  14.172   0.987  23.960  0.2749  0.2113  0.1564
36399DPPC   C2A44468  13.924   0.899  24.250 -0.0785  0.1068  0.1720
36399DPPC   C3A44469  13.684   0.905  24.643 -0.0858 -0.2229  0.1205
36399DPPC   C4A44470  13.398   0.943  25.035 -0.0098  0.1419  0.1571
36399DPPC   C1B44471  13.792   1.201  23.424 -0.1922 -0.1901  0.4406
36399DPPC   C2B44472  13.462   1.229  23.656  0.3448  0.0636 -0.0428
36399DPPC   C3B44473  13.136   1.273  24.006  0.4858 -0.2162 -0.0029
36399DPPC   C4B44474  12.820   1.291  24.416 -0.0203 -0.0435 -0.2321
36400DPPC   NC344475  16.427   2.059  26.232 -0.0980 -0.2386 -0.1266
36400DPPC   PO444476  16.507   2.334  26.460 -0.0938  0.0534  0.1042
36400DPPC   GL144477  16.801   2.483  26.732  0.0525 -0.0684  0.0250
36400DPPC   GL244478  17.015   2.264  26.637 -0.0844  0.0017  0.3140
36400DPPC   C1A44479  16.871   2.436  27.090  0.1362 -0.2725  0.0748
36400DPPC   C2A44480  16.790   2.382  27.519 -0.0132 -0.1451 -0.1535
36400DPPC   C3A44481  16.678   2.424  27.984 -0.1617 -0.0629  0.4865
36400DPPC   C4A44482  16.580   2.531  28.419  0.3662 -0.0794 -0.1030
36400DPPC   C1B44483  17.061   2.094  26.925 -0.2253  0.0826 -0.1988
36400DPPC   C2B44484  17.156   2.125  27.288 -0.1300 -0.2343 -0.1611
36400DPPC   C3B44485  17.210   2.036  27.711 -0.0018  0.0389  0.4222
36400DPPC   C4B44486  17.152   2.009  28.157 -0.1530  0.0017 -0.1049
36401DPPC   NC344487  16.788   2.924  26.452  0.2648 -0.2582 -0.2229
36401DPPC   PO444488  16.477   2.821  26.257 -0.1029  0.2199  0.1615
36401DPPC   GL144489  16.149   2.733  26.645 -0.0329 -0.0909 -0.1734
36401DPPC   GL244490  16.427   2.694  26.775  0.0430  0.4222  0.2220
36401DPPC   C1A44491  16.115   2.843  27.006 -0.0509  0.0712 -0.0079
36401DPPC   C2A44492  15.976   2.814  27.396  0.0505  0.2111 -0.0375
36401DPPC   C3A44493  15.843   2.917  27.811  0.1074 -0.0758 -0.0531
36401DPPC   C4A44494  15.651   2.947  28.261  0.1430 -0.3233  0.3001
36401DPPC   C1B44495  16.672   2.862  26.939  0.0038  0.2759 -0.0150
36401DPPC   C2B44496  17.005   2.860  27.183 -0.0275 -0.1558 -0.0255
36401DPPC   C3B44497  17.322   3.124  27.392  0.0349 -0.1496 -0.0709
36401DPPC   C4B44498  17.619   3.535  27.478 -0.1248 -0.0280  0.0543
36402DPPC   NC344499  16.633   1.217  26.263  0.4004 -0.2041 -0.0414
36402DPPC   PO444500  16.899   1.392  26.010 -0.0101 -0.2820  0.0202
36402DPPC   GL144501  17.262   1.550  25.976  0.1297  0.2404  0.3637
36402DPPC   GL244502  17.189   1.743  26.211  0.0172  0.0926 -0.5327
36402DPPC   C1A44503  17.496   1.477  26.219 -0.1452 -0.1851 -0.2350
36402DPPC   C2A44504  17.684   1.302  26.500  0.1519  0.2656 -0.1135
36402DPPC   C3A44505  17.956   1.478  26.871  0.1870 -0.0381 -0.1751
36402DPPC   C4A44506  18.264   1.581  27.200 -0.0337 -0.0918 -0.0190
36402DPPC   C1B44507  17.337   1.764  26.550  0.0551  0.2463 -0.2596
36402DPPC   C2B44508  17.542   1.824  26.938  0.3147 -0.0558 -0.1170
36402DPPC   C3B44509  17.814   1.755  27.273  0.1858  0.4359 -0.0081
36402DPPC   C4B44510  18.078   1.694  27.653  0.3053 -0.0248  0.5105
36403DPPC   NC344511  16.741   3.835  25.216  0.2519 -0.1235 -0.1681
36403DPPC   PO444512  17.024   4.053  25.394 -0.1530  0.0044 -0.1435
36403DPPC   GL144513  17.201   3.985  25.737  0.2223 -0.1789 -0.1054
36403DPPC   GL244514  17.083   3.670  25.754 -0.3510  0.2260 -0.2779
36403DPPC   C1A44515  17.433   3.991  26.019  0.0653 -0.4951  0.0259
36403DPPC   C2A44516  17.683   3.949  26.333 -0.1854 -0.0019 -0.1759
36403DPPC   C3A44517  17.870   4.109  26.775  0.2398  0.3524  0.1787
36403DPPC   C4A44518  17.743   4.411  27.103  0.1342 -0.1662 -0.2210
36403DPPC   C1B44519  17.254   3.598  26.027 -0.1955  0.2322  0.0790
36403DPPC   C2B44520  17.397   3.592  26.403 -0.2017  0.1445  0.2003
36403DPPC   C3B44521  17.712   3.577  26.789  0.0128  0.1613 -0.1821
36403DPPC   C4B44522  17.906   3.365  27.157  0.0481 -0.0824  0.0467
36404DPPC   NC344523  16.227   3.130  25.843  0.2418  0.1623  0.0819
36404DPPC   PO444524  16.068   2.792  25.677  0.1463 -0.0261  0.2974
36404DPPC   GL144525  15.641   2.728  25.760  0.0370 -0.2915 -0.3383
36404DPPC   GL244526  15.634   3.071  25.879 -0.0162 -0.2113  0.2358
36404DPPC   C1A44527  15.356   2.545  25.875  0.0133 -0.2485  0.0155
36404DPPC   C2A44528  15.095   2.617  26.191  0.0575 -0.0032  0.3306
36404DPPC   C3A44529  14.841   2.726  26.570 -0.3060 -0.2584 -0.1166
36404DPPC   C4A44530  14.534   2.721  26.996 -0.0617 -0.1657 -0.0131
36404DPPC   C1B44531  15.404   2.996  26.138  0.3721 -0.0510  0.3787
36404DPPC   C2B44532  15.135   3.139  26.476  0.3426 -0.2021  0.0503
36404DPPC   C3B44533  14.799   3.158  26.882  0.1330  0.1049 -0.1485
36404DPPC   C4B44534  14.598   3.192  27.319  0.2304  0.2270  0.0663
36405DPPC   NC344535  14.531   6.429  22.324 -0.0159  0.1327 -0.0155
36405DPPC   PO444536  14.206   6.383  22.523  0.1870  0.0913  0.3738
36405DPPC   GL144537  13.889   6.348  22.864  0.1335 -0.1055  0.0905
36405DPPC   GL244538  13.765   6.562  22.685  0.0574  0.1153 -0.0316
36405DPPC   C1A44539  13.827   6.243  23.227 -0.5933  0.0668  0.2773
36405DPPC   C2A44540  13.743   6.030  23.604 -0.1383  0.2238 -0.2753
36405DPPC   C3A44541  13.411   6.067  23.958  0.0283  0.0985  0.3225
36405DPPC   C4A44542  13.101   6.095  24.344  0.3313  0.1260 -0.0279
36405DPPC   C1B44543  13.396   6.702  22.667  0.2546  0.2345  0.3371
36405DPPC   C2B44544  12.953   6.752  22.772 -0.3239  0.0745  0.2765
36405DPPC   C3B44545  12.616   6.811  23.137 -0.0791  0.2807  0.4971
36405DPPC   C4B44546  12.338   6.857  23.559  0.1076 -0.0938 -0.1105
36406DPPC   NC344547  14.006   1.435  22.396  0.1009 -0.1134  0.2135
36406DPPC   PO444548  14.133   1.669  22.698  0.1637 -0.0482 -0.2849
36406DPPC   GL144549  14.055   2.057  22.966  0.0040  0.1319  0.1333
36406DPPC   GL244550  13.724   2.004  22.906 -0.0272 -0.0491  0.2922
36406DPPC   C1A44551  13.969   2.035  23.331  0.1812 -0.4114 -0.0114
36406DPPC   C2A44552  13.818   1.757  23.608 -0.1264  0.0855 -0.0204
36406DPPC   C3A44553  13.474   1.675  23.932 -0.3439  0.0461 -0.1744
36406DPPC   C4A44554  13.243   1.729  24.406 -0.2152  0.0482  0.1344
36406DPPC   C1B44555  13.575   2.153  23.229 -0.3738 -0.1678  0.3404
36406DPPC   C2B44556  13.416   2.086  23.617 -0.0632 -0.0671  0.2034
36406DPPC   C3B44557  13.127   2.093  23.991  0.1830 -0.1109 -0.1585
36406DPPC   C4B44558  12.819   2.090  24.387 -0.1330  0.2280 -0.3488
36407DPPC   NC344559  13.984   2.126  22.494 -0.0274  0.0693 -0.0373
36407DPPC   PO444560  13.723   1.873  22.453 -0.1569  0.0868  0.0289
36407DPPC   GL144561  13.435   1.748  22.739  0.0162  0.1158 -0.2011
36407DPPC   GL244562  13.667   1.481  22.775  0.1039  0.1789  0.1489
36407DPPC   C1A44563  13.269   2.015  22.929  0.0517 -0.1710  0.1294
36407DPPC   C2A44564  13.056   2.033  23.270  0.3540  0.0519  0.0352
36407DPPC   C3A44565  12.725   2.027  23.579 -0.1277  0.0507  0.0131
36407DPPC   C4A44566  12.453   2.089  24.011  0.0810 -0.2051  0.1310
36407DPPC   C1B44567  13.519   1.174  23.042 -0.0556 -0.4255 -0.2255
36407DPPC   C2B44568  13.178   1.168  23.158  0.3003  0.0628 -0.3750
36407DPPC   C3B44569  12.924   1.110  23.524 -0.2459  0.2474 -0.1345
36407DPPC   C4B44570  12.649   1.168  23.903  0.3493 -0.3303 -0.0704
36408DPPC   NC344571  15.667   2.450  25.351  0.1522  0.0388 -0.0008
36408DPPC   PO444572  15.705   2.172  25.606  0.3370 -0.4527 -0.1937
36408DPPC   GL144573  15.573   2.128  26.019  0.4519  0.4104  0.3378
36408DPPC   GL244574  15.751   2.382  26.002  0.0484 -0.2513  0.0340
36408DPPC   C1A44575  15.354   2.110  26.310 -0.0125 -0.1152 -0.0703
36408DPPC   C2A44576  15.088   2.283  26.579  0.0503  0.0511 -0.0167
36408DPPC   C3A44577  14.872   2.279  26.993  0.2143  0.3082 -0.1959
36408DPPC   C4A44578  14.638   2.296  27.439 -0.0760  0.2459 -0.0572
36408DPPC   C1B44579  15.591   2.518  26.264 -0.5934 -0.2136 -0.2994
36408DPPC   C2B44580  15.398   2.701  26.588  0.1844 -0.3940  0.0341
36408DPPC   C3B44581  15.154   2.758  27.006  0.1219  0.0538  0.3374
36408DPPC   C4B44582  14.872   2.745  27.372  0.2484  0.0861 -0.0502
36409DPPC   NC344583  13.869   3.425  22.059 -0.3710  0.0336 -0.0068
36409DPPC   PO444584  13.756   3.697  22.364  0.1369  0.0475 -0.0781
36409DPPC   GL144585  13.368   3.859  22.521 -0.1948 -0.0224 -0.2294
36409DPPC   GL244586  13.224   3.845  22.284  0.2089 -0.0219  0.0266
36409DPPC   C1A44587  13.112   3.763  22.838  0.2892 -0.0468  0.1979
36409DPPC   C2A44588  12.884   3.779  23.171 -0.1187  0.2698  0.0488
36409DPPC   C3A44589  12.604   3.820  23.549  0.2060 -0.4501 -0.1243
36409DPPC   C4A44590  12.269   3.721  23.871  0.0391 -0.1328  0.0137
36409DPPC   C1B44591  12.885   3.708  22.429  0.0858 -0.0144  0.0063
36409DPPC   C2B44592  12.618   3.668  22.726 -0.0273 -0.0964  0.2741
36409DPPC   C3B44593  12.318   3.745  23.092 -0.0537 -0.1992  0.1158
36409DPPC   C4B44594  11.955   3.743  23.472 -0.2405 -0.0112 -0.1405
36410DPPC   NC344595  16.225   4.841  25.673  0.0160  0.0338 -0.1536
36410DPPC   PO444596  16.137   4.445  25.634 -0.0677 -0.0396  0.1380
36410DPPC   GL144597  15.890   4.385  25.974 -0.1247  0.1057  0.4858
36410DPPC   GL244598  15.620   4.249  25.790  0.2090 -0.0375 -0.0076
36410DPPC   C1A44599  15.835   4.477  26.345  0.3011 -0.0485 -0.1779
36410DPPC   C2A44600  15.655   4.451  26.720 -0.1863  0.1140 -0.1141
36410DPPC   C3A44601  15.445   4.522  27.114 -0.1716 -0.1205 -0.3031
36410DPPC   C4A44602  15.115   4.516  27.464  0.1914 -0.1770  0.0049
36410DPPC   C1B44603  15.464   4.382  26.111  0.0504  0.4213  0.1979
36410DPPC   C2B44604  15.182   4.380  26.433 -0.0405 -0.0925  0.2015
36410DPPC   C3B44605  14.942   4.370  26.800  0.1328 -0.1873  0.0947
36410DPPC   C4B44606  14.691   4.439  27.206 -0.0007  0.0245  0.2104
36411DPPC   NC344607  15.700   5.976  24.901  0.2439 -0.1885 -0.1855
36411DPPC   PO444608  15.742   6.359  25.001 -0.1176  0.0312  0.0174
36411DPPC   GL144609  15.508   6.555  25.156  0.2055  0.1688  0.0980
36411DPPC   GL244610  15.420   6.426  25.420 -0.0598  0.3148  0.1117
36411DPPC   C1A44611  15.198   6.740  25.259  0.2108  0.2710 -0.4313
36411DPPC   C2A44612  14.881   6.850  25.586  0.2294 -0.1368  0.2980
36411DPPC   C3A44613  14.574   6.929  25.912  0.0898 -0.0274 -0.1926
36411DPPC   C4A44614  14.319   6.987  26.313 -0.1139 -0.0803  0.1167
36411DPPC   C1B44615  15.175   6.487  25.670 -0.5426 -0.0756 -0.1289
36411DPPC   C2B44616  14.950   6.588  26.011  0.0901 -0.2850 -0.2223
36411DPPC   C3B44617  14.694   6.610  26.421 -0.3577  0.2779  0.1413
36411DPPC   C4B44618  14.485   6.628  26.819  0.0017 -0.0133 -0.2373
36412DPPC   NC344619  16.937   3.953  26.144 -0.0910 -0.0703 -0.1756
36412DPPC   PO444620  16.577   3.831  26.262 -0.0980  0.0983  0.1518
36412DPPC   GL144621  16.442   3.956  26.610  0.0991 -0.0128  0.3408
36412DPPC   GL244622  16.216   4.056  26.579  0.3820 -0.0159  0.0159
36412DPPC   C1A44623  16.572   3.744  26.895 -0.4206  0.0576  0.3543
36412DPPC   C2A44624  16.588   3.758  27.300 -0.0305 -0.1471 -0.0866
36412DPPC   C3A44625  16.302   3.792  27.725 -0.1907  0.2525 -0.1639
36412DPPC   C4A44626  16.051   3.793  28.116  0.0424 -0.3042 -0.2308
36412DPPC   C1B44627  15.902   4.030  26.795  0.4361 -0.0250 -0.0611
36412DPPC   C2B44628  15.781   4.152  27.129  0.1596  0.0267  0.4967
36412DPPC   C3B44629  15.497   4.182  27.487 -0.3923  0.0655  0.5004
36412DPPC   C4B44630  15.223   4.171  27.904  0.3150  0.1934 -0.2009
36413DPPC   NC344631  16.223   3.588  26.057 -0.1745 -0.0500 -0.1460
36413DPPC   PO444632  15.856   3.488  25.889  0.1127 -0.0423  0.3376
36413DPPC   GL144633  15.473   3.541  26.124 -0.4794 -0.0769 -0.2422
36413DPPC   GL244634  15.655   3.320  26.257  0.1269 -0.3154  0.2239
36413DPPC   C1A44635  15.260   3.597  26.448  0.0793  0.0133 -0.4084
36413DPPC   C2A44636  15.103   3.624  26.851  0.2497 -0.1490 -0.1278
36413DPPC   C3A44637  14.826   3.651  27.240  0.1698  0.1043  0.1589
36413DPPC   C4A44638  14.641   3.608  27.667 -0.1300 -0.1854  0.0033
36413DPPC   C1B44639  15.563   3.154  26.567  0.2001 -0.0209 -0.1446
36413DPPC   C2B44640  15.323   3.215  26.952 -0.1095 -0.0030 -0.3358
36413DPPC   C3B44641  15.123   3.207  27.365 -0.0118  0.0584  0.4108
36413DPPC   C4B44642  14.851   3.223  27.787  0.1302  0.0283 -0.0962
36414DPPC   NC344643  15.447   6.594  24.663  0.1490 -0.1850  0.1272
36414DPPC   PO444644  15.364   6.220  24.592  0.3322 -0.0844  0.4378
36414DPPC   GL144645  15.131   6.319  25.015 -0.3243  0.0026  0.0611
36414DPPC   GL244646  15.314   6.127  25.103  0.2324  0.4779  0.0846
36414DPPC   C1A44647  14.876   6.406  25.282  0.0450 -0.3376  0.0486
36414DPPC   C2A44648  14.598   6.429  25.580  0.1547 -0.0963  0.1357
36414DPPC   C3A44649  14.417   6.465  26.016 -0.0274  0.2306 -0.2666
36414DPPC   C4A44650  14.038   6.511  26.402 -0.0726  0.0790  0.1018
36414DPPC   C1B44651  15.107   6.050  25.466 -0.2892  0.2835 -0.0129
36414DPPC   C2B44652  14.865   6.095  25.766  0.0028 -0.0232 -0.1116
36414DPPC   C3B44653  14.549   6.009  26.144 -0.0335  0.0557  0.3328
36414DPPC   C4B44654  14.361   6.135  26.570  0.2655 -0.0835  0.0673
36415DPPC   NC344655  17.424   5.706  24.853  0.4561 -0.0356 -0.2936
36415DPPC   PO444656  17.166   5.864  25.134  0.0897 -0.2351  0.5331
36415DPPC   GL144657  17.427   5.777  25.429 -0.0826 -0.1703 -0.2537
36415DPPC   GL244658  17.310   5.901  25.641 -0.1026 -0.1714  0.4873
36415DPPC   C1A44659  17.774   5.867  25.490 -0.2808  0.0850  0.6371
36415DPPC   C2A44660  18.089   5.986  25.737 -0.3983  0.1426 -0.0051
36415DPPC   C3A44661  18.363   5.998  26.163 -0.0193  0.1329  0.1088
36415DPPC   C4A44662  18.568   6.054  26.594 -0.0029  0.1002  0.1792
36415DPPC   C1B44663  17.495   6.032  25.919 -0.2626 -0.0530 -0.1228
36415DPPC   C2B44664  17.742   5.880  26.161 -0.0144 -0.1993 -0.2035
36415DPPC   C3B44665  17.983   5.928  26.588 -0.0457  0.0542 -0.0735
36415DPPC   C4B44666  18.255   5.959  26.967  0.0531  0.0550 -0.2172
36416DPPC   NC344667  15.082   3.477  23.953 -0.0320  0.3057  0.0660
36416DPPC   PO444668  14.809   3.661  23.780  0.3571 -0.1696  0.1099
36416DPPC   GL144669  14.453   3.702  23.986 -0.1465 -0.0222  0.0938
36416DPPC   GL244670  14.496   3.981  24.095 -0.1800  0.0401 -0.2660
36416DPPC   C1A44671  14.206   3.688  24.299  0.0998  0.1075  0.0753
36416DPPC   C2A44672  13.935   3.678  24.583  0.1863  0.1836 -0.0428
36416DPPC   C3A44673  13.692   3.696  24.958 -0.2971 -0.1259  0.1439
36416DPPC   C4A44674  13.408   3.649  25.346  0.1556 -0.0322 -0.1570
36416DPPC   C1B44675  14.424   4.085  24.406 -0.1472  0.1362  0.1807
36416DPPC   C2B44676  14.166   4.138  24.714 -0.1498 -0.2125 -0.0226
36416DPPC   C3B44677  13.846   4.150  25.088 -0.2290  0.2265  0.0688
36416DPPC   C4B44678  13.520   4.145  25.486  0.2534 -0.2774 -0.0408
36417DPPC   NC344679  14.483   0.623  23.498 -0.0753  0.1619 -0.1267
36417DPPC   PO444680  14.773   0.376  23.591 -0.1985  0.0168 -0.2028
36417DPPC   GL144681  14.666   0.157  24.010 -0.3567 -0.2166  0.0387
36417DPPC   GL244682  14.787   0.267  24.179 -0.4444  0.1370 -0.0427
36417DPPC   C1A44683  14.310   0.078  24.173  0.2700  0.1416 -0.0366
36417DPPC   C2A44684  13.972   0.033  24.379  0.0165  0.1114  0.1819
36417DPPC   C3A44685  13.601   0.076  24.729  0.3182  0.0285  0.3671
36417DPPC   C4A44686  13.326   0.028  25.094  0.2730  0.4224 -0.0481
36417DPPC   C1B44687  14.856   0.498  24.509  0.2835 -0.3262 -0.1906
36417DPPC   C2B44688  14.573   0.587  24.801 -0.1677  0.0761  0.2412
36417DPPC   C3B44689  14.223   0.582  25.121  0.0875 -0.1107 -0.1054
36417DPPC   C4B44690  13.900   0.562  25.536 -0.5297 -0.0895  0.3739
36418DPPC   NC344691  15.679   5.169  25.124  0.1980  0.1128 -0.0948
36418DPPC   PO444692  15.569   5.481  24.894 -0.1161  0.1351  0.1279
36418DPPC   GL144693  15.211   5.492  24.952 -0.0299  0.2017 -0.0634
36418DPPC   GL244694  15.194   5.777  24.857 -0.0600 -0.2011  0.2530
36418DPPC   C1A44695  15.029   5.486  25.288 -0.2068  0.0870  0.0714
36418DPPC   C2A44696  14.776   5.545  25.497 -0.0653 -0.0288  0.1546
36418DPPC   C3A44697  14.502   5.600  25.889  0.2003 -0.0888 -0.0263
36418DPPC   C4A44698  14.258   5.657  26.289  0.0140  0.1335 -0.0901
36418DPPC   C1B44699  14.932   5.921  25.025 -0.0782  0.5090 -0.0854
36418DPPC   C2B44700  14.645   6.014  25.270  0.4028 -0.1843  0.0369
36418DPPC   C3B44701  14.343   5.988  25.618  0.3103  0.0476 -0.1837
36418DPPC   C4B44702  14.053   6.050  26.057  0.0017 -0.1673 -0.0065
36419DPPC   NC344703  15.894   0.532  26.285  0.4939 -0.0294  0.3993
36419DPPC   PO444704  16.015   0.219  26.080  0.3725 -0.0674  0.0463
36419DPPC   GL144705  15.789  -0.004  26.353 -0.3433 -0.0801 -0.1087
36419DPPC   GL244706  16.015  -0.247  26.368  0.3041 -0.3857  0.1034
36419DPPC   C1A44707  15.571   0.147  26.610  0.1108 -0.1382 -0.3939
36419DPPC   C2A44708  15.453   0.147  27.013  0.3405  0.1615  0.1079
36419DPPC   C3A44709  15.203   0.152  27.445 -0.0904 -0.0402 -0.1278
36419DPPC   C4A44710  14.906   0.200  27.846 -0.0089 -0.0929  0.2109
36419DPPC   C1B44711  16.185  -0.290  26.698  0.1914 -0.2067 -0.0778
36419DPPC   C2B44712  15.912  -0.272  27.020  0.1286 -0.2566 -0.0617
36419DPPC   C3B44713  15.544  -0.210  27.391 -0.0010  0.1691 -0.0106
36419DPPC   C4B44714  15.353  -0.120  27.821  0.2121  0.0851  0.0217
36420DPPC   NC344715  15.380   2.163  23.601 -0.0661  0.1025  0.0267
36420DPPC   PO444716  15.005   2.029  23.541 -0.0175  0.1084  0.1866
36420DPPC   GL144717  14.638   1.978  23.769 -0.2104 -0.4082 -0.0215
36420DPPC   GL244718  14.753   2.001  24.068  0.2647 -0.2305  0.1886
36420DPPC   C1A44719  14.298   1.955  23.834 -0.0093 -0.0932  0.1704
36420DPPC   C2A44720  14.029   1.817  24.079 -0.0320 -0.0108 -0.2319
36420DPPC   C3A44721  13.710   1.842  24.466 -0.0121 -0.0459  0.0468
36420DPPC   C4A44722  13.436   1.858  24.843 -0.3064 -0.1668  0.0934
36420DPPC   C1B44723  14.500   2.009  24.320 -0.2998 -0.0998 -0.1502
36420DPPC   C2B44724  14.197   1.935  24.559  0.1221 -0.1025 -0.3968
36420DPPC   C3B44725  13.908   1.933  24.927 -0.4029  0.1000 -0.0793
36420DPPC   C4B44726  13.660   1.886  25.314 -0.0147 -0.2713 -0.0071
36421DPPC   NC344727  16.952   5.488  25.390 -0.2867  0.2277  0.1887
36421DPPC   PO444728  17.129   5.507  25.761 -0.2779  0.1674 -0.0354
36421DPPC   GL144729  17.312   5.700  26.042 -0.3769  0.0198  0.0697
36421DPPC   GL244730  17.114   5.845  26.179 -0.0111  0.0403  0.2927
36421DPPC   C1A44731  17.565   5.452  26.161  0.2926 -0.0103 -0.1376
36421DPPC   C2A44732  17.744   5.468  26.517 -0.0744  0.1142 -0.0976
36421DPPC   C3A44733  18.090   5.492  26.931 -0.0889 -0.1395  0.2751
36421DPPC   C4A44734  18.418   5.529  27.246  0.0081  0.2608  0.1662
36421DPPC   C1B44735  17.378   5.890  26.452  0.1775  0.1198 -0.2064
36421DPPC   C2B44736  17.597   5.837  26.831  0.3501  0.2563  0.1380
36421DPPC   C3B44737  17.852   5.854  27.242  0.2137  0.4479 -0.1506
36421DPPC   C4B44738  18.256   5.944  27.531  0.2021 -0.1133  0.0262
36422DPPC   NC344739  14.334   5.367  23.654  0.2084 -0.1152  0.2832
36422DPPC   PO444740  14.450   4.974  23.586 -0.1275  0.0721  0.1451
36422DPPC   GL144741  14.228   4.760  23.851  0.1781 -0.1070  0.1505
36422DPPC   GL244742  14.017   4.877  23.812 -0.2852  0.1812  0.0074
36422DPPC   C1A44743  14.208   4.890  24.234 -0.0647  0.3336  0.0305
36422DPPC   C2A44744  14.110   4.970  24.631 -0.0727 -0.0199  0.0228
36422DPPC   C3A44745  13.775   5.015  24.967 -0.1153 -0.2429  0.1897
36422DPPC   C4A44746  13.496   5.022  25.344  0.1258  0.2204  0.1131
36422DPPC   C1B44747  13.757   4.889  24.099 -0.1106  0.0065  0.4400
36422DPPC   C2B44748  13.603   4.887  24.473  0.2472 -0.3297 -0.1322
36422DPPC   C3B44749  13.279   4.919  24.887 -0.0069  0.0986  0.0450
36422DPPC   C4B44750  12.950   4.867  25.274 -0.3296  0.1418 -0.0623
36423DPPC   NC344751  14.426   0.302  23.098  0.1307  0.1818 -0.0640
36423DPPC   PO444752  14.090   0.183  22.911 -0.1004  0.0557  0.3531
36423DPPC   GL144753  13.699   0.320  23.050  0.1016  0.0082  0.3270
36423DPPC   GL244754  13.764   0.048  23.217  0.4088 -0.2839 -0.2067
36423DPPC   C1A44755  13.332   0.244  23.112 -0.2571 -0.0521 -0.0610
36423DPPC   C2A44756  13.122   0.268  23.441  0.1466  0.0851  0.0189
36423DPPC   C3A44757  12.879   0.306  23.802 -0.1305 -0.0675 -0.2253
36423DPPC   C4A44758  12.509   0.327  24.214  0.2470  0.0884 -0.4371
36423DPPC   C1B44759  13.469  -0.118  23.396 -0.1429  0.4517  0.1243
36423DPPC   C2B44760  13.191  -0.121  23.726 -0.0080 -0.1611  0.0908
36423DPPC   C3B44761  12.881  -0.154  24.095 -0.0992 -0.1385 -0.1254
36423DPPC   C4B44762  12.565  -0.115  24.455 -0.1127 -0.2666 -0.2809
36424DPPC   NC344763  14.119   0.612  22.697  0.2189 -0.0719  0.4324
36424DPPC   PO444764  14.165   0.743  23.064 -0.0712  0.0826 -0.0133
36424DPPC   GL144765  14.024   0.403  23.363 -0.2860  0.3322 -0.6584
36424DPPC   GL244766  14.004   0.677  23.512 -0.1899 -0.0505  0.2817
36424DPPC   C1A44767  13.628   0.379  23.478 -0.2084 -0.1589 -0.0216
36424DPPC   C2A44768  13.402   0.364  23.821  0.1945  0.1190 -0.0942
36424DPPC   C3A44769  13.131   0.395  24.229  0.2289  0.1807 -0.0746
36424DPPC   C4A44770  12.787   0.383  24.597  0.0477  0.1018 -0.2811
36424DPPC   C1B44771  13.766   0.802  23.715 -0.4149  0.2620 -0.1673
36424DPPC   C2B44772  13.478   0.885  24.051  0.3520  0.1572 -0.2950
36424DPPC   C3B44773  13.152   0.887  24.444 -0.2353  0.1370  0.0247
36424DPPC   C4B44774  12.878   1.014  24.837 -0.1459 -0.1179 -0.0176
36425DPPA   PO444775  15.893   1.413  26.341  0.0447  0.0186 -0.2583
36425DPPA   GL144776  15.600   1.643  26.487 -0.0677  0.1406 -0.0344
36425DPPA   GL244777  15.693   1.519  26.833 -0.0710  0.2983  0.2041
36425DPPA   C1A44778  15.387   1.886  26.629 -0.3245  0.0383  0.0647
36425DPPA   C2A44779  15.166   1.921  26.969 -0.1239  0.2536  0.0965
36425DPPA   C3A44780  14.984   1.944  27.380 -0.3641 -0.2045 -0.0060
36425DPPA   C4A44781  14.750   1.891  27.783  0.2586  0.0714 -0.1247
36425DPPA   C1B44782  15.434   1.595  27.066  0.3149 -0.0775 -0.2539
36425DPPA   C2B44783  15.255   1.534  27.365 -0.2225  0.0165 -0.4126
36425DPPA   C3B44784  15.139   1.534  27.800 -0.0236 -0.0197 -0.0971
36425DPPA   C4B44785  14.967   1.490  28.208  0.0982  0.1035 -0.1008
36426DPPA   PO444786  16.746   1.728  26.338  0.1099  0.2399 -0.2211
36426DPPA   GL144787  16.974   1.460  26.568 -0.0422  0.0719 -0.6277
36426DPPA   GL244788  16.740   1.395  26.716  0.1514 -0.2839 -0.2226
36426DPPA   C1A44789  17.293   1.421  26.764  0.0103  0.3522 -0.0675
36426DPPA   C2A44790  17.479   1.348  27.102 -0.0512  0.1869  0.2923
36426DPPA   C3A44791  17.868   1.245  27.355  0.0918  0.2433 -0.0256
36426DPPA   C4A44792  18.292   1.061  27.467 -0.3719 -0.1906  0.1979
36426DPPA   C1B44793  16.496   1.458  27.010 -0.2640 -0.2387  0.0805
36426DPPA   C2B44794  16.478   1.516  27.444 -0.0112  0.2247  0.0898
36426DPPA   C3B44795  16.339   1.583  27.899  0.0834  0.1149 -0.0971
36426DPPA   C4B44796  16.110   1.555  28.310 -0.0127 -0.2577  0.0371
36427DPPA   PO444797  15.316   3.342  24.552 -0.0546  0.0664  0.3001
36427DPPA   GL144798  14.953   3.467  24.656  0.0879  0.0631 -0.1862
36427DPPA   GL244799  14.880   3.378  24.404  0.2309 -0.0388 -0.0005
36427DPPA   C1A44800  14.738   3.388  24.903 -0.0295 -0.1668 -0.2758
36427DPPA   C2A44801  14.466   3.423  25.205  0.0045 -0.0283 -0.0580
36427DPPA   C3A44802  14.131   3.361  25.618  0.0230  0.2677  0.0677
36427DPPA   C4A44803  13.888   3.327  26.078 -0.1370 -0.2704 -0.4602
36427DPPA   C1B44804  14.539   3.318  24.552 -0.4076 -0.0004 -0.3588
36427DPPA   C2B44805  14.212   3.274  24.815 -0.2890 -0.2276  0.1329
36427DPPA   C3B44806  13.889   3.286  25.201  0.0559 -0.1190  0.1166
36427DPPA   C4B44807  13.574   3.287  25.608  0.0356 -0.1375  0.1176
36428DPPA   PO444808  14.428   4.475  23.507 -0.2878  0.0081  0.0082
36428DPPA   GL144809  14.017   4.374  23.654  0.1345  0.2999  0.2421
36428DPPA   GL244810  13.981   4.581  23.480  0.1908 -0.1030 -0.3225
36428DPPA   C1A44811  13.831   4.488  23.932 -0.1260  0.2588  0.5124
36428DPPA   C2A44812  13.494   4.431  24.186 -0.0879  0.0111  0.0125
36428DPPA   C3A44813  13.165   4.397  24.578  0.0060  0.1784  0.3184
36428DPPA   C4A44814  12.888   4.424  24.956  0.2764  0.1255 -0.0574
36428DPPA   C1B44815  13.647   4.726  23.514  0.0188 -0.1789 -0.2485
36428DPPA   C2B44816  13.398   4.793  23.842  0.1960  0.1466 -0.0600
36428DPPA   C3B44817  13.181   4.823  24.227  0.1768 -0.1234  0.0739
36428DPPA   C4B44818  12.788   4.829  24.605 -0.2531  0.0842  0.0812
36429DPPA   PO444819  14.216   5.123  22.744  0.0228 -0.0014 -0.0256
36429DPPA   GL144820  13.833   5.187  22.968 -0.0717 -0.3137 -0.4215
36429DPPA   GL244821  13.776   4.886  22.918 -0.0313 -0.3048  0.2262
36429DPPA   C1A44822  13.527   5.176  23.160  0.2435 -0.2019 -0.0061
36429DPPA   C2A44823  13.336   5.169  23.514  0.3631  0.1195 -0.2551
36429DPPA   C3A44824  13.039   5.170  23.861 -0.2067 -0.1797  0.2534
36429DPPA   C4A44825  12.709   5.158  24.151 -0.2391 -0.1888 -0.0227
36429DPPA   C1B44826  13.457   4.765  23.055 -0.2378 -0.1081  0.1051
36429DPPA   C2B44827  13.214   4.671  23.304  0.2199  0.1484 -0.1056
36429DPPA   C3B44828  12.936   4.676  23.657 -0.0198 -0.1371 -0.0124
36429DPPA   C4B44829  12.655   4.664  24.065  0.0065 -0.3603 -0.1010
36430DPPA   PO444830  16.162   3.955  25.724  0.3017 -0.0934 -0.3667
36430DPPA   GL144831  16.016   3.960  26.188  0.0826 -0.2549 -0.2974
36430DPPA   GL244832  15.786   3.955  26.083  0.3941 -0.1017  0.1312
36430DPPA   C1A44833  15.898   3.733  26.453  0.2105 -0.0455 -0.6619
36430DPPA   C2A44834  15.658   3.599  26.795  0.1528  0.1533 -0.1874
36430DPPA   C3A44835  15.457   3.639  27.242 -0.0203  0.0207 -0.1674
36430DPPA   C4A44836  15.160   3.654  27.636  0.1289  0.0824  0.1016
36430DPPA   C1B44837  15.528   4.045  26.392 -0.5485  0.3009 -0.3073
36430DPPA   C2B44838  15.338   4.061  26.728 -0.0480  0.0277  0.1583
36430DPPA   C3B44839  15.147   4.047  27.151  0.2451  0.2283  0.0369
36430DPPA   C4B44840  14.828   4.089  27.526 -0.1461  0.1515  0.0084
36431DPPA   PO444841  13.633   3.010  22.151 -0.1049 -0.0087  0.1381
36431DPPA   GL144842  13.219   2.973  22.360 -0.0607  0.0204 -0.1748
36431DPPA   GL244843  13.439   2.966  22.606  0.0306 -0.1029 -0.2547
36431DPPA   C1A44844  12.942   2.870  22.542  0.3230  0.0792  0.1095
36431DPPA   C2A44845  12.630   2.865  22.851 -0.2283  0.3581  0.0767
36431DPPA   C3A44846  12.324   2.865  23.257  0.1186 -0.0052  0.0643
36431DPPA   C4A44847  12.040   2.851  23.692  0.5022  0.1422  0.1308
36431DPPA   C1B44848  13.173   2.897  22.917 -0.0576  0.1073 -0.2035
36431DPPA   C2B44849  12.943   2.881  23.253  0.4944  0.1009 -0.0088
36431DPPA   C3B44850  12.694   2.863  23.609  0.1386  0.0374  0.1657
36431DPPA   C4B44851  12.426   2.888  23.963  0.2582  0.0621 -0.1922
36432DPPA   PO444852  16.323   5.598  25.788 -0.1092  0.1451  0.1751
36432DPPA   GL144853  16.246   5.537  26.189 -0.1112 -0.0856 -0.3034
36432DPPA   GL244854  16.461   5.295  26.230 -0.2390 -0.1935 -0.0054
36432DPPA   C1A44855  16.179   5.542  26.534 -0.1109  0.0445  0.1796
36432DPPA   C2A44856  16.026   5.457  26.946 -0.0007 -0.2316  0.0044
36432DPPA   C3A44857  15.769   5.504  27.330 -0.1377 -0.1982  0.1530
36432DPPA   C4A44858  15.543   5.459  27.842 -0.0614 -0.1067 -0.0508
36432DPPA   C1B44859  16.237   5.107  26.452 -0.0709 -0.1180  0.2296
36432DPPA   C2B44860  15.910   4.893  26.622  0.0321  0.0856 -0.0069
36432DPPA   C3B44861  15.743   5.028  27.020  0.3280 -0.0700 -0.0160
36432DPPA   C4B44862  15.469   5.093  27.423 -0.0123  0.0846 -0.0911
36433DPPA   PO444863  16.273   5.249  25.365  0.0351 -0.0323  0.1894
36433DPPA   GL144864  15.915   5.191  25.576  0.0150 -0.1365 -0.1428
36433DPPA   GL244865  16.048   5.238  25.906 -0.2396  0.2023  0.0715
36433DPPA   C1A44866  15.607   5.210  25.824 -0.2724 -0.1506  0.1704
36433DPPA   C2A44867  15.429   5.282  26.146 -0.2388 -0.0684 -0.2163
36433DPPA   C3A44868  15.098   5.212  26.430 -0.2350  0.0677 -0.0350
36433DPPA   C4A44869  14.887   5.368  26.864  0.0212 -0.1984  0.0627
36433DPPA   C1B44870  15.870   5.295  26.191 -0.0939  0.4423 -0.0559
36433DPPA   C2B44871  15.712   5.389  26.590 -0.0955  0.1027 -0.1064
36433DPPA   C3B44872  15.383   5.390  26.973 -0.0965  0.1462  0.1643
36433DPPA   C4B44873  15.121   5.461  27.413 -0.2751  0.0146 -0.0625
36434DPPA   PO444874  14.449   3.322  23.042 -0.4421  0.0786  0.0298
36434DPPA   GL144875  14.314   3.181  23.358 -0.0045 -0.0335 -0.1182
36434DPPA   GL244876  14.354   3.423  23.537  0.1786 -0.4451  0.2856
36434DPPA   C1A44877  13.955   3.149  23.511  0.2118  0.0946  0.0952
36434DPPA   C2A44878  13.778   3.017  23.894 -0.0324  0.2472  0.1999
36434DPPA   C3A44879  13.445   3.059  24.231 -0.1671  0.2966  0.1968
36434DPPA   C4A44880  13.132   3.154  24.625  0.1179  0.1584 -0.3291
36434DPPA   C1B44881  14.077   3.523  23.737 -0.2090 -0.1187  0.0800
36434DPPA   C2B44882  13.829   3.517  24.100  0.3646 -0.0549  0.3831
36434DPPA   C3B44883  13.510   3.546  24.416  0.3711 -0.2539  0.0812
36434DPPA   C4B44884  13.209   3.603  24.837 -0.1123 -0.1377  0.0898
36435DPPA   PO444885  16.625   2.280  25.703  0.0197 -0.0947 -0.1069
36435DPPA   GL144886  16.836   2.392  26.055  0.0044 -0.1082  0.0427
36435DPPA   GL244887  16.943   2.151  26.199  0.1306  0.0450  0.0402
36435DPPA   C1A44888  17.066   2.685  26.196 -0.0010 -0.0554  0.2337
36435DPPA   C2A44889  17.221   2.680  26.582  0.0588 -0.1962 -0.0661
36435DPPA   C3A44890  17.458   2.549  27.029  0.1418 -0.0013 -0.0849
36435DPPA   C4A44891  17.622   2.281  27.445  0.0433  0.2370 -0.0837
36435DPPA   C1B44892  17.316   2.282  26.263  0.1175  0.1680  0.1313
36435DPPA   C2B44893  17.481   2.179  26.580  0.0939  0.0516  0.0843
36435DPPA   C3B44894  17.833   2.198  26.931  0.0506  0.0397  0.1559
36435DPPA   C4B44895  18.116   2.330  27.349 -0.2411 -0.2269  0.1063
36436DPPA   PO444896  16.771   3.364  25.629 -0.1866  0.4015 -0.1042
36436DPPA   GL144897  17.147   3.206  25.730 -0.2915  0.1957  0.1327
36436DPPA   GL244898  17.020   3.045  25.936  0.3245  0.2420 -0.1561
36436DPPA   C1A44899  17.460   3.214  25.886  0.1094 -0.2023  0.2416
36436DPPA   C2A44900  17.680   3.188  26.225  0.2988 -0.0648  0.2522
36436DPPA   C3A44901  17.936   3.161  26.596  0.1414 -0.1923 -0.2413
36436DPPA   C4A44902  18.327   3.199  26.958 -0.2475  0.3451  0.3298
36436DPPA   C1B44903  17.151   3.169  26.248 -0.1920 -0.2280 -0.0678
36436DPPA   C2B44904  17.372   3.125  26.632 -0.0287 -0.1349  0.2179
36436DPPA   C3B44905  17.639   3.018  26.962 -0.1093 -0.1274  0.0145
36436DPPA   C4B44906  17.865   2.776  27.336 -0.1336 -0.1800  0.0343
36437DPPA   PO444907  15.325   5.525  24.068 -0.0580 -0.3059  0.2054
36437DPPA   GL144908  15.077   5.674  24.423  0.0306  0.2230 -0.2456
36437DPPA   GL244909  15.037   5.940  24.345 -0.0898  0.2909 -0.2684
36437DPPA   C1A44910  14.816   5.453  24.676 -0.1477  0.1951  0.1080
36437DPPA   C2A44911  14.608   5.511  25.026 -0.2031  0.1860 -0.3006
36437DPPA   C3A44912  14.290   5.518  25.393  0.0430 -0.2875  0.0378
36437DPPA   C4A44913  13.951   5.543  25.791 -0.0260  0.1744  0.0559
36437DPPA   C1B44914  14.807   6.137  24.592 -0.2338 -0.0681  0.3374
36437DPPA   C2B44915  14.546   6.288  24.891 -0.0341  0.1236 -0.1445
36437DPPA   C3B44916  14.206   6.385  25.186 -0.0260 -0.0908 -0.2503
36437DPPA   C4B44917  13.988   6.382  25.634 -0.1354  0.2669  0.2036
36438DPPA   PO444918  16.679   0.455  25.067  0.1719  0.2378 -0.0134
36438DPPA   GL144919  16.969   0.504  25.401  0.0054  0.0748  0.1987
36438DPPA   GL244920  17.076   0.264  25.464  0.4127 -0.2704 -0.0996
36438DPPA   C1A44921  17.278   0.652  25.579 -0.1096  0.4767  0.0734
36438DPPA   C2A44922  17.479   0.686  25.912  0.0413 -0.0996  0.0338
36438DPPA   C3A44923  17.812   0.744  26.304  0.1956 -0.3404  0.0364
36438DPPA   C4A44924  18.061   0.695  26.675  0.1583  0.1625  0.2997
36438DPPA   C1B44925  17.275   0.218  25.784 -0.0236 -0.0803  0.0157
36438DPPA   C2B44926  17.541   0.206  26.119 -0.2546 -0.1213 -0.3844
36438DPPA   C3B44927  17.815   0.203  26.523 -0.1471  0.0732 -0.0682
36438DPPA   C4B44928  18.127   0.260  26.925 -0.0781  0.0240  0.2119
36439DPPA   PO444929  16.869   1.332  25.111  0.0206 -0.0495  0.2130
36439DPPA   GL144930  17.258   1.278  25.054  0.0141  0.0086  0.0314
36439DPPA   GL244931  17.364   1.564  25.144  0.1129  0.3406  0.2018
36439DPPA   C1A44932  17.376   1.064  25.382  0.2388 -0.0614  0.8057
36439DPPA   C2A44933  17.472   1.153  25.784 -0.1380 -0.0305  0.0979
36439DPPA   C3A44934  17.843   1.151  26.056 -0.0787 -0.2317 -0.2041
36439DPPA   C4A44935  18.208   1.080  26.483 -0.5841  0.2495 -0.2683
36439DPPA   C1B44936  17.527   1.511  25.470 -0.0291  0.1271  0.0693
36439DPPA   C2B44937  17.754   1.595  25.828  0.0936 -0.1452  0.0680
36439DPPA   C3B44938  18.083   1.536  26.226 -0.0322  0.2943  0.0565
36439DPPA   C4B44939  18.415   1.538  26.533 -0.2094  0.3979  0.0027
36440DPPA   PO444940  15.200   2.145  24.059  0.0338 -0.0985 -0.1496
36440DPPA   GL144941  14.932   2.491  24.151  0.0736  0.1207 -0.3247
36440DPPA   GL244942  14.773   2.471  23.940 -0.4274  0.0659  0.2124
36440DPPA   C1A44943  14.661   2.402  24.370  0.1560 -0.1372 -0.0990
36440DPPA   C2A44944  14.428   2.437  24.710 -0.0750  0.0854  0.1672
36440DPPA   C3A44945  14.087   2.427  25.108  0.0950  0.1317  0.2752
36440DPPA   C4A44946  13.735   2.379  25.441 -0.0613 -0.0602  0.0808
36440DPPA   C1B44947  14.457   2.346  23.993  0.1877  0.0787  0.2702
36440DPPA   C2B44948  14.178   2.344  24.239  0.0857 -0.0615 -0.0853
36440DPPA   C3B44949  13.877   2.307  24.603 -0.0730  0.1852  0.2153
36440DPPA   C4B44950  13.525   2.317  24.940 -0.0978 -0.0600  0.1304
36441DPPA   PO444951  15.559   6.528  24.156 -0.2518  0.2815 -0.0069
36441DPPA   GL144952  15.066   6.364  24.191 -0.1521 -0.0145  0.3988
36441DPPA   GL244953  15.099   6.557  24.348 -0.2089  0.0249 -0.2321
36441DPPA   C1A44954  14.730   6.302  24.171  0.0136 -0.1386  0.0060
36441DPPA   C2A44955  14.383   6.226  24.342 -0.2449  0.2400 -0.1591
36441DPPA   C3A44956  14.117   6.270  24.708  0.2967 -0.0423  0.0691
36441DPPA   C4A44957  13.755   6.295  24.967 -0.1364  0.0847  0.2189
36441DPPA   C1B44958  14.848   6.634  24.604  0.6918  0.2593 -0.0667
36441DPPA   C2B44959  14.443   6.740  24.615  0.0580  0.1814 -0.1738
36441DPPA   C3B44960  14.061   6.775  24.927 -0.0533  0.0851 -0.0652
36441DPPA   C4B44961  13.782   6.746  25.277  0.1514 -0.0255 -0.1070
36442DPPA   PO444962  16.167   0.934  26.208  0.0834 -0.1188  0.2406
36442DPPA   GL144963  16.523   0.835  26.495  0.2536 -0.3515  0.0424
36442DPPA   GL244964  16.372   0.586  26.546 -0.3464  0.1889 -0.0596
36442DPPA   C1A44965  16.424   1.077  26.736  0.0098  0.0400  0.2349
36442DPPA   C2A44966  16.293   1.061  27.137 -0.3103  0.0894 -0.4198
36442DPPA   C3A44967  16.201   1.120  27.548  0.2176 -0.0520  0.0865
36442DPPA   C4A44968  15.988   1.200  28.024  0.0647 -0.2087 -0.2237
36442DPPA   C1B44969  16.278   0.581  26.919  0.5981 -0.0383  0.2741
36442DPPA   C2B44970  16.141   0.607  27.295  0.2642 -0.1308  0.0599
36442DPPA   C3B44971  15.871   0.677  27.690 -0.1714  0.0855 -0.0097
36442DPPA   C4B44972  15.666   0.714  28.091  0.0648  0.0309  0.0580
36443DPPA   PO444973  15.635   2.808  24.211  0.0188  0.1497  0.1267
36443DPPA   GL144974  15.394   2.913  24.602  0.2215 -0.2872 -0.0247
36443DPPA   GL244975  15.152   2.817  24.654 -0.0819 -0.1054 -0.1229
36443DPPA   C1A44976  15.426   3.040  24.978 -0.3064  0.1272 -0.0089
36443DPPA   C2A44977  15.385   3.000  25.348  0.1636  0.3146  0.0786
36443DPPA   C3A44978  15.103   2.978  25.763 -0.0240 -0.0126  0.0313
36443DPPA   C4A44979  14.785   3.008  26.096  0.2237  0.1347  0.0065
36443DPPA   C1B44980  15.038   2.887  24.970  0.2605  0.0242 -0.0792
36443DPPA   C2B44981  14.768   3.015  25.280 -0.0853  0.0075  0.1256
36443DPPA   C3B44982  14.483   2.982  25.675 -0.1896  0.0589 -0.0760
36443DPPA   C4B44983  14.191   2.943  26.043 -0.1223  0.1427  0.0312
36444DPPA   PO444984  16.601   3.276  26.163 -0.0824  0.0730 -0.1088
36444DPPA   GL144985  16.910   3.604  26.429 -0.0105 -0.1756 -0.0199
36444DPPA   GL244986  16.784   3.428  26.561  0.3286 -0.1160 -0.0725
36444DPPA   C1A44987  16.945   3.814  26.691  0.2200 -0.0894 -0.2759
36444DPPA   C2A44988  16.893   4.076  27.051  0.0919  0.3247 -0.1743
36444DPPA   C3A44989  16.722   4.253  27.462  0.1045 -0.0450 -0.0003
36444DPPA   C4A44990  16.464   4.318  27.900  0.0263  0.0077 -0.1298
36444DPPA   C1B44991  16.840   3.354  26.863 -0.4102  0.0055 -0.2136
36444DPPA   C2B44992  16.842   3.362  27.280  0.0897 -0.0175  0.0164
36444DPPA   C3B44993  16.653   3.333  27.714 -0.1007 -0.0811 -0.2469
36444DPPA   C4B44994  16.436   3.351  28.107  0.1990  0.0806  0.1963
36445DPPA   PO444995  13.535   3.893  21.945 -0.1570 -0.0577  0.0345
36445DPPA   GL144996  13.301   3.548  21.948  0.2178 -0.0712 -0.2911
36445DPPA   GL244997  13.417   3.437  22.210  0.0548 -0.2440  0.0651
36445DPPA   C1A44998  12.999   3.415  22.099  0.1895 -0.3250 -0.1063
36445DPPA   C2A44999  12.693   3.262  22.366 -0.1247  0.0731 -0.0644
36445DPPA   C3A45000  12.328   3.254  22.767 -0.1060 -0.1109 -0.0394
36445DPPA   C4A45001  12.004   3.358  23.142 -0.3377 -0.1329  0.1737
36445DPPA   C1B45002  13.189   3.393  22.514 -0.2165  0.1330  0.5017
36445DPPA   C2B45003  12.924   3.251  22.819  0.1864  0.0988  0.1248
36445DPPA   C3B45004  12.608   3.290  23.195 -0.3131 -0.3488  0.0102
36445DPPA   C4B45005  12.328   3.311  23.559  0.1076  0.1734  0.4560
36446DPPA   PO445006  13.756   2.213  22.045  0.2628  0.0670  0.1339
36446DPPA   GL145007  13.388   2.233  22.300 -0.0606 -0.2361 -0.1050
36446DPPA   GL245008  13.516   2.265  22.560 -0.0387 -0.2364  0.1875
36446DPPA   C1A45009  13.141   2.008  22.454  0.0034 -0.3483 -0.0216
36446DPPA   C2A45010  12.843   1.905  22.736 -0.0083 -0.3293  0.1543
36446DPPA   C3A45011  12.516   1.928  23.132  0.1894  0.0159  0.1096
36446DPPA   C4A45012  12.213   1.980  23.557 -0.0221  0.1087 -0.1312
36446DPPA   C1B45013  13.466   2.525  22.843  0.0848  0.0352 -0.1698
36446DPPA   C2B45014  13.333   2.531  23.204 -0.3074  0.5021 -0.3632
36446DPPA   C3B45015  12.982   2.456  23.576  0.2446 -0.0552 -0.2354
36446DPPA   C4B45016  12.812   2.533  24.030  0.1286 -0.0765 -0.0538
36447DPPA   PO445017  16.661   6.514  25.776 -0.0859  0.2026  0.0474
36447DPPA   GL145018  17.045   6.282  25.877 -0.0667  0.1229 -0.2261
36447DPPA   GL245019  17.138   6.420  25.675  0.0584 -0.0943  0.4576
36447DPPA   C1A45020  17.268   6.451  26.158 -0.2747  0.1543 -0.1143
36447DPPA   C2A45021  17.545   6.335  26.450 -0.0041 -0.1381 -0.0089
36447DPPA   C3A45022  17.864   6.353  26.828  0.0329  0.1510 -0.0364
36447DPPA   C4A45023  18.133   6.421  27.237  0.0092  0.1569  0.1820
36447DPPA   C1B45024  17.451   6.479  25.769 -0.3803 -0.2529  0.0852
36447DPPA   C2B45025  17.783   6.404  26.018  0.1824 -0.1396 -0.0885
36447DPPA   C3B45026  18.092   6.413  26.383 -0.0368  0.0135 -0.2144
36447DPPA   C4B45027  18.312   6.419  26.768  0.1853  0.0518  0.0807
36448DPPA   PO445028  15.864   6.595  25.479 -0.0469 -0.0297 -0.0779
36448DPPA   GL145029  15.631   6.314  25.788 -0.2701  0.4809  0.0151
36448DPPA   GL245030  15.598   6.566  25.941 -0.1701  0.0108 -0.0787
36448DPPA   C1A45031  15.430   6.105  26.034 -0.0233 -0.3032 -0.1433
36448DPPA   C2A45032  15.133   6.171  26.277 -0.1544 -0.3569  0.1636
36448DPPA   C3A45033  14.849   6.217  26.660 -0.3186  0.1288 -0.1981
36448DPPA   C4A45034  14.616   6.264  27.060 -0.0597  0.1135  0.2458
36448DPPA   C1B45035  15.360   6.584  26.191  0.0107  0.3179  0.0963
36448DPPA   C2B45036  15.154   6.691  26.491  0.1160 -0.2852  0.1060
36448DPPA   C3B45037  14.950   6.757  26.959 -0.2842 -0.2676 -0.0112
36448DPPA   C4B45038  14.713   6.721  27.362 -0.0443  0.3140 -0.0474
36449DPPA   PO445039  14.530   1.044  28.611  0.2039 -0.2740 -0.0670
36449DPPA   GL145040  14.601   1.023  28.282  0.4916  0.2343  0.0704
36449DPPA   GL245041  14.888   0.908  28.249  0.4515  0.1717 -0.0777
36449DPPA   C1A45042  14.346   1.052  28.030 -0.0975  0.1339 -0.2113
36449DPPA   C2A45043  14.223   1.267  27.678 -0.0207  0.1118  0.2267
36449DPPA   C3A45044  14.180   1.415  27.214 -0.1560  0.0345 -0.2675
36449DPPA   C4A45045  14.094   1.780  26.904  0.3029  0.1007  0.0624
36449DPPA   C1B45046  15.056   0.953  27.922 -0.0060 -0.1736  0.0417
36449DPPA   C2B45047  15.051   1.064  27.562  0.0569 -0.3647  0.1937
36449DPPA   C3B45048  15.274   1.054  27.182  0.0377  0.1291  0.3187
36449DPPA   C4B45049  15.520   1.008  26.773  0.1597  0.3326  0.0773
36450W        W45050   3.916   3.760  13.944  0.1060  0.2830  0.4428
36451W        W45051  19.480   3.036  18.458 -0.1449  0.1464  0.1193
36452W        W45052   7.839   1.754   5.519 -0.2961 -0.1050  0.0648
36453W        W45053   8.563   5.339  23.513  0.0615  0.4825  0.2383
36454W        W45054  20.711   2.061  16.954  0.1782  0.0076  0.1755
36455W        W45055  17.841   2.891  33.220 -0.0581  0.1087  0.0081
36456W        W45056  17.126   5.789   3.220 -0.0261  0.1912 -0.3244
36457W        W45057  12.348   4.440  18.368 -0.0066 -0.1484  0.2293
36458W        W45058   3.315   3.337  40.176 -0.1744 -0.1578  0.1567
36459W        W45059  18.514   4.525  42.211  0.0729  0.1208 -0.1487
36460W        W45060  17.794   2.456  10.382 -0.2677 -0.1859  0.2259
36461W        W45061   4.356   1.276  37.601  0.1892  0.3472 -0.2186
36462W        W45062  12.494   5.888  10.075 -0.2319  0.0174  0.2842
36463W        W45063  17.845   3.618  34.803 -0.0517  0.1727  0.0188
36464W        W45064   6.544   6.545   4.394 -0.3758  0.0466 -0.0779
36465W        W45065  18.525   5.595  37.271  0.0418  0.1058 -0.0508
36466W        W45066  14.925   1.008  36.127  0.0716 -0.0118 -0.0107
36467W        W45067  12.341   1.580   3.304  0.2279 -0.1321  0.0361
36468W        W45068  18.555   2.569  14.892 -0.2454  0.0671  0.1955
36469W        W45069   5.474   0.504  24.043 -0.2497 -0.1055  0.1235
36470W        W45070   8.291   4.081  41.353  0.1842 -0.1829 -0.2544
36471W        W45071  21.077   4.272   7.163 -0.0900  0.4085  0.3952
36472W        W45072  12.555   3.631  34.044  0.3148  0.0364 -0.1983
36473W        W45073  10.099   5.133  39.622 -0.0415 -0.4040 -0.1289
36474W        W45074  13.324   0.542  13.684  0.0531  0.0245 -0.1678
36475W        W45075   0.275   5.355  38.050  0.1206 -0.0100 -0.1811
36476W        W45076   6.174   4.068  15.621  0.0017  0.0393  0.1039
36477W        W45077   0.191   0.873   9.495 -0.4268  0.0404 -0.1158
36478W        W45078  20.394   1.316  13.519  0.3084 -0.1726  0.0391
36479W        W45079  15.127   5.173   7.491 -0.0711 -0.0062  0.0014
36480W        W45080  18.150   5.938  35.613 -0.0565 -0.1940  0.0787
36481W        W45081   0.968   4.303  40.902 -0.2085  0.1444 -0.1410
36482W        W45082  13.747   0.070  37.962 -0.1464 -0.3015 -0.1282
36483W        W45083  19.318   4.193  11.411 -0.0704  0.0773 -0.0202
36484W        W45084   8.676   4.913  42.492 -0.1202  0.1188  0.1983
36485W        W45085  17.570   6.285   7.527  0.1683  0.2168 -0.0143
36486W        W45086  20.828   1.098  42.208 -0.0646  0.3493  0.1358
36487W        W45087   3.464   5.628  33.173  0.0034 -0.1209  0.0337
36488W        W45088  12.328   6.201   8.623  0.2929 -0.1157  0.0782
36489W        W45089  16.011   1.859   7.712 -0.0513  0.3048  0.3731
36490W        W45090  18.296   1.009  34.224  0.2982  0.1349  0.1717
36491W        W45091  13.822   3.089  32.316 -0.1234 -0.1454  0.0713
36492W        W45092   8.469   3.533  35.807 -0.1493 -0.0191 -0.0218
36493W        W45093  19.051   5.005  22.611 -0.0391 -0.1730  0.0137
36494W        W45094   8.547   6.474  28.023 -0.1689 -0.0607  0.1074
36495W        W45095  14.854   2.017   5.442  0.2174  0.0459 -0.0457
36496W        W45096  18.226   3.656  32.895 -0.1808 -0.0815 -0.2351
36497W        W45097  18.763   1.143  29.532 -0.3433 -0.0153 -0.0241
36498W        W45098   8.816   4.925  35.698 -0.2442 -0.0005  0.3300
36499W        W45099   2.096   4.746  10.499  0.0131 -0.0758  0.0702
36500W        W45100  19.470   5.901  42.975 -0.1206 -0.0104  0.3031
36501W        W45101   7.529   4.980   7.556 -0.4660 -0.0249 -0.3518
36502W        W45102   6.896   4.217  15.631  0.0952  0.0609 -0.0527
36503W        W45103  20.691   2.642  41.074  0.0444 -0.0627  0.1354
36504W        W45104  14.010   2.032   8.741 -0.1130 -0.0600 -0.1486
36505W        W45105  19.827   1.298  40.528 -0.1796 -0.2182  0.4594
36506W        W45106  12.089   3.733  32.112 -0.0539 -0.0211 -0.3619
36507W        W45107  10.188   4.381  42.135 -0.0807  0.1079  0.0607
36508W        W45108   3.497   5.645   9.590  0.0540  0.1560 -0.0497
36509W        W45109  14.539   1.280   9.196  0.0020 -0.0742  0.0593
36510W        W45110  14.966   6.015  16.639  0.0589 -0.0250  0.0966
36511W        W45111   7.246   4.597   6.801  0.0093  0.1766  0.0717
36512W        W45112  14.658   5.079  12.066  0.1678  0.0968  0.0017
36513W        W45113  12.418   2.880  33.409  0.0629  0.1552 -0.0561
36514W        W45114   8.232   2.310  24.491  0.1307 -0.4521  0.1729
36515W        W45115  13.849   5.816  18.782 -0.3668 -0.1219  0.0565
36516W        W45116   2.593   1.022  30.128  0.0946  0.0029 -0.2362
36517W        W45117   3.815   3.384  36.867 -0.0078 -0.1513 -0.0916
36518W        W45118   9.239   1.549  32.917  0.1394 -0.3659 -0.1094
36519W        W45119  19.839   2.517   6.401 -0.0669  0.3361  0.1927
36520W        W45120   0.169   6.411  34.587  0.0296 -0.1471 -0.0038
36521W        W45121  18.830   3.947  10.024  0.3454  0.0078 -0.0754
36522W        W45122  15.553   4.467  44.906 -0.2022  0.3210 -0.0728
36523W        W45123  18.154   0.566  21.722 -0.0400  0.0565 -0.3353
36524W        W45124  21.010   2.561  35.507 -0.2303 -0.2539 -0.0063
36525W        W45125  17.843   3.323  30.475  0.1396  0.0133  0.2132
36526W        W45126  11.981   5.790   7.389 -0.1737 -0.0249  0.4762
36527W        W45127   7.091   4.343  41.264 -0.0269  0.0062  0.0768
36528W        W45128  15.479   5.462  19.840  0.1609  0.2667 -0.1069
36529W        W45129   8.938   1.489  38.992  0.0844  0.2037 -0.1563
36530W        W45130   3.146   2.091   8.066 -0.0588 -0.0841  0.0463
36531W        W45131  18.993   0.138  42.445  0.1109 -0.0009 -0.0034
36532W        W45132   7.961   3.572  35.458  0.0337 -0.2478  0.0208
36533W        W45133   0.919   1.740  38.972 -0.3042 -0.1609  0.0103
36534W        W45134  20.336   3.194  35.086 -0.2695 -0.1951  0.1494
36535W        W45135  18.735   3.010  35.323 -0.0316 -0.0302  0.3425
36536W        W45136   1.132   5.989  12.805 -0.0615 -0.1665  0.3187
36537W        W45137  11.113   2.436  27.943 -0.5177 -0.0550 -0.0047
36538W        W45138   9.291   6.123  40.215  0.0630  0.2862 -0.1984
36539W        W45139   5.593   4.630  30.878 -0.2636 -0.1010  0.1261
36540W        W45140   9.965   2.293   9.407 -0.0851  0.2784 -0.0235
36541W        W45141   3.396   2.489  11.919 -0.0761 -0.1098 -0.2505
36542W        W45142   4.654   6.116   0.217 -0.2293  0.1341  0.1100
36543W        W45143   6.822   6.259  33.588  0.1770 -0.2539 -0.1628
36544W        W45144   7.902   0.757   5.180 -0.0234 -0.1669 -0.1639
36545W        W45145  15.975   6.599  38.112 -0.2356  0.0391  0.0362
36546W        W45146   2.578   6.574  32.222  0.4679 -0.2719  0.1115
36547W        W45147  12.997   5.630  16.908  0.1063  0.1341 -0.1325
36548W        W45148  19.781   1.889  32.763 -0.0460 -0.1083 -0.1096
36549W        W45149   5.535   6.393  22.173 -0.0511 -0.0533  0.0720
36550W        W45150   6.833   4.049  30.951  0.0623  0.2539  0.1256
36551W        W45151  17.642   2.885  30.206 -0.3426  0.2065 -0.0717
36552W        W45152   9.245   3.424  13.717 -0.0184 -0.0699 -0.0240
36553W        W45153  20.188   2.274  31.669  0.1476 -0.2823  0.0946
36554W        W45154   3.385   6.375   4.299  0.0931 -0.1753  0.2740
36555W        W45155   9.380   2.647  34.854  0.2999  0.2894 -0.1098
36556W        W45156  16.386   2.773  15.037  0.1577  0.0621 -0.1890
36557W        W45157  14.069   6.187  14.892 -0.2150  0.0506  0.1578
36558W        W45158   8.047   2.051  29.464 -0.0830  0.1378  0.0161
36559W        W45159  14.604   6.296   7.073  0.0256  0.0315  0.0243
36560W        W45160   3.347   3.368  24.196 -0.5366 -0.2318 -0.1322
36561W        W45161   7.177   5.951   0.995  0.1009  0.2221  0.0137
36562W        W45162  11.230   2.128  41.810  0.2287  0.2890 -0.0102
36563W        W45163   0.476   1.242  25.920  0.0043  0.2020  0.0848
36564W        W45164   2.595   0.155  27.409  0.0623  0.4112  0.0253
36565W        W45165   6.936   0.089  28.394 -0.0145  0.2337  0.1759
36566W        W45166  14.803   5.182  22.632 -0.0562 -0.1338 -0.1653
36567W        W45167   9.347   3.589  40.055  0.1574  0.0534 -0.0783
36568W        W45168  10.839   1.510  25.737 -0.3096  0.1318  0.1104
36569W        W45169  19.114   6.483  39.811 -0.1682 -0.2535  0.1771
36570W        W45170   5.677   4.429  37.146 -0.0272  0.2745  0.3576
36571W        W45171  10.920   5.304   2.090  0.1268 -0.0064  0.0562
36572W        W45172   1.390   1.650  39.056 -0.0850 -0.0505 -0.0710
36573W        W45173  16.023   5.102  12.162  0.2447  0.0362  0.5052
36574W        W45174   2.950   0.749  10.620 -0.3113 -0.0440 -0.1056
36575W        W45175   4.682   1.539  36.865 -0.2511  0.0870 -0.1683
36576W        W45176  18.941   2.248  32.765 -0.0853 -0.0660 -0.0062
36577W        W45177   6.848   2.627  43.912  0.0657 -0.1440 -0.1600
36578W        W45178   0.666   0.938  10.817 -0.2076 -0.1724 -0.0258
36579W        W45179  13.562   5.693  15.786  0.0168  0.2547  0.2440
36580W        W45180   4.386   1.406   5.445 -0.1466  0.2326 -0.0269
36581W        W45181   5.988   6.225  12.819 -0.0503 -0.1639  0.0535
36582W        W45182  13.743   4.158   2.545  0.2343 -0.1666  0.1729
36583W        W45183  12.642   6.464  43.785 -0.3067 -0.1372 -0.0133
36584W        W45184  11.435   4.038  16.300  0.0637  0.1745  0.0100
36585W        W45185   4.557   1.052  23.078  0.0685  0.0131  0.0999
36586W        W45186   6.702   2.151  39.316  0.1639 -0.1307  0.1631
36587W        W45187   6.198   5.490  23.661  0.0443 -0.4166 -0.1988
36588W        W45188  17.272   2.071  12.746 -0.1190 -0.4247  0.1350
36589W        W45189  12.728   3.802  11.886  0.0920 -0.0150  0.0949
36590W        W45190   5.193   6.057  15.086 -0.2168  0.2062  0.2625
36591W        W45191  19.183   2.218  38.610  0.0058  0.2092 -0.2518
36592W        W45192  18.208   2.246  36.282  0.1179  0.1710 -0.2554
36593W        W45193   2.836   2.337  13.800 -0.0816  0.2697  0.0273
36594W        W45194   3.955   1.354  27.130 -0.0106  0.1206 -0.0888
36595W        W45195  17.243   1.756   2.633  0.1125 -0.0091  0.1365
36596W        W45196  15.793   6.501  17.666 -0.0549 -0.0848  0.3425
36597W        W45197   8.786   3.831   4.241 -0.1849 -0.0260 -0.1732
36598W        W45198  11.877   5.745  39.792 -0.1206 -0.1138  0.2987
36599W        W45199   6.359   6.513   4.892  0.0140 -0.0142 -0.0040
36600W        W45200   5.516   3.084  41.976 -0.0980 -0.2215  0.5024
36601W        W45201  19.930   1.978  30.734 -0.0647 -0.0509 -0.2885
36602W        W45202   2.319   1.078   4.450  0.0274  0.0857 -0.0978
36603W        W45203   7.391   1.215  42.069  0.2268 -0.0629  0.0827
36604W        W45204  15.412   1.045   5.497 -0.0879 -0.0455  0.2386
36605W        W45205  14.428   1.611  39.995 -0.1960  0.1507 -0.2888
36606W        W45206   3.994   5.573  13.045 -0.1956 -0.1942 -0.2189
36607W        W45207   5.990   5.549  42.024  0.1763 -0.1221 -0.0633
36608W        W45208   2.424   5.921  10.573  0.0589 -0.3508  0.2247
36609W        W45209   8.653   3.539  29.521 -0.0751  0.1658 -0.3623
36610W        W45210  10.860   6.378  40.595 -0.1197  0.0401 -0.0300
36611W        W45211  19.865   6.260   2.892 -0.3309  0.3997 -0.1905
36612W        W45212  15.765   3.336   4.549  0.1983 -0.0996 -0.0680
36613W        W45213  11.341   0.447  31.857 -0.3214 -0.3197 -0.0487
36614W        W45214   2.195   3.577   2.146  0.0608 -0.1333 -0.0901
36615W        W45215   3.709   1.486  36.701 -0.0577  0.0307  0.4108
36616W        W45216  13.651   4.534  44.232  0.2870  0.0610  0.2239
36617W        W45217   1.021   6.106  31.803 -0.1705 -0.0589  0.0697
36618W        W45218   8.561   5.611   1.886  0.1193  0.2514  0.0046
36619W        W45219  19.620   3.647   2.240 -0.3163  0.1509  0.0831
36620W        W45220  17.969   2.742  21.350 -0.0353 -0.0319 -0.3230
36621W        W45221  11.623   1.461  14.998  0.3544 -0.1576  0.0692
36622W        W45222   9.483   2.151  38.490  0.0309  0.2527  0.1273
36623W        W45223   6.985   0.114   4.717 -0.1212  0.0166 -0.0507
36624W        W45224  18.496   5.298   6.157 -0.0847 -0.1012  0.1511
36625W        W45225  15.195   2.215  17.430 -0.0799 -0.1871 -0.1047
36626W        W45226   1.533   1.803   3.113  0.2357 -0.1914 -0.0740
36627W        W45227  21.128   3.884  33.629 -0.0773  0.3364  0.1560
36628W        W45228   3.650   1.890   5.993 -0.1073  0.0370 -0.1403
36629W        W45229  20.404   3.920   3.435 -0.1424 -0.0347 -0.0311
36630W        W45230   2.835   3.255   5.118  0.1349 -0.3645  0.1786
36631W        W45231   9.426   4.648  41.455  0.0421 -0.2243 -0.0655
36632W        W45232  16.175   0.039  34.197 -0.1658 -0.0328 -0.0150
36633W        W45233   9.556   3.611  39.132 -0.0730 -0.3848 -0.0514
36634W        W45234  13.494   3.864  40.485 -0.3638 -0.1009  0.1806
36635W        W45235   7.211   3.299  30.415  0.1394 -0.4482  0.0047
36636W        W45236  15.528   0.206  22.067 -0.2692  0.0218  0.1684
36637W        W45237   3.838   1.231  24.777  0.1811  0.0097  0.0472
36638W        W45238   0.365   3.921  27.993  0.0535 -0.0177 -0.2753
36639W        W45239   5.526   4.392   9.235 -0.0053 -0.3421 -0.1022
36640W        W45240  13.963   6.279   7.657  0.0470 -0.1434 -0.0103
36641W        W45241  10.203   5.735  41.544 -0.0357  0.2179  0.2074
36642W        W45242  10.230   3.388  15.382 -0.2467 -0.0730  0.2274
36643W        W45243   2.291   2.240  15.155 -0.3380  0.1379  0.3129
36644W        W45244   7.229   0.311  39.300 -0.0544 -0.3015  0.1476
36645W        W45245   2.010   6.329  12.500  0.1991  0.0233 -0.0978
36646W        W45246  19.021   6.533   8.727 -0.0145  0.2040  0.2542
36647W        W45247   8.822   1.925  33.981 -0.2107  0.2218  0.0894
36648W        W45248   3.897   4.689   6.066 -0.3299  0.0802 -0.3029
36649W        W45249  12.554   2.136  10.523 -0.3066 -0.2013 -0.0240
36650W        W45250  17.144   3.811  11.702  0.1855 -0.1112 -0.0339
36651W        W45251  11.481   3.301  38.984 -0.0232 -0.2879 -0.3199
36652W        W45252   0.302   1.739  38.023 -0.1601 -0.0136 -0.1089
36653W        W45253  19.895   6.498  20.046  0.0033 -0.0867  0.1673
36654W        W45254  14.042   4.100   3.546 -0.1048  0.5675 -0.0083
36655W        W45255   8.177   1.046   1.673  0.0736  0.3125 -0.0207
36656W        W45256   2.770   2.345  24.345  0.1126  0.0307  0.0725
36657W        W45257  14.420   3.785  14.286 -0.2050 -0.0941  0.1250
36658W        W45258  16.622   1.280   6.069  0.1142  0.0482 -0.0777
36659W        W45259   7.091   4.389   3.133 -0.2651  0.1394  0.0690
36660W        W45260  11.620   6.396   7.947 -0.0099  0.0034 -0.2912
36661W        W45261  19.617   3.718  39.737  0.2767 -0.0124  0.0558
36662W        W45262  12.608   1.872  42.512 -0.0664  0.2200  0.3357
36663W        W45263   3.649   5.686  26.595  0.1624  0.1995 -0.3682
36664W        W45264   2.303   0.164  34.301 -0.2645 -0.1111 -0.4150
36665W        W45265   1.749   2.881   7.739 -0.1751 -0.0968 -0.2709
36666W        W45266  15.785   2.198  14.218 -0.2468 -0.1313 -0.1169
36667W        W45267  10.036   3.129  31.026  0.0770 -0.0519 -0.1197
36668W        W45268  13.697   1.246  44.028 -0.1901 -0.0589  0.2268
36669W        W45269  17.159   2.802   0.065 -0.0146  0.2178  0.0408
36670W        W45270  18.649   5.842  13.550 -0.1402  0.1950  0.1638
36671W        W45271   7.836   6.070  22.993  0.0896  0.0290  0.2066
36672W        W45272  12.699   0.544   3.508  0.0559 -0.1116  0.1090
36673W        W45273  20.213   3.108  28.719  0.1600 -0.0237 -0.1108
36674W        W45274   1.628   0.156  11.309  0.1174 -0.2107  0.0382
36675W        W45275   4.205   5.845  12.583 -0.0275 -0.2496 -0.2757
36676W        W45276  14.745   4.200  37.961 -0.1160  0.0087 -0.1871
36677W        W45277   6.129   3.550  14.380 -0.0567 -0.1766 -0.0624
36678W        W45278  17.326   3.595  31.703  0.1839  0.3027 -0.1045
36679W        W45279  19.585   2.327  34.675  0.3184 -0.3408  0.4866
36680W        W45280  20.411   2.897  32.522 -0.1027  0.1326 -0.1372
36681W        W45281   0.459   4.022  29.801  0.0572 -0.0394 -0.1672
36682W        W45282  12.267   2.852  31.775  0.2413 -0.0342 -0.0819
36683W        W45283  17.887   4.948  35.535  0.0474 -0.1738  0.0739
36684W        W45284  15.957   4.646   2.429 -0.1307 -0.2061 -0.1312
36685W        W45285   3.739   2.778  25.052  0.0259  0.0243 -0.1066
36686W        W45286   2.112   5.193  25.263  0.3544  0.1175 -0.0886
36687W        W45287   6.890   4.552   5.820  0.0938  0.0391  0.1711
36688W        W45288  19.911   0.459  11.454  0.0267  0.1729 -0.1205
36689W        W45289  18.955   0.168  13.660  0.1868 -0.0147  0.3157
36690W        W45290  13.577   0.920  37.777 -0.1268  0.0582  0.2403
36691W        W45291   3.104   3.255  42.887 -0.1033  0.0067  0.1626
36692W        W45292   5.070   0.551  39.868  0.0575 -0.1975 -0.1424
36693W        W45293  13.471   0.259  33.891  0.0595 -0.0753  0.0820
36694W        W45294  15.787   4.951  30.933 -0.1703 -0.0130 -0.1319
36695W        W45295  10.953   4.029  37.553  0.0139 -0.1631 -0.2370
36696W        W45296  13.837   6.135  36.611  0.1660  0.1470  0.1058
36697W        W45297  18.334   3.769   6.897 -0.3220  0.0776  0.0545
36698W        W45298   1.121   1.963   5.207  0.0194 -0.0267 -0.1909
36699W        W45299   5.385   2.941  36.945  0.2816 -0.1767 -0.3865
36700W        W45300   3.643   3.368   1.070 -0.1076  0.0941  0.0218
36701W        W45301   5.256   4.638  12.258 -0.0427  0.1041  0.0324
36702W        W45302   5.480   5.901  39.325  0.1828 -0.2078  0.1690
36703W        W45303  14.319   0.312  29.234  0.2904 -0.2678  0.2431
36704W        W45304   5.035   6.438  30.392  0.4383 -0.0469  0.1086
36705W        W45305  12.134   4.230  32.272 -0.1671 -0.1443 -0.1356
36706W        W45306   4.881   4.409   7.989 -0.1069 -0.0429  0.1515
36707W        W45307  17.593   4.735   8.881  0.0432 -0.1689  0.0188
36708W        W45308  20.558   5.000  36.375 -0.1955 -0.0773  0.1466
36709W        W45309  12.960   0.454   7.282  0.4435  0.1225 -0.0638
36710W        W45310   3.223   2.488  34.594 -0.2586 -0.1969 -0.1872
36711W        W45311   0.547   5.456  44.391  0.0077  0.0921  0.2314
36712W        W45312   5.989   0.451   1.909 -0.0698  0.1562 -0.4822
36713W        W45313  16.140   0.189  32.398 -0.3056  0.1104 -0.3879
36714W        W45314  18.589   1.343  29.113 -0.3125  0.0943 -0.3330
36715W        W45315   6.167   2.691   2.932  0.1442 -0.0697 -0.2646
36716W        W45316   1.213   6.589   1.216  0.0015  0.0028 -0.0932
36717W        W45317  19.404   2.576   0.756 -0.1276  0.2521  0.0738
36718W        W45318   3.654   2.417  44.658  0.0150  0.1022  0.1945
36719W        W45319  13.608   3.572   7.022  0.2329 -0.0714  0.2498
36720W        W45320  11.804   4.244  15.278 -0.0653 -0.1278 -0.1513
36721W        W45321   8.908   0.224  23.579 -0.0030 -0.1972  0.1586
36722W        W45322  10.741   3.873   8.857  0.1994 -0.1588  0.2463
36723W        W45323   7.813   2.009  24.390  0.1506  0.0701 -0.1808
36724W        W45324  11.452   3.683  16.607 -0.2088 -0.1467  0.0593
36725W        W45325   7.090   3.628  15.578  0.0718 -0.1257 -0.4121
36726W        W45326   0.538   3.717  14.192  0.1010  0.0783 -0.0400
36727W        W45327   4.780   6.128  41.486 -0.1450  0.1071  0.1515
36728W        W45328   3.916   1.639  31.844 -0.1269 -0.0800  0.3276
36729W        W45329   2.971   3.771   1.586  0.0965  0.1662 -0.1104
36730W        W45330   9.338   6.140  24.539 -0.1996  0.3720 -0.1500
36731W        W45331  16.812   4.622  28.974 -0.1541  0.1395  0.1751
36732W        W45332   9.736   1.821  44.160 -0.3495  0.2273 -0.0483
36733W        W45333   9.658   2.875  26.294  0.1270  0.0857  0.1295
36734W        W45334   7.403   1.639  10.211 -0.3275  0.0333 -0.0533
36735W        W45335   4.163   1.468  23.184 -0.3120  0.4570  0.3717
36736W        W45336  12.789   5.116   6.021  0.1638  0.1830 -0.1537
36737W        W45337   1.990   4.177   3.119  0.1410 -0.2493  0.0243
36738W        W45338  18.741   6.171   0.305  0.2786  0.0934 -0.0416
36739W        W45339  20.067   0.550  20.061  0.2393  0.3650  0.1300
36740W        W45340   4.253   0.205  30.578  0.0286 -0.0918  0.0725
36741W        W45341  17.247   4.450  42.790 -0.0399  0.4385 -0.1523
36742W        W45342   9.203   1.275  14.604  0.0089 -0.2319 -0.0996
36743W        W45343  18.727   0.454  37.145  0.3507 -0.5860  0.2274
36744W        W45344  16.914   3.154   1.041 -0.1373  0.0483  0.2500
36745W        W45345   9.197   6.199  13.189  0.0348 -0.1251 -0.1893
36746W        W45346   8.904   6.262  11.885  0.1273  0.1442  0.0033
36747W        W45347  17.232   3.763  41.654 -0.0244  0.0198  0.1102
36748W        W45348   3.651   0.105  39.990  0.1188  0.1727  0.3058
36749W        W45349   6.247   4.901  30.185  0.2713 -0.3102 -0.1048
36750W        W45350   6.997   6.031  37.642  0.0093 -0.2670 -0.3027
36751W        W45351  17.120   4.978  42.415  0.1656 -0.0737 -0.0619
36752W        W45352  14.398   4.437  11.063 -0.0729 -0.1864 -0.0133
36753W        W45353  15.760   3.099   0.592  0.0035 -0.0274  0.3815
36754W        W45354   5.799   1.385  40.573  0.1249  0.1361 -0.0245
36755W        W45355  19.380   2.858  30.090 -0.1775  0.1084 -0.0414
36756W        W45356   0.836   0.318   4.325  0.2302  0.1515  0.3465
36757W        W45357   6.390   5.759  11.446  0.0778  0.1711 -0.2654
36758W        W45358  18.641   5.277  16.112  0.1120 -0.0265 -0.0269
36759W        W45359  19.190   2.925   4.723 -0.1269 -0.0196 -0.0506
36760W        W45360   5.021   5.611   3.385  0.2385  0.0690  0.1021
36761W        W45361  19.012   3.279  36.506 -0.2658  0.0557 -0.2631
36762W        W45362  11.398   4.064  37.176  0.1017 -0.0930 -0.0194
36763W        W45363   9.627   2.352   1.380  0.3533  0.1171  0.1528
36764W        W45364  11.146   3.162  18.271  0.0030 -0.0733  0.2949
36765W        W45365   7.327   5.961   4.152 -0.2081 -0.0060 -0.0164
36766W        W45366  16.152   0.339  10.522 -0.0819 -0.2219  0.0081
36767W        W45367   9.196   2.407  32.164  0.1161 -0.1845 -0.3108
36768W        W45368  12.106   2.046   3.619 -0.0977 -0.0767 -0.5409
36769W        W45369   6.555   2.219  10.498  0.2437  0.1713 -0.0007
36770W        W45370  15.951   1.938  13.107 -0.0245  0.0243 -0.1828
36771W        W45371   6.025   5.586  29.418  0.2029  0.1735 -0.0542
36772W        W45372   4.597   3.261  29.682  0.2187 -0.1932 -0.2388
36773W        W45373  20.179   6.518  13.417 -0.1081  0.1610  0.0626
36774W        W45374   7.567   3.536   3.004  0.1944 -0.2332 -0.2000
36775W        W45375   1.228   4.089  32.010 -0.2926  0.0322  0.1915
36776W        W45376  10.190   0.456  12.882 -0.2817  0.2527 -0.0211
36777W        W45377   6.371   5.101  33.280  0.0549  0.3701 -0.0986
36778W        W45378   2.186   4.733   8.924 -0.1042  0.1559 -0.0465
36779W        W45379  18.774   3.935  40.620  0.0013 -0.1438 -0.1785
36780W        W45380  15.157   1.801   1.640  0.3554 -0.0733 -0.1052
36781W        W45381  20.948   5.249  38.364  0.2275  0.0838 -0.3091
36782W        W45382   0.676   6.519  14.995 -0.2512 -0.1024 -0.1714
36783W        W45383  11.006   6.205  16.039  0.0128  0.4129 -0.0821
36784W        W45384  13.482   4.977  19.642  0.0259 -0.5142 -0.0082
36785W        W45385  15.404   3.660  40.178  0.1914  0.0669 -0.1983
36786W        W45386  14.773   5.951  10.856 -0.1531  0.0322  0.0848
36787W        W45387  17.153   0.294  36.490 -0.0492  0.1756 -0.2168
36788W        W45388  15.700   5.482  36.494 -0.0670 -0.2055  0.0298
36789W        W45389  10.298   1.067  44.778 -0.2256 -0.0613 -0.2278
36790W        W45390   2.007   3.803  16.693  0.4555 -0.0672  0.2081
36791W        W45391  13.293   4.719   7.449 -0.0865  0.1721 -0.1976
36792W        W45392   4.502   0.750   6.605 -0.0975 -0.0239 -0.0928
36793W        W45393   5.920   0.232  33.468 -0.0453  0.1130 -0.2068
36794W        W45394  18.557   4.333   6.299 -0.0762  0.2813 -0.0476
36795W        W45395  10.452   4.509  36.988 -0.0686 -0.0266  0.1274
36796W        W45396  14.245   4.759  12.101  0.0649  0.0158 -0.0907
36797W        W45397   7.104   3.705  43.280 -0.1477 -0.3062  0.0757
36798W        W45398   1.705   3.995  34.368 -0.0446  0.0215 -0.1800
36799W        W45399  20.278   2.880   7.013 -0.1839  0.0028  0.0302
36800W        W45400   8.937   4.166  12.972  0.0676  0.1034  0.3637
36801W        W45401   3.906   1.008   9.455 -0.1386 -0.2624  0.2529
36802W        W45402  20.196   2.414  12.243  0.1866  0.2830  0.2204
36803W        W45403   8.545   1.675   6.298  0.3760 -0.1386 -0.0546
36804W        W45404  16.064   2.876  29.173 -0.2283  0.0907  0.2497
36805W        W45405  17.266   1.707  40.079 -0.4677 -0.0040 -0.1053
36806W        W45406   5.719   2.089  24.160  0.2812  0.2004  0.1871
36807W        W45407  13.014   0.682  35.342  0.0453  0.2725  0.2666
36808W        W45408   8.975   3.107   1.479  0.2243  0.0262 -0.4182
36809W        W45409  19.070   5.239  20.918 -0.1069  0.2369 -0.3376
36810W        W45410  14.398   6.265  18.620 -0.0186  0.2090  0.1533
36811W        W45411   7.931   5.091  27.190  0.0936 -0.2189 -0.0600
36812W        W45412  21.012   3.346  28.123 -0.1423  0.0226  0.2824
36813W        W45413   1.708   0.985  30.457 -0.0399  0.2186  0.1428
36814W        W45414  18.768   1.524   3.212 -0.2432 -0.1039 -0.2184
36815W        W45415   7.178   0.568  10.126  0.0040 -0.1231  0.1919
36816W        W45416   9.908   2.649  30.991  0.2023  0.0979 -0.1920
36817W        W45417   1.774   5.945  42.157 -0.0746 -0.0462  0.1317
36818W        W45418  16.658   5.393  15.081 -0.2839 -0.3645 -0.2898
36819W        W45419   3.583   6.402   6.225  0.1466 -0.0900 -0.0790
36820W        W45420   5.452   3.357  38.382 -0.1193  0.0160  0.0711
36821W        W45421   1.126   1.848  41.380 -0.0919 -0.4055  0.3083
36822W        W45422   9.134   2.087   7.116 -0.2341  0.1650  0.2183
36823W        W45423   3.748   5.079  13.759 -0.1430 -0.0759 -0.4372
36824W        W45424   1.656   3.404   6.835 -0.3084 -0.2570  0.1177
36825W        W45425  14.169   4.024  35.581  0.1652 -0.0231 -0.0912
36826W        W45426   5.915   0.494  44.786 -0.0607  0.2180 -0.3005
36827W        W45427   9.115   3.993   3.485 -0.1750 -0.1077  0.1033
36828W        W45428  10.376   3.561  30.041  0.1198 -0.1078 -0.0101
36829W        W45429   8.581   5.735  11.708  0.0512 -0.1140 -0.1993
36830W        W45430  10.298   5.284  40.576 -0.1853 -0.1716  0.0836
36831W        W45431  16.801   1.735  40.270  0.2116  0.0051 -0.1020
36832W        W45432  12.018   0.439   9.343 -0.1497 -0.5044 -0.1737
36833W        W45433   7.102   3.708   8.483  0.2356  0.1151 -0.0231
36834W        W45434  16.142   3.631   8.524 -0.0459  0.1624 -0.0326
36835W        W45435  17.980   6.252  29.761  0.1749 -0.1842 -0.1584
36836W        W45436  10.826   0.312   5.033  0.1784  0.2871  0.1556
36837W        W45437  13.255   2.825   8.376 -0.1942  0.1996  0.0845
36838W        W45438   4.479   5.077   9.743 -0.0463 -0.2317 -0.1618
36839W        W45439   6.292   3.682   0.904  0.1769 -0.0775 -0.2468
36840W        W45440   5.768   0.958  32.795  0.0400  0.0058 -0.1037
36841W        W45441  18.969   6.524  21.743  0.0997  0.0704 -0.0350
36842W        W45442  12.292   2.819  29.964  0.0181  0.2426 -0.1984
36843W        W45443   9.755   4.511   3.195 -0.5432  0.0321  0.1827
36844W        W45444   1.332   5.121  29.414  0.2017 -0.1376  0.1683
36845W        W45445   6.445   2.379  38.360 -0.1218  0.2642 -0.0457
36846W        W45446  13.525   0.736  17.002 -0.1103 -0.0651 -0.0548
36847W        W45447   2.342   6.598   4.053  0.2199 -0.0590  0.0964
36848W        W45448   9.687   5.434   4.033 -0.1859 -0.0254  0.2049
36849W        W45449  18.894   0.782  31.427  0.0140 -0.3590 -0.0654
36850W        W45450   2.199   4.113  10.022  0.1462  0.2453 -0.0938
36851W        W45451  17.974   0.472   1.205 -0.0805 -0.0278 -0.1314
36852W        W45452  13.871   3.718  41.945 -0.3236 -0.0912 -0.0425
36853W        W45453   6.318   1.508  15.691  0.0844  0.0407 -0.1718
36854W        W45454   5.401   4.308  15.145  0.0026 -0.1720  0.0198
36855W        W45455  11.631   6.391  11.339  0.3863 -0.0132 -0.2828
36856W        W45456  14.554   3.825  41.364 -0.1582 -0.2905  0.0320
36857W        W45457   6.529   5.544  21.726 -0.1665 -0.0538  0.1345
36858W        W45458   1.698   6.057  14.876  0.1491 -0.2576 -0.0074
36859W        W45459  18.490   1.550  22.847 -0.2320 -0.0815 -0.0963
36860W        W45460   5.830   0.897  40.372  0.1112 -0.1474  0.1528
36861W        W45461   9.991   4.080  31.110 -0.2924  0.1647 -0.3473
36862W        W45462   6.443   0.232  21.562 -0.0316  0.1956  0.0992
36863W        W45463  16.034   5.246  10.630  0.0080 -0.1765 -0.2122
36864W        W45464  20.102   4.483  13.813  0.1820 -0.0150  0.1248
36865W        W45465   0.498   4.807   7.618 -0.0158  0.1390  0.1897
36866W        W45466   8.410   5.935  32.096  0.0418 -0.0155  0.0497
36867W        W45467   6.611   0.955  23.773  0.0579 -0.0280 -0.2496
36868W        W45468  12.658   2.444  14.272  0.2558 -0.2125 -0.0730
36869W        W45469   8.464   1.655  33.722 -0.0259  0.3748 -0.3793
36870W        W45470  12.945   5.883   3.735  0.1200 -0.2175  0.0138
36871W        W45471  13.266   0.423   9.191  0.0749  0.2825 -0.1437
36872W        W45472   4.039   4.069  13.109 -0.1247 -0.1852 -0.0686
36873W        W45473   8.193   1.299   6.230  0.0497  0.2936 -0.1282
36874W        W45474   1.668   5.141  42.152  0.1124  0.0294 -0.2675
36875W        W45475   9.131   3.288  27.105  0.2188 -0.1151 -0.1928
36876W        W45476   8.131   0.333   9.701 -0.0122  0.0352 -0.1870
36877W        W45477  13.411   6.012  18.473  0.0525  0.1922 -0.0961
36878W        W45478  20.139   4.313  18.021 -0.0206 -0.0428  0.1286
36879W        W45479   8.400   4.673  23.462 -0.2823  0.3823 -0.2797
36880W        W45480  13.066   0.138  20.640 -0.1971 -0.0217 -0.0673
36881W        W45481   0.864   1.726  44.825 -0.3760  0.1422 -0.1988
36882W        W45482  16.120   5.066  38.742  0.2343  0.0987  0.0951
36883W        W45483   8.204   1.329  32.032 -0.2208  0.0105  0.0605
36884W        W45484   2.915   0.657   3.962 -0.1773 -0.1466  0.1453
36885W        W45485   5.683   4.597  33.059 -0.1096 -0.0579  0.0540
36886W        W45486  15.187   6.178   8.831  0.1838  0.2003 -0.0489
36887W        W45487   3.388   4.064   2.760  0.0110 -0.0377 -0.3291
36888W        W45488  15.892   5.707  37.734 -0.2253  0.1233 -0.0073
36889W        W45489   9.836   6.180  27.078  0.0084  0.0886 -0.1724
36890W        W45490   2.036   5.029   4.475  0.1213  0.1047 -0.1737
36891W        W45491   3.342   5.298  23.614 -0.2577  0.0314  0.0820
36892W        W45492   4.970   6.516  41.761  0.0677 -0.1160  0.0368
36893W        W45493  17.493   0.727  30.108 -0.0062 -0.0892 -0.2993
36894W        W45494  12.213   4.100   9.565  0.1244  0.1239  0.1223
36895W        W45495   3.863   4.218  31.800  0.0898 -0.2656 -0.0029
36896W        W45496   7.969   1.501  27.068  0.6047 -0.1447 -0.0341
36897W        W45497  14.258   3.524  16.525 -0.2036 -0.3693 -0.0475
36898W        W45498  13.603   6.463  21.255 -0.0716  0.1878 -0.0621
36899W        W45499  12.629   1.434  32.305  0.2938 -0.0006  0.3792
36900W        W45500  20.516   3.449  16.877 -0.0432  0.0850  0.2185
36901W        W45501  19.209   2.247   7.092  0.1156 -0.0826  0.2018
36902W        W45502  13.232   4.099   2.350 -0.1027  0.1428 -0.1986
36903W        W45503  10.953   5.236  33.385  0.0686 -0.3982  0.1152
36904W        W45504  15.821   0.184   6.843 -0.0339  0.3207 -0.0998
36905W        W45505   8.547   5.720  16.476 -0.2329 -0.2189  0.2536
36906W        W45506  11.936   4.067   7.531  0.0390 -0.3565 -0.0556
36907W        W45507   5.173   0.177  11.262 -0.1003  0.0098 -0.2331
36908W        W45508   8.700   5.519  44.255 -0.0236 -0.0274  0.0403
36909W        W45509  17.421   5.414  28.904  0.1224  0.1832  0.1209
36910W        W45510   7.742   1.223   1.868  0.0297  0.1689  0.1104
36911W        W45511  15.712   0.410  44.840  0.1661 -0.2570 -0.2313
36912W        W45512  11.311   0.339  34.484  0.3244 -0.1166  0.2954
36913W        W45513   0.055   0.591   1.675  0.2004  0.0062  0.0590
36914W        W45514   2.318   2.326  32.133 -0.1612  0.1631 -0.4265
36915W        W45515  13.944   2.321  16.158 -0.1529 -0.1830 -0.0785
36916W        W45516   0.114   5.249   4.728 -0.0599  0.1504 -0.1469
36917W        W45517  14.481   0.011  37.705 -0.3467 -0.3634 -0.0437
36918W        W45518   0.659   5.509   3.017  0.1657 -0.2129 -0.1460
36919W        W45519  19.608   4.635  18.631  0.0684  0.0219 -0.2909
36920W        W45520   2.999   1.956  36.197 -0.1130 -0.0677 -0.0330
36921W        W45521  20.669   5.874  41.387 -0.1141  0.3670  0.0151
36922W        W45522  13.220   3.537  44.413  0.1724  0.4012 -0.1053
36923W        W45523  18.129   4.858   7.006 -0.0740 -0.3651  0.1965
36924W        W45524   3.286   5.397   3.411 -0.0034  0.4267 -0.1004
36925W        W45525  14.915   0.187  28.318 -0.0644  0.3842 -0.0345
36926W        W45526  19.092   1.877  43.882  0.0622 -0.0968  0.1094
36927W        W45527   5.611   1.200  31.482  0.0103 -0.1112  0.0916
36928W        W45528   6.687   3.736  31.754  0.0326  0.0468 -0.1250
36929W        W45529  15.294   4.319  23.459 -0.0202  0.3363 -0.2151
36930W        W45530  10.748   0.445   3.089  0.0296 -0.0368 -0.1720
36931W        W45531  18.240   6.255  31.912 -0.2558 -0.0190 -0.0619
36932W        W45532  10.565   2.304   5.856  0.0330 -0.3224 -0.0485
36933W        W45533  19.814   1.884   6.500  0.0132  0.0589 -0.1887
36934W        W45534  19.284   1.589  33.477  0.0764 -0.0146  0.3835
36935W        W45535   7.795   2.703  14.167  0.1360  0.3709  0.1750
36936W        W45536  19.324   2.910  17.110 -0.2237  0.2605 -0.2005
36937W        W45537   5.250   3.309  40.184 -0.0642 -0.0284  0.0844
36938W        W45538   3.000   1.554   3.956 -0.3043 -0.0883 -0.0093
36939W        W45539   5.154   4.858  42.110 -0.1563 -0.0115 -0.2726
36940W        W45540  17.454   0.272  33.315  0.0037  0.2823  0.2014
36941W        W45541  12.431   5.011  18.347  0.0731 -0.4600  0.1392
36942W        W45542  16.808   3.859   5.075 -0.1835 -0.1850  0.3145
36943W        W45543  19.562   3.878   2.723  0.3983 -0.1215 -0.0166
36944W        W45544   0.513   3.304   0.588  0.0780 -0.0369 -0.0622
36945W        W45545   2.012   0.405  35.146 -0.0793  0.3720 -0.1456
36946W        W45546   2.506   5.745  13.160 -0.1177  0.0881  0.0774
36947W        W45547   5.853   3.334  35.719 -0.1545 -0.0461 -0.3975
36948W        W45548   9.283   3.817  11.847 -0.3345 -0.0341 -0.0839
36949W        W45549   1.662   3.478  25.024  0.0620 -0.2635  0.0481
36950W        W45550   2.088   1.844  43.440 -0.0421  0.0239  0.0115
36951W        W45551  18.301   1.511  29.591  0.0041  0.1799 -0.0482
36952W        W45552  16.046   0.194  33.682  0.0502 -0.0862  0.1994
36953W        W45553  16.298   0.984   4.805  0.1171 -0.3370  0.1215
36954W        W45554   1.951   2.879  29.884  0.1336  0.0079  0.1356
36955W        W45555  12.740   1.708  36.071 -0.1294  0.1787 -0.1642
36956W        W45556   5.960   4.620  43.479 -0.3973 -0.1382  0.1266
36957W        W45557   5.046   2.571   0.924  0.2521 -0.1238  0.2377
36958W        W45558  15.794   6.504  20.695  0.0354 -0.2873 -0.3349
36959W        W45559   5.396   2.258  22.791  0.0106 -0.2975 -0.1311
36960W        W45560   5.298   0.784  31.580  0.3265  0.1474 -0.4357
36961W        W45561  18.014   5.850  13.814 -0.0072 -0.0336 -0.3468
36962W        W45562   9.021   0.037  30.421  0.0319  0.2733  0.2611
36963W        W45563  14.026   6.386  31.439  0.2214  0.2015 -0.3398
36964W        W45564   8.408   0.201   8.912  0.2961  0.0554  0.0279
36965W        W45565  15.247   5.904  19.525 -0.2685  0.3690 -0.2401
36966W        W45566  13.462   3.504  21.040 -0.3734 -0.0649  0.2270
36967W        W45567   4.202   4.856  43.043 -0.0434  0.2212  0.2822
36968W        W45568   5.071   6.327  34.762  0.0890  0.1900  0.0672
36969W        W45569  17.853   5.186  40.707  0.3152  0.1552 -0.0804
36970W        W45570  14.782   1.501  30.356 -0.1315  0.1895 -0.0426
36971W        W45571   2.151   1.892  44.780 -0.1951 -0.0619 -0.0158
36972W        W45572   1.284   3.787  35.208 -0.0232  0.1653  0.0598
36973W        W45573   5.576   5.414  33.375 -0.4069  0.0824 -0.0119
36974W        W45574  15.420   6.013  29.925 -0.2336  0.2934  0.2963
36975W        W45575  15.154   5.410  44.512  0.0433  0.0537 -0.0297
36976W        W45576  14.532   3.405   7.742 -0.0268 -0.0840  0.3319
36977W        W45577   7.143   4.509  23.781  0.1926 -0.1795 -0.0528
36978W        W45578  16.546   2.637   8.774 -0.0105  0.2807  0.4103
36979W        W45579   8.081   0.326  10.188  0.1057 -0.1453 -0.0304
36980W        W45580   8.848   1.522   2.193  0.1667  0.0563 -0.0790
36981W        W45581  15.434   2.892  22.836 -0.0200 -0.0867  0.2070
36982W        W45582  16.162   1.063  42.750 -0.0743 -0.1359 -0.1249
36983W        W45583  19.425   1.875  17.448 -0.0429  0.4773 -0.3193
36984W        W45584  10.101   1.994  42.917  0.4367  0.1616 -0.0289
36985W        W45585  17.010   5.620  40.771 -0.0776  0.0575  0.2184
36986W        W45586   8.724   0.889  14.117  0.1823  0.2470 -0.1638
36987W        W45587  16.948   4.090  14.784 -0.0378  0.0358  0.0457
36988W        W45588   4.922   5.206  40.956 -0.0546 -0.0303  0.1836
36989W        W45589   9.597   0.779  37.753 -0.3897 -0.1625 -0.1020
36990W        W45590   7.350   0.172  22.830 -0.1198 -0.1387 -0.0883
36991W        W45591   6.674   6.076  10.543 -0.1156  0.0848 -0.1808
36992W        W45592  19.262   1.413  30.171 -0.3434 -0.1337 -0.2163
36993W        W45593   4.177   5.015   7.028  0.3038 -0.2214  0.0270
36994W        W45594  16.260   2.652  14.237 -0.0731  0.0338  0.1468
36995W        W45595  11.158   1.179  16.877  0.2071 -0.0471  0.0473
36996W        W45596   4.056   5.966  40.453  0.1121 -0.3545 -0.2960
36997W        W45597  16.819   1.281  12.268 -0.2311 -0.3137  0.1384
36998W        W45598   5.697   5.373   2.418 -0.1745  0.1993  0.1365
36999W        W45599   2.488   1.931  29.888  0.1980  0.0701  0.0282
37000W        W45600  20.216   4.976  33.894 -0.0515  0.4563  0.0407
37001W        W45601  17.584   4.101  42.948  0.2757 -0.1549  0.0548
37002W        W45602  15.332   5.980   6.916 -0.1254 -0.0775  0.0419
37003W        W45603   5.383   1.182   5.026 -0.0908 -0.0865  0.0814
37004W        W45604  15.446   3.565  38.334  0.1008 -0.0725 -0.0338
37005W        W45605   8.885   0.919   3.769 -0.1709  0.0555 -0.0915
37006W        W45606  11.689   5.955   8.830  0.0818 -0.2326 -0.2651
37007W        W45607   5.700   5.347   1.456 -0.0474  0.0705  0.0578
37008W        W45608  17.020   4.831  11.307 -0.0316  0.2521 -0.1808
37009W        W45609   8.863   4.088  42.599  0.0321  0.2003  0.3508
37010W        W45610  20.584   3.661  35.762  0.0487 -0.0406  0.1342
37011W        W45611   3.004   1.761   5.727  0.0886 -0.3291 -0.0901
37012W        W45612  11.945   2.052   4.330  0.0345 -0.1859  0.0175
37013W        W45613   2.099   2.381  12.731 -0.1295  0.1250 -0.0750
37014W        W45614  15.355   0.472   4.775 -0.1913  0.1065 -0.0742
37015W        W45615   8.355   1.800   8.914 -0.0397  0.2753  0.3075
37016W        W45616  15.121   3.331  39.897 -0.3027 -0.1137  0.0995
37017W        W45617   2.634   2.430  37.831  0.2240  0.0644 -0.3297
37018W        W45618   6.779   5.282   0.431 -0.0265  0.0789 -0.1078
37019W        W45619  10.116   1.149  12.200  0.0604  0.0014  0.3009
37020W        W45620  20.057   0.053  42.828  0.0374  0.0465  0.0626
37021W        W45621   5.428   0.828   0.238 -0.3449  0.4276 -0.2666
37022W        W45622   1.564   5.398  29.117 -0.2630 -0.0033  0.3601
37023W        W45623  12.658   3.292  39.150  0.0069  0.0338  0.0439
37024W        W45624   6.687   0.100  24.292 -0.5712  0.3410  0.0832
37025W        W45625  16.821   3.748  17.715  0.1893 -0.0387 -0.0933
37026W        W45626  17.454   6.114  23.550  0.0410 -0.0319 -0.1645
37027W        W45627   7.877   2.604  37.061 -0.1582  0.2141  0.0811
37028W        W45628  12.854   6.536  40.036 -0.1189  0.0814 -0.0823
37029W        W45629  18.192   0.917   9.177 -0.1180 -0.0057  0.0548
37030W        W45630   2.522   5.921  31.730  0.0802 -0.4450  0.2337
37031W        W45631  10.130   5.174  41.399 -0.1846  0.1526  0.1003
37032W        W45632  17.508   6.096  30.952  0.1212  0.1422  0.3737
37033W        W45633  19.495   2.768  40.814  0.0526 -0.0651  0.0514
37034W        W45634   1.641   4.083  35.435 -0.1584  0.3622 -0.1752
37035W        W45635  18.619   3.087  19.836  0.0325 -0.1094 -0.0482
37036W        W45636  14.635   4.246  11.419 -0.1681  0.0226 -0.1649
37037W        W45637  16.018   1.996  12.645 -0.2441  0.0764  0.4291
37038W        W45638   0.388   6.587  42.780  0.1212  0.0610  0.3170
37039W        W45639   4.576   3.254  39.433 -0.0289  0.2444  0.2394
37040W        W45640  19.547   5.360  13.703  0.1092  0.0337  0.0176
37041W        W45641   0.674   4.042  40.411  0.0543 -0.0299  0.3150
37042W        W45642   1.467   6.404  28.936 -0.0151  0.1016  0.0113
37043W        W45643   3.415   0.619  27.064  0.2175 -0.3404  0.0475
37044W        W45644  10.513   6.060  28.504 -0.0632  0.0438 -0.3957
37045W        W45645  10.241   2.846  41.160 -0.1656 -0.3481  0.1919
37046W        W45646   6.121   5.843   0.235  0.1853  0.1681  0.1880
37047W        W45647  15.973   3.110  15.334  0.2174  0.3080  0.1914
37048W        W45648  14.690   5.568  16.481 -0.0558  0.0781 -0.2828
37049W        W45649   8.512   3.140  12.972 -0.0320 -0.2439 -0.1764
37050W        W45650   9.549   1.941  44.608  0.0376  0.0142 -0.3149
37051W        W45651   9.808   2.715  34.752 -0.0185 -0.0824  0.1093
37052W        W45652  14.339   2.896  35.075  0.1308  0.0116  0.0544
37053W        W45653   1.052   4.640  12.540  0.2373  0.0257 -0.2576
37054W        W45654   7.059   3.354  35.945  0.0075  0.2917 -0.2777
37055W        W45655  14.665   3.737  12.932  0.1698 -0.0002 -0.3915
37056W        W45656   4.646   0.530  33.825 -0.1335  0.2700  0.3498
37057W        W45657   7.428   3.742  36.175  0.0127  0.0515 -0.2682
37058W        W45658   7.625   1.158  27.768  0.0908  0.0417  0.0556
37059W        W45659  20.979   2.388  28.104 -0.0102  0.0603 -0.0641
37060W        W45660  10.184   3.878   6.427 -0.1413  0.1027 -0.2123
37061W        W45661   0.525   3.765  39.867 -0.2504 -0.0977 -0.3727
37062W        W45662  20.664   3.883  12.457 -0.0495  0.1642 -0.1576
37063W        W45663   4.284   1.289  27.579 -0.0124  0.1371  0.1011
37064W        W45664  13.879   6.582  41.937 -0.0092  0.0415  0.1473
37065W        W45665   7.098   0.542  41.468 -0.2617 -0.1634  0.1074
37066W        W45666  21.045   1.690  38.284 -0.2785 -0.0158  0.1128
37067W        W45667  18.691   3.607  19.871 -0.2168  0.4692 -0.2461
37068W        W45668   0.328   3.483  15.539 -0.1004 -0.1869 -0.1170
37069W        W45669   9.248   3.322   8.985 -0.2067  0.0887 -0.1196
37070W        W45670  13.308   0.261  37.314  0.3044 -0.3195 -0.2490
37071W        W45671  19.045   5.948   3.936  0.1546  0.1378  0.2916
37072W        W45672  10.848   6.436  38.498  0.0462  0.1717 -0.0640
37073W        W45673  20.801   4.405   5.588  0.1316 -0.1780  0.0460
37074W        W45674   3.966   4.004  11.087  0.0335  0.2912  0.3013
37075W        W45675  11.512   2.772   9.102 -0.1073  0.3680  0.1924
37076W        W45676  18.814   5.368  30.381  0.2158 -0.1837 -0.1608
37077W        W45677   4.675   5.952   5.605  0.2126 -0.0665 -0.1227
37078W        W45678  17.804   1.225  33.863 -0.1218  0.1576  0.2413
37079W        W45679  12.309   1.094  11.124 -0.1750  0.1098  0.0354
37080W        W45680  11.094   3.825  18.024 -0.0734 -0.0734  0.1989
37081W        W45681  16.021   1.950  10.943 -0.2940 -0.1768  0.0347
37082W        W45682   8.317   6.377   7.285  0.0893  0.0092  0.2088
37083W        W45683   9.450   3.779  45.078 -0.0943  0.2032  0.2951
37084W        W45684  13.126   1.076  42.875  0.0601  0.1098 -0.1356
37085W        W45685   1.875   3.903  38.461  0.0099  0.1397  0.2529
37086W        W45686  11.310   4.869  28.980 -0.0355 -0.2757  0.0570
37087W        W45687  15.533   6.021  23.217 -0.1071 -0.1040 -0.1876
37088W        W45688   5.459   4.155  11.017  0.1800  0.2430  0.3055
37089W        W45689  18.230   4.982  40.359  0.0432 -0.0610 -0.1429
37090W        W45690  10.459   6.394   6.648 -0.1845 -0.1605 -0.0249
37091W        W45691  17.975   1.838  30.391 -0.1364 -0.1822  0.0558
37092W        W45692  17.689   1.346  31.568  0.0591 -0.0411 -0.0603
37093W        W45693   6.993   3.805  39.280 -0.2882  0.0779  0.1703
37094W        W45694  13.703   1.631  37.500  0.1418 -0.1544 -0.0448
37095W        W45695   2.301   4.546  32.521 -0.1904 -0.3017  0.1393
37096W        W45696   0.212   4.949   4.236  0.3487  0.0176 -0.1864
37097W        W45697  13.898   2.266  31.150 -0.0688 -0.3213  0.0343
37098W        W45698  13.697   4.220  30.750  0.1765  0.0608 -0.2592
37099W        W45699   1.893   1.323   2.588  0.1249 -0.1092  0.0470
37100W        W45700   0.391   4.537   5.385  0.2576  0.2524 -0.1153
37101W        W45701   9.430   3.583  44.054  0.0211 -0.0312 -0.0039
37102W        W45702  12.522   3.908  44.738  0.2124  0.0775 -0.3363
37103W        W45703   2.523   0.319   7.572  0.0083 -0.0344 -0.1339
37104W        W45704   2.279   2.083  37.919 -0.2822  0.3063  0.0936
37105W        W45705   1.704   4.639  15.973 -0.0927 -0.1274  0.2305
37106W        W45706   0.470   5.396  37.111  0.0540 -0.0529 -0.0772
37107W        W45707  16.344   2.024  44.334  0.1440 -0.2487  0.1430
37108W        W45708   2.163   2.591  15.538  0.0106  0.0296  0.1458
37109W        W45709   1.560   5.740   1.953  0.3271 -0.3113 -0.1513
37110W        W45710  18.348   0.070  15.215  0.1540 -0.2245  0.3039
37111W        W45711   7.439   5.421  14.390  0.2575 -0.0785 -0.0298
37112W        W45712   4.416   0.270  40.488 -0.3432 -0.0691 -0.0291
37113W        W45713   2.261   3.044   2.440  0.0407  0.3758  0.1865
37114W        W45714   1.228   0.004   4.100 -0.2779 -0.0674 -0.1728
37115W        W45715  18.874   5.238  17.662 -0.2528 -0.1112 -0.0685
37116W        W45716   6.668   0.079   5.648  0.0472 -0.0132 -0.1140
37117W        W45717  20.175   2.079  28.436 -0.4262  0.1779 -0.0056
37118W        W45718   4.652   1.364  33.587 -0.2633  0.0219 -0.1990
37119W        W45719   9.983   6.160   6.195 -0.1079  0.1228 -0.0365
37120W        W45720   2.637   0.668  12.228 -0.1984  0.0903 -0.3206
37121W        W45721   7.118   3.325  36.443  0.0386  0.1221 -0.0493
37122W        W45722   2.917   1.448  32.902  0.1647 -0.0704 -0.0280
37123W        W45723  11.672   4.702   2.823  0.0834 -0.1022  0.0606
37124W        W45724   2.461   4.256  35.018 -0.0930 -0.1167  0.2609
37125W        W45725  17.149   4.748  44.971  0.3553 -0.1176  0.0900
37126W        W45726   5.064   4.495  26.341  0.1700  0.2704  0.1745
37127W        W45727   3.154   1.677  25.459  0.1078 -0.0118 -0.2327
37128W        W45728  18.920   5.784   5.260 -0.1648 -0.2615 -0.1625
37129W        W45729   2.842   4.064   2.309  0.0111 -0.0873  0.1324
37130W        W45730  17.873   2.766  19.066  0.1309  0.1760 -0.2488
37131W        W45731  18.706   4.030  36.655  0.1072 -0.1976  0.0178
37132W        W45732   9.139   4.310  44.464 -0.0048 -0.0984  0.0394
37133W        W45733   5.074   3.345  13.975  0.1618 -0.0844 -0.0201
37134W        W45734  13.214   1.155  21.437  0.0355  0.0788  0.0260
37135W        W45735   7.038   1.719  33.403 -0.2904  0.2418  0.2091
37136W        W45736   1.734   2.365  39.370 -0.0076 -0.0831 -0.2973
37137W        W45737   5.822   5.996  40.773 -0.0065  0.0269 -0.1507
37138W        W45738  15.089   5.582  18.882  0.1414  0.0820  0.2132
37139W        W45739   6.767   3.986  15.186 -0.0511 -0.2355  0.2381
37140W        W45740  12.338   4.924  29.118 -0.0629 -0.1114 -0.1333
37141W        W45741   1.210   6.066   4.862 -0.1722 -0.1681  0.2782
37142W        W45742   0.492   3.535  11.881  0.0390  0.2750 -0.1732
37143W        W45743   8.739   2.050   7.911  0.2727 -0.1765 -0.0481
37144W        W45744  19.411   3.694  40.300 -0.2481  0.0066 -0.0442
37145W        W45745   4.342   0.026  26.064 -0.3115 -0.0344 -0.0008
37146W        W45746   3.334   6.034  23.932 -0.0624 -0.0414 -0.0641
37147W        W45747   5.628   2.002   0.257  0.0647 -0.1304 -0.2892
37148W        W45748  10.782   0.120  40.206  0.0096 -0.1777  0.0181
37149W        W45749   2.869   3.643  31.088 -0.0351 -0.1823 -0.2817
37150W        W45750  11.664   5.025   9.362  0.1700 -0.0675  0.3054
37151W        W45751  19.403   3.446  17.768 -0.0498 -0.1722  0.0827
37152W        W45752   8.124   6.047  36.254  0.1400 -0.0944  0.2023
37153W        W45753   1.562   4.997  29.838  0.2531  0.0772 -0.4199
37154W        W45754  20.936   0.415  14.579  0.1130  0.0381 -0.1287
37155W        W45755  13.092   6.317  33.524  0.0295 -0.0391  0.0591
37156W        W45756  11.851   2.401  11.855  0.0878  0.0946  0.1316
37157W        W45757   2.783   2.730   7.326  0.1059 -0.1658 -0.0758
37158W        W45758   1.075   2.776  36.751  0.0641  0.0457 -0.1729
37159W        W45759   1.679   1.197  41.827 -0.0073  0.0221  0.0493
37160W        W45760   9.946   1.171  13.220  0.4540 -0.2270 -0.3550
37161W        W45761  10.546   1.232  34.535  0.0163 -0.4331  0.0729
37162W        W45762   0.022   3.662  27.774  0.0514  0.1178  0.0427
37163W        W45763   7.950   4.856  11.907 -0.0939  0.1449  0.2063
37164W        W45764  12.964   0.711  18.208  0.1768  0.1912 -0.1276
37165W        W45765   7.517   1.732   0.071 -0.0946 -0.0057 -0.1228
37166W        W45766   3.105   1.276  34.295  0.2195 -0.0495 -0.1613
37167W        W45767  10.561   2.305  37.843  0.0624  0.0619 -0.0544
37168W        W45768  13.875   2.847  33.767  0.0932  0.2022  0.0555
37169W        W45769   6.345   5.798   4.495  0.0227 -0.4074  0.0185
37170W        W45770  10.728   0.035   3.394  0.1130 -0.0305 -0.0740
37171W        W45771  14.213   2.042  14.983 -0.2320 -0.5304 -0.2623
37172W        W45772   7.621   2.103   1.935 -0.1178  0.0159 -0.0118
37173W        W45773  16.791   5.982  34.764 -0.0810 -0.1053  0.0355
37174W        W45774   6.456   4.144  31.392 -0.1383 -0.0581  0.0732
37175W        W45775   6.450   2.539  43.073  0.2389  0.0700 -0.1659
37176W        W45776   1.361   6.397  33.692 -0.1376  0.0883  0.2184
37177W        W45777   7.617   3.826   4.744 -0.0445 -0.2354  0.1005
37178W        W45778  15.866   5.571  44.174 -0.1359 -0.2789 -0.1014
37179W        W45779   7.536   3.178  28.468  0.2756  0.0796 -0.1803
37180W        W45780   9.636   3.378   3.944  0.2002 -0.0609  0.1851
37181W        W45781   3.346   0.830  39.096  0.1253 -0.0945  0.3565
37182W        W45782   3.271   4.739  40.316 -0.2495  0.0903  0.3302
37183W        W45783   6.884   2.331   7.696  0.0419 -0.0583 -0.0110
37184W        W45784  16.919   0.712  12.502  0.1494  0.1777  0.2541
37185W        W45785  14.617   4.344  30.742 -0.0649  0.2778 -0.0751
37186W        W45786  15.636   4.403   2.140  0.2954  0.1056  0.0690
37187W        W45787   5.372   4.315  22.261 -0.3508  0.0162 -0.1415
37188W        W45788   0.138   3.590  37.657  0.2577 -0.2705  0.2101
37189W        W45789   3.772   3.802  12.516 -0.0176 -0.1348  0.4091
37190W        W45790   8.575   4.704  25.395  0.2731 -0.3332  0.3778
37191W        W45791   9.036   4.808   8.030  0.2570  0.3503 -0.1107
37192W        W45792  10.915   4.279  26.851 -0.1342 -0.0874  0.1080
37193W        W45793   7.923   4.007   8.936 -0.1134 -0.2188  0.0958
37194W        W45794  14.964   5.061  40.202 -0.2953  0.1282 -0.3132
37195W        W45795   3.272   2.877  12.351  0.2803 -0.2659  0.2494
37196W        W45796  13.144   0.594  16.667 -0.1207  0.0737 -0.2647
37197W        W45797  16.118   5.104  24.930 -0.0168  0.0529 -0.2260
37198W        W45798  12.316   0.472  11.120  0.1673 -0.1427 -0.3694
37199W        W45799   1.748   5.990  25.632 -0.1663 -0.0107  0.1727
37200W        W45800  10.999   4.753   1.991  0.3272 -0.0267 -0.2426
37201W        W45801  18.532   0.075  30.805 -0.0730  0.0089  0.1330
37202W        W45802   7.544   2.114   3.886  0.0191  0.2183  0.0718
37203W        W45803   9.123   5.581  15.684 -0.1241 -0.0088  0.0659
37204W        W45804  17.728   2.105  15.773  0.3332 -0.0195 -0.0811
37205W        W45805   4.291   2.733   3.789  0.0364  0.0581 -0.0398
37206W        W45806  17.343   1.824  39.600 -0.0865  0.0146 -0.2390
37207W        W45807  11.996   0.333  15.162  0.0978 -0.1869  0.0437
37208W        W45808   3.700   0.610  24.654 -0.1797  0.3621  0.4181
37209W        W45809  13.789   2.638  29.478 -0.1407 -0.2864 -0.0411
37210W        W45810   0.279   0.356  34.391  0.1605  0.0444  0.1901
37211W        W45811  11.726   5.147  10.762  0.1706  0.0389 -0.4924
37212W        W45812   5.759   0.460  31.488 -0.0795  0.0308  0.0801
37213W        W45813  18.186   5.555  37.719 -0.1663  0.3241  0.3326
37214W        W45814  15.638   2.700  22.419  0.1687 -0.1214  0.1008
37215W        W45815   7.930   0.306  41.007 -0.2338  0.2417 -0.0189
37216W        W45816  14.511   4.502  39.036  0.2030 -0.1748 -0.0960
37217W        W45817  14.988   0.543  22.712 -0.1259  0.0300 -0.1317
37218W        W45818  12.665   5.911  17.179  0.0489  0.3986 -0.1232
37219W        W45819  11.848   2.296  29.262  0.1720  0.1412 -0.0388
37220W        W45820  13.610   5.419  39.950  0.1444 -0.1161 -0.2073
37221W        W45821  14.140   4.979  43.104  0.0926 -0.1752  0.2466
37222W        W45822   7.937   2.184  37.694  0.1212  0.4393 -0.1644
37223W        W45823   4.542   3.995  38.168 -0.3084  0.1804  0.0896
37224W        W45824   4.476   3.006  33.097  0.0345 -0.1616 -0.0828
37225W        W45825   3.953   0.418  10.264 -0.3532 -0.1525  0.0067
37226W        W45826  17.861   6.546  31.915 -0.1940 -0.1444  0.3205
37227W        W45827   8.934   6.247   0.774  0.0314  0.2582 -0.0042
37228W        W45828  11.028   5.253  44.989  0.1948 -0.2390 -0.1063
37229W        W45829   4.317   1.147  10.094  0.0065  0.1082 -0.0902
37230W        W45830  20.681   3.437  27.766 -0.0162  0.1275 -0.1840
37231W        W45831   7.109   0.701  43.989 -0.7499 -0.2187 -0.0064
37232W        W45832  13.397   5.717   4.686 -0.1597  0.0723 -0.1497
37233W        W45833  20.327   1.338  28.860  0.2949  0.1204 -0.1418
37234W        W45834   4.975   4.377  30.277  0.1041 -0.0601 -0.1654
37235W        W45835  16.003   0.149   7.825  0.0356  0.3000 -0.0222
37236W        W45836  19.741   1.341  16.761 -0.0355  0.4186 -0.0066
37237W        W45837   1.345   6.538  39.064  0.1076  0.2043  0.1510
37238W        W45838   2.404   3.926  32.159 -0.0692 -0.2981 -0.1228
37239W        W45839  10.078   4.630  25.553  0.0088 -0.0463 -0.2460
37240W        W45840  19.874   0.902  15.371 -0.1662  0.0186 -0.0639
37241W        W45841   0.632   5.387  16.865 -0.1016  0.1615  0.1728
37242W        W45842   2.181   0.614  11.918  0.1649 -0.1157  0.1650
37243W        W45843   0.605   2.789  14.321  0.2492 -0.0631  0.0433
37244W        W45844  12.466   3.471  13.779  0.1661 -0.3564  0.2121
37245W        W45845   0.990   1.461  16.803 -0.1825  0.1406 -0.2467
37246W        W45846  11.109   4.715  27.938 -0.0226  0.2162  0.0144
37247W        W45847  10.067   1.034   5.892 -0.2138 -0.0215  0.1094
37248W        W45848   1.583   1.211  26.823  0.2564 -0.0027 -0.2668
37249W        W45849  15.717   2.583  17.292 -0.0697 -0.0951  0.0837
37250W        W45850  19.501   1.343  10.587  0.0378  0.1672  0.1304
37251W        W45851  17.282   2.215  11.239 -0.4551 -0.1610  0.2310
37252W        W45852  17.432   4.577  21.321  0.0451 -0.1593 -0.0137
37253W        W45853   5.939   6.247   9.352  0.1483  0.5640 -0.0472
37254W        W45854  17.313   0.489  10.991 -0.3390  0.0570  0.0804
37255W        W45855  11.521   4.314  36.090 -0.0116 -0.1778  0.0338
37256W        W45856   9.273   0.402  42.291  0.1773 -0.5067  0.5058
37257W        W45857  10.371   0.985   0.855 -0.0214 -0.0246  0.1063
37258W        W45858  14.881   0.627  37.096 -0.1390  0.4943  0.2161
37259W        W45859  17.905   1.634  29.875 -0.0815  0.1321 -0.2415
37260W        W45860  11.913   1.779  19.151  0.0932 -0.1516 -0.0345
37261W        W45861  18.581   3.175  37.051  0.2684 -0.2113  0.1279
37262W        W45862   4.189   0.347   2.412 -0.2616  0.2900  0.0523
37263W        W45863   1.299   2.745  41.655  0.4121 -0.0991 -0.1351
37264W        W45864   6.807   2.443   2.106  0.2716 -0.1390 -0.0458
37265W        W45865   2.225   6.538  29.381  0.1029 -0.2530 -0.0049
37266W        W45866   0.446   3.735  36.141 -0.0525 -0.0803 -0.0376
37267W        W45867  12.110   6.473  41.840 -0.2826 -0.0531 -0.1623
37268W        W45868  20.203   1.922  14.143  0.0383  0.0494 -0.1428
37269W        W45869   7.774   3.303  25.545 -0.0141  0.1080  0.0707
37270W        W45870   9.206   0.934   1.558  0.0832 -0.0743  0.1528
37271W        W45871  18.206   5.361   0.381 -0.1504  0.0640 -0.0581
37272W        W45872  18.548   0.290  37.759  0.0676  0.2681  0.3185
37273W        W45873   9.779   6.278  39.344  0.0279 -0.2359  0.1596
37274W        W45874  21.009   5.813   7.725  0.4212 -0.1345 -0.1387
37275W        W45875   3.180   1.582  14.225 -0.1103  0.0355  0.1257
37276W        W45876   7.256   4.200  33.413 -0.2308 -0.0333  0.0140
37277W        W45877   4.639   1.206  30.234  0.0113 -0.2700 -0.1064
37278W        W45878   3.838   6.488  27.316  0.1485 -0.0943 -0.0995
37279W        W45879  12.969   1.975  36.420 -0.1684  0.1630  0.3345
37280W        W45880  16.869   3.661  31.987 -0.2493 -0.0875 -0.2639
37281W        W45881  18.768   1.165  11.838  0.1837  0.0427 -0.1289
37282W        W45882  14.261   5.336  19.865  0.2120 -0.0234  0.0975
37283W        W45883   4.251   4.496  26.425  0.3762  0.0597  0.0376
37284W        W45884  14.548   4.891  19.912  0.2500 -0.2558  0.4922
37285W        W45885   3.283   5.468  41.046 -0.1423  0.2774  0.0855
37286W        W45886   7.678   0.597  36.239 -0.1612  0.1480  0.0563
37287W        W45887  11.352   5.022  33.576 -0.1204  0.0093  0.1169
37288W        W45888  10.067   4.020  37.676 -0.1436 -0.0982  0.1760
37289W        W45889  12.512   2.750  32.952  0.2613 -0.4113  0.0044
37290W        W45890   2.735   5.949  11.878  0.1980 -0.1123 -0.0137
37291W        W45891   0.717   0.846  37.480  0.2306  0.1743  0.0896
37292W        W45892   4.833   1.362  11.764  0.0519  0.0558 -0.2987
37293W        W45893  13.964   1.343  30.093 -0.0371 -0.0526 -0.1288
37294W        W45894   5.426   2.805  27.410  0.1308 -0.1034 -0.3800
37295W        W45895  15.635   4.235  14.840  0.2976  0.0316 -0.0137
37296W        W45896   2.452   4.691  37.021  0.0643 -0.3127  0.1856
37297W        W45897  20.022   2.811  40.604 -0.2384  0.3596 -0.1530
37298W        W45898  11.827   1.057   7.833  0.0325 -0.3643 -0.1624
37299W        W45899   1.284   1.742  34.313 -0.0594 -0.2136  0.0053
37300W        W45900   8.254   5.658   3.655  0.2361 -0.3762 -0.1048
37301W        W45901   8.890   5.710  41.096 -0.7329  0.2750 -0.1312
37302W        W45902  12.264   0.022  31.799 -0.0222 -0.1180 -0.0089
37303W        W45903   7.763   5.340  34.011  0.0701 -0.0691 -0.3145
37304W        W45904  18.633   2.704  32.723 -0.1768 -0.0585 -0.0556
37305W        W45905  16.203   3.387  14.932  0.6362  0.1224  0.1163
37306W        W45906   1.472   4.198  41.063  0.0287  0.0482 -0.0698
37307W        W45907   9.213   4.482   7.638  0.1880  0.1802 -0.1127
37308W        W45908   4.110   0.183  32.467 -0.2382 -0.1620  0.1980
37309W        W45909  13.809   3.981  35.921  0.2431  0.0647 -0.2217
37310W        W45910  15.515   4.602  39.495  0.0366  0.0643 -0.0286
37311W        W45911  11.753   5.578   6.598  0.4150 -0.0967  0.1180
37312W        W45912  19.910   4.261  20.934 -0.0825  0.1388 -0.1929
37313W        W45913  14.461   4.910  28.725 -0.1041  0.2171  0.2928
37314W        W45914   3.059   2.080  29.808 -0.1581 -0.0816 -0.1425
37315W        W45915   8.570   5.870  30.495  0.0470 -0.1940 -0.3867
37316W        W45916  15.490   1.400  41.942  0.1018 -0.1672  0.0771
37317W        W45917   5.835   1.926   8.834  0.0171  0.1039 -0.1434
37318W        W45918  12.245   2.128  26.693  0.2229 -0.0661 -0.0293
37319W        W45919   4.512   0.312  13.834 -0.3208 -0.1429  0.0892
37320W        W45920   0.433   4.736  41.344  0.0840  0.2167 -0.1380
37321W        W45921   8.638   2.399   6.996 -0.0874  0.2024  0.0231
37322W        W45922  16.665   3.700  14.070  0.0712  0.0673  0.0965
37323W        W45923   6.336   4.902   9.182  0.1692 -0.0650 -0.0418
37324W        W45924  11.895   0.025   3.939  0.1284 -0.1884 -0.0725
37325W        W45925  17.391   2.582  44.125  0.1390 -0.0493  0.3068
37326W        W45926   0.162   2.254  18.185 -0.0689  0.2832 -0.1900
37327W        W45927  15.465   2.097  40.653 -0.1041 -0.0721 -0.1772
37328W        W45928  16.818   5.214   5.906  0.1649 -0.2044  0.0106
37329W        W45929   4.446   1.804  42.232 -0.1137 -0.2272  0.3346
37330W        W45930  17.398   1.933   8.708  0.5280 -0.1183 -0.0543
37331W        W45931   3.771   5.936   5.986  0.0534  0.3139 -0.0541
37332W        W45932   2.005   5.519  29.359 -0.1061 -0.0727 -0.0367
37333W        W45933  11.181   2.526   9.959  0.2244 -0.1126 -0.5960
37334W        W45934   5.120   2.979  12.505 -0.1559 -0.1118  0.1697
37335W        W45935  10.293   6.027   8.809  0.1801 -0.0606  0.0973
37336W        W45936  13.831   1.099   5.839  0.0213  0.0923 -0.1152
37337W        W45937  19.362   4.348  17.364  0.0867  0.0608 -0.3383
37338W        W45938   9.027   2.274  31.166 -0.0685  0.0343 -0.0758
37339W        W45939   8.680   3.836  42.196 -0.0336  0.0078  0.0864
37340W        W45940   1.144   0.858  31.214 -0.1800 -0.1789  0.1324
37341W        W45941  17.353   4.983   2.217 -0.0141 -0.1588 -0.1051
37342W        W45942  10.875   3.924  38.238 -0.1339  0.0905 -0.1365
37343W        W45943   5.366   2.820  36.016  0.3468  0.0078 -0.3579
37344W        W45944   1.311   1.584   6.031  0.1806 -0.2807 -0.1498
37345W        W45945   1.685   4.332  37.408 -0.1008  0.1149 -0.1788
37346W        W45946   6.641   1.070  31.087  0.1661  0.0028 -0.1938
37347W        W45947   4.225   4.685  37.123 -0.0119 -0.0175 -0.2119
37348W        W45948  19.362   1.899  30.077 -0.3318  0.0890  0.1444
37349W        W45949  20.333   5.832  36.342 -0.2464  0.1532  0.1204
37350W        W45950  15.012   5.556   1.117 -0.3993 -0.1270 -0.2514
37351W        W45951  17.281   2.278   9.051  0.0207 -0.0905 -0.0779
37352W        W45952   5.918   6.346   6.422 -0.0424 -0.0259 -0.0219
37353W        W45953   9.368   3.594   6.944  0.2872  0.0250 -0.0668
37354W        W45954  15.928   3.002  30.414  0.0861  0.0105 -0.2407
37355W        W45955  10.335   2.459  11.047  0.1969  0.0988  0.0792
37356W        W45956  14.228   1.415  32.373  0.0845  0.1120  0.1201
37357W        W45957  20.793   3.763  40.011  0.1171 -0.7538 -0.2353
37358W        W45958   3.049   5.551  43.860  0.1864 -0.2092  0.0305
37359W        W45959   7.599   0.665  40.167 -0.0816  0.0986  0.2522
37360W        W45960  18.080   1.673   6.506  0.0846 -0.0258  0.0963
37361W        W45961  14.951   1.862  37.897 -0.3114  0.2618 -0.3068
37362W        W45962  11.196   5.655  13.212  0.1393 -0.3391 -0.0243
37363W        W45963  12.900   1.914   1.909  0.0300 -0.0400 -0.0050
37364W        W45964   6.686   2.081  35.995  0.2137 -0.0791  0.3202
37365W        W45965   6.448   5.553  31.245  0.3661  0.0246  0.1733
37366W        W45966   5.740   5.499  45.110  0.3092 -0.3159 -0.3216
37367W        W45967   4.853   2.749  25.338 -0.1558 -0.3585  0.0958
37368W        W45968  12.072   2.890  40.115 -0.2058 -0.0454  0.2501
37369W        W45969   9.982   3.634  27.946 -0.2011 -0.1445  0.0391
37370W        W45970   1.960   4.469  38.595  0.2801 -0.1170 -0.3877
37371W        W45971  12.978   4.586  37.449  0.3039 -0.0366 -0.0973
37372W        W45972  19.618   1.309   1.375 -0.0721 -0.0750  0.1711
37373W        W45973   7.068   2.065  41.025  0.1037  0.0868  0.1977
37374W        W45974  17.655   3.069   2.043  0.4414  0.1409  0.3466
37375W        W45975   1.050   4.969  34.961  0.0526 -0.1544 -0.0463
37376W        W45976  16.285   2.500  44.162  0.1345 -0.1072 -0.2054
37377W        W45977   9.276   2.863  15.058  0.3416  0.0014  0.3235
37378W        W45978   9.977   6.014  13.396 -0.0121 -0.1933  0.1750
37379W        W45979   4.737   4.090  10.541 -0.0571  0.1409  0.0339
37380W        W45980  15.846   2.972  15.821 -0.1732  0.1868 -0.1792
37381W        W45981   1.406   3.536  30.718 -0.2000 -0.2697  0.0159
37382W        W45982  13.827   0.842  14.492 -0.0219 -0.0757  0.4587
37383W        W45983   1.970   0.369  39.745 -0.2189  0.0681 -0.3037
37384W        W45984   3.849   3.036  42.488  0.3427  0.3459  0.1406
37385W        W45985  11.006   3.280  13.081  0.0394  0.1289  0.1312
37386W        W45986  14.609   0.574  15.573  0.1525 -0.0496 -0.1192
37387W        W45987   4.210   5.637  14.050  0.6120  0.0454 -0.0305
37388W        W45988  10.983   2.124  42.717  0.3828 -0.2214 -0.2491
37389W        W45989  19.636   6.531  35.798  0.1629  0.0704  0.1321
37390W        W45990  20.108   0.126   1.339  0.0139 -0.2315 -0.0707
37391W        W45991  19.890   0.714   2.187 -0.0909  0.1536 -0.1113
37392W        W45992   8.421   1.700  26.972  0.1379  0.0071  0.0879
37393W        W45993  13.579   4.304  14.466  0.0295 -0.2096  0.0032
37394W        W45994   3.618   1.248   0.777 -0.1348 -0.1594 -0.0896
37395W        W45995   2.222   0.245  37.811  0.3282 -0.2862 -0.1346
37396W        W45996  16.731   4.010  24.285  0.3154 -0.1754 -0.4336
37397W        W45997  17.156   1.653  33.606  0.3174 -0.0325  0.3934
37398W        W45998   0.255   6.029  37.933  0.0074  0.1175  0.0361
37399W        W45999  16.568   4.969  17.758  0.0003 -0.1323 -0.1361
37400W        W46000  11.277   3.013  29.756 -0.4288 -0.2153 -0.1977
37401W        W46001   8.167   4.913  44.618  0.3181  0.1734  0.0223
37402W        W46002   8.287   6.160  10.962  0.1794  0.1106  0.0325
37403W        W46003   0.738   0.399  28.613 -0.1343 -0.1922 -0.0681
37404W        W46004   7.926   2.460  25.468  0.0184 -0.0856 -0.0451
37405W        W46005  20.257   6.036   5.819 -0.0469  0.0145 -0.3079
37406W        W46006  20.617   6.435  35.728  0.1155  0.0137  0.0489
37407W        W46007   8.549   6.032  26.639 -0.0685  0.0681 -0.0946
37408W        W46008  14.374   5.127  35.057  0.0530 -0.3799  0.1021
37409W        W46009  17.709   4.990  20.586  0.0523 -0.2335 -0.1247
37410W        W46010   6.598   3.478  16.662  0.1751 -0.1641  0.2370
37411W        W46011  12.758   6.113   4.163  0.3251 -0.1037  0.0003
37412W        W46012   6.373   1.894  28.509 -0.2221 -0.0879 -0.0994
37413W        W46013  18.747   2.425  21.287  0.2082  0.0235  0.1527
37414W        W46014   4.767   4.388   4.044 -0.2048  0.1232  0.1939
37415W        W46015   3.830   0.838  44.803 -0.0753  0.0340  0.3072
37416W        W46016  14.534   2.176  37.675  0.0939 -0.3190  0.1139
37417W        W46017  12.044   5.539  14.770 -0.2900  0.2839 -0.2033
37418W        W46018   9.347   3.701   6.015 -0.0482  0.2465  0.3905
37419W        W46019   2.226   4.283  35.831 -0.1830 -0.3569  0.1869
37420W        W46020   2.006   2.651  15.030  0.1922 -0.1495 -0.0472
37421W        W46021  14.610   1.073  37.693 -0.2559  0.1248 -0.1017
37422W        W46022  20.115   0.975  30.518  0.0325  0.0275 -0.2592
37423W        W46023  11.706   0.406  43.148 -0.1362 -0.0578  0.4857
37424W        W46024   0.476   1.063   1.849  0.0595  0.2781  0.0858
37425W        W46025  10.589   0.234  37.038 -0.1528  0.3372  0.0126
37426W        W46026   4.781   5.549  40.652 -0.2840 -0.1843  0.1753
37427W        W46027  17.450   5.289  14.799 -0.0402  0.1166  0.4223
37428W        W46028   0.778   5.518   2.121 -0.0241  0.1871 -0.3325
37429W        W46029   0.958   2.293  36.405 -0.2030 -0.0483  0.0953
37430W        W46030  11.869   1.381  33.034 -0.1917  0.2422  0.0086
37431W        W46031  15.214   2.780  41.616  0.0333  0.2673  0.1367
37432W        W46032  17.570   3.252  33.011 -0.2279 -0.0576  0.1170
37433W        W46033  18.513   4.914   5.369  0.1401 -0.0381  0.2363
37434W        W46034  17.311   1.596  43.732  0.1273 -0.1895  0.0934
37435W        W46035   0.087   4.483  15.799 -0.1844 -0.1247  0.0783
37436W        W46036   4.020   5.549   7.727 -0.0689  0.0480  0.2327
37437W        W46037  19.592   2.239   3.478  0.2097 -0.1819  0.1398
37438W        W46038   7.066   0.337  39.728  0.2369  0.3833  0.1046
37439W        W46039   6.510   5.820  27.136 -0.0853  0.1030 -0.2837
37440W        W46040   6.580   2.611  10.773  0.0619  0.2665  0.2475
37441W        W46041  11.835   5.551   9.171 -0.0666  0.1643 -0.0532
37442W        W46042   9.195   2.938  36.706 -0.3130  0.0824 -0.0867
37443W        W46043   9.647   3.088  42.675 -0.1926  0.1669 -0.0620
37444W        W46044  12.483   4.247  36.124  0.0814 -0.3634  0.1575
37445W        W46045  14.325   3.226  40.919 -0.2451  0.2634  0.2543
37446W        W46046  19.303   0.058  14.698  0.0767  0.3518  0.2298
37447W        W46047  13.321   2.782  10.424 -0.2500 -0.1531  0.0444
37448W        W46048   7.759   6.275  33.571 -0.1028 -0.3632  0.1002
37449W        W46049  19.035   4.109   5.747 -0.2408  0.1106 -0.2414
37450W        W46050  11.491   0.970  10.569 -0.1013  0.1717 -0.1314
37451W        W46051   3.041   5.448  14.928  0.3841  0.1807  0.2411
37452W        W46052  21.071   1.663  42.309 -0.1608  0.2651  0.2099
37453W        W46053  19.801   5.122  15.016 -0.3292 -0.0752  0.1227
37454W        W46054  14.566   6.063   3.711  0.2577  0.1719 -0.2907
37455W        W46055  19.075   4.439  38.649  0.2827  0.2615  0.0990
37456W        W46056  19.210   0.959   2.666  0.3238  0.2814 -0.2761
37457W        W46057  18.931   6.078   1.159  0.0531 -0.1509  0.0497
37458W        W46058  17.999   0.296   3.005  0.0161 -0.0283 -0.1322
37459W        W46059   6.580   2.013   7.998 -0.4542  0.0794 -0.0404
37460W        W46060   0.926   3.995  42.281  0.0010 -0.0846 -0.2422
37461W        W46061   7.241   5.965  29.158 -0.3798 -0.2837  0.2422
37462W        W46062  20.035   3.089  36.487 -0.1325 -0.0343  0.1048
37463W        W46063  15.948   6.450  19.054 -0.0186 -0.0995 -0.3472
37464W        W46064   9.286   5.670  35.731  0.4775  0.2669  0.0026
37465W        W46065   3.940   6.271  39.836  0.1535  0.0831  0.0041
37466W        W46066   7.601   2.061  33.136  0.0976  0.0073  0.1091
37467W        W46067  16.348   3.912   5.628  0.0509  0.2381  0.1251
37468W        W46068  15.795   5.484  13.182  0.2351 -0.0265  0.1549
37469W        W46069  10.921   2.106  28.938  0.0531  0.2730  0.0328
37470W        W46070   4.070   1.032   5.574 -0.0798  0.0713  0.0174
37471W        W46071  10.752   0.017  35.058 -0.0212  0.0420 -0.0520
37472W        W46072   7.696   1.079  11.698  0.1285 -0.0559 -0.0877
37473W        W46073   3.368   2.635   4.220  0.1473 -0.0890  0.0624
37474W        W46074   5.726   2.417  11.374 -0.0683 -0.1103 -0.0335
37475W        W46075  16.512   1.601  11.462  0.0651 -0.1742  0.0209
37476W        W46076   0.066   0.675  28.355  0.2437  0.0518  0.4206
37477W        W46077  17.561   4.608   1.336 -0.0755 -0.2122  0.1866
37478W        W46078   5.286   1.969   8.937  0.0156 -0.0311  0.1913
37479W        W46079  14.785   1.092   4.180 -0.5256  0.1399  0.2738
37480W        W46080  17.503   5.522   0.927 -0.1301  0.0109  0.1365
37481W        W46081   5.748   3.711   4.932 -0.1261 -0.0025  0.0679
37482W        W46082  14.573   4.482   8.797  0.1329  0.0079  0.1815
37483W        W46083  18.001   3.346  37.729 -0.0724 -0.4179  0.2750
37484W        W46084  20.541   1.440  12.861 -0.1581  0.3493  0.0052
37485W        W46085   7.670   6.092  34.175 -0.0643 -0.5123  0.1119
37486W        W46086  13.268   1.146  36.712  0.0892  0.4785 -0.1251
37487W        W46087  11.176   0.144  16.594 -0.3688 -0.0710  0.2324
37488W        W46088   3.001   2.407  30.864 -0.1967 -0.0457 -0.1338
37489W        W46089   4.559   5.474  38.175  0.2445 -0.2128  0.0370
37490W        W46090   8.691   4.140  33.507 -0.0309  0.1102  0.2248
37491W        W46091  20.667   4.162  11.747  0.0474  0.0590  0.0092
37492W        W46092  10.782   1.868   1.701 -0.0356 -0.0591  0.1053
37493W        W46093  18.810   1.607  15.056 -0.1189 -0.2239 -0.1380
37494W        W46094  11.985   6.605  30.760  0.2787  0.0630  0.0073
37495W        W46095   9.241   4.235   3.016 -0.0381  0.1427  0.0098
37496W        W46096   1.653   5.715  32.163 -0.0058 -0.0997 -0.0999
37497W        W46097  14.279   6.472   3.995  0.0186 -0.1232  0.2999
37498W        W46098  10.732   4.291   1.166  0.0964 -0.0713 -0.0879
37499W        W46099   9.268   2.730   1.716  0.0420  0.1997 -0.0168
37500W        W46100  15.830   1.233   5.082  0.2916 -0.1254 -0.2075
37501W        W46101   2.929   0.510  15.295  0.0070  0.2169 -0.1181
37502W        W46102  16.651   0.921  43.598 -0.1544 -0.1502 -0.1813
37503W        W46103   3.045   4.268  36.719  0.1122 -0.0215  0.1050
37504W        W46104   6.479   2.278  22.401 -0.0323  0.1035  0.3013
37505W        W46105   4.116   2.922  28.595  0.0794 -0.2360  0.0311
37506W        W46106  19.071   0.896  34.592 -0.0979  0.0247  0.0153
37507W        W46107  19.930   4.991  42.128 -0.1961 -0.4092  0.0952
37508W        W46108  12.465   2.779  39.117  0.1014 -0.3639 -0.0382
37509W        W46109   6.865   0.742   1.849  0.2985  0.1086  0.1948
37510W        W46110  19.148   6.092  17.676  0.1760  0.0577 -0.0287
37511W        W46111  12.173   1.031  42.794 -0.0649  0.0314 -0.1106
37512W        W46112  13.786   4.933  31.382 -0.0103  0.0650 -0.1931
37513W        W46113  11.908   4.771  40.057  0.0887  0.1111 -0.1939
37514W        W46114   7.826   0.527  25.822 -0.3605  0.0934  0.0873
37515W        W46115   3.743   3.445  37.936  0.1502  0.1132 -0.1386
37516W        W46116  17.703   0.684  10.307  0.2603  0.0208  0.1234
37517W        W46117   6.644   5.025   7.458  0.1039 -0.1018 -0.1515
37518W        W46118  20.693   3.577  31.737 -0.0096  0.0179  0.1274
37519W        W46119   9.702   6.231  11.133  0.0068  0.0251 -0.2923
37520W        W46120  15.175   6.105   2.057 -0.2546 -0.0930  0.0946
37521W        W46121   7.879   3.907  13.929 -0.0002  0.0796  0.1249
37522W        W46122  18.536   6.596  15.956 -0.3824 -0.1319 -0.0497
37523W        W46123   6.967   4.044  42.850  0.3658  0.2399  0.0305
37524W        W46124  20.181   1.976   6.816  0.2311 -0.5265  0.1021
37525W        W46125  17.798   2.948  41.972 -0.1074 -0.0853 -0.3937
37526W        W46126   5.259   4.217   7.084 -0.2644  0.0221  0.0568
37527W        W46127  20.320   6.465  42.415 -0.0725 -0.1600 -0.1924
37528W        W46128  20.739   1.294  15.471  0.1473 -0.1276 -0.3205
37529W        W46129  17.545   3.188  32.453  0.0933 -0.0486  0.0724
37530W        W46130  12.539   3.681  12.323 -0.3982 -0.2819 -0.2047
37531W        W46131  13.809   2.388  17.839 -0.1590  0.1041  0.1929
37532W        W46132  16.867   2.061  35.797  0.0683 -0.2858  0.0858
37533W        W46133  12.914   4.142  36.381  0.3249  0.2894  0.1661
37534W        W46134  18.792   5.744  34.815  0.1369  0.1226  0.0271
37535W        W46135   9.929   0.483   1.637 -0.0123 -0.2290  0.1354
37536W        W46136  15.813   4.966  34.303 -0.2426  0.0504  0.0584
37537W        W46137   6.532   4.707  26.280  0.1379  0.2677  0.0053
37538W        W46138   4.117   0.057  44.101  0.0289  0.1074 -0.2790
37539W        W46139   8.157   3.828   6.813 -0.0080 -0.2001  0.3526
37540W        W46140  17.480   6.540  31.614 -0.1699 -0.1284  0.3183
37541W        W46141  18.536   4.443  32.137  0.2198  0.2485  0.2962
37542W        W46142   1.941   4.971   3.066  0.2710  0.2605  0.0522
37543W        W46143   6.801   4.191  29.972  0.1607  0.1728 -0.2831
37544W        W46144   3.270   1.297   8.197  0.1290 -0.3162  0.2343
37545W        W46145  18.302   2.524  12.063  0.2057 -0.2348  0.0351
37546W        W46146  11.813   1.939   0.207  0.1913 -0.1019  0.1462
37547W        W46147   9.906   4.437  35.590  0.0755  0.1411  0.3882
37548W        W46148  10.422   0.218  43.305  0.1063 -0.1511  0.0777
37549W        W46149   4.297   4.385  24.787 -0.0948 -0.1474 -0.0879
37550W        W46150  16.074   0.617  34.253 -0.0298  0.0573  0.3166
37551W        W46151  10.652   2.715  12.596 -0.1599 -0.3494  0.1121
37552W        W46152   5.799   5.113   5.036  0.0080 -0.0481  0.1311
37553W        W46153   0.995   0.796   4.321  0.3398  0.1794 -0.0885
37554W        W46154   4.183   3.111  39.740  0.2068 -0.0709  0.2945
37555W        W46155   1.105   4.790  17.725 -0.0665 -0.1378  0.0737
37556W        W46156  21.145   1.724  30.858  0.0799 -0.0553  0.0948
37557W        W46157   0.856   4.730   9.918  0.0024 -0.1461 -0.0213
37558W        W46158  20.903   5.952   7.259 -0.1905 -0.3386 -0.4098
37559W        W46159   9.209   4.152  14.774 -0.0635  0.1372  0.1196
37560W        W46160  14.742   6.176  20.122 -0.2801 -0.0544  0.2477
37561W        W46161  16.680   3.406   9.420  0.0131  0.2069  0.1031
37562W        W46162   2.909   4.603  29.551 -0.1489 -0.0499  0.3017
37563W        W46163   2.171   5.989  17.215 -0.2804 -0.1568  0.2079
37564W        W46164   8.482   0.078  11.816 -0.1868 -0.0400  0.1510
37565W        W46165  18.440   2.871  18.197 -0.2434 -0.1860  0.0842
37566W        W46166   6.530   0.482  11.457  0.0045  0.0909  0.1859
37567W        W46167   9.660   6.071  35.837  0.2334 -0.1163 -0.2682
37568W        W46168  13.981   5.516   8.532 -0.3219  0.0290  0.3221
37569W        W46169  17.895   2.720   5.704  0.0557  0.2994 -0.0274
37570W        W46170  16.394   2.395  40.793 -0.0216  0.0571  0.1629
37571W        W46171  10.087   1.576  15.793  0.1419  0.0354 -0.0207
37572W        W46172  16.296   1.799   2.776  0.0993 -0.0132  0.0885
37573W        W46173  12.994   6.473  19.909 -0.1928  0.1027  0.0790
37574W        W46174  10.020   1.595  41.272  0.0463 -0.0318  0.0128
37575W        W46175   2.951   1.681  34.713 -0.0805 -0.2955 -0.0796
37576W        W46176  14.791   5.995  16.195  0.1294  0.0408 -0.0745
37577W        W46177   2.370   1.107   1.737 -0.1418 -0.0089  0.0082
37578W        W46178   1.111   0.473  36.468  0.0612 -0.2061 -0.0223
37579W        W46179   4.065   3.527   1.332 -0.1886  0.0768  0.1802
37580W        W46180   8.036   0.881  40.213 -0.4443 -0.0095  0.1674
37581W        W46181   5.493   4.532  35.989  0.0899 -0.2726 -0.0819
37582W        W46182  13.779   5.656  30.944  0.1584 -0.1135  0.1943
37583W        W46183   0.932   2.634  11.993  0.1708 -0.2050 -0.3264
37584W        W46184   3.059   5.187  39.010  0.0185 -0.1226 -0.2262
37585W        W46185  12.742   0.214  29.793 -0.0501 -0.0853  0.0017
37586W        W46186  14.096   3.614  19.666 -0.0570  0.2102 -0.1220
37587W        W46187   9.121   5.690  12.983  0.1327  0.1308 -0.0967
37588W        W46188  15.404   4.540  33.630  0.1167  0.1520  0.1700
37589W        W46189   4.091   4.433   5.288  0.1380  0.1329 -0.0653
37590W        W46190   9.885   4.580  32.338  0.0412  0.0214 -0.2868
37591W        W46191  18.893   3.041   7.655  0.1189  0.0001  0.0804
37592W        W46192  14.170   0.551   0.713 -0.0819 -0.4134  0.1316
37593W        W46193   6.634   2.514  21.536  0.3138  0.0383 -0.1769
37594W        W46194   8.650   3.916  36.662 -0.0656  0.0641 -0.2141
37595W        W46195  12.589   4.669   2.963 -0.0202 -0.3647 -0.0155
37596W        W46196  12.446   4.886  31.365 -0.0660 -0.0666 -0.2645
37597W        W46197  14.952   1.166  13.996  0.0060 -0.0546  0.3089
37598W        W46198   8.422   2.841  44.872  0.2558 -0.3209  0.0035
37599W        W46199  15.918   5.774   0.295  0.1728 -0.1800  0.2588
37600W        W46200  20.656   6.059  10.239 -0.1175 -0.2147 -0.1971
37601W        W46201   6.541   3.006  12.011 -0.0002 -0.1129 -0.0532
37602W        W46202  17.515   6.525  37.684  0.2246 -0.0344  0.0647
37603W        W46203   2.509   1.134  38.600 -0.0545 -0.1877  0.4265
37604W        W46204   3.637   2.976  42.971 -0.1826 -0.1309  0.2049
37605W        W46205   5.698   5.096  14.333 -0.1474 -0.1170  0.0171
37606W        W46206   5.041   2.245  13.615  0.3054 -0.1864 -0.1604
37607W        W46207   3.579   5.823  31.633 -0.0183  0.2327  0.0402
37608W        W46208  15.316   0.158   1.315  0.2750  0.0754 -0.0271
37609W        W46209   6.342   3.755  13.581 -0.3715 -0.0574 -0.1297
37610W        W46210  13.165   3.807   5.896 -0.0449  0.1367 -0.2820
37611W        W46211  11.162   1.227   5.731  0.6040 -0.1703  0.0248
37612W        W46212  14.721   5.641  19.208 -0.1395  0.0922  0.0285
37613W        W46213  14.002   4.696   1.693  0.5812 -0.0500 -0.0115
37614W        W46214   5.801   3.647  27.326 -0.0550 -0.0898 -0.2983
37615W        W46215   8.697   3.346  40.803 -0.0848 -0.1469 -0.1879
37616W        W46216   4.736   1.266  31.099  0.2900 -0.3670 -0.0248
37617W        W46217  13.434   2.210  20.710  0.2506  0.2660 -0.1877
37618W        W46218  10.148   2.336   3.357 -0.4316 -0.2555 -0.1365
37619W        W46219   9.886   1.065  35.111  0.2536 -0.2141 -0.1100
37620W        W46220  11.537   4.875  29.645 -0.3015  0.0391  0.0978
37621W        W46221   0.085   3.223  38.465  0.1846 -0.0810 -0.0281
37622W        W46222   3.387   3.457  24.775 -0.5249 -0.3681  0.0549
37623W        W46223  11.391   4.641  17.488  0.0211  0.0575 -0.1246
37624W        W46224   9.874   4.590  14.472 -0.1434  0.1843  0.0469
37625W        W46225  18.672   0.972   7.492  0.0307  0.2718  0.1559
37626W        W46226  20.482   0.249   5.174 -0.0526 -0.0572  0.2895
37627W        W46227  16.565   1.890  22.386 -0.4028 -0.2166 -0.1729
37628W        W46228   6.119   0.039  11.324  0.3644  0.1402 -0.1513
37629W        W46229   6.005   1.267  33.600 -0.4074  0.1139 -0.1751
37630W        W46230  12.675   4.359  14.861  0.1380  0.1604  0.3352
37631W        W46231   8.798   5.707  10.277 -0.4222 -0.3121 -0.1552
37632W        W46232  21.049   0.027  37.335 -0.2595  0.1493 -0.1783
37633W        W46233  19.394   0.711  32.659  0.1061 -0.1478 -0.3441
37634W        W46234   2.946   1.193  24.670  0.1190 -0.2330 -0.1972
37635W        W46235   1.385   3.395   1.698  0.0616  0.0595  0.2612
37636W        W46236  10.222   5.380  33.763  0.3068  0.0872  0.2883
37637W        W46237  10.525   2.078   8.630 -0.1986  0.1838 -0.1440
37638W        W46238   9.505   1.014  25.665  0.2976 -0.2224 -0.2325
37639W        W46239  21.116   2.200  29.608 -0.0104  0.0171  0.0900
37640W        W46240  18.838   4.796  35.837  0.1301  0.1909 -0.4863
37641W        W46241   5.636   5.120  39.037  0.2193 -0.0847 -0.0089
37642W        W46242   0.393   2.029  16.672  0.1355  0.0111 -0.0474
37643W        W46243   8.772   1.712   1.400 -0.2124  0.0137  0.1038
37644W        W46244   4.312   4.596  22.158  0.1205 -0.1119 -0.0204
37645W        W46245  10.431   5.608   9.051 -0.3307  0.0478 -0.2696
37646W        W46246  11.833   3.667   7.200  0.0522 -0.1510 -0.0556
37647W        W46247   3.456   6.214   3.821 -0.2331 -0.1413  0.0557
37648W        W46248   3.494   5.748  30.724 -0.0771 -0.2767 -0.0008
37649W        W46249   1.706   5.718  26.465 -0.0380  0.2730 -0.0149
37650W        W46250  20.264   1.619   7.144 -0.1861  0.2860  0.1668
37651W        W46251   6.064   4.408   8.342  0.0893 -0.1479  0.2584
37652W        W46252  17.389   2.235  12.250  0.0271 -0.0127 -0.2644
37653W        W46253  13.632   3.490  14.406 -0.1355  0.1340 -0.1913
37654W        W46254  12.986   1.616  38.952  0.1915  0.0707 -0.0884
37655W        W46255   5.557   4.890  43.447 -0.0438  0.2567  0.0474
37656W        W46256  12.102   3.793  40.215 -0.0220  0.1469  0.1169
37657W        W46257   9.408   2.904  25.836 -0.0861 -0.0326  0.1384
37658W        W46258   7.135   2.041  32.998 -0.3835 -0.3044 -0.0855
37659W        W46259   1.799   5.446   9.905  0.0942  0.0325 -0.1251
37660W        W46260  10.653   3.899   7.203 -0.0924  0.1983 -0.0062
37661W        W46261  15.626   2.681  38.358  0.0350  0.1579  0.0435
37662W        W46262  15.434   3.447  22.985  0.1333 -0.0625  0.0780
37663W        W46263  13.060   6.058  11.779 -0.3012  0.0819  0.0621
37664W        W46264   2.121   3.106  28.606  0.1070  0.0039  0.0688
37665W        W46265   9.830   0.180  16.901 -0.1348  0.1267  0.1046
37666W        W46266  12.249   3.426  16.393 -0.0422  0.2437 -0.0554
37667W        W46267   3.513   3.853  38.029  0.1697  0.0631 -0.1005
37668W        W46268   6.296   4.652   5.733 -0.0694 -0.0108 -0.0970
37669W        W46269  13.538   1.260  17.098  0.1826 -0.0747  0.0136
37670W        W46270  17.512   4.475   7.915 -0.1310  0.3290  0.0937
37671W        W46271  16.291   4.346  35.730  0.0409  0.0938 -0.1010
37672W        W46272  10.637   5.307   4.199 -0.1727 -0.1643 -0.2849
37673W        W46273   0.442   1.122  33.189  0.3828 -0.2267  0.0534
37674W        W46274  11.177   4.549  27.480 -0.1637 -0.0071 -0.0356
37675W        W46275  17.291   2.124  23.021 -0.1658 -0.6485 -0.1381
37676W        W46276  12.973   3.661  16.850 -0.5727 -0.2335  0.4564
37677W        W46277  19.175   1.170  36.768  0.2339 -0.2132 -0.2005
37678W        W46278   0.372   1.163  39.967  0.0586  0.0285 -0.1808
37679W        W46279  10.324   1.666   5.661  0.2823  0.1849 -0.2459
37680W        W46280   4.492   1.329  32.209  0.0429 -0.1298  0.0746
37681W        W46281  13.732   3.505  43.313  0.0367 -0.0794 -0.1320
37682W        W46282  15.415   1.621  40.988 -0.0006  0.0477 -0.0008
37683W        W46283  20.558   2.921  37.747 -0.0358 -0.0643 -0.1454
37684W        W46284   1.177   4.816  26.902  0.1247 -0.0194  0.1528
37685W        W46285  15.699   1.442   0.925 -0.0729 -0.3226  0.2466
37686W        W46286  12.593   6.206   3.659 -0.0396  0.0045 -0.1703
37687W        W46287  13.467   0.496  20.841  0.1595 -0.1500  0.2638
37688W        W46288   8.615   3.784  28.650 -0.1692  0.0562  0.0206
37689W        W46289   6.141   5.573  13.153  0.0783  0.1244  0.1090
37690W        W46290  11.225   5.238  32.071 -0.1147  0.1404  0.0889
37691W        W46291   6.718   0.297  22.754 -0.1574 -0.2813  0.0969
37692W        W46292   4.583   6.431  32.560  0.0326 -0.1672  0.0635
37693W        W46293  15.203   4.474   5.019 -0.0694  0.2805 -0.0778
37694W        W46294  13.215   3.617  17.681  0.2743 -0.0310  0.0518
37695W        W46295   9.786   0.001  10.054  0.0909 -0.4010  0.0761
37696W        W46296  16.233   1.270  32.851  0.1582 -0.0732  0.0276
37697W        W46297  13.487   4.601   5.338  0.1509 -0.2788  0.2351
37698W        W46298  13.058   0.967   7.423  0.1885 -0.0886  0.1316
37699W        W46299   4.431   1.912  38.884  0.0046  0.3359  0.0584
37700W        W46300  16.081   1.003  36.240  0.0290 -0.0481 -0.1451
37701W        W46301   4.513   2.912   4.712  0.0512  0.0516 -0.0156
37702W        W46302   9.495   4.676   9.178  0.1023  0.1573 -0.3032
37703W        W46303  18.602   3.431   5.999  0.0010 -0.2460  0.2294
37704W        W46304   9.392   0.867  24.376  0.1331  0.1424 -0.0336
37705W        W46305  10.032   5.679   3.768  0.2309  0.0562  0.0194
37706W        W46306   0.586   5.044  31.663 -0.1088 -0.0031 -0.1263
37707W        W46307   7.848   6.590  41.665  0.0988 -0.1391  0.2635
37708W        W46308   1.701   3.821   6.222  0.1469 -0.2357  0.1654
37709W        W46309  17.681   3.794   4.215  0.0390 -0.1665 -0.1673
37710W        W46310   9.779   4.902  37.772  0.0774 -0.1839 -0.2838
37711W        W46311  15.296   1.388  21.711 -0.0902 -0.5212 -0.0530
37712W        W46312   6.657   6.186  29.577 -0.1283  0.0478 -0.0700
37713W        W46313   6.761   5.739  34.609 -0.1429 -0.2520 -0.0754
37714W        W46314   7.316   0.850  35.886 -0.3308  0.0623  0.2295
37715W        W46315  15.769   4.923  45.036  0.2528 -0.0955  0.0468
37716W        W46316   8.654   1.212   6.029 -0.4192 -0.4535 -0.1043
37717W        W46317   4.361   6.442   4.514  0.2051  0.1479 -0.0959
37718W        W46318  21.038   1.685   6.802  0.1824  0.2221 -0.0934
37719W        W46319  15.454   1.361  44.196  0.1733 -0.0546  0.1876
37720W        W46320  20.090   4.708  39.514 -0.0708 -0.0971 -0.1867
37721W        W46321  13.837   1.128  16.708  0.2717  0.2722 -0.2646
37722W        W46322   3.375   4.795  23.541  0.6874 -0.1932  0.1613
37723W        W46323   4.721   0.261   3.171 -0.0044  0.0239  0.2384
37724W        W46324   2.057   3.738  28.849 -0.1177  0.1715  0.0613
37725W        W46325  16.368   5.663  31.432  0.1272  0.0970 -0.2492
37726W        W46326  12.324   4.763  15.007 -0.1041 -0.0038 -0.0926
37727W        W46327   0.020   4.329  36.387 -0.0716 -0.0567  0.0108
37728W        W46328   6.257   5.097  31.052  0.0497 -0.0261 -0.3378
37729W        W46329   8.989   0.515  41.101  0.0397 -0.0341 -0.0368
37730W        W46330  16.242   2.615  15.958  0.3730 -0.0165  0.0528
37731W        W46331  17.009   1.499   1.574  0.0927  0.0778  0.0999
37732W        W46332   7.395   4.559   5.924  0.1571  0.1644 -0.0907
37733W        W46333  16.536   1.833  21.723  0.0890 -0.2637  0.2966
37734W        W46334  10.412   1.658  28.514 -0.4523  0.0733  0.1094
37735W        W46335  16.847   1.736  11.806  0.1739  0.0690  0.2746
37736W        W46336  15.184   4.705   6.771  0.0495 -0.2520 -0.4165
37737W        W46337  15.712   0.830  13.778  0.0387 -0.0059 -0.0427
37738W        W46338  11.987   3.993  14.862 -0.2333  0.1865 -0.0557
37739W        W46339  15.717   4.595  11.258 -0.1256  0.3760  0.0807
37740W        W46340  10.341   5.328  13.005  0.0982 -0.0693 -0.2782
37741W        W46341   0.340   1.371  30.866 -0.0422 -0.0773  0.1733
37742W        W46342   1.647   4.849  36.510  0.1644 -0.2446  0.2368
37743W        W46343  10.516   3.043   5.419  0.0733 -0.1491  0.0563
37744W        W46344   7.923   1.374  13.780  0.5350 -0.2557 -0.0603
37745W        W46345   9.178   4.303  25.145  0.0972 -0.1017  0.2014
37746W        W46346  17.110   0.877  17.241  0.2891 -0.0302 -0.0700
37747W        W46347   7.678   1.463   2.740 -0.1854 -0.1823  0.2124
37748W        W46348   2.686   0.587   2.879  0.1647  0.0565 -0.1686
37749W        W46349   3.355   6.022  36.038  0.0483  0.1170  0.0253
37750W        W46350   0.657   4.186  42.787 -0.1534  0.0904 -0.0026
37751W        W46351  18.856   1.289  10.460  0.0734  0.0214  0.3615
37752W        W46352   3.132   1.997  39.552  0.0435 -0.2228 -0.0795
37753W        W46353  20.543   5.505   0.589 -0.0249 -0.1934  0.0099
37754W        W46354   8.386   3.069  30.976 -0.0184  0.2136  0.0749
37755W        W46355   0.421   0.676  39.734 -0.0186 -0.0639 -0.0670
37756W        W46356  14.524   3.180  37.264  0.0945 -0.0654  0.1679
37757W        W46357  15.009   4.008   3.753  0.1119  0.1519 -0.1054
37758W        W46358   9.872   6.514  38.892 -0.0904  0.0350  0.1025
37759W        W46359   1.833   0.082   2.042 -0.3968 -0.0462 -0.0345
37760W        W46360   2.671   5.198   5.004 -0.0277 -0.0727 -0.2856
37761W        W46361  19.515   0.280  36.090  0.0273  0.2040  0.2662
37762W        W46362   9.597   3.020  13.836 -0.0366 -0.0347 -0.2563
37763W        W46363  18.212   5.610  41.042  0.0929  0.1558 -0.0052
37764W        W46364   4.226   3.796  11.475  0.0108 -0.2873  0.1666
37765W        W46365  19.229   3.488  38.356  0.1055  0.2005 -0.3083
37766W        W46366   4.940   5.061  43.882  0.1178 -0.1676 -0.2027
37767W        W46367  19.717   2.669   2.041  0.0116  0.0494 -0.0117
37768W        W46368   4.435   3.400  23.732 -0.1976 -0.2917 -0.0546
37769W        W46369   2.290   1.192   0.976 -0.1677  0.0594  0.3104
37770W        W46370  14.320   6.039  39.602 -0.0448  0.2420 -0.2036
37771W        W46371   8.443   0.428  41.006 -0.0452  0.1418  0.0770
37772W        W46372   4.798   0.260  11.711 -0.0807  0.4000 -0.1131
37773W        W46373   2.893   3.409  29.845 -0.1335  0.1178  0.4386
37774W        W46374  11.115   0.960  37.913 -0.1415 -0.0845 -0.2582
37775W        W46375  14.350   3.150   6.167 -0.4323  0.0189 -0.1738
37776W        W46376   2.608   2.751  11.435 -0.0122  0.0193 -0.3665
37777W        W46377  20.864   4.985  36.795  0.2056 -0.2989 -0.2237
37778W        W46378   0.428   6.362   8.277 -0.2312  0.2020  0.1199
37779W        W46379   7.585   4.777  36.798 -0.1654  0.2363  0.0408
37780W        W46380   2.912   4.649  26.537  0.1599 -0.1340 -0.3411
37781W        W46381   8.461   5.363  37.971  0.0923 -0.0015 -0.1737
37782W        W46382  15.105   2.548  23.336 -0.0022  0.0717  0.2683
37783W        W46383   0.650   2.207  12.202  0.1335  0.2803  0.0587
37784W        W46384   5.174   0.507  22.835 -0.2661 -0.0967  0.1433
37785W        W46385  18.616   3.104  30.325  0.0407  0.0528  0.0516
37786W        W46386   4.243   4.565  38.780  0.0314 -0.3536  0.1811
37787W        W46387  14.850   5.970   9.200  0.0680  0.1904  0.0655
37788W        W46388  20.667   2.074  18.817 -0.0586 -0.0403  0.0341
37789W        W46389   6.394   5.406  34.495  0.0704 -0.1128 -0.2028
37790W        W46390   1.211   4.754  39.403 -0.4128  0.2015  0.0087
37791W        W46391   3.340   4.604  13.098 -0.1502  0.0460  0.1779
37792W        W46392  14.081   0.281   2.954  0.0407 -0.2820 -0.3044
37793W        W46393   9.231   5.406  26.842  0.1792 -0.0724 -0.0573
37794W        W46394  16.649   1.794  10.862  0.0317  0.2156  0.0460
37795W        W46395   6.257   5.000  40.955  0.0872  0.3433 -0.0841
37796W        W46396   7.328   4.061  34.788  0.0754  0.2701 -0.1139
37797W        W46397   0.021   6.467  13.760  0.2216  0.1732  0.2193
37798W        W46398  17.071   6.436  42.501  0.3872 -0.4633  0.1749
37799W        W46399   9.909   6.250  31.601  0.2104  0.0582 -0.0255
37800W        W46400   8.238   2.544  37.462  0.1527 -0.0409  0.0252
37801W        W46401  13.006   6.109  43.946 -0.0095 -0.0048 -0.1282
37802W        W46402  16.977   4.782  21.676 -0.1004 -0.1028  0.1427
37803W        W46403   9.915   3.734  24.274  0.0637 -0.0192  0.0795
37804W        W46404   5.368   1.427  23.796  0.1697  0.0320 -0.0324
37805W        W46405  20.171   5.487  11.916  0.0101 -0.1822  0.0179
37806W        W46406  19.476   2.637  21.890  0.1177  0.0478  0.0654
37807W        W46407  10.949   0.582  34.702  0.0053  0.1017 -0.3218
37808W        W46408  10.868   0.731   8.410 -0.2780 -0.3014 -0.0138
37809W        W46409   7.191   5.863  31.929  0.0988 -0.0094 -0.0037
37810W        W46410  12.065   3.258  32.170 -0.0834 -0.0685  0.0354
37811W        W46411   0.263   0.909  40.886  0.1620  0.0119 -0.1155
37812W        W46412   8.175   2.924   6.432  0.0188 -0.0476 -0.1156
37813W        W46413   3.993   1.105  13.907  0.1338 -0.1225  0.0566
37814W        W46414  19.638   0.826  30.152 -0.1316 -0.2411  0.0927
37815W        W46415  12.995   6.589  33.888 -0.0029  0.1565 -0.2547
37816W        W46416   4.719   4.134   9.273 -0.0620  0.0899  0.0554
37817W        W46417   1.091   3.511   3.614 -0.0401  0.0091 -0.0875
37818W        W46418  13.328   3.469  15.874  0.2723 -0.1123 -0.0728
37819W        W46419   5.234   4.724   7.833  0.0182  0.1619 -0.1690
37820W        W46420  10.540   1.267  13.309 -0.1697 -0.1615  0.3702
37821W        W46421   5.473   1.125  30.605 -0.2485 -0.0406  0.3081
37822W        W46422   5.514   5.933  13.861 -0.5050  0.0563 -0.0724
37823W        W46423  13.995   3.196   3.653 -0.3216 -0.0904  0.5622
37824W        W46424  14.924   6.464   9.141 -0.1116  0.0933 -0.1478
37825W        W46425  13.184   5.584  29.901 -0.1327  0.0266 -0.1025
37826W        W46426  10.877   1.402  11.732  0.1727 -0.1330 -0.2506
37827W        W46427   3.756   3.710  45.045 -0.0084 -0.2127 -0.0049
37828W        W46428   9.981   5.506   9.032 -0.1085 -0.0681 -0.2548
37829W        W46429   4.503   6.428  14.709 -0.1140 -0.2310 -0.0609
37830W        W46430  11.533   6.471   2.697  0.2070 -0.0261 -0.1664
37831W        W46431   2.419   0.793  38.026  0.2695  0.0490 -0.1582
37832W        W46432  16.110   0.075  21.520  0.1792  0.1664  0.1274
37833W        W46433  10.591   0.271  30.488 -0.1559 -0.3636  0.1661
37834W        W46434  11.728   0.981  41.103 -0.1188  0.0429 -0.1648
37835W        W46435  16.049   2.724   1.997  0.1418 -0.0223  0.2973
37836W        W46436   5.810   1.683   5.736 -0.2037  0.1361  0.4722
37837W        W46437  16.705   4.186   1.824 -0.1253 -0.0221 -0.0244
37838W        W46438  10.397   0.590  29.214  0.0075  0.2323 -0.2310
37839W        W46439  13.176   1.671   2.803  0.0820 -0.1729  0.0916
37840W        W46440   2.330   4.933  43.247 -0.0012 -0.0241  0.1471
37841W        W46441   7.241   1.086   6.475 -0.1299 -0.1232  0.1471
37842W        W46442  17.364   2.141  36.360 -0.3610  0.0491 -0.1409
37843W        W46443  14.338   1.317  20.890  0.0897 -0.0101  0.1899
37844W        W46444  12.765   6.491   0.607 -0.1591 -0.0396  0.0391
37845W        W46445  14.566   2.899  15.570 -0.2423 -0.2088 -0.2825
37846W        W46446  18.540   5.607  10.761  0.0619  0.1774  0.1643
37847W        W46447  14.627   0.611   8.108  0.0784 -0.1537 -0.3661
37848W        W46448  12.379   4.625  34.085 -0.1184  0.0569  0.1699
37849W        W46449   8.902   6.586  29.855 -0.0614 -0.1755 -0.3406
37850W        W46450  15.476   3.434   7.610  0.2335 -0.2497 -0.0223
37851W        W46451  19.610   4.793  44.619  0.0917  0.0164  0.1914
37852W        W46452   5.256   6.330  37.365 -0.1346  0.2581  0.0292
37853W        W46453  17.537   2.686   3.587  0.1631  0.0804  0.2392
37854W        W46454  20.010   6.308  29.485  0.1352 -0.0757  0.0134
37855W        W46455  15.354   3.875   2.241 -0.3006  0.1468  0.2315
37856W        W46456  12.502   0.282  29.289 -0.2749 -0.2917 -0.2404
37857W        W46457  18.967   5.908  39.489 -0.1163  0.0912 -0.4307
37858W        W46458   9.579   2.038  10.163 -0.1578  0.4638 -0.0881
37859W        W46459  17.819   1.342  16.385 -0.3676  0.1582  0.1228
37860W        W46460   9.411   2.196   3.007  0.0416 -0.3666 -0.4528
37861W        W46461  16.478   3.289   9.917 -0.0892 -0.3847  0.0026
37862W        W46462   8.957   6.462  15.511  0.2243 -0.0926 -0.0370
37863W        W46463  13.697   1.340  32.475 -0.1620 -0.0340 -0.1000
37864W        W46464  14.953   2.136   9.931 -0.2353 -0.0273  0.1909
37865W        W46465   1.772   4.625  16.838  0.0866  0.0863 -0.1668
37866W        W46466  11.209   0.797   8.074  0.1050  0.1494  0.0378
37867W        W46467   8.314   3.133  28.750 -0.0645 -0.2084 -0.4318
37868W        W46468   7.210   3.483   6.851  0.0701  0.1150  0.1808
37869W        W46469  17.619   3.437  40.658 -0.0964  0.0749 -0.1757
37870W        W46470  17.707   4.809  40.286 -0.1383  0.0021  0.1806
37871W        W46471   8.564   0.043   1.496 -0.0746 -0.0159 -0.0651
37872W        W46472  13.242   4.056  42.839 -0.1509  0.3127  0.0581
37873W        W46473  20.109   1.125   7.165 -0.2162  0.2611  0.1564
37874W        W46474  14.857   2.582   3.048 -0.0130 -0.2130  0.1738
37875W        W46475   3.040   3.657   2.074 -0.2449 -0.0082 -0.4073
37876W        W46476  15.230   4.491  16.272  0.0635  0.1840 -0.0044
37877W        W46477   6.513   1.770  10.770 -0.0806 -0.1418 -0.0579
37878W        W46478  10.782   2.069  26.346 -0.1025  0.0297  0.1341
37879W        W46479   7.968   1.867  39.966  0.2289 -0.3039 -0.0584
37880W        W46480   6.197   6.161   1.835 -0.1835  0.6454  0.3049
37881W        W46481  20.902   0.398   4.254  0.1514  0.0153 -0.1650
37882W        W46482  14.824   6.250  41.060 -0.0626 -0.4209  0.0339
37883W        W46483   2.532   4.661  29.262  0.3463  0.1130 -0.1361
37884W        W46484   3.425   3.029  25.276  0.4142  0.0942 -0.4401
37885W        W46485  13.626   4.165   7.059 -0.1698 -0.2709  0.0842
37886W        W46486  13.143   6.416   4.084 -0.1730  0.2045 -0.0216
37887W        W46487   5.318   3.371  41.246  0.0325  0.0300  0.1414
37888W        W46488  15.824   5.449  10.158 -0.0676 -0.0686  0.0784
37889W        W46489  16.523   4.734  18.817  0.3332 -0.3592 -0.3511
37890W        W46490  16.441   1.281   9.294  0.1239 -0.1932 -0.1197
37891W        W46491   3.258   3.298  37.859  0.2380  0.2776 -0.2117
37892W        W46492   0.557   4.148   5.581  0.1732  0.1068 -0.0467
37893W        W46493  14.614   6.079   5.247  0.0219 -0.1893  0.1986
37894W        W46494  14.519   0.872   7.732  0.1296 -0.0185 -0.1316
37895W        W46495  19.144   3.876  37.795 -0.0010 -0.1465 -0.1778
37896W        W46496   7.971   4.687   8.049 -0.3321 -0.1412 -0.4993
37897W        W46497   8.538   5.435  27.876 -0.1825  0.3029 -0.0085
37898W        W46498   2.049   1.254  32.285  0.1981 -0.3062 -0.0177
37899W        W46499  11.531   4.701  15.080  0.0410  0.0003 -0.1680
37900W        W46500   9.081   1.013   2.856  0.0580 -0.0464 -0.1603
37901W        W46501   9.896   6.066   4.999 -0.0457  0.1296  0.1775
37902W        W46502   5.075   2.514   0.325 -0.0542  0.1116  0.0786
37903W        W46503   6.370   3.161  27.975  0.1704  0.0014  0.0528
37904W        W46504   0.206   4.978   0.415  0.1326  0.0586  0.2603
37905W        W46505   5.511   4.128   9.931 -0.0343  0.3035  0.1497
37906W        W46506  10.229   0.955  43.845  0.1805  0.1283  0.0281
37907W        W46507   3.168   3.526  35.913 -0.1486  0.0443 -0.0918
37908W        W46508   7.631   4.232  38.456 -0.1864 -0.1467 -0.1218
37909W        W46509   6.850   1.598   9.443 -0.0565  0.0262 -0.0515
37910W        W46510   4.214   1.940  40.942 -0.0718 -0.1523  0.0692
37911W        W46511   3.312   5.257  30.013 -0.0320  0.0870  0.2596
37912W        W46512   6.297   1.822  12.677 -0.0539  0.1600 -0.1246
37913W        W46513   0.816   6.245  42.914  0.0482 -0.3341  0.0740
37914W        W46514  17.214   5.570  32.994 -0.1988  0.1673  0.0205
37915W        W46515  16.558   4.986  19.237 -0.1519  0.0809  0.0733
37916W        W46516   7.833   4.056   5.339  0.0313 -0.0550  0.2056
37917W        W46517  11.581   3.228   4.027  0.1350  0.1429  0.0618
37918W        W46518   1.614   0.869  13.861  0.1908  0.0974  0.2033
37919W        W46519   3.176   1.529  28.226 -0.1715 -0.0754  0.0593
37920W        W46520  18.667   4.873   7.003 -0.0849  0.3060 -0.0520
37921W        W46521   8.184   5.483  16.893  0.3820 -0.1655  0.0032
37922W        W46522   7.109   3.989  22.876 -0.0588 -0.1332 -0.0900
37923W        W46523   6.354   5.003  10.993  0.0054  0.2156  0.1801
37924W        W46524   2.969   1.235   3.227  0.2205 -0.2339  0.1438
37925W        W46525  13.414   2.673  18.636 -0.2483 -0.1703 -0.0552
37926W        W46526   3.775   1.370   5.330 -0.1787 -0.3112 -0.1439
37927W        W46527  13.610   0.319  18.577 -0.1255  0.0753  0.1453
37928W        W46528   0.641   1.853   7.181  0.0208 -0.2184 -0.0133
37929W        W46529  12.875   1.242  19.829  0.0230 -0.2797  0.0852
37930W        W46530  10.536   0.777   3.386 -0.3464 -0.0316  0.0794
37931W        W46531  20.071   0.205   2.281  0.2690 -0.3636  0.0279
37932W        W46532  17.435   2.509   4.432 -0.2882  0.3282 -0.3412
37933W        W46533   5.028   2.210  34.014 -0.2818  0.0367 -0.2214
37934W        W46534  15.332   5.830  15.942 -0.3377 -0.2070  0.0094
37935W        W46535   0.162   2.029   5.431 -0.0356  0.1829 -0.1226
37936W        W46536  18.055   1.562  31.315 -0.0520 -0.3253  0.0046
37937W        W46537  18.726   4.137  37.898 -0.1648 -0.0298 -0.0513
37938W        W46538  20.384   5.162   5.610 -0.0671 -0.0613  0.0437
37939W        W46539   4.236   4.411  33.161  0.2411  0.2550  0.1675
37940W        W46540   4.914   0.980   4.793 -0.3052  0.3882 -0.0090
37941W        W46541   7.419   6.043   1.817 -0.0748  0.0150 -0.0839
37942W        W46542   5.383   2.863  38.265  0.1496 -0.1763  0.0413
37943W        W46543   1.753   5.257  15.375 -0.0346  0.0920  0.0638
37944W        W46544   5.235   2.820  25.752 -0.1733 -0.2922  0.3590
37945W        W46545  17.043   0.897  35.301 -0.0442  0.3776  0.0991
37946W        W46546   6.407   2.059  26.576 -0.2867 -0.2087  0.3503
37947W        W46547   0.389   3.361  35.292  0.0401  0.0796  0.0265
37948W        W46548  17.216   1.161  24.524 -0.1794  0.2504  0.1374
37949W        W46549   9.053   6.443  28.406  0.0373 -0.2133  0.0219
37950W        W46550  20.647   4.560  42.458  0.0286  0.0193 -0.0059
37951W        W46551   6.132   5.880  12.479  0.0350  0.2021  0.2024
37952W        W46552  19.246   2.530  36.115  0.3610 -0.1926  0.2102
37953W        W46553   9.739   2.887  36.561 -0.0286 -0.1187 -0.1506
37954W        W46554   9.730   2.239  43.145  0.1094 -0.0456 -0.1389
37955W        W46555   7.974   3.940  24.817  0.1560  0.0211 -0.0703
37956W        W46556   3.707   1.740  30.512 -0.0176  0.1501 -0.1975
37957W        W46557   6.138   5.974   6.236 -0.1129 -0.0219  0.2024
37958W        W46558  16.251   1.864  19.310 -0.2213 -0.2224 -0.0775
37959W        W46559   3.291   3.371  36.837  0.1682  0.3773 -0.0752
37960W        W46560  10.898   1.837  35.258  0.0243 -0.1357  0.0542
37961W        W46561   3.748   3.298  31.686 -0.0385  0.1603 -0.0170
37962W        W46562  10.582   0.700   8.890  0.0006  0.1873 -0.0046
37963W        W46563   3.652   5.468  43.668  0.2245 -0.0421  0.0784
37964W        W46564  21.121   2.788  37.875  0.0245 -0.0279  0.0967
37965W        W46565   0.558   3.962  27.177  0.0509  0.3264  0.0626
37966W        W46566   2.661   4.782  33.744 -0.1313 -0.0853 -0.0913
37967W        W46567   3.804   1.246   4.796  0.0060 -0.2605  0.1567
37968W        W46568  18.839   5.097  13.867 -0.0058 -0.1051 -0.1422
37969W        W46569   6.982   6.372  25.506  0.1499  0.1476  0.0640
37970W        W46570   9.409   2.269  12.421  0.0620  0.2142 -0.1530
37971W        W46571   3.804   0.047   5.195 -0.2090 -0.0890 -0.1589
37972W        W46572   6.963   1.304  28.843  0.2282 -0.0670  0.1663
37973W        W46573   8.842   2.311   5.799  0.2285 -0.2370  0.0313
37974W        W46574   6.946   2.096  11.652  0.0459  0.1637  0.4146
37975W        W46575  14.208   2.238  12.172  0.2388 -0.0251  0.3427
37976W        W46576  19.680   2.873  39.776 -0.0190  0.1591 -0.2798
37977W        W46577   5.602   1.863   2.949  0.0835  0.4884 -0.1646
37978W        W46578   8.331   2.616   1.235 -0.2781  0.1949  0.0252
37979W        W46579  18.400   3.582  41.246  0.0097 -0.1698 -0.0419
37980W        W46580  11.949   5.610  10.777  0.2900  0.0853  0.0585
37981W        W46581  11.561   1.274  30.592 -0.0627 -0.3227  0.1353
37982W        W46582   9.132   6.175  25.445  0.0769  0.0015  0.0343
37983W        W46583  14.153   6.259  44.772 -0.1102 -0.2711  0.2603
37984W        W46584  19.494   3.841  11.110 -0.0460 -0.1364 -0.1819
37985W        W46585   6.834   5.154  43.350 -0.4651  0.2619  0.1493
37986W        W46586  16.138   4.728   2.979 -0.2154  0.0273  0.1822
37987W        W46587   4.299   5.731   2.481 -0.1614 -0.0110  0.3419
37988W        W46588   7.191   1.897  31.150 -0.3002  0.0386  0.0332
37989W        W46589  20.049   1.499  13.875 -0.0557  0.0030 -0.1812
37990W        W46590  16.776   3.905   7.718 -0.0549 -0.0409  0.0816
37991W        W46591  15.300   0.607  10.329 -0.3101 -0.0282  0.0535
37992W        W46592  16.550   1.586   7.635  0.0662  0.3703  0.0693
37993W        W46593  15.722   3.831  20.183  0.1375 -0.2672 -0.0136
37994W        W46594  20.782   3.019   6.502 -0.1196 -0.0079  0.3160
37995W        W46595  19.329   1.304   6.793 -0.0249 -0.0748 -0.2013
37996W        W46596   2.323   0.794   3.185  0.3172  0.1981  0.0729
37997W        W46597  15.112   2.384   9.448 -0.2803 -0.2852 -0.0623
37998W        W46598   2.483   3.208  39.233 -0.0591 -0.0541  0.0387
37999W        W46599   4.235   2.732  29.923  0.0208  0.1533  0.0071
38000W        W46600  15.671   2.678  36.929 -0.1432  0.1017  0.0165
38001W        W46601   5.066   0.271  37.711 -0.2472 -0.0138  0.0216
38002W        W46602  16.198   3.409  10.904 -0.1187  0.1005 -0.3184
38003W        W46603   6.056   5.322   4.277 -0.3019  0.2255  0.0348
38004W        W46604  11.243   4.865  38.265  0.2566  0.0516  0.2998
38005W        W46605   8.476   1.537  25.079  0.0278 -0.1758  0.2345
38006W        W46606  11.505   6.244  13.495 -0.1568  0.0625  0.0918
38007W        W46607  15.185   1.055  41.833  0.3611  0.2061  0.3508
38008W        W46608  10.290   5.964  26.252  0.1647 -0.0281  0.1890
38009W        W46609  10.494   4.502  14.596  0.1588  0.1611  0.0116
38010W        W46610  13.919   3.614  21.598  0.0756 -0.2290 -0.2094
38011W        W46611  14.615   1.152   5.522  0.0933 -0.1234 -0.0571
38012W        W46612   2.967   3.828   2.722  0.1642 -0.0765  0.0461
38013W        W46613   0.774   3.845  31.228 -0.2279 -0.1091  0.1159
38014W        W46614  20.058   6.150  42.774 -0.0858  0.1735  0.0592
38015W        W46615   5.024   2.330  44.559 -0.1863 -0.1680 -0.1396
38016W        W46616   7.783   2.484  34.126  0.0335  0.1640  0.0248
38017W        W46617  11.947   4.738  15.459 -0.0914 -0.1285  0.0451
38018W        W46618  15.700   2.037  34.197 -0.0430 -0.0744  0.1077
38019W        W46619   3.518   0.356   3.806  0.2086 -0.2079  0.1473
38020W        W46620   0.345   6.370  14.628  0.0056 -0.0221 -0.0029
38021W        W46621  19.578   2.505  18.145  0.2116  0.0616  0.1694
38022W        W46622   5.367   6.251  41.674 -0.0445  0.2830  0.3109
38023W        W46623  19.035   5.993  36.146  0.0309  0.2175 -0.3796
38024W        W46624   7.713   4.820  12.664  0.0183 -0.1649 -0.0043
38025W        W46625  20.311   5.330  16.472 -0.1142  0.1802 -0.2425
38026W        W46626  15.169   2.641  12.876 -0.1847  0.0057  0.4129
38027W        W46627   9.317   4.829  42.433  0.3052  0.1056  0.0163
38028W        W46628   4.478   1.420   4.881  0.0554  0.0224  0.1769
38029W        W46629  10.380   0.312   3.562 -0.4059  0.0661  0.0165
38030W        W46630   3.988   2.983  24.669 -0.2176  0.0695 -0.0831
38031W        W46631  14.122   6.269  22.057 -0.0868 -0.2473  0.3290
38032W        W46632   5.822   5.868  43.026  0.0765 -0.0719  0.1112
38033W        W46633   0.641   1.857   2.390 -0.1557  0.2682  0.0917
38034W        W46634  15.615   3.986  38.074  0.3475  0.0507 -0.0075
38035W        W46635   6.377   5.084  35.158 -0.0413  0.2164  0.1904
38036W        W46636   9.307   4.790   2.339 -0.0510 -0.0994  0.2067
38037W        W46637  14.229   4.786  32.385 -0.0080 -0.0483 -0.0863
38038W        W46638  13.666   1.669   6.794  0.3081 -0.1977 -0.3220
38039W        W46639   7.170   5.005  32.220  0.0262  0.0115  0.1173
38040W        W46640  17.053   0.667  42.766 -0.0190  0.1292  0.0642
38041W        W46641  14.243   2.314  36.694  0.0155 -0.1205  0.0472
38042W        W46642   5.352   5.171  12.171 -0.1322 -0.2273  0.1712
38043W        W46643   6.879   2.915  35.089 -0.0580 -0.0970  0.2854
38044W        W46644   6.814   4.414  36.822  0.0561  0.1751  0.0715
38045W        W46645   0.514   3.008  15.622 -0.2435 -0.2526  0.2570
38046W        W46646  17.147   3.014  33.213  0.1237 -0.2905  0.3633
38047W        W46647  12.614   2.794   1.872  0.0122 -0.0453  0.0792
38048W        W46648   5.260   3.566  31.479  0.1851 -0.2898 -0.1132
38049W        W46649   1.866   4.448  45.058  0.0162 -0.0871  0.0121
38050W        W46650  20.037   2.115  15.821  0.1560 -0.0584  0.0392
38051W        W46651   5.014   4.033   7.714  0.0508  0.2568  0.0540
38052W        W46652  17.202   1.950  37.481 -0.0800  0.0263  0.1336
38053W        W46653  16.375   2.466  32.518 -0.3744 -0.1003  0.1278
38054W        W46654  17.814   0.354  10.644 -0.4158 -0.0996  0.1579
38055W        W46655   7.395   2.331  38.662 -0.1551  0.2843 -0.2136
38056W        W46656  10.366   4.710  28.981 -0.1715 -0.0003  0.1489
38057W        W46657  12.785   2.469  28.826 -0.0365  0.0729 -0.0950
38058W        W46658   8.813   0.391   6.213  0.3430 -0.2273 -0.2988
38059W        W46659  16.309   6.340  25.328  0.0224 -0.1059 -0.1665
38060W        W46660  19.550   2.895  19.694 -0.4462  0.0876  0.1515
38061W        W46661   7.286   3.401  26.279  0.1042 -0.0106 -0.1677
38062W        W46662   2.493   0.271   3.262  0.1891  0.3220 -0.0720
38063W        W46663   0.620   4.367   8.936  0.1203 -0.2504 -0.0951
38064W        W46664   1.807   1.642   6.287  0.1517  0.4687  0.0975
38065W        W46665  11.849   3.519  33.792 -0.1962  0.1893  0.0698
38066W        W46666  12.140   0.619  18.789 -0.0709 -0.0933 -0.1616
38067W        W46667  10.126   1.372  16.973  0.0538  0.0623 -0.0158
38068W        W46668  17.456   2.112  10.578 -0.3340  0.1284 -0.2104
38069W        W46669   0.918   2.138  26.130  0.2082 -0.2751 -0.0510
38070W        W46670   1.934   1.061   6.289  0.1722  0.1357  0.0350
38071W        W46671  10.438   4.641   5.238 -0.0494 -0.0180 -0.2512
38072W        W46672   3.634   5.537  14.672  0.0977  0.0622  0.1375
38073W        W46673  18.000   1.751  13.968 -0.0963  0.1898 -0.3266
38074W        W46674  12.577   6.215   6.707  0.2841 -0.1627  0.1700
38075W        W46675  10.100   2.677  32.708 -0.0280  0.0534 -0.1010
38076W        W46676   6.759   0.776   7.907  0.2590  0.1459  0.0526
38077W        W46677   5.463   1.906   2.468 -0.1247  0.0321  0.4231
38078W        W46678   0.968   4.717   0.517  0.1672 -0.0168  0.1497
38079W        W46679   9.472   2.639  13.542  0.1218  0.0406  0.2815
38080W        W46680  19.825   4.942  14.063  0.1132 -0.0175  0.1187
38081W        W46681  11.539   0.873  17.141  0.1305 -0.0485  0.1371
38082W        W46682   8.654   2.572  24.180 -0.1036 -0.2039 -0.2385
38083W        W46683   4.593   3.745  27.708 -0.4075 -0.0042 -0.0309
38084W        W46684  18.780   2.258  41.256 -0.0987  0.0061  0.1039
38085W        W46685   2.024   1.067  32.765  0.0352 -0.3788  0.0789
38086W        W46686  11.401   1.211   3.406  0.0084 -0.1246 -0.0070
38087W        W46687   9.495   0.831  31.191  0.1568  0.0249 -0.3428
38088W        W46688  21.086   6.235   9.425 -0.0087 -0.0235 -0.0732
38089W        W46689  14.918   4.644  16.654  0.1297  0.0505  0.2126
38090W        W46690  15.354   5.270  35.496  0.4107  0.0062  0.0265
38091W        W46691   3.279   0.407   7.873 -0.0569 -0.0815  0.2461
38092W        W46692  16.268   2.167  43.508 -0.2383  0.0350 -0.2441
38093W        W46693   1.097   6.542  10.141  0.1677  0.1572 -0.1314
38094W        W46694  17.620   4.834   4.176  0.0803 -0.0708 -0.0457
38095W        W46695   9.910   5.707  35.483  0.0057 -0.4000  0.1228
38096W        W46696  12.723   2.547   8.017 -0.0969  0.0485 -0.2810
38097W        W46697  18.418   2.489  32.266 -0.0167  0.0366  0.2240
38098W        W46698  20.003   0.770  44.809 -0.2781 -0.0294 -0.4197
38099W        W46699   7.069   2.629  25.851 -0.4584 -0.2219 -0.4215
38100W        W46700   4.302   2.638  37.414  0.0516 -0.1095  0.0143
38101W        W46701  15.199   1.055  20.300 -0.2231  0.0957  0.1664
38102W        W46702   8.717   3.500   3.694  0.0344 -0.1341 -0.1527
38103W        W46703   7.747   2.521  36.559 -0.0545 -0.3479 -0.1819
38104W        W46704   2.368   1.140  23.922  0.0799 -0.0423  0.1145
38105W        W46705   0.439   0.497  10.925 -0.0781 -0.1490 -0.1521
38106W        W46706   7.899   3.763   2.588 -0.1494 -0.0050  0.0552
38107W        W46707   6.757   6.562  23.673  0.0841  0.2114  0.1787
38108W        W46708  12.743   1.772  11.401 -0.2565 -0.1091 -0.1013
38109W        W46709   3.918   2.602   5.647  0.0978  0.3308  0.0063
38110W        W46710   2.189   5.350  33.207  0.0306 -0.1685  0.0975
38111W        W46711  12.531   3.698  43.947 -0.0091 -0.2028  0.2193
38112W        W46712   2.985   2.190  25.372  0.0696  0.0009 -0.0174
38113W        W46713  14.786   2.134  18.549 -0.1953 -0.0569  0.2252
38114W        W46714  19.216   5.950   3.428  0.1259  0.1393  0.0518
38115W        W46715  14.109   5.025  34.234 -0.3345  0.0839 -0.2628
38116W        W46716  13.517   6.545   7.637  0.1523 -0.0313 -0.2136
38117W        W46717  18.893   1.451   7.117  0.0462 -0.3196  0.2054
38118W        W46718  19.881   4.374  30.786 -0.1546  0.1767 -0.0248
38119W        W46719   8.769   3.005  36.435  0.2467  0.0222 -0.0983
38120W        W46720  18.691   5.588  41.382  0.0975  0.1610  0.0476
38121W        W46721   0.022   5.384  12.678  0.3231 -0.2499  0.0835
38122W        W46722   6.766   5.010   5.963 -0.2379  0.0808  0.0571
38123W        W46723   3.955   2.680  14.647 -0.2832 -0.0362  0.1028
38124W        W46724  19.485   5.687   3.759  0.0550 -0.2510  0.0413
38125W        W46725   4.501   6.556   9.891 -0.2218  0.1267 -0.0300
38126W        W46726   6.634   2.185  28.276 -0.0898  0.0026  0.1017
38127W        W46727  13.316   5.026  13.695 -0.1415  0.2157  0.1710
38128W        W46728   2.137   4.671  24.550 -0.3490 -0.0083 -0.1403
38129W        W46729   7.713   6.312  25.140 -0.1353  0.2034  0.2177
38130W        W46730  17.540   4.690  23.521 -0.0334 -0.0429  0.0004
38131W        W46731  18.323   5.143  10.632 -0.1287 -0.1398 -0.0127
38132W        W46732   8.125   1.694  44.192 -0.0754 -0.1087 -0.1618
38133W        W46733  18.707   0.287   8.619 -0.1439  0.0036  0.0496
38134W        W46734   8.097   0.732  27.079  0.0828 -0.3346 -0.2521
38135W        W46735   5.134   6.205  12.518  0.1583  0.3602  0.0574
38136W        W46736   7.198   0.043  35.560  0.2392 -0.3345  0.1253
38137W        W46737   6.841   1.926  33.833 -0.1300 -0.1536  0.3866
38138W        W46738  14.527   4.993   4.331  0.1202  0.0520 -0.2094
38139W        W46739   5.260   5.556   2.674  0.0058 -0.0888  0.1491
38140W        W46740   1.623   5.485  38.833 -0.1701  0.0265  0.1313
38141W        W46741  17.116   2.222  33.176  0.3264  0.1845  0.2361
38142W        W46742  15.303   3.364  21.234 -0.0453  0.0173  0.1354
38143W        W46743  13.754   2.398   2.690 -0.2821 -0.0095  0.4035
38144W        W46744  19.171   6.570  21.024 -0.0431 -0.0138 -0.1567
38145W        W46745  10.200   2.012  37.117  0.0388 -0.0580  0.1022
38146W        W46746  18.600   1.784  44.113 -0.0446 -0.2233 -0.3387
38147W        W46747  20.654   0.955  29.778 -0.0929  0.0807 -0.0255
38148W        W46748   3.285   5.435   3.991  0.4592 -0.2747 -0.0134
38149W        W46749  15.768   4.241   7.326 -0.2124 -0.3116  0.1039
38150W        W46750   2.439   4.986   3.151  0.0725 -0.0453  0.0332
38151W        W46751  11.917   4.185  14.360  0.3030  0.0184  0.1616
38152W        W46752  18.762   0.432  15.285  0.6475  0.1661  0.1311
38153W        W46753  11.760   5.168  41.532  0.0669 -0.1301  0.3623
38154W        W46754   5.968   6.062  39.454  0.2351  0.0793  0.0857
38155W        W46755   6.570   3.072  10.098 -0.0753  0.0986  0.1041
38156W        W46756   6.424   1.959   9.715  0.1218 -0.4104  0.2832
38157W        W46757   4.754   0.478  40.883  0.0844  0.0137  0.1335
38158W        W46758   2.066   0.920  33.200  0.0402  0.0801 -0.6064
38159W        W46759   0.142   1.521  10.115  0.1716  0.0681  0.0330
38160W        W46760  20.930   0.921  43.547 -0.1954  0.4038  0.0706
38161W        W46761   7.090   0.645  24.998 -0.0002  0.1278 -0.0711
38162W        W46762   1.084   0.695  16.797  0.1836  0.3340  0.0786
38163W        W46763  17.034   5.249  22.899  0.1294  0.0110  0.0439
38164W        W46764   9.476   3.399   9.827  0.1048  0.1118  0.3776
38165W        W46765   2.446   3.155  29.779 -0.0476  0.1568 -0.1320
38166W        W46766   2.698   1.894   4.500  0.0206  0.0932  0.2240
38167W        W46767  12.031   0.411  28.993  0.0343  0.2774 -0.2246
38168W        W46768   1.804   6.387  41.815  0.3010 -0.1361 -0.1277
38169W        W46769   1.892   3.271  32.509  0.1593  0.2029 -0.2491
38170W        W46770  18.710   2.167  38.412  0.1232 -0.2519 -0.2417
38171W        W46771  13.890   1.334  40.811  0.0216 -0.2226  0.0639
38172W        W46772  15.646   5.552  44.671  0.2926 -0.0789  0.0441
38173W        W46773   8.216   3.576  10.195  0.0269 -0.1001 -0.0924
38174W        W46774   7.132   3.480  43.811  0.1027 -0.1858  0.0451
38175W        W46775  16.051   4.151  28.958  0.1702  0.1688 -0.2495
38176W        W46776  15.244   0.704  29.445  0.0538 -0.2592 -0.2844
38177W        W46777   0.999   5.756   8.269 -0.1246 -0.2841  0.1742
38178W        W46778   8.582   1.918  16.545  0.1132  0.1106 -0.3025
38179W        W46779  11.501   1.337   8.186 -0.3253 -0.0504  0.1798
38180W        W46780  19.272   1.895  12.968  0.0910 -0.0122 -0.2258
38181W        W46781  12.218   2.997  13.679 -0.0974 -0.2676  0.1885
38182W        W46782  10.616   5.106  41.548 -0.2240  0.1396  0.0445
38183W        W46783  19.169   1.787  14.352  0.2621  0.3139 -0.4194
38184W        W46784  14.937   4.154  17.687  0.1677 -0.2693  0.0561
38185W        W46785   0.233   0.987   8.945  0.2277 -0.0446 -0.0645
38186W        W46786  14.218   1.680   1.348  0.2108 -0.0709 -0.0660
38187W        W46787  11.712   3.254  28.977 -0.0051  0.2492  0.0211
38188W        W46788  16.111   1.800  14.178 -0.1583  0.1265 -0.2409
38189W        W46789  15.086   4.291  21.089 -0.0146 -0.1240  0.0067
38190W        W46790  18.110   6.029  14.269  0.1459  0.0285  0.0964
38191W        W46791  19.100   3.428  11.355 -0.0348 -0.1335 -0.0099
38192W        W46792   9.073   1.086  32.229  0.3799 -0.1006 -0.0702
38193W        W46793   2.484   6.058   6.156 -0.2379 -0.1422 -0.0389
38194W        W46794   5.737   3.467  15.141  0.0716  0.0965  0.1536
38195W        W46795   5.702   0.585  21.865 -0.1536 -0.3534  0.1042
38196W        W46796  19.881   5.749  19.793  0.0780 -0.2096 -0.0066
38197W        W46797  18.487   1.833   1.238  0.3269 -0.0474 -0.0045
38198W        W46798  15.300   4.904   3.160 -0.2760 -0.0629 -0.0857
38199W        W46799   0.064   2.272   6.018  0.3740  0.1530  0.1537
38200W        W46800  12.799   4.583  19.593  0.1940  0.0398 -0.1018
38201W        W46801   3.722   1.929  41.066 -0.3288 -0.0668  0.1251
38202W        W46802  18.519   3.607   8.208 -0.0525 -0.1408 -0.0844
38203W        W46803  20.868   4.535  30.942  0.1299 -0.3404 -0.0718
38204W        W46804  12.828   1.716   2.392 -0.1163 -0.1986 -0.0913
38205W        W46805   3.041   2.298  28.737  0.0152  0.3705  0.0269
38206W        W46806  21.136   3.768  35.301 -0.0264 -0.0104 -0.0259
38207W        W46807   1.627   3.431  27.082  0.0756 -0.1735  0.2495
38208W        W46808  17.246   6.301  24.274  0.0776  0.0055 -0.3401
38209W        W46809   8.791   2.248  31.905  0.2960  0.0010  0.2384
38210W        W46810   6.243   2.795   4.387 -0.0650  0.1802 -0.1062
38211W        W46811  12.457   0.129  19.309 -0.1266 -0.1350  0.0620
38212W        W46812  17.456   5.097  41.232  0.0333  0.2330 -0.3290
38213W        W46813  18.761   0.419  20.413 -0.0901 -0.5189 -0.0634
38214W        W46814  18.963   0.679  18.288  0.1818  0.0261 -0.0408
38215W        W46815  21.117   2.028  10.245  0.4019  0.0195 -0.3550
38216W        W46816  10.387   5.888   7.291 -0.0279  0.1154  0.1877
38217W        W46817   3.291   3.329  14.210 -0.2914  0.1522 -0.1380
38218W        W46818  20.113   1.010  44.114  0.1392 -0.6091  0.1846
38219W        W46819  13.449   0.326  29.100 -0.1054  0.0881 -0.1508
38220W        W46820  18.465   4.714  39.292  0.2366 -0.2775  0.1466
38221W        W46821   4.293   0.934   3.648  0.1282  0.2076 -0.1019
38222W        W46822  18.427   3.513  38.603 -0.1776  0.4091 -0.0967
38223W        W46823  17.750   1.779   1.024  0.0782  0.0219  0.0611
38224W        W46824  14.365   4.247  11.956 -0.4733 -0.3605  0.2130
38225W        W46825  16.392   5.497  14.630  0.0521  0.1974  0.2026
38226W        W46826   3.318   2.467  45.090 -0.0281 -0.0916  0.0108
38227W        W46827  19.563   0.341  32.297  0.0261  0.2531  0.0678
38228W        W46828   5.810   2.757  39.082 -0.0786 -0.1616  0.3002
38229W        W46829   8.308   5.712  11.201  0.2044  0.0524  0.0779
38230W        W46830   6.637   5.416  36.831  0.2287 -0.1546 -0.3115
38231W        W46831   6.937   5.868  13.049  0.0389  0.0023  0.0157
38232W        W46832  14.251   4.299  23.065 -0.0387  0.0029 -0.0684
38233W        W46833   5.427   3.745   8.041  0.0695 -0.1118  0.1702
38234W        W46834   8.000   1.797  14.954 -0.1599  0.1720 -0.2865
38235W        W46835   6.196   3.558  15.337 -0.4532 -0.0989 -0.3500
38236W        W46836  12.448   1.347  32.715 -0.2955  0.0071  0.0244
38237W        W46837  11.307   3.226  10.487 -0.2292  0.1237  0.0475
38238W        W46838   6.848   1.587  43.567 -0.3920  0.0049  0.1579
38239W        W46839  19.257   4.843   2.446  0.1032 -0.0245  0.4071
38240W        W46840  12.846   1.306  43.799 -0.0737 -0.1144  0.0653
38241W        W46841   6.313   1.637   5.900 -0.1707  0.1486  0.5195
38242W        W46842   5.268   3.972  30.297  0.2377 -0.3219  0.2657
38243W        W46843   5.837   4.998  23.353 -0.2050  0.1045  0.0618
38244W        W46844  13.761   1.166  37.372 -0.3140  0.1266  0.0677
38245W        W46845  11.525   3.208  28.504  0.0790  0.1249 -0.1498
38246W        W46846   3.288   5.727   7.368  0.3344 -0.0186  0.1214
38247W        W46847   8.892   6.176  14.081 -0.0819 -0.0589 -0.1878
38248W        W46848  12.635   3.503   8.334  0.0081 -0.0511 -0.0322
38249W        W46849  12.968   1.909   8.875  0.0073 -0.0752  0.1271
38250W        W46850  14.190   3.305  43.418 -0.0741  0.1494 -0.3152
38251W        W46851  16.002   1.445  30.554 -0.0244 -0.0026 -0.0279
38252W        W46852  15.415   1.662   8.593  0.1247 -0.0117 -0.1694
38253W        W46853  14.330   0.441  21.815  0.2400 -0.1054  0.0943
38254W        W46854   7.341   2.400  26.244  0.1662  0.2502  0.0247
38255W        W46855   2.154   2.415  14.134  0.0220  0.1152  0.0560
38256W        W46856  14.936   0.695  35.704  0.2175 -0.0246 -0.0168
38257W        W46857   4.867   5.991  30.189  0.1099 -0.1081 -0.1424
38258W        W46858  12.350   3.358  17.544 -0.1462  0.0540  0.1968
38259W        W46859   2.377   6.603  39.977 -0.1982 -0.1243  0.2512
38260W        W46860   7.040   5.622  21.837  0.0275 -0.1748 -0.0325
38261W        W46861  18.472   5.129   8.299  0.1497 -0.1070 -0.1925
38262W        W46862  11.159   0.893  27.451  0.5066 -0.0880 -0.0326
38263W        W46863  20.082   1.521   7.618  0.1803  0.4097 -0.0081
38264W        W46864   7.625   1.178  12.195 -0.1565  0.2700  0.1635
38265W        W46865   2.053   4.616   9.954 -0.1353  0.0767 -0.0507
38266W        W46866  17.212   0.433  19.590  0.3092 -0.1678  0.2003
38267W        W46867   1.515   2.733  14.682  0.0504  0.0303 -0.1814
38268W        W46868   4.192   2.059   4.374 -0.0839 -0.1937 -0.1885
38269W        W46869  17.093   4.206  21.681 -0.0131  0.0795 -0.0346
38270W        W46870   4.532   2.391  24.864 -0.2007  0.0092  0.1061
38271W        W46871   7.242   6.296  16.200 -0.2156  0.0175  0.1618
38272W        W46872  10.364   6.162  34.388 -0.0315  0.2300 -0.3415
38273W        W46873   7.565   3.534  37.282 -0.0862  0.2909  0.1150
38274W        W46874  14.489   2.231  34.470 -0.0719  0.0962  0.0038
38275W        W46875  14.457   4.220  20.383  0.2627 -0.0576  0.1733
38276W        W46876   4.127   4.805  15.123 -0.0903 -0.2285  0.0158
38277W        W46877  12.508   1.857   5.915  0.0932 -0.2819  0.1996
38278W        W46878   5.007   5.384  25.143 -0.1662  0.0682 -0.1054
38279W        W46879   3.176   1.143   4.209  0.0439  0.1283  0.0595
38280W        W46880   1.905   2.275  43.355 -0.2076  0.1286  0.0183
38281W        W46881  19.450   3.775  31.856  0.1169  0.0400 -0.0308
38282W        W46882   6.663   2.462  29.545  0.3369  0.0479 -0.0773
38283W        W46883   5.690   6.121  44.621 -0.0680  0.0385 -0.2404
38284W        W46884   6.490   3.233  38.748  0.2892  0.0886  0.1199
38285W        W46885   8.431   3.453  35.297 -0.0883  0.2569  0.1184
38286W        W46886  12.810   6.056   5.553  0.0810  0.3953 -0.4074
38287W        W46887  20.004   2.287  38.377  0.2213  0.1755  0.0529
38288W        W46888   9.989   6.478   9.500  0.3126  0.0424 -0.1500
38289W        W46889   7.482   0.467  24.140  0.1659 -0.0595  0.1406
38290W        W46890   9.070   1.292   1.183  0.3017 -0.1367 -0.0270
38291W        W46891  10.843   3.102  16.125  0.0326  0.0096 -0.0834
38292W        W46892   9.157   5.458  11.285  0.0734  0.2140 -0.0601
38293W        W46893  18.423   1.625   4.375  0.0744  0.0867 -0.1209
38294W        W46894   2.035   4.015   8.970 -0.2614 -0.2043 -0.1285
38295W        W46895  12.368   1.360  18.033 -0.1210 -0.0184  0.0311
38296W        W46896  16.037   3.693  34.725  0.0286 -0.0462  0.0822
38297W        W46897   0.633   4.392  17.015 -0.2095 -0.1999 -0.0415
38298W        W46898  17.529   3.614  33.414 -0.0239 -0.0697 -0.1112
38299W        W46899   3.645   3.410   0.581  0.0608 -0.0438  0.0497
38300W        W46900  13.144   6.228  10.781 -0.0024 -0.2936  0.1778
38301W        W46901  20.833   6.380  35.269  0.2170 -0.0434 -0.0412
38302W        W46902   0.855   3.029  29.010 -0.2445  0.3485 -0.0000
38303W        W46903  17.708   2.474  43.693  0.2403  0.0407 -0.3107
38304W        W46904   6.163   1.343   0.046  0.1557  0.0824 -0.0157
38305W        W46905   0.093   3.700  44.827 -0.2834 -0.1926  0.0033
38306W        W46906   6.579   2.690  24.826  0.0177 -0.1246  0.0129
38307W        W46907   8.800   2.759  27.009  0.0085 -0.0290 -0.0752
38308W        W46908  20.719   1.005  37.441  0.0791 -0.0510  0.1980
38309W        W46909   2.805   2.560  12.330  0.2232 -0.2504 -0.0048
38310W        W46910   8.266   6.364  42.327  0.2106 -0.0020  0.2134
38311W        W46911  17.299   3.873  20.541  0.3662 -0.0062  0.0137
38312W        W46912   0.341   1.856  12.295  0.0499 -0.0923  0.3147
38313W        W46913  12.774   2.314  29.398 -0.0203  0.3473 -0.2070
38314W        W46914   0.850   4.928  26.441 -0.0320 -0.1050  0.0352
38315W        W46915  11.266   3.474  35.028  0.1832 -0.0315  0.0354
38316W        W46916  13.534   0.480   0.155  0.1127 -0.0008 -0.0060
38317W        W46917  19.222   4.461  37.662  0.0295  0.1614 -0.0153
38318W        W46918   8.587   2.650  32.478  0.1212  0.0266 -0.0799
38319W        W46919  18.272   3.067   6.072  0.0457 -0.0107 -0.0857
38320W        W46920  15.347   4.016   4.844  0.1530  0.2863 -0.2241
38321W        W46921   2.963   4.064  29.120 -0.1560 -0.1843  0.0049
38322W        W46922   0.128   6.520  33.362 -0.0466 -0.0199 -0.0493
38323W        W46923  14.115   0.848  43.308  0.0543 -0.1653  0.0939
38324W        W46924  10.896   2.424  13.802  0.0934  0.2331 -0.1325
38325W        W46925  20.523   1.220  35.084  0.0941  0.2389 -0.0310
38326W        W46926  15.204   1.913  22.571 -0.3555  0.3439  0.1756
38327W        W46927  18.896   4.425  30.746  0.0377  0.0390  0.3262
38328W        W46928   4.662   3.351  35.857  0.1556 -0.1525  0.0084
38329W        W46929  20.143   0.537  28.745  0.1349  0.1642  0.1711
38330W        W46930   3.834   6.320   9.062  0.1526  0.3450 -0.1357
38331W        W46931  13.001   5.270  40.967  0.1010  0.0934  0.1842
38332W        W46932   9.197   6.423   0.249 -0.3226  0.2808 -0.0999
38333W        W46933   2.893   3.696  34.430 -0.1144 -0.1208 -0.0798
38334W        W46934  10.509   6.335   2.221  0.0923 -0.1626 -0.0221
38335W        W46935   7.034   6.527   7.947  0.2774  0.4103 -0.2768
38336W        W46936  20.955   5.629  13.822  0.1713 -0.2817 -0.2641
38337W        W46937   9.092   5.526  31.737  0.0984 -0.1169  0.1450
38338W        W46938  16.660   5.253  25.108 -0.1147 -0.0676 -0.1104
38339W        W46939  20.015   5.502  44.932  0.2211 -0.0396  0.0338
38340W        W46940   2.905   3.150  28.911  0.2346  0.2305  0.1228
38341W        W46941   7.359   1.960  26.902  0.2454  0.1083 -0.0557
38342W        W46942  15.898   2.818  25.189 -0.0002 -0.1294 -0.1037
38343W        W46943   7.556   4.578  15.824 -0.0949 -0.2672  0.1553
38344W        W46944   2.745   3.099  22.460  0.0590 -0.1359  0.0950
38345W        W46945  16.238   6.095  34.172  0.0489 -0.0038  0.1017
38346W        W46946   4.177   4.422  10.937  0.0520  0.2968  0.1867
38347W        W46947   2.750   6.005   8.494  0.1650 -0.2810  0.2352
38348W        W46948  11.453   3.464  17.905  0.1717  0.2045  0.2716
38349W        W46949  20.007   4.490  35.935 -0.2721  0.2205  0.0421
38350W        W46950   8.983   1.659  43.135  0.2068 -0.1630  0.1086
38351W        W46951  20.447   4.328  35.828 -0.0651  0.0144 -0.2174
38352W        W46952   3.772   2.933  23.396 -0.0169  0.0090 -0.2133
38353W        W46953   3.796   2.676  26.297 -0.1844 -0.1433  0.2231
38354W        W46954   2.158   2.769  37.656  0.4774  0.1790  0.0491
38355W        W46955   7.080   3.557  23.878 -0.0369  0.0738 -0.3459
38356W        W46956  10.535   1.211  29.971  0.1411 -0.0917  0.1271
38357W        W46957  11.282   2.580  32.548  0.0193  0.1017  0.1351
38358W        W46958  14.085   3.644  43.740 -0.3633 -0.3667  0.1024
38359W        W46959  13.203   5.507  13.493  0.0140  0.3460 -0.4450
38360W        W46960  12.069   1.227   9.849 -0.3524  0.1112  0.1129
38361W        W46961  17.476   3.213   3.009  0.1282  0.4387 -0.2147
38362W        W46962  18.926   4.226  31.826  0.2079  0.2503  0.0885
38363W        W46963  14.871   3.862  31.729 -0.1874  0.0139  0.1822
38364W        W46964  17.246   2.710  30.535 -0.1332  0.1060  0.0394
38365W        W46965   6.535   5.660   9.155  0.0912  0.3133  0.0494
38366W        W46966   4.893   1.242   4.357 -0.0366  0.0335  0.0327
38367W        W46967   3.171   4.520  11.091  0.1757  0.2461 -0.2347
38368W        W46968   7.295   3.008  30.061  0.2162  0.0956 -0.1149
38369W        W46969  13.767   5.990  10.723 -0.1243 -0.2286 -0.1046
38370W        W46970   6.221   5.971  24.957 -0.1124 -0.1016 -0.0881
38371W        W46971   3.934   2.814  27.243  0.2605 -0.1080 -0.2139
38372W        W46972  20.054   1.883  11.353 -0.1651  0.0190  0.1675
38373W        W46973   9.784   5.444  39.794  0.2046 -0.1481  0.0560
38374W        W46974  17.741   0.125  43.237  0.0094 -0.0316 -0.2866
38375W        W46975  16.123   3.446  37.743 -0.0554 -0.2807  0.3068
38376W        W46976  20.024   1.494  36.786  0.0860 -0.2540  0.0429
38377W        W46977   0.634   6.267  38.208  0.1050  0.0399 -0.1228
38378W        W46978   6.883   0.769  43.565 -0.1721  0.1946  0.1440
38379W        W46979  11.885   5.413   0.323  0.0497 -0.0298  0.0077
38380W        W46980   7.561   2.240  23.447 -0.2781  0.2347  0.0749
38381W        W46981   0.959   0.463  10.684  0.1898  0.1696  0.1318
38382W        W46982  20.727   6.486  31.772 -0.2096  0.0129  0.0154
38383W        W46983  17.848   0.547   2.082 -0.1048 -0.1822 -0.1529
38384W        W46984   8.943   5.721   9.806  0.2720  0.1995  0.0681
38385W        W46985   7.377   5.305   8.345 -0.0675 -0.0840 -0.1165
38386W        W46986  19.860   2.181  44.595  0.0326  0.0976 -0.1746
38387W        W46987   0.024   5.319  11.093  0.1332 -0.1122  0.0066
38388W        W46988   8.892   2.847   6.978  0.0996 -0.1610  0.0018
38389W        W46989  17.603   5.999  29.476  0.0121  0.1084 -0.1152
38390W        W46990  10.809   3.869   4.142 -0.1074  0.1898 -0.1283
38391W        W46991   7.793   5.159  12.298  0.0910  0.1515 -0.2069
38392W        W46992   3.886   5.893  35.880 -0.2951  0.2385 -0.0674
38393W        W46993  11.646   5.700  26.788 -0.1251  0.0222 -0.1561
38394W        W46994   2.802   4.148  11.729 -0.4239 -0.1535  0.0305
38395W        W46995  17.177   5.339   5.614 -0.2644 -0.1661 -0.0241
38396W        W46996  16.490   0.030  43.802 -0.0788  0.2292  0.0536
38397W        W46997  20.340   5.113  20.851 -0.0447  0.0344  0.0325
38398W        W46998  18.271   1.527  42.593 -0.1938  0.1571 -0.0893
38399W        W46999  15.635   1.689  31.825  0.4614 -0.1379 -0.1418
38400W        W47000   3.493   5.300  43.138  0.2186  0.2156  0.0442
38401W        W47001   1.221   1.126   6.793 -0.2415 -0.1407 -0.4557
38402W        W47002  11.985   1.402  36.417 -0.1388  0.1306  0.2967
38403W        W47003   4.692   5.227   2.948 -0.1194 -0.0763 -0.0653
38404W        W47004   7.362   1.059  14.044  0.1645 -0.0414 -0.0209
38405W        W47005   4.391   2.659  40.570  0.1425  0.3086  0.0593
38406W        W47006   0.576   2.962   9.255 -0.0286  0.0536 -0.1043
38407W        W47007  15.895   4.783  22.941  0.1854 -0.2071 -0.1471
38408W        W47008  10.673   0.340  17.482 -0.4052  0.4951 -0.0236
38409W        W47009  13.412   5.984  30.805 -0.2512 -0.2687 -0.1422
38410W        W47010   6.073   5.317  44.685 -0.2646 -0.2863 -0.0639
38411W        W47011  12.366   4.680  34.864 -0.1861  0.1355 -0.0249
38412W        W47012   1.057   4.696  35.790 -0.0887  0.2562  0.2410
38413W        W47013   1.330   3.109  31.685  0.0886 -0.0183  0.3980
38414W        W47014  19.027   2.734  35.646 -0.0320 -0.2123 -0.0100
38415W        W47015  15.073   2.646  44.801 -0.0388  0.3009  0.1634
38416W        W47016  19.929   5.148   6.292  0.2229 -0.1128 -0.4387
38417W        W47017   4.646   4.237  40.840  0.0751 -0.4657 -0.1016
38418W        W47018   8.266   1.189  28.985  0.4623  0.1899 -0.0777
38419W        W47019   3.586   0.873   5.058 -0.1362 -0.2649 -0.1856
38420W        W47020  16.209   5.608  34.139 -0.0144  0.1067 -0.0377
38421W        W47021  19.006   0.041  33.342  0.0184  0.1118  0.2091
38422W        W47022   1.535   1.754   5.018  0.0057  0.2012 -0.0974
38423W        W47023   3.142   6.210   7.714 -0.0490  0.0505  0.2554
38424W        W47024  15.805   3.512   3.230 -0.1161 -0.1177  0.1912
38425W        W47025  17.853   2.943  43.896  0.1391 -0.1243  0.1543
38426W        W47026  10.600   1.653  14.342 -0.0751  0.0486 -0.3262
38427W        W47027   8.214   3.664   7.468  0.1369  0.1956 -0.5692
38428W        W47028   7.165   0.350  43.585  0.1071  0.0737  0.2385
38429W        W47029   3.867   2.536   0.404  0.1557 -0.0244  0.3484
38430W        W47030  20.174   6.517  38.206 -0.1860 -0.2826 -0.0644
38431W        W47031  15.138   1.065  15.802 -0.5168 -0.0666  0.1807
38432W        W47032   4.262   2.849   8.534 -0.1383  0.0084 -0.4171
38433W        W47033  20.999   0.126  43.950 -0.0084  0.2909 -0.0462
38434W        W47034  19.965   6.121  38.538 -0.0986  0.0893  0.2116
38435W        W47035   4.256   3.808   2.203  0.1946  0.0901  0.0386
38436W        W47036   2.587   4.633  12.460  0.2319  0.1950  0.0861
38437W        W47037   9.530   5.145   9.615  0.1992  0.3189  0.0325
38438W        W47038  12.546   5.854  12.925 -0.0724  0.3340 -0.2228
38439W        W47039  17.178   2.594  19.649  0.3124  0.0043 -0.1765
38440W        W47040   4.803   6.012  30.700 -0.3706  0.0597  0.1974
38441W        W47041  20.232   4.472  35.405 -0.2012  0.2933  0.3431
38442W        W47042   2.485   4.561  27.525  0.0763  0.0747  0.0650
38443W        W47043  15.085   1.374  17.229  0.0443  0.0952 -0.0061
38444W        W47044  13.933   5.655  29.322 -0.0509  0.0822 -0.0794
38445W        W47045   4.605   3.077   8.266  0.1064  0.0331  0.1049
38446W        W47046   7.867   3.091  24.515 -0.0883 -0.4507 -0.1143
38447W        W47047  20.207   0.872  17.955  0.3426  0.0700 -0.2406
38448W        W47048  10.393   0.622   4.767  0.0829  0.0785 -0.0573
38449W        W47049   6.585   3.757  15.669  0.1349  0.2465 -0.3988
38450W        W47050   2.333   2.853  28.998  0.0466 -0.0604 -0.0651
38451W        W47051   5.328   1.152  38.163  0.2043 -0.0014  0.0421
38452W        W47052   8.284   1.428  31.143 -0.2240  0.1439  0.0598
38453W        W47053   9.829   1.270  25.313  0.4826  0.0513 -0.0422
38454W        W47054   0.766   2.286  14.298 -0.1085 -0.1277  0.0842
38455W        W47055   6.202   0.932  36.602  0.0848 -0.1743 -0.0800
38456W        W47056  12.689   3.511  30.756  0.1743 -0.1891 -0.0613
38457W        W47057   9.422   4.373   3.600 -0.0411  0.1527 -0.1711
38458W        W47058   4.063   3.662  11.978  0.1438  0.1303  0.3898
38459W        W47059   1.103   3.422  37.397  0.2531  0.0065  0.1422
38460W        W47060  20.027   0.946   1.198 -0.2563  0.1236 -0.0203
38461W        W47061  10.984   1.612  12.195 -0.1248 -0.0050  0.2007
38462W        W47062  12.132   4.062   0.587 -0.0890  0.2460  0.0146
38463W        W47063  12.422   0.178   5.091  0.1133 -0.0682 -0.2460
38464W        W47064  16.998   4.081  40.887 -0.1129  0.1497  0.1323
38465W        W47065   7.439   5.381  25.452 -0.1202  0.1669 -0.1632
38466W        W47066  11.310   0.378  31.069 -0.0818 -0.2419 -0.0153
38467W        W47067  12.017   0.412  42.729 -0.0161  0.3073  0.0465
38468W        W47068   0.840   2.248   4.437  0.2100  0.0850  0.2553
38469W        W47069  18.164   1.105  22.811 -0.0686  0.0453 -0.3732
38470W        W47070  12.624   5.325  19.463  0.0054 -0.3244  0.2033
38471W        W47071  21.046   6.468  41.156  0.1464 -0.1431  0.3565
38472W        W47072  20.143   1.331  38.244  0.0052 -0.1786  0.2086
38473W        W47073   7.257   0.889  29.003  0.1009 -0.2921 -0.3386
38474W        W47074   7.945   6.165  12.312 -0.0355  0.0411 -0.3515
38475W        W47075  19.805   1.813  31.409  0.0632  0.0159 -0.3715
38476W        W47076   1.585   4.098  34.894 -0.1752  0.0504  0.2585
38477W        W47077  10.207   0.949  30.738 -0.1301 -0.3547  0.0130
38478W        W47078  17.849   2.332  23.115  0.2008  0.0411 -0.0599
38479W        W47079  19.120   4.224   7.663  0.0249  0.2493 -0.0504
38480W        W47080   9.794   4.011  42.635  0.3528  0.0382  0.2147
38481W        W47081   7.555   5.226  11.018 -0.0791  0.1401 -0.0046
38482W        W47082   5.239   0.205  39.411 -0.1136 -0.1395 -0.0095
38483W        W47083  12.322   3.115  28.286 -0.2698 -0.0501 -0.0539
38484W        W47084   6.365   2.499  28.538 -0.3279  0.1964 -0.0139
38485W        W47085   1.882   1.715  39.347 -0.0018 -0.0575 -0.3480
38486W        W47086   4.780   2.368   9.010  0.2172 -0.0773 -0.3046
38487W        W47087  13.136   6.141  35.304 -0.1418  0.0645 -0.0124
38488W        W47088  18.663   1.061  33.897  0.0211 -0.2690  0.1179
38489W        W47089   8.098   2.406  22.861  0.2162  0.1362 -0.4437
38490W        W47090   8.383   3.559  11.179 -0.0610  0.0618  0.1015
38491W        W47091  15.858   1.416  23.517 -0.0107  0.4893 -0.1211
38492W        W47092   7.580   2.092  14.240 -0.0304 -0.2111 -0.0220
38493W        W47093   3.110   3.020  41.657 -0.0877 -0.1500 -0.0966
38494W        W47094  18.971   0.686  11.134 -0.0445 -0.0414 -0.0577
38495W        W47095   6.739   2.014  21.455  0.0312 -0.1233  0.0259
38496W        W47096  17.288   4.114  11.293 -0.0088 -0.0327 -0.0841
38497W        W47097  19.323   5.022  14.012 -0.3373 -0.3812  0.2304
38498W        W47098   7.906   2.554  26.949  0.0494 -0.0469  0.0683
38499W        W47099   2.447   0.214  12.999  0.1933 -0.0638  0.0848
38500W        W47100   2.055   6.176  32.737 -0.1504 -0.0022 -0.0551
38501W        W47101  13.119   5.040  29.933  0.0721 -0.1719 -0.1019
38502W        W47102  13.756   0.957   6.759 -0.1141 -0.0200  0.0423
38503W        W47103  16.214   4.322  37.787 -0.0780  0.2234 -0.1008
38504W        W47104  15.596   1.979  41.254 -0.0255  0.0444 -0.0817
38505W        W47105  19.884   1.025  38.534 -0.1084  0.0557 -0.2397
38506W        W47106  20.413   1.296  36.089  0.0878  0.0324  0.0750
38507W        W47107   7.490   4.596  35.751 -0.0978  0.0874 -0.0118
38508W        W47108  17.202   3.009  35.106 -0.1413  0.1522  0.1455
38509W        W47109  16.186   5.571  11.920 -0.0029 -0.0812  0.4499
38510W        W47110  14.760   2.151   1.765  0.4300  0.3188  0.2000
38511W        W47111  15.628   5.103  38.798 -0.0870 -0.0715 -0.3176
38512W        W47112  18.405   1.615   9.562  0.0404 -0.0761 -0.0944
38513W        W47113  13.198   2.560  15.621  0.0247 -0.0886  0.0381
38514W        W47114  14.504   1.743  40.495 -0.0268 -0.1385  0.0440
38515W        W47115   6.462   0.251  12.194 -0.0094  0.3008  0.2897
38516W        W47116  16.588   1.893  15.373  0.0560 -0.2453 -0.3492
38517W        W47117   1.078   0.122  32.984 -0.4020 -0.0478  0.0569
38518W        W47118  10.232   6.316  26.823  0.0123  0.1094  0.1527
38519W        W47119   3.352   4.964  26.204  0.4617  0.1211  0.1350
38520W        W47120  19.654   0.053  20.862  0.0913  0.0600 -0.1703
38521W        W47121   3.199   6.101  29.674  0.2506 -0.2523  0.0605
38522W        W47122  10.484   3.682  12.910  0.1285 -0.0739 -0.0181
38523W        W47123   3.171   6.521  34.427 -0.3577 -0.0172 -0.1279
38524W        W47124  12.602   0.957  18.501 -0.1166 -0.3375  0.4538
38525W        W47125  14.238   3.354  29.998  0.1362  0.0757 -0.0005
38526W        W47126  12.282   2.913  31.302 -0.0412 -0.0970 -0.3173
38527W        W47127  11.484   0.182   0.075 -0.0570  0.2368  0.2810
38528W        W47128   0.139   1.074   2.945 -0.0287 -0.2174 -0.0620
38529W        W47129  20.818   4.929   5.459  0.1865  0.0301  0.4581
38530W        W47130   7.593   0.920  31.716 -0.0671 -0.3284 -0.1496
38531W        W47131  20.509   3.173  27.308 -0.0918 -0.0772  0.2924
38532W        W47132  17.122   1.118  29.667 -0.3343 -0.1722  0.2060
38533W        W47133   7.523   6.573   2.078 -0.0412 -0.1283  0.1905
38534W        W47134   5.134   5.557  20.714 -0.0275  0.0959 -0.0372
38535W        W47135   4.672   5.015  27.010  0.2222 -0.1037 -0.2617
38536W        W47136  14.635   2.383   0.150  0.0847  0.0719  0.0251
38537W        W47137  17.498   3.510  22.299 -0.1135 -0.0399 -0.1924
38538W        W47138   0.436   0.082  41.135 -0.0247  0.0094 -0.0511
38539W        W47139  15.672   4.263  21.325 -0.1160 -0.3611 -0.1087
38540W        W47140  11.247   4.007   3.358 -0.1397  0.0615 -0.0152
38541W        W47141  13.699   5.113  37.476  0.1493 -0.0444 -0.1016
38542W        W47142   2.573   5.215  25.170 -0.0148  0.1255  0.0244
38543W        W47143  18.910   6.352  35.105  0.2550  0.2683  0.1892
38544W        W47144  16.805   5.965  29.631 -0.0157  0.2210 -0.1202
38545W        W47145   3.405   1.995   0.780 -0.4217  0.1559 -0.0277
38546W        W47146  11.193   2.277  19.375  0.3644  0.0422 -0.1012
38547W        W47147  17.335   5.046  11.621 -0.0225 -0.0220 -0.0620
38548W        W47148   2.053   1.163  37.161 -0.0670 -0.0921  0.0121
38549W        W47149   0.450   2.615   5.921 -0.1010 -0.1095  0.1108
38550W        W47150  20.440   0.255   9.215  0.3089  0.0817 -0.2082
38551W        W47151  11.087   4.655  38.692 -0.0303 -0.0658  0.0661
38552W        W47152  14.285   2.635  40.188  0.0341 -0.0618  0.1507
38553W        W47153   9.779   1.104  26.696  0.1341 -0.0244 -0.1342
38554W        W47154  19.513   2.495  11.447 -0.2454  0.1032 -0.5551
38555W        W47155   0.369   5.731  14.976 -0.2657 -0.1620  0.2364
38556W        W47156   8.060   5.358   0.971  0.1017  0.1300 -0.2088
38557W        W47157   9.073   6.131  26.007 -0.0282  0.2371  0.0437
38558W        W47158   3.637   2.598   0.888 -0.2402  0.0372  0.2767
38559W        W47159  16.754   6.224  35.464  0.2467  0.1312 -0.1238
38560W        W47160  10.615   0.744   9.368 -0.0827 -0.0322  0.1957
38561W        W47161  18.131   3.778   1.950  0.1339 -0.0719  0.0757
38562W        W47162   0.061   4.166  34.665  0.1295 -0.3306 -0.2448
38563W        W47163   2.449   5.296  31.980  0.2485  0.0777 -0.1790
38564W        W47164   8.460   1.531  26.016  0.0293  0.1948  0.1641
38565W        W47165   1.300   0.900  29.732 -0.0641 -0.1056  0.1466
38566W        W47166  20.728   3.394  16.397 -0.0797 -0.0525  0.0461
38567W        W47167   1.393   1.640   5.552 -0.2266  0.0251  0.1567
38568W        W47168  12.899   4.824  41.720  0.2753  0.0174  0.2364
38569W        W47169   2.246   6.071   2.832 -0.0673  0.0831 -0.2749
38570W        W47170   5.993   4.688   2.440 -0.4351  0.1659 -0.0311
38571W        W47171  10.600   1.980   7.076  0.0700 -0.0448 -0.0949
38572W        W47172   0.077   5.554   1.553 -0.1127  0.1910  0.0040
38573W        W47173  17.181   5.190  30.804  0.0007 -0.1210 -0.0054
38574W        W47174  18.798   5.679   4.251  0.3159  0.0781 -0.1193
38575W        W47175   5.227   3.136  30.728 -0.1312  0.0362  0.0645
38576W        W47176   6.147   0.920  33.964  0.0002  0.1214 -0.1896
38577W        W47177  15.586   0.676   3.841  0.1959 -0.3462 -0.1915
38578W        W47178  16.723   6.572  28.814 -0.0143 -0.0072 -0.1818
38579W        W47179  17.499   5.929  13.668 -0.0661  0.3275  0.0164
38580W        W47180   9.994   2.110  26.551 -0.2499 -0.0745  0.3021
38581W        W47181  15.614   4.429   9.825  0.0506  0.2478  0.0813
38582W        W47182   4.405   4.585  43.462  0.1748  0.0510  0.1041
38583W        W47183  17.267   5.777  40.394 -0.1188  0.0621  0.3176
38584W        W47184  14.906   1.004   1.105  0.0420  0.0868  0.1063
38585W        W47185   1.591   3.056   6.419  0.5223  0.0296 -0.1034
38586W        W47186  15.402   1.095   7.210 -0.0225  0.0844  0.3623
38587W        W47187   9.778   0.653   6.421  0.1247 -0.2055  0.0265
38588W        W47188  11.711   3.218  11.881  0.0541 -0.0536 -0.0191
38589W        W47189   4.648   3.994  22.310 -0.0844  0.0919 -0.0417
38590W        W47190   0.405   6.543  37.773  0.2013  0.0391 -0.2269
38591W        W47191  11.977   0.052  15.862 -0.0678  0.0443  0.1716
38592W        W47192   6.938   2.462  24.361  0.0398 -0.1031  0.0189
38593W        W47193   2.051   1.670  10.961 -0.0979 -0.1359 -0.1284
38594W        W47194  11.335   3.557  33.768 -0.0194  0.0506  0.1253
38595W        W47195  20.811   5.333  29.228 -0.1137 -0.2606  0.3768
38596W        W47196   1.611   3.221  25.472  0.0981  0.0450  0.2041
38597W        W47197  10.512   5.868   5.668  0.1312 -0.0361  0.1402
38598W        W47198  13.480   4.831  12.624  0.3006  0.2622  0.1079
38599W        W47199   7.542   6.336  41.955  0.0777 -0.2679 -0.1607
38600W        W47200  17.791   5.829  21.985 -0.0126 -0.0852  0.0613
38601W        W47201   1.680   5.126  35.631  0.1318  0.0114  0.1409
38602W        W47202  11.779   1.538  35.650 -0.0294  0.3087 -0.3135
38603W        W47203  19.315   5.849  31.664  0.1595 -0.1260  0.1873
38604W        W47204   1.604   4.451  42.794  0.1981 -0.4449 -0.0704
38605W        W47205   2.632   4.013  43.296 -0.0482  0.1120  0.1930
38606W        W47206  14.011   2.986  11.887 -0.2626  0.1285 -0.0962
38607W        W47207   7.716   0.273  11.895  0.1004 -0.1844  0.1443
38608W        W47208  13.394   3.399  33.613 -0.0999  0.1421  0.0501
38609W        W47209  16.286   5.788  23.821  0.3108 -0.1620  0.3354
38610W        W47210  15.862   6.175  21.470  0.0859  0.0407 -0.1521
38611W        W47211  16.188   1.860  42.203  0.1226 -0.1184  0.3925
38612W        W47212   1.263   5.850  26.627  0.1677  0.2588 -0.0430
38613W        W47213  19.405   6.081  19.903  0.0043  0.3731  0.4226
38614W        W47214  12.426   0.134   1.268 -0.1819  0.1690 -0.3123
38615W        W47215   1.216   2.587  28.663 -0.0124  0.1086  0.2806
38616W        W47216  17.052   4.026  38.587  0.0156  0.1518  0.0303
38617W        W47217  13.609   3.876  20.677  0.0512 -0.5397 -0.0697
38618W        W47218  19.258   0.740   3.431  0.1459  0.0983  0.0922
38619W        W47219   7.185   6.396  13.235  0.2822  0.0073 -0.1396
38620W        W47220  18.829   5.990  11.663  0.0189 -0.1366 -0.0390
38621W        W47221  19.901   3.155  14.190  0.1646  0.1610 -0.0667
38622W        W47222  16.096   4.910  23.880  0.1816  0.0489 -0.1050
38623W        W47223  13.240   1.677  38.422  0.1100 -0.0250  0.0922
38624W        W47224   7.552   1.124   5.261 -0.0422  0.1338 -0.0248
38625W        W47225  21.030   5.767  44.038 -0.5492 -0.0110 -0.2365
38626W        W47226  16.958   0.313  31.994  0.3000 -0.0769  0.0013
38627W        W47227   5.290   2.965  25.174 -0.0347  0.0504  0.1107
38628W        W47228   9.685   2.659   7.732  0.3083  0.0143 -0.0905
38629W        W47229  14.925   4.750   3.922 -0.2870  0.0397  0.3545
38630W        W47230   3.756   5.224  28.504  0.3254  0.3032  0.0737
38631W        W47231  17.274   3.166  10.754  0.0503 -0.0837  0.0669
38632W        W47232  16.206   0.084  43.215  0.0256  0.0371 -0.0027
38633W        W47233   5.145   4.635   2.420  0.4302  0.1495 -0.2523
38634W        W47234   7.863   4.002  36.335 -0.2983  0.3728  0.3223
38635W        W47235  13.107   3.589  18.767 -0.1242  0.1156  0.1296
38636W        W47236   8.086   2.809   5.193  0.0438 -0.2139  0.0970
38637W        W47237  14.238   6.227  17.061 -0.0116  0.2933 -0.1341
38638W        W47238  12.385   1.333  30.256 -0.0155  0.1180  0.0662
38639W        W47239  20.623   2.142  39.177 -0.0889 -0.0096 -0.0474
38640W        W47240   2.166   2.063  30.752  0.3557 -0.0909 -0.1473
38641W        W47241   1.228   0.695  39.594  0.3611  0.1822 -0.0283
38642W        W47242   0.410   3.445  33.409 -0.2999 -0.1565 -0.0290
38643W        W47243  12.341   4.518  30.490 -0.0903 -0.0294  0.2611
38644W        W47244   7.614   6.500  34.496  0.0244  0.0019 -0.0436
38645W        W47245  14.177   0.008  33.652 -0.0358 -0.0360 -0.0602
38646W        W47246  10.183   6.153   0.058 -0.0128  0.0360 -0.1940
38647W        W47247   1.961   4.059  10.867 -0.3197 -0.2463  0.2908
38648W        W47248  15.136   3.720  37.934  0.1297  0.0569  0.2418
38649W        W47249  19.801   3.922  30.782  0.2262  0.0737  0.0031
38650W        W47250  14.707   1.198  32.251 -0.0165 -0.0813  0.0072
38651W        W47251   8.037   0.874   9.777  0.2011  0.0611 -0.0388
38652W        W47252   7.181   4.277  29.575  0.1905  0.3258 -0.1748
38653W        W47253   6.708   2.298  26.903  0.0550  0.0972  0.0805
38654W        W47254  13.331   2.048  37.121 -0.2792 -0.1648 -0.0314
38655W        W47255  12.697   4.668  35.318 -0.0452  0.3202  0.0934
38656W        W47256   2.866   0.955  13.296 -0.1243 -0.0430 -0.0011
38657W        W47257   0.347   0.245  13.812  0.1419  0.0307 -0.1777
38658W        W47258   4.211   6.330  35.733 -0.0232  0.1984  0.0932
38659W        W47259  19.670   4.221  42.240 -0.0671  0.1672 -0.1801
38660W        W47260  12.883   5.812  15.926 -0.1433  0.0281 -0.0115
38661W        W47261  17.974   2.175   5.283  0.0343 -0.0379 -0.0748
38662W        W47262  13.757   1.725   9.128  0.3641 -0.0846 -0.2843
38663W        W47263   0.882   0.505  31.941  0.0246  0.0958  0.0578
38664W        W47264   3.708   0.555  11.007  0.1814  0.3259  0.0789
38665W        W47265  18.453   2.146  10.792  0.0551 -0.0914  0.3129
38666W        W47266  16.991   5.130  41.071 -0.2796 -0.0304 -0.0689
38667W        W47267   7.257   3.177  29.565 -0.0308 -0.0245  0.2073
38668W        W47268   9.078   3.950  44.156 -0.1968  0.0436 -0.0132
38669W        W47269  16.537   0.642  25.477 -0.0847 -0.3911  0.5030
38670W        W47270   6.038   1.725   4.905 -0.0436 -0.0091  0.2502
38671W        W47271  16.213   0.518  35.770 -0.0628  0.0681 -0.0394
38672W        W47272  16.276   3.531   3.711  0.1525  0.2948 -0.1693
38673W        W47273   3.903   3.982  34.760  0.0576 -0.0939  0.1158
38674W        W47274   9.309   3.392  28.126  0.2204  0.0015  0.0194
38675W        W47275   3.078   3.712  24.426 -0.2570 -0.1590  0.0625
38676W        W47276  11.806   1.425  39.615 -0.1128 -0.0161 -0.0473
38677W        W47277   6.464   3.019   8.125 -0.0160 -0.2671  0.1274
38678W        W47278  14.336   4.280  14.328  0.1763  0.1513 -0.3581
38679W        W47279   2.831   1.536  41.742 -0.2455 -0.0671  0.0167
38680W        W47280  12.503   2.522  16.445  0.0253 -0.0440 -0.1765
38681W        W47281  11.774   2.766  29.042  0.0331  0.0130  0.0665
38682W        W47282  15.277   3.352   2.235  0.1618 -0.1231 -0.1669
38683W        W47283   1.604   0.394  15.971  0.1274  0.0019  0.4568
38684W        W47284   1.143   0.875   0.115  0.0831 -0.1580 -0.0977
38685W        W47285  15.616   5.102   3.578  0.1319 -0.2338 -0.0607
38686W        W47286  10.310   5.983  27.940  0.1128  0.1928 -0.2091
38687W        W47287  10.440   5.134  11.668  0.1585 -0.0085 -0.1409
38688W        W47288  19.415   4.728  17.024 -0.4813  0.2718  0.0457
38689W        W47289   0.577   0.726  42.423  0.3198  0.1848 -0.1809
38690W        W47290  16.340   2.653  45.056  0.2989 -0.0649 -0.0985
38691W        W47291  10.948   3.153  43.814 -0.0122  0.0235 -0.1899
38692W        W47292   1.086   1.018  10.508  0.2948  0.1806 -0.0566
38693W        W47293  20.566   5.208   0.987  0.0377  0.1125  0.2222
38694W        W47294   9.105   5.492  27.398  0.2462  0.2057  0.0564
38695W        W47295   3.892   6.162  15.463  0.3534 -0.3187 -0.2513
38696W        W47296   0.540   4.271  29.323 -0.0580  0.3635  0.0510
38697W        W47297   3.872   3.907  43.038 -0.0759  0.3572 -0.0063
38698W        W47298   9.162   2.205   9.892  0.0828  0.0316 -0.2006
38699W        W47299   3.479   3.715  10.761  0.2218  0.0364  0.1191
38700W        W47300  10.550   3.638  30.530 -0.2475  0.0949  0.1178
38701W        W47301  19.608   6.021  32.692 -0.0855 -0.0309 -0.1687
38702W        W47302   0.644   6.251  43.711  0.0315  0.0754  0.0119
38703W        W47303  19.631   2.721  42.457  0.0984 -0.1719  0.0477
38704W        W47304  18.663   0.624  19.879 -0.2975  0.0684  0.0531
38705W        W47305   7.802   4.697  29.192 -0.0122  0.1780  0.2774
38706W        W47306  16.570   6.342  17.635 -0.0566 -0.1517 -0.0593
38707W        W47307   2.347   6.323  42.677  0.0463 -0.1152 -0.2388
38708W        W47308  10.796   6.446  17.349  0.0514  0.2301 -0.0399
38709W        W47309   2.791   1.108  42.120  0.0605  0.1470 -0.2022
38710W        W47310  11.578   6.084  35.061  0.3336  0.0317 -0.2076
38711W        W47311   7.826   6.383  14.522 -0.0543 -0.3017 -0.0398
38712W        W47312  17.363   3.721  15.683  0.2332  0.1581  0.4682
38713W        W47313   3.861   3.598  29.749  0.1395  0.2307  0.1165
38714W        W47314  19.778   4.444  42.684 -0.1705 -0.0317 -0.0879
38715W        W47315   8.320   2.538  15.828  0.1399 -0.0013  0.0302
38716W        W47316  12.447   4.241  11.824 -0.4277 -0.1956  0.0066
38717W        W47317   5.895   5.670  37.032 -0.0414 -0.1513  0.0039
38718W        W47318   4.416   2.245  33.147  0.0038 -0.2066  0.0502
38719W        W47319  14.431   5.948  34.739  0.0647  0.0200 -0.3189
38720W        W47320  10.627   3.720  28.134  0.1349  0.1595 -0.0593
38721W        W47321  17.014   2.205  15.457 -0.1505 -0.1727 -0.0314
38722W        W47322   3.563   1.993  31.636 -0.1127 -0.1291 -0.0009
38723W        W47323  17.378   3.796  34.910  0.2133  0.1045 -0.3246
38724W        W47324  14.287   0.271  33.204  0.1192  0.0584  0.0300
38725W        W47325   3.567   2.105   7.399 -0.0551 -0.1757  0.0067
38726W        W47326   8.853   1.598  33.289 -0.1174  0.1865 -0.0043
38727W        W47327   5.639   3.739  34.277  0.1598  0.0225  0.3694
38728W        W47328  16.089   1.112   3.299  0.0661 -0.0835 -0.1294
38729W        W47329   5.028   2.424  11.492  0.0270 -0.1701  0.2807
38730W        W47330  10.450   0.013  36.665  0.1928  0.0005  0.1346
38731W        W47331  17.604   5.713  17.748  0.0827  0.1233  0.0203
38732W        W47332  10.640   6.340  36.127 -0.1627  0.2702  0.1369
38733W        W47333  10.528   5.039   8.454 -0.1306  0.0804  0.0409
38734W        W47334   7.247   3.028   7.723  0.0883 -0.2979  0.0097
38735W        W47335  11.425   4.615  36.487 -0.2137  0.1196 -0.0356
38736W        W47336   0.169   0.954  37.525  0.1792 -0.1848 -0.0976
38737W        W47337  15.782   4.613  29.202 -0.0182  0.1429  0.0715
38738W        W47338  11.087   5.284   5.730 -0.1126  0.2363  0.1701
38739W        W47339   3.088   0.275  12.148 -0.4179  0.3535 -0.1523
38740W        W47340   0.922   2.951  11.635  0.1936  0.0106 -0.4182
38741W        W47341  17.754   2.892  40.114 -0.3379  0.1201 -0.4367
38742W        W47342   9.926   1.173  13.742 -0.0693  0.2171  0.0408
38743W        W47343   7.943   6.160  24.077  0.1159  0.1009 -0.1094
38744W        W47344  13.376   0.581  38.786  0.0100 -0.2211 -0.3614
38745W        W47345   7.507   1.831  23.956  0.0879  0.0410  0.1465
38746W        W47346  20.774   3.102  12.072  0.0748 -0.3043 -0.0237
38747W        W47347   8.536   2.863   8.499  0.1048 -0.0884 -0.0387
38748W        W47348   3.320   3.121  39.316 -0.4493  0.2366  0.0145
38749W        W47349  13.570   5.119   5.470  0.1406  0.1229 -0.2099
38750W        W47350   2.620   4.775   5.846  0.0739 -0.2671 -0.2533
38751W        W47351  17.563   0.840  29.440 -0.0148  0.0243  0.0068
38752W        W47352  12.484   5.893  40.729 -0.0628  0.1505 -0.4761
38753W        W47353   1.422   2.684   0.539  0.0858  0.1416 -0.0369
38754W        W47354  14.348   6.245  10.488  0.2352  0.0116 -0.1064
38755W        W47355  18.006   0.557  34.044 -0.0515 -0.1186 -0.0567
38756W        W47356   5.485   4.871  13.984  0.0579  0.2739  0.1611
38757W        W47357  18.223   4.352  44.554 -0.0410  0.1126  0.3122
38758W        W47358   7.411   0.500   2.258  0.0021 -0.1023  0.2479
38759W        W47359   8.927   5.168  38.047 -0.3626  0.3124 -0.1879
38760W        W47360   6.292   5.432  12.729 -0.0171 -0.1807 -0.1527
38761W        W47361   4.906   0.318  29.812  0.0371 -0.1921 -0.4104
38762W        W47362  17.356   0.940  10.096  0.0921  0.2335  0.1168
38763W        W47363   4.295   5.159  28.685 -0.0692  0.0742  0.1154
38764W        W47364   4.530   3.057  40.886  0.0368 -0.0056 -0.1160
38765W        W47365   7.800   5.284  24.084 -0.1510  0.1345  0.2343
38766W        W47366   7.116   3.279  42.091 -0.3044 -0.0714 -0.3411
38767W        W47367   9.340   0.087  41.308 -0.1496  0.3583 -0.1859
38768W        W47368  16.505   3.384  33.786 -0.0518 -0.4948  0.1680
38769W        W47369   8.825   1.284  33.678 -0.1836 -0.0485  0.0473
38770W        W47370   8.002   0.519  38.750 -0.1541  0.0435 -0.2844
38771W        W47371  20.541   2.229  31.327  0.3862 -0.1410 -0.3144
38772W        W47372   4.503   4.641   7.289 -0.2658 -0.0059  0.1078
38773W        W47373  15.024   0.178   4.564  0.0121  0.0950  0.2469
38774W        W47374  16.692   3.124  38.683  0.1888 -0.1143 -0.0136
38775W        W47375   0.717   4.600  43.144 -0.0610 -0.0346  0.1859
38776W        W47376   9.680   1.193  10.418  0.0462 -0.3683 -0.2467
38777W        W47377  11.644   2.953  15.595  0.0117  0.2945  0.0473
38778W        W47378   3.034   5.127  26.662  0.0946  0.0266  0.1030
38779W        W47379   8.103   2.770  40.520 -0.1373  0.0677  0.1342
38780W        W47380   0.993   3.769   2.694  0.1589 -0.3819 -0.1033
38781W        W47381  10.060   5.390   8.099 -0.0958 -0.0248  0.0050
38782W        W47382   0.697   4.891  32.510 -0.1677  0.2047  0.2390
38783W        W47383   5.624   4.065  28.886 -0.1873  0.0319 -0.0652
38784W        W47384  15.081   0.745  33.738  0.0562 -0.1633  0.2219
38785W        W47385  13.683   6.210   0.883  0.0855 -0.0418  0.2369
38786W        W47386  20.468   6.516  32.660  0.1952 -0.0911  0.1774
38787W        W47387  16.008   5.260   0.997  0.0306 -0.3314  0.0766
38788W        W47388  15.030   6.501  11.807 -0.0620  0.1388  0.1444
38789W        W47389  17.953   1.854  39.895  0.1138  0.2280  0.0759
38790W        W47390   9.431   5.124  40.158 -0.6048 -0.0113 -0.4485
38791W        W47391  10.048   5.997  16.952  0.1575  0.0658 -0.1876
38792W        W47392  15.269   6.020  30.783 -0.0294  0.2073  0.0170
38793W        W47393  18.806   6.525   7.690  0.1385  0.0971  0.1481
38794W        W47394  16.610   2.857   2.013  0.0505 -0.3195  0.0027
38795W        W47395   2.693   5.232  30.531 -0.0140  0.0104 -0.0062
38796W        W47396   7.455   1.196  16.552 -0.1578 -0.1636 -0.2945
38797W        W47397   2.885   1.921  30.759 -0.3889 -0.0544 -0.0112
38798W        W47398   4.147   5.086  34.622  0.2250 -0.1206  0.2510
38799W        W47399   1.470   3.904  16.391 -0.1154 -0.2298 -0.3388
38800W        W47400   3.580   0.008   7.392  0.1139  0.0600 -0.1407
38801W        W47401   4.150   2.590   8.961 -0.4464  0.2479  0.0579
38802W        W47402   4.372   2.445  35.394  0.2177  0.1272  0.0211
38803W        W47403   0.607   4.484  10.779  0.1687  0.0119 -0.1839
38804W        W47404   0.339   2.596  42.047 -0.1638  0.1482  0.0494
38805W        W47405   7.696   2.095   2.976 -0.0376 -0.1563 -0.0794
38806W        W47406   6.913   5.649  31.046 -0.2201  0.2603 -0.3537
38807W        W47407   4.785   2.575  10.084  0.1312 -0.0924  0.0918
38808W        W47408  12.623   6.016  11.020  0.1551 -0.1371  0.0872
38809W        W47409  20.415   2.242   4.189  0.2975 -0.0267 -0.0220
38810W        W47410  14.752   3.910  15.895  0.0193  0.3423 -0.1727
38811W        W47411   8.645   5.724   8.094  0.0500  0.0626  0.1089
38812W        W47412  14.480   6.306  38.117 -0.0402 -0.0679 -0.0655
38813W        W47413   9.353   1.853  42.855  0.1130  0.1316 -0.0236
38814W        W47414  20.794   6.042  36.049  0.0532  0.1978  0.1905
38815W        W47415   0.733   0.807  13.754 -0.1788 -0.0950  0.0663
38816W        W47416  11.014   5.686  34.038 -0.0997  0.1333 -0.0518
38817W        W47417   9.837   4.310  12.713  0.3330  0.0812  0.0213
38818W        W47418   6.918   3.326  29.998  0.0177 -0.1746  0.2498
38819W        W47419   7.696   5.477  26.341  0.0653 -0.2703  0.1493
38820W        W47420   0.449   0.196   3.183 -0.2146 -0.0715  0.0266
38821W        W47421   6.986   4.140  31.730  0.0150  0.3485 -0.1094
38822W        W47422  16.911   4.384  21.237  0.1027  0.1246  0.0704
38823W        W47423  17.816   3.412  19.330 -0.0016 -0.2588  0.0079
38824W        W47424  11.340   4.810   7.972 -0.2970  0.0444  0.1198
38825W        W47425  18.573   4.021  44.596 -0.0816  0.1099 -0.1991
38826W        W47426   5.449   0.794  44.861  0.1225  0.1696 -0.0895
38827W        W47427  20.498   1.436  42.359  0.0620 -0.1240  0.1770
38828W        W47428  15.004   5.939  32.519 -0.0996  0.1556 -0.2195
38829W        W47429  20.780   4.816  14.937 -0.2052 -0.1056  0.0928
38830W        W47430   5.965   4.484   7.261 -0.0119  0.1205  0.2217
38831W        W47431   5.563   0.849  31.132  0.2384 -0.1242 -0.1907
38832W        W47432  10.641   2.049  34.863 -0.0948 -0.2648 -0.0734
38833W        W47433   4.174   4.166   9.878  0.2089  0.2385 -0.0899
38834W        W47434   1.424   4.779  40.403 -0.0588 -0.0678 -0.1298
38835W        W47435  17.025   2.629  29.373  0.2029 -0.3948 -0.1702
38836W        W47436   2.586   1.966  43.215  0.2377  0.1239 -0.0081
38837W        W47437  15.164   2.086  39.398 -0.1741  0.0572 -0.0247
38838W        W47438  10.432   1.066  35.107  0.1643 -0.0673 -0.0621
38839W        W47439   3.190   2.845   5.160  0.2319 -0.4164 -0.0017
38840W        W47440  10.521   5.711  40.773 -0.3461  0.0487 -0.1672
38841W        W47441   9.024   0.892  26.468 -0.2772 -0.3818 -0.1094
38842W        W47442  13.448   5.276  42.698  0.1429  0.0278  0.0172
38843W        W47443   3.364   2.529  25.992 -0.0314  0.1205 -0.1050
38844W        W47444  18.258   0.029  31.541  0.0468  0.0401  0.3988
38845W        W47445   5.418   1.333  31.928 -0.2480 -0.0572  0.1965
38846W        W47446  13.132   2.074  15.561  0.0446 -0.0580 -0.0764
38847W        W47447   2.892   4.908  23.429 -0.1848 -0.0466  0.2450
38848W        W47448  14.699   5.657  20.939  0.0846  0.2403 -0.0052
38849W        W47449  11.664   3.194   7.461 -0.0472 -0.1065  0.0305
38850W        W47450   4.932   6.589  29.379  0.0587  0.1444 -0.3349
38851W        W47451   0.710   2.152   3.381 -0.2306  0.1378 -0.2572
38852W        W47452   1.607   0.269   4.438 -0.2140 -0.1295 -0.0638
38853W        W47453  11.164   0.117  29.170  0.1285 -0.3186  0.2624
38854W        W47454   7.772   5.917  30.615  0.0831 -0.2849 -0.3956
38855W        W47455  12.219   1.616  20.094 -0.1519 -0.1903  0.2551
38856W        W47456   5.149   3.530  36.458 -0.0527  0.4449 -0.1635
38857W        W47457  19.339   4.112  12.446  0.3541  0.1490  0.0716
38858W        W47458  16.923   2.460  40.963 -0.0544 -0.2203  0.0541
38859W        W47459   7.809   6.185   3.264  0.1672 -0.4616  0.0209
38860W        W47460  13.984   1.801  17.825 -0.0739 -0.2573  0.0748
38861W        W47461  10.618   5.946  10.124  0.0413  0.1053 -0.0872
38862W        W47462   5.635   5.477   3.948  0.0782 -0.0505 -0.1342
38863W        W47463   9.849   5.420  15.562  0.2454  0.0807  0.0383
38864W        W47464   5.468   1.945  29.361  0.0013 -0.3535 -0.2456
38865W        W47465  14.216   3.023  35.579  0.1014 -0.1694 -0.0465
38866W        W47466  18.583   4.382  38.387 -0.3735 -0.0399 -0.0063
38867W        W47467  16.886   2.493  17.125  0.2019 -0.2853 -0.2532
38868W        W47468   1.746   1.482  34.348 -0.1086  0.2853 -0.1730
38869W        W47469  12.305   2.310   5.746  0.2427 -0.0230  0.0952
38870W        W47470   0.790   1.394   8.432  0.3505 -0.2349  0.0659
38871W        W47471  17.215   2.466  21.809 -0.1395 -0.0987 -0.0824
38872W        W47472  18.408   3.486  39.590 -0.1607 -0.2356 -0.0848
38873W        W47473   1.050   5.067  13.966 -0.2095 -0.0639 -0.1958
38874W        W47474  10.230   4.492  28.075  0.0481 -0.0221 -0.0784
38875W        W47475   5.664   4.475  33.537  0.3079 -0.2317 -0.2399
38876W        W47476  12.937   0.385  14.548 -0.2921 -0.3827  0.0568
38877W        W47477   6.298   0.206  32.702  0.0473  0.3938  0.0252
38878W        W47478  17.315   3.586  42.851  0.0374 -0.0132 -0.0929
38879W        W47479   5.900   2.194  44.020  0.3044 -0.1314 -0.0369
38880W        W47480   1.102   4.811   4.757 -0.0548  0.0836  0.1010
38881W        W47481   2.864   5.174  10.624  0.2359 -0.6246 -0.0538
38882W        W47482   1.103   2.262  39.952  0.1473  0.0243 -0.0348
38883W        W47483   2.606   3.137  29.292  0.0668 -0.0214 -0.1121
38884W        W47484   8.037   5.847  14.166 -0.0110 -0.3306 -0.1281
38885W        W47485  13.404   2.032  33.667  0.0415  0.0266  0.3482
38886W        W47486  12.103   3.672  12.610  0.0807  0.0125  0.1898
38887W        W47487   5.090   1.004  10.784  0.3872 -0.2686 -0.0751
38888W        W47488  13.323   1.653  15.757 -0.2880 -0.1269  0.0196
38889W        W47489   8.468   5.946  42.871 -0.3318  0.1209 -0.0808
38890W        W47490   0.703   4.678  32.025 -0.0769  0.1124 -0.1572
38891W        W47491  18.255   4.982  37.669  0.1073 -0.0911 -0.2406
38892W        W47492  11.360   2.705   7.437 -0.2688  0.0468 -0.0172
38893W        W47493  20.612   2.154  29.447 -0.2645 -0.2492  0.1077
38894W        W47494   3.513   0.434   5.320  0.0532  0.1650  0.0495
38895W        W47495   9.366   4.767   4.548 -0.2710  0.0185  0.2111
38896W        W47496  16.039   4.724  21.808  0.1504 -0.0484  0.0109
38897W        W47497  12.624   3.842  38.941  0.0841 -0.0649 -0.0231
38898W        W47498  19.179   4.961  41.014 -0.1463  0.0565  0.1667
38899W        W47499  19.595   1.664  14.171 -0.2152 -0.0622 -0.2914
38900W        W47500   8.957   5.198  10.333 -0.0148 -0.0893 -0.0107
38901W        W47501  10.544   4.482   3.569  0.0129 -0.0660  0.0557
38902W        W47502  16.646   0.158  37.658  0.4775 -0.0647 -0.0514
38903W        W47503   7.713   1.054  15.708 -0.0474  0.0446  0.1053
38904W        W47504  14.202   2.229  32.525 -0.0454  0.1109  0.0357
38905W        W47505  10.494   0.002  12.965 -0.0462  0.1131  0.1389
38906W        W47506   4.819   3.267   2.669  0.0739  0.2549  0.0181
38907W        W47507  10.518   0.122   9.650  0.0255  0.0638  0.1447
38908W        W47508  17.319   1.425  19.021  0.1437 -0.0560 -0.1778
38909W        W47509   7.109   4.902   7.169  0.1958  0.1431  0.0297
38910W        W47510  13.949   3.717  37.901 -0.0947 -0.3190 -0.1333
38911W        W47511  20.381   3.952  33.640  0.0446 -0.1728 -0.1918
38912W        W47512   1.631   5.270  36.856 -0.0393  0.2309 -0.0515
38913W        W47513   7.993   5.879  43.167  0.1785  0.3289  0.3717
38914W        W47514   3.166   2.961  29.297  0.1809 -0.1264 -0.3391
38915W        W47515  11.124   2.871  35.074 -0.0187  0.2365  0.0900
38916W        W47516   0.710   0.371  14.723 -0.0816  0.1413 -0.1632
38917W        W47517   1.812   2.044   8.933  0.1394  0.2886 -0.0336
38918W        W47518  13.180   6.384  31.311 -0.1334  0.1789  0.1158
38919W        W47519  13.350   1.683  13.362  0.3928 -0.0699 -0.1183
38920W        W47520  11.627   2.430   1.130 -0.1788  0.0501  0.2098
38921W        W47521   0.244   5.887  16.231 -0.1645 -0.0535  0.1707
38922W        W47522  13.108   4.379   7.121  0.0015 -0.1674 -0.1582
38923W        W47523   4.668   4.964  39.522 -0.0988 -0.2634 -0.2322
38924W        W47524   0.873   5.796   4.451  0.0941  0.2566  0.0850
38925W        W47525  14.631   4.898   2.453  0.1257  0.0565 -0.1430
38926W        W47526   4.569   3.606  25.917 -0.3353 -0.0387 -0.0426
38927W        W47527   5.880   6.463  15.795  0.2624 -0.1630 -0.2957
38928W        W47528  10.053   2.688  40.188  0.3182  0.0342 -0.3318
38929W        W47529  16.997   1.398   7.419 -0.0555  0.0044  0.1291
38930W        W47530  12.195   4.464  29.115  0.0155 -0.0614  0.1151
38931W        W47531   6.218   5.519  40.823  0.0692 -0.2288 -0.0464
38932W        W47532  10.452   3.426  11.065  0.0814  0.0804 -0.2526
38933W        W47533   8.765   2.386  30.258  0.0116  0.0351  0.1707
38934W        W47534  19.605   5.572  16.759 -0.0080 -0.1271 -0.0790
38935W        W47535   3.988   5.934  12.149 -0.0809 -0.2345 -0.2469
38936W        W47536   2.451   4.130   3.436 -0.2485 -0.4556 -0.1874
38937W        W47537   7.384   5.994  39.594  0.1834 -0.0514  0.3702
38938W        W47538   5.521   2.728   1.983 -0.2902  0.0711 -0.1052
38939W        W47539   3.994   6.260  13.820  0.0154 -0.1530  0.1971
38940W        W47540  12.915   4.564  31.296  0.0236  0.1466  0.1284
38941W        W47541   6.260   1.705  26.286 -0.0091  0.2925 -0.0962
38942W        W47542  17.137   3.612   7.760 -0.0775 -0.2518  0.1934
38943W        W47543  18.622   4.090  17.746  0.1015  0.1528  0.0608
38944W        W47544  15.992   0.723  33.736  0.1100  0.0928  0.0604
38945W        W47545   8.741   1.764  44.985  0.2404 -0.0337 -0.2076
38946W        W47546   7.387   0.116  15.231  0.0271  0.0319  0.3831
38947W        W47547  16.983   1.971  16.716  0.0765  0.2330 -0.0104
38948W        W47548  15.435   4.340  15.310 -0.0863 -0.2179  0.2414
38949W        W47549  13.814   0.519   1.187  0.1273 -0.1004  0.1821
38950W        W47550  19.359   1.259  19.096  0.4036 -0.0828 -0.0051
38951W        W47551  14.662   0.056  19.296 -0.0453  0.1032 -0.1637
38952W        W47552  13.080   2.690  31.268 -0.0603 -0.0892 -0.0506
38953W        W47553   1.333   5.814  27.174  0.0682  0.0373 -0.2430
38954W        W47554  16.929   6.256   3.221 -0.1344 -0.1348  0.0429
38955W        W47555   2.319   1.794  11.396 -0.0929  0.1197  0.0441
38956W        W47556  18.400   0.538  29.023 -0.4639 -0.1233  0.2726
38957W        W47557   9.777   1.553  32.734 -0.0599 -0.0814 -0.2241
38958W        W47558  16.272   4.144  16.412  0.0465  0.0095  0.0790
38959W        W47559   3.430   0.639  42.160  0.0877  0.2324  0.1311
38960W        W47560  13.387   2.488   9.141  0.0651 -0.0961 -0.0523
38961W        W47561   8.191   0.060  24.606  0.0355 -0.0255  0.0612
38962W        W47562   2.957   1.726   8.444 -0.1010  0.1681 -0.0191
38963W        W47563   8.724   0.324  30.179 -0.1117 -0.2882  0.2685
38964W        W47564  12.716   5.487  19.971  0.2401 -0.1537  0.0001
38965W        W47565  15.590   5.868  45.023 -0.0259 -0.2355  0.0906
38966W        W47566   1.621   2.515  37.560  0.1086  0.2182 -0.0021
38967W        W47567  19.167   1.529  12.671  0.0527 -0.2762  0.1116
38968W        W47568  11.761   2.378  39.148 -0.2836  0.0654  0.0450
38969W        W47569  15.351   6.504  30.688  0.2025  0.0702 -0.0731
38970W        W47570   8.263   3.980  16.103  0.1878 -0.0334  0.0946
38971W        W47571   3.780   3.225   3.465 -0.1981 -0.1670 -0.0368
38972W        W47572   5.878   2.961  36.230 -0.1012  0.1502 -0.0305
38973W        W47573   1.820   4.877  16.373  0.1457 -0.1278  0.3237
38974W        W47574  10.146   5.155  13.565 -0.1418  0.0467 -0.2231
38975W        W47575  18.097   2.087   9.585  0.0877  0.0435  0.4347
38976W        W47576   9.973   5.447  17.015  0.3201 -0.1500  0.0401
38977W        W47577   8.508   5.481  32.529 -0.1357 -0.0098 -0.2976
38978W        W47578  10.804   5.246  27.504 -0.2488 -0.2159  0.0205
38979W        W47579   2.119   4.633  36.499 -0.1471 -0.1219  0.1756
38980W        W47580  16.294   1.040  41.785 -0.0786 -0.0299 -0.0578
38981W        W47581   7.315   4.230  35.359  0.2653  0.1081  0.4248
38982W        W47582  10.853   4.587   9.488  0.3327 -0.0468 -0.1552
38983W        W47583   2.604   1.077  34.631  0.2145 -0.1553 -0.0308
38984W        W47584   7.292   4.567   4.870 -0.0816 -0.1156 -0.1373
38985W        W47585  20.038   3.577  35.782 -0.4625 -0.0362 -0.1948
38986W        W47586   1.350   6.229  36.884 -0.0280  0.0727 -0.0908
38987W        W47587  11.889   2.388   2.861  0.3538 -0.2522 -0.0451
38988W        W47588   8.061   4.062   0.312 -0.5077 -0.0112  0.1890
38989W        W47589  18.829   5.358  42.643  0.2518  0.1277  0.2623
38990W        W47590  14.355   5.634   8.990 -0.0571 -0.0913  0.0448
38991W        W47591  13.916   5.368  41.095  0.2426 -0.0992 -0.2465
38992W        W47592  16.145   1.064  13.373 -0.0419 -0.1256  0.1380
38993W        W47593  13.695   4.033  39.697 -0.0885 -0.2715 -0.0863
38994W        W47594  12.512   4.360   0.361  0.1180  0.0103 -0.1472
38995W        W47595   8.561   6.570  14.210  0.0158 -0.1961 -0.1070
38996W        W47596   0.042   5.895   6.380  0.0192  0.4182 -0.1517
38997W        W47597   8.498   5.780  12.173 -0.0163  0.0045 -0.0652
38998W        W47598  19.283   2.931  32.014 -0.0776 -0.1142  0.0289
38999W        W47599   9.061   0.216  29.363 -0.0246 -0.1553  0.3155
39000W        W47600  20.263   2.361  40.717 -0.2428 -0.1198 -0.0669
39001W        W47601   1.826   2.847   9.500  0.2324 -0.0640  0.0105
39002W        W47602  10.563   2.080  31.794 -0.2264  0.1398 -0.1447
39003W        W47603  17.026   3.473  35.003  0.0148 -0.1904 -0.3447
39004W        W47604   0.248   4.022   3.939  0.3603  0.0372  0.0361
39005W        W47605   5.186   0.512  10.886 -0.0564  0.3687 -0.1997
39006W        W47606   8.692   2.015  23.182  0.2708 -0.0572  0.4156
39007W        W47607  20.389   1.905  30.458  0.0599  0.0592  0.0126
39008W        W47608   5.978   5.628  25.233 -0.0397 -0.0043 -0.1245
39009W        W47609  14.492   1.751  19.502  0.2748  0.0944 -0.0668
39010W        W47610  21.077   5.423  42.626 -0.0278  0.0672 -0.2313
39011W        W47611   9.420   4.341  13.000 -0.3056 -0.2081 -0.1938
39012W        W47612   9.545   4.637  30.488  0.0875  0.2025  0.3108
39013W        W47613  18.991   5.527  11.083  0.1222  0.0426  0.1047
39014W        W47614   8.824   3.321  28.483 -0.1231  0.0694  0.2710
39015W        W47615   4.668   1.677  24.496 -0.0278  0.1796 -0.0412
39016W        W47616   3.391   3.597  25.240 -0.0697  0.1656 -0.1774
39017W        W47617  11.482   2.264   8.490 -0.1450 -0.0313 -0.1754
39018W        W47618  17.016   4.038  14.225 -0.2982  0.0822 -0.0560
39019W        W47619   8.217   5.218   3.176  0.2504 -0.0748 -0.0067
39020W        W47620  14.446   1.046   0.861 -0.0023  0.0312  0.0387
39021W        W47621   5.219   5.235   7.062 -0.2810 -0.2627  0.1206
39022W        W47622   2.443   0.650   2.386  0.1229 -0.1514 -0.1617
39023W        W47623  20.388   0.585  30.652 -0.0746  0.0225 -0.0797
39024W        W47624   0.213   1.148   8.004  0.2112  0.1199 -0.2492
39025W        W47625   6.681   2.968  28.509 -0.0849 -0.0001 -0.0942
39026W        W47626   5.391   3.943  36.180 -0.0057  0.2889 -0.3509
39027W        W47627  17.911   5.228  39.537  0.4414  0.2820 -0.0974
39028W        W47628  14.646   4.250  10.061  0.2109 -0.2685  0.2212
39029W        W47629  12.936   2.376  36.857 -0.0357 -0.0497  0.1394
39030W        W47630   5.516   5.011  36.117  0.0888 -0.0565  0.4569
39031W        W47631  13.755   6.068  16.239  0.1523 -0.0654  0.1076
39032W        W47632  14.978   5.717   7.646 -0.1074  0.0202 -0.2288
39033W        W47633  17.032   3.616  10.674 -0.1631 -0.0758 -0.2573
39034W        W47634  19.371   1.619  16.495 -0.2193 -0.0377  0.0926
39035W        W47635   1.771   5.436  35.250 -0.0344  0.0744 -0.1166
39036W        W47636  15.859   1.597  45.007  0.1636 -0.0539  0.1714
39037W        W47637  12.134   4.929  11.394  0.3074  0.2567 -0.2708
39038W        W47638  20.751   5.032  32.307 -0.0742 -0.0575  0.1886
39039W        W47639  15.323   5.337  23.600  0.0990  0.0483 -0.0772
39040W        W47640  15.963   0.026   9.975 -0.1405 -0.0576  0.2540
39041W        W47641  19.780   3.886  29.044  0.0589 -0.1893  0.1587
39042W        W47642   3.396   5.237  36.258  0.5095 -0.0702  0.0295
39043W        W47643  14.789   5.502  11.084 -0.1155 -0.1013  0.1255
39044W        W47644   2.601   3.681   9.721  0.0411 -0.2383 -0.2518
39045W        W47645  13.758   0.052  19.084 -0.2164 -0.3790  0.0367
39046W        W47646   4.200   4.195  13.594  0.2800  0.0405  0.1026
39047W        W47647  15.680   4.487  43.364  0.0639 -0.0133  0.0698
39048W        W47648  19.603   6.424  31.879  0.1743  0.0028  0.2987
39049W        W47649  11.070   5.724  31.794  0.0282 -0.2562 -0.1622
39050W        W47650  20.456   2.196   7.443  0.1392 -0.0089  0.1067
39051W        W47651  13.874   4.947  44.053 -0.1061 -0.2382  0.0587
39052W        W47652  19.830   2.524   4.335  0.1110  0.0317  0.1592
39053W        W47653  21.110   5.381  44.338  0.1859  0.0258  0.1854
39054W        W47654  20.870   3.074  42.629 -0.1383 -0.0259 -0.2160
39055W        W47655  15.029   0.060  32.991  0.0619  0.0823  0.0866
39056W        W47656  18.254   0.964  16.474 -0.2201 -0.2539 -0.2101
39057W        W47657  19.079   6.476  11.489  0.1111  0.2138 -0.4063
39058W        W47658  13.264   0.357  41.831 -0.2869  0.2140  0.0385
39059W        W47659  12.162   5.712   9.729 -0.1785 -0.3003  0.4598
39060W        W47660  20.801   0.768  34.309  0.0923 -0.0077  0.3208
39061W        W47661  19.599   3.205  20.132  0.1444 -0.2417  0.1982
39062W        W47662  16.759   4.715  20.440  0.1180 -0.3355 -0.1144
39063W        W47663   4.751   6.254   0.672 -0.3262 -0.2136  0.6581
39064W        W47664  17.606   5.915   2.852 -0.2031 -0.1004  0.0953
39065W        W47665  14.925   3.732   7.507 -0.1610 -0.2741  0.1389
39066W        W47666   2.022   5.035  34.184  0.2829 -0.2355 -0.0967
39067W        W47667   7.294   4.054  29.053 -0.1896  0.2568  0.0554
39068W        W47668  21.043   1.456  14.640  0.0061 -0.0289  0.2304
39069W        W47669   3.755   5.053  30.169  0.1204  0.1024 -0.3438
39070W        W47670  13.792   4.909  17.580 -0.1309 -0.0801 -0.0256
39071W        W47671   8.685   2.995   7.985 -0.2122 -0.1201  0.1661
39072W        W47672  16.133   0.667  25.793 -0.1938 -0.3699 -0.3921
39073W        W47673   7.467   5.701   2.734 -0.1350 -0.0927 -0.1315
39074W        W47674   0.023   0.197  41.498  0.0827  0.2189  0.0949
39075W        W47675  19.179   1.289  11.399  0.3286 -0.0842  0.0314
39076W        W47676  10.110   6.058  25.474 -0.1279  0.1406  0.0719
39077W        W47677   7.468   0.168   6.165  0.2030  0.2605 -0.0484
39078W        W47678  14.553   2.939  15.043  0.0957 -0.0321  0.0561
39079W        W47679   7.917   2.330  39.436  0.0677 -0.2691  0.1404
39080W        W47680   1.745   2.620   0.942 -0.2896  0.0382  0.0703
39081W        W47681   4.653   2.578   8.277  0.0950  0.1378  0.1103
39082W        W47682  17.709   0.759  37.920  0.2670 -0.0563  0.0710
39083W        W47683  15.414   4.775  17.284 -0.2937 -0.2251 -0.2135
39084W        W47684  20.220   1.243  15.239 -0.0471 -0.1441  0.0215
39085W        W47685  10.007   6.040  11.568  0.0389  0.0298 -0.1040
39086W        W47686  10.156   4.975   1.362  0.1087 -0.0008  0.0092
39087W        W47687   8.870   3.975  14.393  0.1103  0.0566 -0.2274
39088W        W47688   2.949   4.842  30.064 -0.0899 -0.0443 -0.3890
39089W        W47689   8.958   1.188  15.105  0.0926 -0.0569  0.1605
39090W        W47690   7.621   0.995  27.170 -0.0077 -0.0025 -0.1066
39091W        W47691  16.263   4.630  17.942 -0.2081  0.1862 -0.1269
39092W        W47692  14.944   2.537  39.279  0.0598 -0.0955  0.0156
39093W        W47693  10.277   4.344   3.085 -0.1882 -0.1168 -0.0061
39094W        W47694  12.775   4.718  36.943 -0.2315  0.0378 -0.1405
39095W        W47695   9.303   2.051  14.218  0.1764 -0.2781 -0.1619
39096W        W47696  18.599   5.063   3.698 -0.1758 -0.0597 -0.1031
39097W        W47697   9.795   1.356  38.647 -0.2303 -0.2182 -0.0308
39098W        W47698  18.600   5.993  33.759 -0.1960 -0.0402 -0.1059
39099W        W47699  11.510   5.670  13.601 -0.1123  0.0689 -0.2109
39100W        W47700  20.417   0.096   7.709  0.0549 -0.0077 -0.0162
39101W        W47701   8.993   5.641  37.258  0.1426 -0.0447  0.0385
39102W        W47702   2.930   5.084  24.396 -0.0536 -0.1324 -0.0100
39103W        W47703   1.868   1.490   8.234 -0.0290  0.1534  0.0758
39104W        W47704  11.957   6.402   2.288  0.0403  0.0617 -0.0249
39105W        W47705   2.871   5.279   3.116 -0.0212  0.0233  0.0253
39106W        W47706   5.235   3.282  10.015 -0.0164  0.2613 -0.1746
39107W        W47707   8.792   5.332  14.328  0.2282 -0.0118 -0.0039
39108W        W47708  13.911   1.084  36.614  0.0575 -0.0932 -0.0387
39109W        W47709  18.669   5.769   9.830  0.1640 -0.2246  0.1008
39110W        W47710   7.702   3.692   9.316 -0.0044 -0.4561 -0.2107
39111W        W47711   4.867   5.890  43.995  0.0860 -0.2032  0.2092
39112W        W47712  14.492   4.887   0.836  0.0201  0.1676  0.2357
39113W        W47713   7.205   0.082  11.214  0.0156 -0.0481  0.1594
39114W        W47714  20.203   3.076  13.492  0.1916 -0.2386  0.1687
39115W        W47715   1.542   5.547  17.545  0.3043 -0.0788  0.1389
39116W        W47716  17.036   1.455  35.340 -0.1244 -0.0203 -0.0065
39117W        W47717   1.981   3.955   7.932  0.0488 -0.1556  0.3072
39118W        W47718  13.658   0.612   2.930 -0.1506 -0.0436  0.0452
39119W        W47719   8.925   5.479  41.564 -0.0425  0.1558  0.2176
39120W        W47720  14.819   1.365   2.406  0.2372  0.1448  0.0569
39121W        W47721   9.863   3.837  15.581 -0.0070 -0.0082 -0.0700
39122W        W47722  12.778   1.622  10.556 -0.0124  0.2376 -0.3314
39123W        W47723  15.360   2.858   6.842  0.2032 -0.0665 -0.0300
39124W        W47724  18.616   5.886  14.656  0.0070 -0.1312  0.4013
39125W        W47725  13.236   3.869  12.829 -0.1293  0.1029 -0.2224
39126W        W47726  14.208   0.427   9.059  0.2635 -0.4489 -0.1924
39127W        W47727  10.839   1.433  29.353 -0.2095 -0.0272  0.1749
39128W        W47728  15.623   6.130  39.615 -0.0188  0.1116  0.0653
39129W        W47729  18.904   1.866  11.702  0.2311  0.1068  0.2112
39130W        W47730  10.854   3.744  16.619 -0.1011 -0.0393  0.2842
39131W        W47731   5.829   5.080  29.927 -0.0443 -0.2390  0.0221
39132W        W47732   1.604   4.886  34.360 -0.0246 -0.0508  0.0964
39133W        W47733  11.449   6.603  16.035 -0.2028 -0.0851  0.1349
39134W        W47734  15.490   2.198   1.497  0.2872 -0.1714  0.0740
39135W        W47735  11.434   4.840  37.847 -0.2152 -0.1887  0.2153
39136W        W47736   5.135   0.419  26.158 -0.1339  0.1609  0.0490
39137W        W47737  14.182   4.029   0.165 -0.0107 -0.1698  0.2010
39138W        W47738  17.725   3.553   5.368  0.0444  0.1792  0.0748
39139W        W47739  15.008   3.592  44.832 -0.0109 -0.0897 -0.0740
39140W        W47740  17.941   2.774  34.833 -0.1142  0.3149 -0.1450
39141W        W47741  15.103   5.471  35.934 -0.0048  0.1825 -0.0587
39142W        W47742   1.878   1.083  12.967  0.0766 -0.0651 -0.1701
39143W        W47743  10.563   0.464  39.248  0.1359  0.2182 -0.1378
39144W        W47744  15.220   5.033  13.775 -0.0521 -0.0759  0.0450
39145W        W47745  12.552   2.927  14.034  0.0757  0.0335 -0.0577
39146W        W47746  20.224   5.499  33.801 -0.3987  0.1372 -0.1550
39147W        W47747  14.164   1.963  30.017  0.1638 -0.2589  0.3611
39148W        W47748   5.653   5.521  38.725  0.1085  0.1717  0.0143
39149W        W47749   7.125   2.680  11.556 -0.0548  0.0678 -0.0957
39150W        W47750  14.773   2.573  42.426 -0.0542  0.1449 -0.3302
39151W        W47751   0.698   2.396  16.475 -0.0418 -0.3256  0.0016
39152W        W47752  15.558   2.128  32.953 -0.1475 -0.3191  0.0775
39153W        W47753  18.976   5.413  19.684 -0.2892 -0.4095  0.1747
39154W        W47754   8.885   2.787  34.783  0.0134  0.2129 -0.3439
39155W        W47755  13.982   1.491  28.083  0.2171 -0.1486  0.3753
39156W        W47756   1.208   1.038  37.407 -0.0819  0.0595 -0.1424
39157W        W47757  15.752   5.683  21.217  0.1994 -0.0895 -0.1014
39158W        W47758   0.652   6.003  32.790 -0.0433  0.1128  0.0544
39159W        W47759   7.622   4.318  26.123  0.0653 -0.0211  0.3961
39160W        W47760   1.246   2.481   7.386  0.1391  0.2363  0.0845
39161W        W47761  18.911   2.451  31.119 -0.0024  0.2013  0.2610
39162W        W47762   5.642   5.244  24.248  0.0416  0.0692 -0.1079
39163W        W47763   8.306   5.098   1.871  0.0888  0.1108  0.0446
39164W        W47764   2.464   1.329  32.569 -0.1015  0.0510 -0.0314
39165W        W47765  14.999   0.763   7.015  0.0404  0.0151 -0.1222
39166W        W47766   2.643   3.117  32.039  0.1375 -0.1662 -0.2621
39167W        W47767   6.478   0.029  25.596 -0.0994  0.1507 -0.1146
39168W        W47768   7.542   1.565  41.723 -0.0333  0.1045 -0.2554
39169W        W47769  14.030   3.041  29.321 -0.1923 -0.0300 -0.0377
39170W        W47770  13.312   4.831  43.953 -0.2504  0.0532  0.1536
39171W        W47771  15.978   4.314   6.215  0.1553 -0.2342  0.0632
39172W        W47772  20.589   4.123  13.427  0.3092 -0.1087  0.4008
39173W        W47773   9.888   1.952   9.745  0.0280 -0.0713  0.0266
39174W        W47774   7.203   2.979   6.601 -0.0767  0.0574 -0.0833
39175W        W47775  17.274   6.278  44.000  0.0595 -0.0155 -0.1649
39176W        W47776  11.305   4.495  16.155  0.1278 -0.3143  0.0517
39177W        W47777   4.929   4.528  42.502  0.2541  0.3448 -0.1354
39178W        W47778  17.646   0.063  35.182  0.0033 -0.4881  0.0163
39179W        W47779  20.583   3.749  39.561 -0.2739 -0.0093 -0.1232
39180W        W47780  20.421   5.995   4.136  0.3186 -0.1555  0.0236
39181W        W47781   0.003   3.862  12.582 -0.1197  0.0597  0.0867
39182W        W47782  17.656   5.348   0.420 -0.1688  0.0610  0.3664
39183W        W47783  18.725   3.906  34.362  0.0173 -0.2655 -0.4278
39184W        W47784  11.000   6.372   7.881 -0.2546  0.2143  0.0358
39185W        W47785  15.858   6.021  14.133 -0.0679 -0.0003 -0.3108
39186W        W47786  16.326   3.750  31.146 -0.2764 -0.0839 -0.0355
39187W        W47787   2.354   0.261  29.033  0.2215  0.1748  0.2320
39188W        W47788   8.571   0.363  27.970  0.0747 -0.0108  0.2403
39189W        W47789  10.383   4.443   9.733 -0.0392 -0.2085  0.4048
39190W        W47790  15.006   1.515  31.399  0.1869 -0.2904 -0.1367
39191W        W47791   7.508   5.967  14.365  0.1897  0.4611 -0.1895
39192W        W47792  17.251   3.635  32.622  0.0561 -0.0913 -0.0504
39193W        W47793  14.241   2.308   1.956  0.0782 -0.2354 -0.0965
39194W        W47794   5.966   0.048  40.543  0.0779 -0.1335 -0.2158
39195W        W47795   0.832   2.604   2.166 -0.0949  0.1019  0.0423
39196W        W47796  14.936   1.474  40.874  0.0498 -0.1003  0.0552
39197W        W47797   3.877   0.544  21.907  0.0937  0.3264 -0.1147
39198W        W47798   7.721   1.897  43.943  0.0082  0.2069  0.1069
39199W        W47799   5.076   3.238  36.091  0.2455  0.0714  0.3143
39200W        W47800  14.180   1.481  36.844  0.0787 -0.0989 -0.0457
39201W        W47801   3.204   4.913  44.369  0.2636 -0.1812 -0.2244
39202W        W47802   0.215   4.318  11.053 -0.1599 -0.2516  0.1019
39203W        W47803  17.823   1.128  20.578 -0.1372 -0.3270 -0.1205
39204W        W47804  16.110   3.441  35.564 -0.4223 -0.0461 -0.2404
39205W        W47805  16.957   4.384  33.523 -0.2113  0.3912 -0.3030
39206W        W47806  20.240   1.425  34.592 -0.0803 -0.1792  0.0593
39207W        W47807  12.338   1.125  16.268 -0.1857  0.0503  0.1368
39208W        W47808  20.641   3.006   0.011  0.0534  0.0512 -0.1361
39209W        W47809  17.419   2.478  38.860 -0.1099  0.0546 -0.0563
39210W        W47810  20.286   1.164   2.959  0.0954 -0.3305  0.0627
39211W        W47811  21.022   4.071  36.805 -0.1440  0.0330 -0.1802
39212W        W47812   9.890   0.644   2.593  0.5098 -0.2573  0.1688
39213W        W47813  15.391   2.156  23.067 -0.1451 -0.1837  0.2714
39214W        W47814   7.975   2.311  44.627  0.1444  0.0424 -0.3127
39215W        W47815   0.899   2.522   0.366  0.3659 -0.1454  0.0410
39216W        W47816  13.845   3.342   8.834  0.0984  0.2537  0.0631
39217W        W47817  13.187   5.010   9.739 -0.1827  0.0273 -0.2202
39218W        W47818  16.213   0.486  41.144 -0.1309 -0.3966 -0.0859
39219W        W47819  11.217   4.305   2.050  0.2476 -0.2003 -0.1141
39220W        W47820  10.717   3.417   7.370 -0.0850  0.2708  0.1702
39221W        W47821   7.088   6.256  20.350 -0.1449 -0.1473 -0.0445
39222W        W47822   3.736   3.325  33.579  0.1096  0.5314 -0.3247
39223W        W47823  11.825   4.478   5.220 -0.0744  0.1723  0.1827
39224W        W47824   0.469   0.770  39.124  0.0868  0.0638 -0.3287
39225W        W47825   6.086   2.140  32.943  0.0265 -0.0120  0.0086
39226W        W47826  14.356   4.201   0.594  0.1177  0.1661 -0.1993
39227W        W47827   7.783   0.403  28.310 -0.0079 -0.2439  0.3045
39228W        W47828   9.482   6.470  35.606  0.1000 -0.3025 -0.1231
39229W        W47829  14.989   4.492   1.605 -0.1509 -0.2411 -0.0845
39230W        W47830   7.878   3.674   1.934  0.3129  0.2502  0.1254
39231W        W47831   9.196   4.054  37.265 -0.2503 -0.0784 -0.1480
39232W        W47832  13.584   4.140   3.843  0.2525 -0.1770 -0.1886
39233W        W47833  13.740   2.198  12.456 -0.1449  0.0873 -0.0686
39234W        W47834   9.452   2.914   4.847 -0.1127 -0.2393 -0.0276
39235W        W47835   4.370   3.753  29.699  0.0026  0.2718  0.3339
39236W        W47836  15.369   1.278  43.261  0.1516  0.2343  0.1607
39237W        W47837   8.970   1.885   6.127  0.0985 -0.0520  0.1745
39238W        W47838   7.262   1.645  11.085 -0.3395  0.0357  0.2776
39239W        W47839   6.343   4.463  22.798  0.1718 -0.2032 -0.1041
39240W        W47840  20.792   2.951  27.918  0.2053  0.1066  0.1036
39241W        W47841   2.728   5.652  25.876 -0.2416  0.4701 -0.0790
39242W        W47842   9.453   2.822  43.050 -0.1118  0.0396 -0.2118
39243W        W47843  16.425   0.825  11.736 -0.0187 -0.1376 -0.1558
39244W        W47844   4.379   5.418  38.700  0.1248 -0.0150 -0.1467
39245W        W47845  14.426   0.775  35.810 -0.0852  0.0670  0.2424
39246W        W47846   5.143   1.240  12.619 -0.1690 -0.0380  0.1691
39247W        W47847  15.330   0.031  44.549 -0.1061 -0.2345  0.2614
39248W        W47848  16.404   0.032  19.643 -0.4594  0.1748 -0.0223
39249W        W47849  18.326   2.536   8.656 -0.1859 -0.1630 -0.1079
39250W        W47850  15.195   1.244   6.196  0.1444  0.0723 -0.0763
39251W        W47851  18.550   3.927  14.763  0.2772  0.0807 -0.0452
39252W        W47852  17.314   3.777  17.532  0.2353  0.2961  0.1791
39253W        W47853   7.010   1.243  16.770  0.1379  0.2836  0.0080
39254W        W47854   8.498   1.170  37.030 -0.2278  0.1897  0.0809
39255W        W47855   4.768   0.770  21.453 -0.1414 -0.1739 -0.1057
39256W        W47856   6.546   3.474  28.419 -0.1684 -0.1899  0.1042
39257W        W47857   3.698   2.274  29.151  0.2572  0.1228 -0.1092
39258W        W47858   0.282   2.310  14.480 -0.1848  0.1444 -0.0335
39259W        W47859   0.820   3.066  11.176 -0.1687 -0.2385 -0.2528
39260W        W47860  16.631   4.489   1.447  0.0767 -0.2507  0.0417
39261W        W47861  17.855   3.544   9.936 -0.0829 -0.0456  0.1386
39262W        W47862   9.174   2.460  32.639  0.1477 -0.0404 -0.1694
39263W        W47863   8.069   0.938  12.399 -0.1348  0.1717 -0.2280
39264W        W47864  12.348   3.321  40.323 -0.2026 -0.1079 -0.2769
39265W        W47865  15.076   5.404  37.249 -0.3084  0.1261  0.1513
39266W        W47866   6.396   3.231  28.904 -0.1833  0.0924  0.3106
39267W        W47867  16.970   0.771  34.056  0.2941 -0.0127 -0.0382
39268W        W47868   0.977   5.525  41.755 -0.1438 -0.0377 -0.2271
39269W        W47869  15.468   0.239  22.996  0.1267 -0.1611  0.0855
39270W        W47870  17.452   2.205  19.700 -0.2028 -0.0417 -0.0145
39271W        W47871  11.649   6.133  28.567  0.0169  0.0252  0.0164
39272W        W47872   1.442   2.997   7.341  0.0778 -0.0393  0.0649
39273W        W47873   8.726   6.165  40.136 -0.3465  0.0956 -0.0109
39274W        W47874  19.658   2.060  45.079 -0.3447  0.0851 -0.1591
39275W        W47875   1.833   4.986  33.305 -0.1972  0.1441  0.1305
39276W        W47876  10.275   0.656  15.227 -0.1013  0.2286 -0.0711
39277W        W47877   6.089   4.667  30.769  0.2134  0.0795 -0.0858
39278W        W47878  20.346   6.314  36.125 -0.1088  0.2918 -0.4057
39279W        W47879  19.410   5.609   8.616  0.1627  0.0353  0.0345
39280W        W47880   3.036   2.789  24.952 -0.1236 -0.4140 -0.2626
39281W        W47881  17.855   0.497  36.967 -0.0475 -0.1440  0.1116
39282W        W47882  18.689   2.976  13.248  0.3041 -0.1562  0.0733
39283W        W47883  12.905   4.521  15.761 -0.0648 -0.0968  0.0992
39284W        W47884  19.956   3.909  18.301 -0.3980  0.0401  0.0187
39285W        W47885   1.157   5.187   3.713 -0.0068  0.3635  0.2184
39286W        W47886   8.223   5.298  27.503  0.0129 -0.1388 -0.0439
39287W        W47887  14.099   1.067  43.803 -0.0677  0.2878 -0.3584
39288W        W47888  15.829   5.061  19.998  0.1684 -0.1104  0.0182
39289W        W47889   7.796   1.757  34.056 -0.1910 -0.2423  0.1205
39290W        W47890   7.177   5.921  31.391  0.0289 -0.0457 -0.2337
39291W        W47891   7.765   3.091  32.740 -0.2048 -0.0133 -0.3736
39292W        W47892  10.725   3.319  38.379  0.1860  0.1219  0.2846
39293W        W47893   2.086   2.955  36.748  0.0523  0.0665  0.0448
39294W        W47894   6.095   4.676  21.890  0.1136  0.0793 -0.0466
39295W        W47895   8.086   5.133  35.246  0.0732 -0.1459  0.1218
39296W        W47896  12.039   5.942  30.273 -0.1526  0.2026 -0.1048
39297W        W47897   2.347   1.932  26.641 -0.2749 -0.0115 -0.1617
39298W        W47898  15.085   2.072   7.413 -0.0569  0.0588  0.0560
39299W        W47899  12.233   1.541  28.388  0.0015 -0.0489  0.3652
39300W        W47900   6.852   5.099  30.243  0.1384 -0.1532 -0.1953
39301W        W47901  18.019   2.406   4.427 -0.0912 -0.0274  0.1999
39302W        W47902  19.460   4.138  33.289  0.0997 -0.1701  0.0031
39303W        W47903   0.655   1.300  28.828  0.2406 -0.1538 -0.2062
39304W        W47904   5.417   4.214  23.129 -0.2425 -0.0838 -0.0894
39305W        W47905   6.045   6.291  45.015 -0.0518 -0.0669  0.0099
39306W        W47906  11.136   0.685  10.183 -0.0408 -0.0303  0.1192
39307W        W47907  16.242   5.555  33.654  0.1008  0.2073 -0.0523
39308W        W47908   7.449   3.491  42.988 -0.0608  0.0545  0.2305
39309W        W47909   2.444   6.289  27.422 -0.3883  0.0509 -0.0748
39310W        W47910  12.780   1.737  15.710 -0.0217 -0.3506 -0.0242
39311W        W47911  20.510   4.875  18.542 -0.0767  0.0095  0.2136
39312W        W47912   3.989   2.342  27.590  0.0889 -0.1789  0.2380
39313W        W47913  10.718   4.698  27.278 -0.2209  0.0830 -0.0716
39314W        W47914  10.668   1.289  32.570 -0.1735 -0.0238 -0.0886
39315W        W47915   3.473   0.335  39.149  0.0892 -0.1220 -0.0010
39316W        W47916   5.113   1.437  25.756  0.1480  0.1045 -0.4463
39317W        W47917   0.339   4.721   3.042 -0.2733  0.2056  0.0444
39318W        W47918  13.095   0.932  13.899 -0.4361 -0.0636 -0.0375
39319W        W47919   0.911   6.158  33.571 -0.3690  0.1756 -0.2144
39320W        W47920  13.724   0.557   7.880 -0.0708 -0.0308  0.2114
39321W        W47921   0.103   1.944  33.090  0.0281  0.1037  0.0442
39322W        W47922   7.671   5.897  16.763 -0.2910 -0.0741 -0.0727
39323W        W47923  17.122   0.765  44.953 -0.0725 -0.2591  0.1695
39324W        W47924  18.664   5.286   1.935  0.1522 -0.0623 -0.1979
39325W        W47925  17.740   2.585   7.406  0.0126 -0.1155 -0.1859
39326W        W47926  18.362   5.400   5.129  0.2183 -0.2357 -0.4949
39327W        W47927  12.684   5.384  32.130 -0.0342 -0.2167  0.1809
39328W        W47928  16.392   5.925  17.403  0.1839  0.3455  0.1661
39329W        W47929  17.610   6.562  30.351  0.0278  0.1191  0.3113
39330W        W47930  17.190   2.425   6.496 -0.0758  0.1130  0.0232
39331W        W47931  12.763   0.995  32.501  0.1298  0.1069 -0.3203
39332W        W47932  18.823   3.159  28.890 -0.0425  0.1876  0.0781
39333W        W47933   9.527   1.131  16.033 -0.0507 -0.4094  0.3281
39334W        W47934  19.982   5.829  38.994  0.0531 -0.1026  0.1180
39335W        W47935   7.002   2.244  34.253 -0.1166 -0.1496 -0.0095
39336W        W47936  15.722   0.914   6.405 -0.1433  0.1199 -0.3481
39337W        W47937  13.963   3.529   4.130 -0.1625 -0.0994 -0.1370
39338W        W47938  14.509   2.728  20.961 -0.2439 -0.1047 -0.2219
39339W        W47939  19.216   1.675  38.545  0.1256 -0.1454 -0.0066
39340W        W47940   3.235   3.800  32.945 -0.0698 -0.0891 -0.4308
39341W        W47941   2.757   4.688  40.050 -0.2563  0.1012 -0.0894
39342W        W47942   5.987   5.828  36.187  0.3688 -0.2460  0.2150
39343W        W47943  18.369   4.624  37.319  0.1808  0.3593 -0.0134
39344W        W47944  14.820   1.672  33.337  0.3774 -0.1213 -0.1324
39345W        W47945   4.785   0.352   2.607  0.3107 -0.0798 -0.3513
39346W        W47946   6.373   2.697  42.182 -0.0767 -0.2989  0.3717
39347W        W47947   8.552   0.812  45.070  0.4114 -0.1848  0.1355
39348W        W47948   6.167   0.318  16.522 -0.0191 -0.4029  0.1363
39349W        W47949   1.785   3.300  11.001 -0.0216  0.0491  0.3826
39350W        W47950   2.627   1.135  33.353  0.2482 -0.1236 -0.2287
39351W        W47951   6.521   3.571  14.914  0.0843 -0.3016 -0.1182
39352W        W47952  12.340   5.444  35.607 -0.0322  0.0459  0.1102
39353W        W47953  17.529   5.001   9.597 -0.1193 -0.3075  0.0815
39354W        W47954   2.637   3.130  41.445  0.2346 -0.1061 -0.0819
39355W        W47955  13.191   6.303  14.547  0.2228 -0.3372 -0.2970
39356W        W47956  16.316   3.798  14.687 -0.1116  0.0247 -0.1317
39357W        W47957   7.734   3.638  39.802  0.0444  0.0766 -0.0051
39358W        W47958  14.053   0.924   8.907  0.0794  0.0797 -0.0016
39359W        W47959  19.797   2.024  12.987  0.1148  0.0054  0.1102
39360W        W47960   8.076   0.714  42.932  0.2895  0.0205  0.1384
39361W        W47961  14.762   2.876  33.812 -0.1053 -0.0480  0.1081
39362W        W47962  16.843   3.569   3.682  0.1464  0.0985 -0.1417
39363W        W47963   6.339   0.080  37.572  0.0412 -0.3987 -0.1479
39364W        W47964   2.022   5.051  26.873 -0.0863 -0.1103 -0.0582
39365W        W47965   9.498   5.859  32.977 -0.1577  0.0653  0.0640
39366W        W47966  12.817   5.055  37.402  0.0007  0.1217 -0.2007
39367W        W47967  20.609   4.630  20.788  0.0446 -0.0691  0.0371
39368W        W47968  17.466   5.429   8.322 -0.1684  0.0262 -0.3160
39369W        W47969  10.861   6.286  34.271  0.1688  0.1614 -0.1090
39370W        W47970   2.325   2.089  31.386  0.2750  0.3245  0.1435
39371W        W47971  16.290   2.809  34.996  0.3460  0.1178  0.1065
39372W        W47972  20.376   3.633   1.815 -0.0352 -0.0972  0.0006
39373W        W47973  20.120   3.109  17.100 -0.2352 -0.2291  0.2381
39374W        W47974  11.604   5.631   0.945 -0.1309  0.2105 -0.0311
39375W        W47975   2.977   3.662  36.456  0.2657  0.2608 -0.0824
39376W        W47976  14.348   0.676  30.178 -0.0851  0.0909 -0.0707
39377W        W47977   8.090   5.646  11.700 -0.2818  0.3595 -0.1043
39378W        W47978  21.103   3.599   3.911  0.1973 -0.0492 -0.1209
39379W        W47979   2.092   6.446  12.957 -0.4866  0.1731 -0.1422
39380W        W47980  17.468   5.263  32.716  0.1170 -0.0804  0.0755
39381W        W47981   4.632   1.962   0.203 -0.1218  0.0839 -0.2210
39382W        W47982   6.086   0.904  38.517  0.2616 -0.1461 -0.1494
39383W        W47983   4.648   1.927   3.572 -0.2536  0.0307  0.3778
39384W        W47984   7.098   3.358   4.078 -0.1952  0.2913  0.1705
39385W        W47985   8.988   0.746  36.481  0.2038  0.4804  0.2221
39386W        W47986   2.263   0.584  44.185 -0.0029  0.0786  0.0537
39387W        W47987  19.758   4.486  38.189 -0.0434 -0.1519  0.2077
39388W        W47988  10.085   0.658  11.920 -0.2783  0.3749 -0.0580
39389W        W47989   3.847   2.697  25.609  0.0555 -0.0278 -0.4775
39390W        W47990   8.538   4.716  12.760  0.2227  0.1282  0.2401
39391W        W47991  13.796   2.958  35.772  0.2544 -0.1042  0.1397
39392W        W47992   2.261   2.338  13.636  0.0980 -0.1931 -0.0852
39393W        W47993   3.181   5.328  27.651  0.1834 -0.2178  0.2102
39394W        W47994   6.209   2.151   1.304  0.2959  0.0605 -0.1009
39395W        W47995  20.128   3.550  18.554  0.2662  0.3344  0.1742
39396W        W47996   5.383   1.399  23.232  0.2670 -0.0861 -0.3451
39397W        W47997   6.810   0.567  28.111 -0.1435 -0.2458 -0.1568
39398W        W47998   3.824   1.627   7.389 -0.0480 -0.1537 -0.2433
39399W        W47999  16.051   5.700  21.637 -0.3033  0.0544 -0.1388
39400W        W48000   7.185   1.980  13.942  0.0689  0.0911 -0.4185
39401W        W48001   4.862   5.644   4.277 -0.2592  0.1149  0.0179
39402W        W48002  14.114   2.689  39.005 -0.2452  0.2954 -0.1461
39403W        W48003   1.182   0.278  44.920 -0.1561  0.1599  0.0957
39404W        W48004   6.148   6.440   7.133 -0.1685  0.5043  0.0144
39405W        W48005   5.604   4.141  27.568  0.1128  0.3781  0.0349
39406W        W48006   5.149   5.360   0.583 -0.1030  0.0019 -0.1141
39407W        W48007   8.850   3.265  43.763  0.1354 -0.1489  0.0351
39408W        W48008   3.573   5.338  41.730 -0.0932 -0.1836  0.0538
39409W        W48009   8.881   5.245   7.804 -0.0415  0.1810 -0.0079
39410W        W48010   6.403   1.752  36.329  0.0581 -0.1217  0.1321
39411W        W48011  20.027   3.867  40.565 -0.5299 -0.1391 -0.1324
39412W        W48012   9.780   4.964  32.846  0.5633 -0.0399 -0.1282
39413W        W48013   2.968   4.086  42.427 -0.1852 -0.2232  0.2004
39414W        W48014   1.033   0.092  16.816  0.0988  0.0498  0.1769
39415W        W48015  12.762   4.761  28.827 -0.1349  0.1053  0.0110
39416W        W48016  15.750   5.678   5.868  0.2102  0.2521 -0.3166
39417W        W48017  14.245   4.237  15.120  0.0427 -0.1334 -0.0662
39418W        W48018   6.404   3.483  43.492 -0.0043 -0.0608 -0.0435
39419W        W48019   2.734   5.383  41.844 -0.1083 -0.1058 -0.0199
39420W        W48020   2.064   6.248   3.706  0.0257  0.1150 -0.1045
39421W        W48021   5.680   2.015  15.174 -0.3704  0.0131  0.0044
39422W        W48022  18.631   6.042  32.181 -0.0492 -0.0009  0.1645
39423W        W48023  18.400   6.596   6.317 -0.0661 -0.2933  0.3191
39424W        W48024  14.743   1.389   7.731  0.0444  0.0277 -0.1537
39425W        W48025   0.793   5.203  29.453  0.0183  0.3158  0.0913
39426W        W48026  15.748   3.094  14.832 -0.2173  0.1758  0.2034
39427W        W48027   2.087   5.801  30.062 -0.3504 -0.2196  0.0621
39428W        W48028  10.771   4.514   3.004  0.0484  0.1114  0.1485
39429W        W48029  17.156   5.854  36.954 -0.4216 -0.1496 -0.1254
39430W        W48030   8.670   1.662  44.520  0.0876 -0.0256  0.1222
39431W        W48031   6.081   5.681  44.362  0.0376  0.3199  0.4010
39432W        W48032  13.440   1.138  35.245  0.0182  0.1145  0.0588
39433W        W48033  20.024   6.566  17.283  0.0355  0.1322 -0.0731
39434W        W48034   2.854   1.506   2.457 -0.1660  0.1721 -0.0454
39435W        W48035   9.828   3.773   7.130  0.1291 -0.0557  0.0481
39436W        W48036  15.411   4.416  23.992  0.1292  0.1156  0.0369
39437W        W48037  18.469   1.657  37.761  0.2165  0.0477  0.1525
39438W        W48038  19.120   4.767   1.439 -0.1533  0.5183 -0.0286
39439W        W48039  12.799   6.036  14.922 -0.1538  0.1762  0.2475
39440W        W48040   6.715   0.551  38.414 -0.3793  0.1077 -0.3472
39441W        W48041  10.919   3.423  36.954  0.2413 -0.2014 -0.2457
39442W        W48042  17.190   1.502  41.122  0.0920  0.1121  0.1946
39443W        W48043   6.582   0.630  41.465  0.0195 -0.1588  0.1090
39444W        W48044   4.764   1.813  44.878  0.0803  0.1819 -0.2522
39445W        W48045  10.437   3.778  14.642  0.2271  0.0337  0.0414
39446W        W48046  15.897   1.193   9.303 -0.0315  0.2427  0.2697
39447W        W48047   6.360   2.169  32.019 -0.1079 -0.0662  0.2008
39448W        W48048   0.395   5.011  16.602 -0.1415  0.0734 -0.0388
39449W        W48049   0.047   1.281  41.968 -0.1739 -0.0646 -0.0411
39450W        W48050   8.651   1.308  32.915  0.3952 -0.2127 -0.3282
39451W        W48051  12.189   1.670  33.918 -0.1429 -0.1781  0.1602
39452W        W48052  16.402   1.577  41.835 -0.0071  0.3373  0.0377
39453W        W48053   4.314   1.980   3.125  0.1553  0.2846  0.1759
39454W        W48054  20.528   2.528  45.035 -0.0227  0.2601 -0.3391
39455W        W48055  15.713   5.058  19.521  0.0753  0.4196 -0.1167
39456W        W48056   2.668   6.477   8.707 -0.1305  0.0584 -0.2149
39457W        W48057  20.554   5.179  35.310  0.0136  0.0691 -0.2778
39458W        W48058   9.758   3.056   5.664  0.0036  0.1002  0.2954
39459W        W48059  18.341   4.935  19.912  0.0236  0.0146  0.0646
39460W        W48060  11.720   5.968   9.478  0.0808 -0.0374 -0.0318
39461W        W48061   9.252   2.356   7.611  0.2107  0.1082  0.1249
39462W        W48062   1.507   3.631   2.667  0.5255  0.3174 -0.2641
39463W        W48063  10.009   4.320  33.359  0.1432 -0.2249 -0.0060
39464W        W48064  17.109   6.570  11.126  0.2873  0.3362  0.0079
39465W        W48065   2.417   1.151  25.175 -0.2717 -0.1325  0.2000
39466W        W48066   9.643   6.389   5.384  0.1748  0.0316  0.0329
39467W        W48067   2.569   2.235  30.516 -0.2153  0.2285 -0.0402
39468W        W48068   3.325   0.187   1.806  0.1843  0.3524 -0.1860
39469W        W48069   4.047   3.142  29.633 -0.0559 -0.0888  0.0525
39470W        W48070  11.797   3.373  35.314  0.2060  0.1203  0.4772
39471W        W48071  10.337   6.226  17.349 -0.2632 -0.3964  0.1003
39472W        W48072   4.389   0.789  10.924  0.0042 -0.2411 -0.3608
39473W        W48073  14.837   6.033  12.128  0.1292 -0.1120  0.0277
39474W        W48074   6.779   0.579   2.915 -0.3907 -0.0206  0.3160
39475W        W48075  16.061   6.478   2.932 -0.1815 -0.0975 -0.2452
39476W        W48076  15.867   2.556  38.773 -0.1747 -0.1532  0.0294
39477W        W48077  10.296   0.265  37.921 -0.2412 -0.1589  0.1124
39478W        W48078  11.984   1.586  37.391 -0.0518 -0.1366  0.2917
39479W        W48079  19.599   0.364  30.051  0.4427  0.3128  0.1817
39480W        W48080  18.864   4.351  43.968  0.0438 -0.1035  0.2604
39481W        W48081   4.101   6.113   7.736 -0.0437 -0.0153 -0.0392
39482W        W48082   3.468   0.953  23.919  0.1659  0.0516  0.1013
39483W        W48083   9.839   4.040  29.147  0.0529  0.2257  0.1708
39484W        W48084   3.882   0.652  14.224 -0.2556 -0.1776 -0.0849
39485W        W48085  11.855   1.382  44.710  0.0395 -0.0707 -0.1293
39486W        W48086   8.134   1.460  29.360 -0.0926 -0.2841  0.1198
39487W        W48087  18.978   0.706  13.606 -0.2260  0.1784 -0.1446
39488W        W48088  19.587   4.662   3.670  0.1764 -0.0832  0.1935
39489W        W48089   6.125   5.214  10.539  0.2126  0.2273  0.0833
39490W        W48090   2.574   0.770   0.897  0.0471 -0.1965  0.3825
39491W        W48091   9.379   3.361   0.315  0.1414 -0.1629  0.2625
39492W        W48092   2.714   2.446   6.022 -0.0738 -0.0780  0.0228
39493W        W48093  15.924   6.332  18.128 -0.0148 -0.0733 -0.0727
39494W        W48094   0.910   2.005   7.962  0.2268  0.0246  0.3779
39495W        W48095  16.870   3.069  39.388  0.1093 -0.1865 -0.1591
39496W        W48096   2.850   4.458  30.985  0.2423  0.1240 -0.2749
39497W        W48097  18.160   6.250  33.426 -0.1605 -0.2081  0.0222
39498W        W48098  19.793   5.768  42.587  0.1562  0.0137  0.0721
39499W        W48099   9.110   0.653   4.616 -0.1128 -0.0038  0.0379
39500W        W48100  20.049   0.476   4.019  0.0295  0.2102 -0.2192
39501W        W48101   4.652   5.798  15.828  0.2305  0.0414 -0.1368
39502W        W48102  18.041   3.293  40.437 -0.0229  0.1579  0.2687
39503W        W48103   5.259   6.525  29.920  0.0051  0.2294 -0.1069
39504W        W48104   8.853   5.908  41.885  0.1792  0.1079 -0.3634
39505W        W48105  19.228   3.460   0.906  0.2885 -0.1374 -0.0562
39506W        W48106  15.808   4.108   1.753  0.3098 -0.1279 -0.1247
39507W        W48107   5.559   3.466  39.544 -0.0673  0.0486  0.1399
39508W        W48108   1.221   4.264  35.951  0.0165 -0.0858 -0.1076
39509W        W48109  13.865   0.462   2.488  0.1841  0.0396  0.2514
39510W        W48110   3.595   4.757  28.211 -0.2412 -0.2321  0.0932
39511W        W48111  16.304   2.693  33.010 -0.1956 -0.1734 -0.1257
39512W        W48112   6.174   1.755  13.510 -0.0809 -0.0232  0.0535
39513W        W48113  14.880   1.489  19.382 -0.0219 -0.1228 -0.0658
39514W        W48114  17.392   2.606  10.667  0.5651 -0.4127  0.1215
39515W        W48115  18.968   5.179   6.549 -0.0353 -0.2198  0.0989
39516W        W48116  19.514   0.684  34.690 -0.2628 -0.1862  0.0238
39517W        W48117  15.284   4.675   3.591  0.1521  0.2360  0.0904
39518W        W48118  16.886   2.155   0.725  0.0314 -0.0682  0.1743
39519W        W48119  10.297   4.808  37.986  0.1025 -0.0244  0.0767
39520W        W48120   9.858   4.761  38.286  0.0858 -0.0279 -0.2428
39521W        W48121  18.425   0.028  33.238  0.2575 -0.2068  0.0679
39522W        W48122  15.009   1.514   3.937  0.1575  0.0400 -0.3289
39523W        W48123   3.522   4.332   6.700  0.0280  0.0136  0.1890
39524W        W48124   9.551   4.349  28.824 -0.0640  0.0023 -0.0037
39525W        W48125   5.417   5.552   7.647  0.0798  0.0559 -0.1912
39526W        W48126  19.266   1.858   3.264 -0.0461 -0.2843  0.0136
39527W        W48127  17.806   2.947   4.453  0.5768 -0.0983 -0.0987
39528W        W48128  19.060   5.595  18.411  0.4798  0.2309  0.2964
39529W        W48129   8.535   6.406   1.084  0.2583 -0.0222  0.2007
39530W        W48130  15.073   4.669  20.098 -0.1168  0.1856  0.0736
39531W        W48131  16.733   2.725  20.708 -0.4345 -0.1526  0.2699
39532W        W48132   4.934   1.915  39.697  0.0473 -0.0265  0.0561
39533W        W48133  18.261   2.390  13.091 -0.3950  0.2134 -0.2944
39534W        W48134   4.846   5.768  35.518  0.2840  0.1110  0.6386
39535W        W48135  20.819   2.999  16.636  0.2492 -0.3009 -0.0681
39536W        W48136  11.240   3.572  14.227 -0.0346  0.2440 -0.0758
39537W        W48137  14.079   6.038  29.611 -0.0086  0.1811  0.1375
39538W        W48138  16.104   1.697  39.073 -0.1068 -0.0111  0.2049
39539W        W48139  14.837   5.520  14.732 -0.0220  0.0799 -0.0752
39540W        W48140  18.997   6.068  16.305  0.0830 -0.1077  0.0988
39541W        W48141   9.089   2.140   3.444  0.3532  0.0838 -0.0826
39542W        W48142  19.147   2.863   6.440  0.0902 -0.0028  0.1950
39543W        W48143   3.605   4.689  37.094  0.0669 -0.2516 -0.3448
39544W        W48144   9.518   0.814   4.800  0.2682  0.0607  0.3682
39545W        W48145  15.873   5.949  38.711 -0.2750  0.4179  0.2291
39546W        W48146  20.861   4.076  40.373 -0.1388 -0.2417 -0.0596
39547W        W48147  11.714   6.590  35.214 -0.0449  0.1458  0.1213
39548W        W48148  16.188   3.377   1.356  0.4576  0.2323  0.0698
39549W        W48149   3.658   0.310  23.502 -0.0713  0.3181  0.0726
39550W        W48150  19.496   6.008  41.979  0.0026 -0.1394 -0.2226
39551W        W48151   2.628   3.817   1.939  0.0237 -0.0529  0.0841
39552W        W48152  19.935   6.032  44.138  0.3659  0.0543 -0.1143
39553W        W48153  11.998   4.695  31.807 -0.3145 -0.0128  0.1985
39554W        W48154  13.936   1.354  33.869  0.0566  0.2964  0.0775
39555W        W48155   9.045   6.141  37.376  0.1212  0.1128 -0.0795
39556W        W48156  19.552   6.278  40.653 -0.0365 -0.2926 -0.0069
39557W        W48157  17.761   1.005  38.653  0.1042 -0.1033  0.0882
39558W        W48158  11.557   3.603  40.051  0.1781 -0.0067 -0.2089
39559W        W48159  17.104   4.813  36.957 -0.0379 -0.3823 -0.0899
39560W        W48160  20.022   4.549  20.230  0.0966  0.0163 -0.0039
39561W        W48161   2.432   3.812  33.106  0.1088 -0.1525 -0.4274
39562W        W48162  19.319   1.438  44.217 -0.0130 -0.1000  0.1199
39563W        W48163   9.941   2.770  33.924  0.1193  0.1661 -0.0735
39564W        W48164   5.927   0.828  32.280 -0.1061  0.0726  0.4074
39565W        W48165   0.996   0.478   4.752 -0.0231  0.1491  0.3156
39566W        W48166  10.277   3.184   5.940 -0.0789 -0.0532 -0.1336
39567W        W48167  16.586   1.831   9.225 -0.0050 -0.2031  0.0461
39568W        W48168   0.744   6.304   2.484 -0.0987  0.0916 -0.1624
39569W        W48169  14.261   0.074  35.097 -0.1683  0.1354 -0.2592
39570W        W48170  19.893   0.923   7.660 -0.1629 -0.0366  0.0534
39571W        W48171   7.281   0.544   3.881 -0.2031 -0.0174  0.0028
39572W        W48172  17.163   0.738  44.029 -0.3815 -0.1359  0.0256
39573W        W48173   3.458   4.678  13.704  0.1012 -0.3091 -0.1693
39574W        W48174  17.143   5.064   9.947 -0.0373  0.3262  0.1166
39575W        W48175   3.668   0.941  33.000 -0.2590  0.1129 -0.0360
39576W        W48176  19.532   3.327   5.869  0.0210  0.1018  0.1213
39577W        W48177   5.774   4.823  39.532  0.0836 -0.0092  0.0273
39578W        W48178  16.434   2.276  38.550 -0.3150 -0.0795 -0.3371
39579W        W48179   6.883   4.606  24.638 -0.0914  0.2234  0.0321
39580W        W48180   9.812   2.025   0.292  0.2979 -0.0287  0.1061
39581W        W48181  13.645   5.634  19.194 -0.0652  0.2008  0.1508
39582W        W48182   7.933   6.168   4.468 -0.0467 -0.0120  0.2104
39583W        W48183   7.375   3.851  33.025 -0.3383 -0.0902  0.0301
39584W        W48184   9.868   5.024   9.258  0.0804 -0.1396 -0.0693
39585W        W48185   7.294   1.178  16.085  0.2433 -0.0026  0.1014
39586W        W48186   6.037   0.208  34.470 -0.0507 -0.0694 -0.2812
39587W        W48187  17.323   1.484  13.313  0.0091 -0.0471 -0.0657
39588W        W48188  15.182   4.686  35.398 -0.1012 -0.2594  0.3113
39589W        W48189  16.120   2.960  11.827  0.1575  0.1592  0.0311
39590W        W48190   7.975   6.433   4.983  0.1333  0.0992  0.0523
39591W        W48191  20.900   6.598  32.942 -0.0424 -0.1613 -0.1448
39592W        W48192  13.979   5.154  14.636  0.2744 -0.0132 -0.0177
39593W        W48193   4.500   6.223  44.908  0.2085  0.1391 -0.1764
39594W        W48194  19.402   5.340  17.255  0.1767  0.2280  0.3629
39595W        W48195   5.916   3.650  44.636  0.3117  0.2542 -0.1657
39596W        W48196   6.117   1.565  22.659  0.1919 -0.2412  0.0928
39597W        W48197   6.770   2.623   3.763 -0.2495  0.0263  0.1426
39598W        W48198  19.887   5.092  31.758  0.0360  0.0532  0.2589
39599W        W48199  19.207   2.799  43.489 -0.1384 -0.1701 -0.1543
39600W        W48200   2.385   4.391  33.015 -0.1489  0.2923 -0.0673
39601W        W48201   4.666   2.382  21.502 -0.0827 -0.3874  0.1822
39602W        W48202   9.009   0.767   5.464 -0.0744  0.1102  0.2349
39603W        W48203  10.664   6.137   0.816  0.1520  0.2270  0.0452
39604W        W48204  16.817   6.074   6.549  0.1745 -0.2416 -0.0547
39605W        W48205  15.534   5.107   9.928  0.0536 -0.2386 -0.1141
39606W        W48206  11.011   4.921   2.948 -0.1762  0.3217  0.2636
39607W        W48207  18.290   2.889   1.456 -0.3776  0.0836  0.1690
39608W        W48208   7.269   2.296  30.760  0.0722  0.1315  0.1273
39609W        W48209  15.757   5.812  43.051  0.0728 -0.0739  0.0589
39610W        W48210  18.944   5.168   5.292  0.3403  0.3694 -0.1742
39611W        W48211  21.089   4.069  18.058  0.1169 -0.0432 -0.0472
39612W        W48212   5.654   5.875  35.840 -0.1630  0.1141 -0.0466
39613W        W48213  15.823   5.286  12.604  0.0110 -0.1168  0.1237
39614W        W48214   8.363   5.513  43.113 -0.1367  0.1646  0.1173
39615W        W48215  17.122   2.435  13.948 -0.1377 -0.0781 -0.1862
39616W        W48216  12.528   1.602  36.846  0.1490  0.1163  0.1035
39617W        W48217   8.084   0.329  33.255 -0.2306 -0.0168 -0.1059
39618W        W48218   2.070   3.010  44.752 -0.1152 -0.1410  0.0111
39619W        W48219  20.924   0.173  40.767  0.1884  0.1957  0.0683
39620W        W48220   2.409   2.757  34.322 -0.0714 -0.0200 -0.1276
39621W        W48221   5.293   5.448  27.897  0.1737  0.0088 -0.0230
39622W        W48222   4.905   2.531  34.507 -0.3843 -0.0731 -0.4554
39623W        W48223  12.244   3.401  28.726  0.1026  0.0378  0.0204
39624W        W48224  10.183   6.140  31.145 -0.2669  0.1005 -0.0191
39625W        W48225  20.726   1.736   5.977 -0.1283 -0.1228  0.0684
39626W        W48226  11.215   0.115  11.368 -0.3643  0.0340  0.0996
39627W        W48227  11.168   4.497  13.934  0.0879  0.0986  0.1191
39628W        W48228  18.048   0.599  42.313  0.3238 -0.0342 -0.0561
39629W        W48229  15.956   3.587  15.297  0.0900 -0.2178 -0.2659
39630W        W48230  15.113   3.619  16.142 -0.1092  0.0198  0.1831
39631W        W48231  17.071   5.694   1.777  0.3277 -0.1237 -0.1126
39632W        W48232   5.607   3.096  34.895 -0.1063  0.0420 -0.2573
39633W        W48233   9.395   0.747  38.537  0.0278  0.1548  0.0138
39634W        W48234   9.015   4.167  36.212 -0.0232  0.3721 -0.0162
39635W        W48235   7.082   3.563  34.603 -0.0941 -0.1986  0.1645
39636W        W48236  10.634   1.434  36.429  0.0665 -0.1310  0.2055
39637W        W48237  20.902   2.005   0.397  0.0629 -0.1127 -0.0336
39638W        W48238  11.312   2.908   0.996 -0.1033 -0.2193 -0.0699
39639W        W48239  11.829   4.499  13.208 -0.1701 -0.0567 -0.2072
39640W        W48240  13.301   6.172   4.517  0.0585 -0.0134  0.2005
39641W        W48241   2.885   4.154  35.346 -0.2575 -0.1522 -0.0283
39642W        W48242  17.983   3.576  15.481  0.0532  0.2425 -0.1292
39643W        W48243  13.935   1.044   1.624  0.0450 -0.3066 -0.0534
39644W        W48244  15.518   0.139  14.443  0.0876  0.0583  0.2747
39645W        W48245  10.394   1.446  37.820  0.1192 -0.0729  0.2768
39646W        W48246   9.384   4.710  41.950  0.2100 -0.0182  0.1174
39647W        W48247   5.623   2.117   4.469 -0.0062 -0.0686  0.0174
39648W        W48248   9.398   2.182   4.016  0.0385 -0.3571 -0.0520
39649W        W48249  18.430   1.615  33.442  0.0683 -0.2426 -0.3274
39650W        W48250   7.326   0.607   0.205 -0.0535 -0.0191 -0.2204
39651W        W48251   9.309   4.206  10.763 -0.1909  0.1968  0.2908
39652W        W48252  11.537   5.541  27.541  0.2137  0.2358 -0.2421
39653W        W48253   6.387   5.573  35.020  0.0841 -0.1530  0.0860
39654W        W48254   2.348   4.647   7.914  0.2105  0.0124 -0.1217
39655W        W48255   1.122   1.418  44.457  0.0083 -0.1979 -0.0037
39656W        W48256  18.304   5.776  31.986  0.2828  0.0492  0.1059
39657W        W48257  17.027   4.672   8.907 -0.0891  0.0852 -0.0225
39658W        W48258  14.486   3.721  43.282  0.0699  0.1654  0.1090
39659W        W48259  14.374   0.685  37.310 -0.3151 -0.1599 -0.2255
39660W        W48260  14.560   2.710  12.839 -0.0213 -0.0955  0.3523
39661W        W48261  15.943   3.936  16.743 -0.1480  0.2838 -0.1610
39662W        W48262   2.476   0.809  44.639  0.2793  0.0440 -0.2188
39663W        W48263   8.330   1.305   3.360 -0.0857 -0.2438 -0.1209
39664W        W48264   3.480   3.333   3.887 -0.2521  0.2086 -0.1645
39665W        W48265   7.193   4.966  16.111 -0.1707 -0.1318 -0.1991
39666W        W48266   4.933   0.787  29.829  0.4008 -0.1191 -0.0226
39667W        W48267  15.469   6.179  15.416 -0.2327 -0.0581 -0.2014
39668W        W48268  14.866   5.840  43.269 -0.0233  0.2598 -0.0171
39669W        W48269  12.021   6.106  13.661  0.2394  0.2049  0.2613
39670W        W48270  11.817   1.003  31.058 -0.1885 -0.1430  0.1845
39671W        W48271  11.212   0.053  39.789 -0.2220  0.0151  0.1033
39672W        W48272   9.761   6.237  24.221 -0.1188  0.1265  0.0534
39673W        W48273   0.888   1.819  43.155 -0.1723 -0.0745  0.2135
39674W        W48274  18.873   0.367   0.691 -0.0762  0.1134  0.0639
39675W        W48275  20.824   6.067  14.821 -0.0788  0.1745 -0.1640
39676W        W48276  16.545   3.720  30.100 -0.2050 -0.1270  0.1524
39677W        W48277   7.269   4.147   4.597  0.1101 -0.0181 -0.3565
39678W        W48278  14.480   6.167   3.222 -0.4148  0.0188  0.1331
39679W        W48279  11.465   5.047  11.716 -0.0179  0.2053 -0.1083
39680W        W48280   2.889   5.224  33.882 -0.0814  0.2477 -0.1540
39681W        W48281  20.076   3.031  29.244 -0.1083 -0.1114 -0.2665
39682W        W48282   6.850   3.144  11.591 -0.2564  0.2881  0.1516
39683W        W48283  20.590   1.625  18.641  0.1201  0.4109 -0.2171
39684W        W48284  18.410   0.467  21.287  0.2718 -0.1063  0.0106
39685W        W48285  20.859   0.385   1.417 -0.1136 -0.4163  0.0463
39686W        W48286  12.102   5.981  15.160 -0.0763  0.2260 -0.2719
39687W        W48287  12.635   5.880  32.775 -0.0127 -0.0035 -0.0645
39688W        W48288  17.169   2.419  16.756 -0.0105 -0.0446  0.0409
39689W        W48289  10.132   3.175  38.614  0.0632  0.0870  0.0604
39690W        W48290   9.409   1.470  40.084 -0.1146 -0.0028  0.0344
39691W        W48291  12.372   4.123  41.802 -0.0897  0.1081  0.1309
39692W        W48292  17.634   5.766   5.699 -0.0596  0.0258 -0.1843
39693W        W48293  20.440   0.016  43.569 -0.3920  0.0336  0.1471
39694W        W48294  19.944   0.020  36.255  0.0193  0.2311  0.2131
39695W        W48295   6.097   0.449   9.868 -0.1516 -0.0439  0.1565
39696W        W48296  12.124   3.699  18.868 -0.1065 -0.0518  0.0927
39697W        W48297  16.355   5.702  44.239  0.0325  0.1729  0.0847
39698W        W48298   9.207   0.603   7.383  0.0329 -0.0039  0.1063
39699W        W48299  13.784   1.385  33.041  0.1538  0.2224  0.0351
39700W        W48300   3.607   2.987   6.865  0.1841 -0.1050 -0.0010
39701W        W48301  18.947   6.208   7.311 -0.3535  0.0625 -0.1485
39702W        W48302  17.319   2.019  42.565  0.2210  0.0267 -0.2007
39703W        W48303  18.244   4.926  22.964 -0.0044  0.2823 -0.2579
39704W        W48304   4.102   3.728  23.114 -0.0692  0.1805 -0.0914
39705W        W48305   5.334   2.173  44.182  0.0679 -0.0413  0.4808
39706W        W48306  12.054   2.535  40.487 -0.2121 -0.0980  0.0167
39707W        W48307   8.042   1.332  33.657 -0.0193 -0.0992 -0.0303
39708W        W48308   0.256   0.908  30.253 -0.3238  0.0717  0.3111
39709W        W48309  17.105   2.292  16.230  0.0272 -0.1310  0.1931
39710W        W48310  15.461   4.674  29.867 -0.3506 -0.1368 -0.0134
39711W        W48311   0.991   4.601  42.663 -0.2838  0.1715  0.1813
39712W        W48312   2.996   1.681  29.538 -0.0147 -0.1947 -0.0631
39713W        W48313   4.617   6.428   3.000 -0.0218 -0.0442 -0.0000
39714W        W48314  15.425   3.880  12.641  0.1334  0.2978  0.0690
39715W        W48315  17.764   2.486  30.545 -0.0767 -0.1789 -0.0565
39716W        W48316   8.054   6.171   5.434 -0.0932 -0.0477  0.2576
39717W        W48317  15.854   1.254  41.076 -0.1463 -0.2283  0.0972
39718W        W48318  19.893   2.534  44.995  0.2364 -0.0806 -0.1467
39719W        W48319  20.984   6.061  39.669  0.1577  0.0490 -0.2136
39720W        W48320  16.116   3.614  12.762 -0.1723 -0.1164  0.1465
39721W        W48321  13.842   0.412  30.530 -0.3281 -0.1965 -0.0246
39722W        W48322  17.619   2.328   7.833 -0.6710 -0.0497 -0.0012
39723W        W48323  15.753   0.121  39.119 -0.1468  0.1931 -0.1543
39724W        W48324  16.922   4.361  19.988 -0.0496 -0.2346 -0.1237
39725W        W48325  20.187   4.673  33.385  0.0372  0.1781  0.1401
39726W        W48326   7.251   1.622   6.296  0.0857 -0.0598 -0.0061
39727W        W48327   8.455   1.335  10.376  0.0999  0.1363  0.2680
39728W        W48328   9.531   2.888  10.618 -0.0188 -0.0949  0.0010
39729W        W48329  19.936   1.786  40.383 -0.3102  0.1344 -0.1672
39730W        W48330   3.858   4.804  26.465 -0.0982  0.1655 -0.0361
39731W        W48331  19.457   5.882  38.798  0.0482  0.2010  0.2665
39732W        W48332  10.048   6.098  44.418 -0.1237  0.3410  0.1441
39733W        W48333  19.065   2.025  15.282 -0.0319  0.2267  0.2190
39734W        W48334   8.928   4.969  38.529 -0.0119  0.0405  0.1714
39735W        W48335  20.091   1.742  28.047 -0.0363 -0.3057  0.0734
39736W        W48336   1.343   3.454  44.110  0.1556  0.0566 -0.1198
39737W        W48337  11.787   4.352  16.147  0.1734 -0.1130 -0.0795
39738W        W48338  15.568   5.005  41.774  0.0861 -0.1646  0.0644
39739W        W48339  11.841   1.223  40.635  0.1340  0.0847 -0.2332
39740W        W48340  18.138   2.828  20.135 -0.0316  0.0618  0.0297
39741W        W48341   3.314   3.489  39.689  0.3423  0.0635 -0.0135
39742W        W48342   7.970   3.207  43.167 -0.1857 -0.0698 -0.3161
39743W        W48343  10.282   0.756  18.193 -0.0701 -0.0077 -0.0981
39744W        W48344   6.020   0.743  41.394  0.2861 -0.4500  0.4011
39745W        W48345  10.301   1.666   2.927 -0.1088  0.2017  0.1345
39746W        W48346   5.233   4.608  33.785 -0.0666  0.0385  0.1514
39747W        W48347  21.121   3.525   0.632 -0.2711  0.2596 -0.0854
39748W        W48348  19.392   4.520  39.999  0.1327 -0.0850  0.1340
39749W        W48349   1.508   1.514  27.177  0.0007 -0.0595  0.0471
39750W        W48350   3.152   5.468  16.168  0.2026 -0.1147  0.0834
39751W        W48351   2.182   5.725  28.335 -0.0441 -0.1588  0.0262
39752W        W48352   5.545   0.179  16.074  0.2323  0.3033 -0.0356
39753W        W48353  13.875   0.492  13.033  0.3644  0.0810 -0.1453
39754W        W48354   3.287   4.035  43.744 -0.0074  0.4060  0.1255
39755W        W48355  13.343   5.713   3.355 -0.1390 -0.1849  0.2308
39756W        W48356   9.321   0.915  26.900 -0.1054  0.0487 -0.0632
39757W        W48357  18.875   2.535  19.021 -0.3504 -0.0171 -0.1081
39758W        W48358  15.050   3.136   7.741  0.0502 -0.1512  0.0232
39759W        W48359  12.154   6.210  28.609 -0.0165  0.0404 -0.0100
39760W        W48360  11.489   4.091  29.041 -0.0380  0.1020  0.1965
39761W        W48361   9.496   3.044   2.557  0.0806  0.0106  0.2052
39762W        W48362   2.698   5.226  27.671  0.0736 -0.0144 -0.1114
39763W        W48363   1.182   4.696  44.000  0.2981  0.1681  0.1275
39764W        W48364   2.525   5.792   0.753  0.2476 -0.1152  0.0734
39765W        W48365  18.640   5.556  29.977  0.0483 -0.2132 -0.0863
39766W        W48366   6.744   5.233  12.245 -0.0528 -0.1797 -0.1797
39767W        W48367  13.238   3.843  11.684  0.0703  0.0367 -0.0937
39768W        W48368   7.065   1.577  23.987 -0.1321 -0.0687  0.1364
39769W        W48369  14.971   5.942   3.990  0.2947 -0.1281 -0.0808
39770W        W48370   4.513   0.662   0.707  0.0965 -0.1959 -0.0988
39771W        W48371  20.347   3.267  13.886 -0.0824  0.1703 -0.3607
39772W        W48372  19.426   2.060  33.571  0.1681  0.0667  0.0864
39773W        W48373  13.290   4.339  10.485  0.4219  0.0799 -0.5255
39774W        W48374  20.198   2.062  32.228 -0.1036 -0.1225  0.1148
39775W        W48375  19.185   0.305   7.838 -0.1905  0.2747  0.1203
39776W        W48376  19.669   4.284   4.522  0.1192 -0.0961 -0.0742
39777W        W48377   6.079   4.094  39.807 -0.1367 -0.2172  0.0303
39778W        W48378  20.674   1.012  17.103  0.0876 -0.3539  0.2288
39779W        W48379   3.554   3.473   9.052  0.0146  0.0135  0.3335
39780W        W48380   1.871   0.026   9.836 -0.0888  0.2790 -0.2572
39781W        W48381  19.045   3.173   6.007  0.2341  0.1303  0.0480
39782W        W48382  13.161   0.470  16.084  0.0222 -0.0641 -0.5963
39783W        W48383  14.223   6.219  21.396  0.0447  0.0607  0.0851
39784W        W48384   4.705   5.968   1.540  0.2256 -0.1248  0.1382
39785W        W48385   5.863   4.306  10.223 -0.2424  0.3522  0.2227
39786W        W48386  17.875   4.712  19.718  0.0592 -0.3814  0.0062
39787W        W48387   7.690   3.452  24.928 -0.0543 -0.0615  0.1837
39788W        W48388   7.739   1.989  25.303  0.0467  0.1034  0.1346
39789W        W48389  17.460   0.049  41.599 -0.0655 -0.3997  0.1117
39790W        W48390  13.743   0.912  19.566 -0.1596 -0.3620  0.3206
39791W        W48391   5.281   2.642  29.827 -0.2174 -0.0957 -0.0644
39792W        W48392  18.475   0.056  32.026  0.2883  0.1875 -0.1173
39793W        W48393   8.519   5.691  25.375 -0.1543 -0.0911 -0.0861
39794W        W48394   2.136   2.906   6.172 -0.2493  0.0362 -0.1096
39795W        W48395   5.843   2.610   8.886  0.0450 -0.0736  0.0837
39796W        W48396   0.478   3.853  10.775 -0.2209 -0.1338 -0.3483
39797W        W48397   5.458   6.528  37.892  0.0488 -0.1340 -0.0800
39798W        W48398  16.505   3.971  16.008 -0.1411 -0.1424 -0.0080
39799W        W48399   9.058   2.876  26.174  0.0333  0.2716 -0.0335
39800W        W48400   8.987   2.898  27.533  0.0670  0.3089  0.0115
39801W        W48401  18.270   0.611  16.075  0.0019  0.0938 -0.1202
39802W        W48402  11.239   6.389  34.835  0.2378 -0.2368 -0.2854
39803W        W48403   8.609   1.184   2.853  0.2261 -0.1592 -0.0650
39804W        W48404  15.310   2.048  18.484  0.1881 -0.1543  0.2512
39805W        W48405   6.962   3.989  39.776  0.1575  0.2160 -0.1197
39806W        W48406  13.739   6.570  13.008 -0.1183 -0.0460 -0.4250
39807W        W48407   3.142   0.129   2.235  0.3200 -0.1031 -0.0061
39808W        W48408  16.158   2.916  23.500 -0.0034  0.5449 -0.3218
39809W        W48409  14.665   0.271  42.374  0.0285  0.0572  0.0566
39810W        W48410   4.135   6.094  36.797  0.0226 -0.3085  0.0967
39811W        W48411   6.131   4.524  40.915 -0.2386  0.2743  0.1307
39812W        W48412   7.959   0.163  39.133  0.2105  0.1443 -0.1951
39813W        W48413   6.635   5.843  40.200 -0.1215  0.1574  0.1456
39814W        W48414  11.572   5.435  29.854 -0.1153  0.1049 -0.1036
39815W        W48415   0.334   6.440  18.456 -0.2066 -0.1536 -0.2571
39816W        W48416  17.005   4.363  36.790 -0.1457  0.0876 -0.0282
39817W        W48417   8.580   0.892   3.261 -0.3590  0.3089 -0.1398
39818W        W48418  18.143   4.641  16.978  0.0332 -0.1194 -0.1491
39819W        W48419  19.686   2.274  29.879  0.1303 -0.2584 -0.1552
39820W        W48420   5.034   1.033  28.398  0.1695 -0.1862  0.2046
39821W        W48421  12.372   2.878   6.849  0.3939  0.0615  0.0277
39822W        W48422  10.505   5.290   4.728  0.1238 -0.0696 -0.2606
39823W        W48423  11.732   4.343   6.583  0.2146 -0.1477  0.1453
39824W        W48424  10.430   1.174   4.639 -0.3763  0.4435 -0.1409
39825W        W48425  15.677   2.593  23.100  0.0007  0.5028 -0.0875
39826W        W48426   0.817   3.671  32.209  0.0860  0.1892  0.2102
39827W        W48427  15.745   4.651   3.345 -0.0934  0.0055 -0.3727
39828W        W48428  11.667   5.346  14.441  0.0303 -0.2303 -0.3319
39829W        W48429   6.412   5.610  26.533 -0.3566 -0.0956 -0.1774
39830W        W48430  13.771   3.268  34.045 -0.0364 -0.0214 -0.1347
39831W        W48431   1.968   2.363  40.654 -0.2249  0.2390 -0.2394
39832W        W48432  15.312   3.677  37.405 -0.2670  0.0775  0.0642
39833W        W48433   7.308   5.186  26.198  0.2582 -0.0881  0.1043
39834W        W48434  13.527   6.483   9.919  0.2430 -0.1251 -0.0819
39835W        W48435  20.074   0.168  32.369  0.0868 -0.1129 -0.0131
39836W        W48436  13.477   0.458  31.958  0.2409  0.0989  0.0035
39837W        W48437  10.176   6.098  40.133  0.2334 -0.3725  0.0922
39838W        W48438   3.568   3.439  42.342  0.3553  0.0018 -0.2100
39839W        W48439   6.138   5.053   1.512  0.4412  0.1135 -0.3319
39840W        W48440  14.437   3.962  21.312  0.0929 -0.2286  0.0875
39841W        W48441   4.189   1.804  33.297  0.1568  0.0028 -0.2612
39842W        W48442   8.092   5.596  42.109  0.0060 -0.0595  0.0074
39843W        W48443   2.246   1.613   4.295  0.2096 -0.1407 -0.0585
39844W        W48444  18.933   0.115   5.102  0.0338  0.0388  0.0236
39845W        W48445  19.524   2.174  38.155 -0.0870 -0.0248  0.1265
39846W        W48446   0.959   5.103  40.181 -0.1503  0.0867  0.0414
39847W        W48447   4.290   5.487  31.123 -0.2810 -0.1652  0.3657
39848W        W48448  14.540   0.802   9.047  0.0221 -0.0599  0.2159
39849W        W48449  18.603   3.035   5.105  0.1887  0.2357  0.1043
39850W        W48450   3.468   3.762   6.598  0.0592 -0.0757 -0.2557
39851W        W48451  11.550   4.277   6.119  0.2815 -0.0009 -0.3561
39852W        W48452  20.048   2.163  43.386  0.1048  0.1181 -0.1999
39853W        W48453   5.628   4.870  42.169 -0.3161  0.1213 -0.2955
39854W        W48454  19.662   5.377  11.911 -0.3930  0.1858  0.0633
39855W        W48455  12.818   4.491  29.862  0.2120  0.0058 -0.1297
39856W        W48456  18.549   2.338  42.003  0.0912  0.0117  0.0819
39857W        W48457   0.367   1.629  29.761 -0.0987 -0.1354  0.2074
39858W        W48458  14.424   2.194   0.823 -0.0654  0.0210 -0.1129
39859W        W48459  18.710   2.033  18.191 -0.2035  0.1264 -0.0242
39860W        W48460  11.488   0.093  27.812  0.0436  0.1680  0.1839
39861W        W48461   1.740   5.190  33.800  0.0762 -0.1161  0.0835
39862W        W48462  11.279   3.921  30.847 -0.0305  0.0481 -0.1221
39863W        W48463  13.215   5.615  44.314 -0.0406  0.0939  0.2773
39864W        W48464  14.573   2.183  36.276 -0.1476 -0.1158  0.2294
39865W        W48465   0.816   5.577   6.710 -0.3018  0.2518  0.2663
39866W        W48466  15.244   0.947  16.835  0.1369 -0.0019  0.1399
39867W        W48467   7.573   1.122  40.378  0.2058  0.0391  0.1346
39868W        W48468   5.636   4.936  36.932 -0.1543  0.0726  0.1020
39869W        W48469   7.538   3.581  11.351 -0.2439 -0.1867  0.0650
39870W        W48470  14.887   5.704  42.387  0.2172 -0.1987  0.0968
39871W        W48471   7.586   2.264   0.082  0.0406  0.0810  0.0181
39872W        W48472  19.529   0.586  41.065  0.0486 -0.1285  0.1140
39873W        W48473  20.521   6.018  13.179 -0.0414 -0.0723  0.2345
39874W        W48474   5.247   0.901   3.647  0.0606 -0.2709  0.0498
39875W        W48475  14.503   5.739   0.934  0.3855  0.2324 -0.0423
39876W        W48476  13.171   5.118  33.158 -0.1286  0.1596 -0.0162
39877W        W48477   4.888   3.216  25.810  0.2251 -0.1451  0.0522
39878W        W48478  12.220   4.095  43.869  0.2298 -0.1978 -0.3080
39879W        W48479  20.256   5.045  44.761 -0.3357 -0.0568  0.1162
39880W        W48480  16.540   4.175  28.916  0.1575  0.0204  0.0977
39881W        W48481   1.675   0.409   2.712  0.2987  0.0877 -0.1650
39882W        W48482  18.596   4.760  34.397 -0.2134 -0.2298 -0.0716
39883W        W48483   5.312   4.134  33.552  0.1623 -0.2151  0.0981
39884W        W48484   2.966   0.368  29.703  0.0650 -0.0976  0.2301
39885W        W48485  20.207   4.964  17.466  0.2263  0.0269  0.0404
39886W        W48486  13.840   0.850  29.980 -0.4964 -0.1709  0.4569
39887W        W48487  17.356   5.177  36.700  0.0956 -0.0153  0.1078
39888W        W48488  17.039   6.030  33.099  0.3589 -0.2016 -0.2505
39889W        W48489  11.755   5.872   1.432  0.0920 -0.2881  0.0049
39890W        W48490   5.650   5.437  40.943 -0.1707 -0.1569 -0.1313
39891W        W48491  18.563   3.807  35.939  0.3717  0.2463  0.1658
39892W        W48492   9.181   1.299  34.092  0.0843 -0.0514 -0.1098
39893W        W48493   9.721   1.361  14.628  0.2479  0.1888  0.0956
39894W        W48494  18.966   0.612  16.076  0.3972  0.0145 -0.0650
39895W        W48495   5.616   3.709  10.233  0.0638 -0.2578 -0.1939
39896W        W48496  20.443   3.720   6.016  0.0941  0.0291  0.0291
39897W        W48497  19.847   0.502  36.372  0.0059  0.1182  0.0729
39898W        W48498   3.596   0.631   2.975 -0.0457  0.0830  0.0078
39899W        W48499  13.880   4.284  31.971 -0.4410 -0.0987  0.0963
39900W        W48500  12.282   5.824  34.119 -0.1707  0.1813 -0.0739
39901W        W48501  17.301   2.654  22.234  0.1589 -0.1293 -0.0377
39902W        W48502  12.092   2.858  34.181 -0.2280 -0.0627  0.0957
39903W        W48503   9.487   5.410  32.656  0.1332  0.1087  0.2321
39904W        W48504   8.913   0.740  44.334 -0.1786  0.1371  0.0038
39905W        W48505   9.484   1.942  15.210 -0.2107 -0.0234  0.3853
39906W        W48506  20.114   5.746  16.638 -0.2993  0.1912  0.2440
39907W        W48507  16.466   2.928   5.584 -0.2825 -0.1711 -0.0734
39908W        W48508  11.827   2.627  34.557 -0.3579 -0.0533 -0.0971
39909W        W48509  18.519   4.187  21.234 -0.0257 -0.2206 -0.2597
39910W        W48510  17.858   1.774  21.704 -0.0694 -0.0325 -0.1615
39911W        W48511   3.196   0.450  40.117  0.2835 -0.1432 -0.0784
39912W        W48512   7.216   3.082  35.508 -0.1179  0.2484  0.4499
39913W        W48513  19.857   2.008  18.523 -0.0239 -0.0645 -0.1318
39914W        W48514   4.344   0.345   7.509  0.1257 -0.0852  0.3445
39915W        W48515  12.648   6.082  37.762 -0.1832  0.0825 -0.2427
39916W        W48516   8.265   5.150  23.041 -0.1137  0.0923  0.0388
39917W        W48517  12.292   1.661  16.583  0.0674  0.0662  0.2537
39918W        W48518  10.052   0.658  26.445  0.1690  0.1216  0.2679
39919W        W48519   4.328   1.518  26.515 -0.0597 -0.2854  0.1524
39920W        W48520  14.741   0.595   0.798 -0.2991  0.0464  0.0183
39921W        W48521  19.963   0.350  34.781 -0.1874 -0.3001  0.1124
39922W        W48522   1.641   4.129  40.174  0.3106 -0.1434 -0.3844
39923W        W48523   4.333   0.076  11.615 -0.0365  0.2972  0.0174
39924W        W48524  13.737   2.998  39.008 -0.0375 -0.3567  0.1690
39925W        W48525   8.558   1.307  30.354  0.0353  0.4535 -0.0763
39926W        W48526   1.287   2.999  13.141 -0.2534  0.2812  0.2590
39927W        W48527   7.632   0.377  10.534  0.2866 -0.1874 -0.1259
39928W        W48528   8.684   5.374  38.435  0.0795 -0.2437  0.2261
39929W        W48529  14.603   5.363  44.561 -0.0963  0.2483 -0.2541
39930W        W48530  17.366   1.007   1.532 -0.0570  0.2735  0.1159
39931W        W48531  14.337   0.197  32.320  0.2796 -0.3188 -0.0158
39932W        W48532  17.687   1.709  13.593  0.3278 -0.2066  0.1392
39933W        W48533  16.067   3.737   2.006 -0.3495  0.0478  0.0721
39934W        W48534  13.777   4.775  18.675 -0.0295 -0.0713 -0.1267
39935W        W48535  13.376   5.687  38.435 -0.1110  0.1241 -0.3567
39936W        W48536  10.289   5.621  31.168  0.0214 -0.1573 -0.2381
39937W        W48537  12.424   2.079  31.398  0.0622 -0.2426  0.1449
39938W        W48538  17.717   1.412  41.281  0.0141 -0.1744 -0.0656
39939W        W48539   3.663   4.499  24.989 -0.1315 -0.0646 -0.0837
39940W        W48540   8.480   3.820  30.683 -0.0737 -0.0303  0.0304
39941W        W48541  13.446   1.596  43.261 -0.1532  0.2247 -0.0703
39942W        W48542   7.666   4.027  42.206 -0.1422 -0.0651  0.0200
39943W        W48543  12.744   4.759  30.755 -0.3512  0.0783  0.0180
39944W        W48544   5.041   3.240  35.527  0.1070  0.0083 -0.0741
39945W        W48545  15.131   0.739  16.156 -0.0195 -0.2079  0.0321
39946W        W48546   4.898   1.506  35.083 -0.0741 -0.1553 -0.0448
39947W        W48547  15.225   0.721  19.545  0.4063 -0.2208 -0.0343
39948W        W48548  11.542   6.287  37.534 -0.2861 -0.0183  0.0261
39949W        W48549   8.591   0.928  40.991 -0.1361  0.1925  0.0446
39950W        W48550  17.451   0.915  13.609  0.0299 -0.2446 -0.0686
39951W        W48551   1.787   6.137   8.723  0.0402 -0.0826 -0.1150
39952W        W48552   0.760   5.808  34.003 -0.1469 -0.1387  0.0510
39953W        W48553   3.630   6.223  35.561 -0.0503 -0.3098  0.2379
39954W        W48554  13.488   2.688   9.968  0.3501 -0.0939 -0.3565
39955W        W48555  21.096   2.880  28.825  0.1735 -0.1484  0.2413
39956W        W48556  16.160   5.547   6.175  0.0823  0.2012 -0.0454
39957W        W48557  14.325   4.446   3.129 -0.0869  0.1117  0.0260
39958W        W48558   4.405   0.380  14.868 -0.0716 -0.1625 -0.1126
39959W        W48559   6.940   3.755  21.923 -0.0939 -0.0789  0.5864
39960W        W48560  18.399   2.339  14.519 -0.1683 -0.0319 -0.0225
39961W        W48561  19.318   6.601  43.288 -0.0009  0.0836  0.1122
39962W        W48562  10.018   5.460  35.005  0.1348  0.0533  0.1427
39963W        W48563  11.911   4.702  43.768 -0.0571  0.1667 -0.1432
39964W        W48564   1.614   2.180  36.108  0.0272 -0.4227 -0.0159
39965W        W48565  17.748   4.708   5.091 -0.0819 -0.0498  0.2105
39966W        W48566   8.448   1.095  33.367 -0.2311 -0.0784 -0.2096
39967W        W48567   6.503   5.634  32.452 -0.2284 -0.2640  0.1317
39968W        W48568   5.220   2.409  25.402 -0.0059 -0.5081  0.0596
39969W        W48569   1.800   1.204  14.760  0.2263 -0.1952 -0.1942
39970W        W48570   7.619   5.188  28.348 -0.1615  0.0848  0.0640
39971W        W48571   2.747   4.790  40.578  0.3883  0.0893 -0.2418
39972W        W48572   0.125   6.368  38.398 -0.1351  0.1116 -0.3661
39973W        W48573  13.873   5.471  44.175 -0.0730  0.0430 -0.1132
39974W        W48574  14.256   5.754  12.684 -0.1705  0.3902 -0.0393
39975W        W48575   2.900   0.619   9.133 -0.0693 -0.0549  0.2953
39976W        W48576  19.137   4.530  18.309  0.0657  0.2183  0.0756
39977W        W48577  15.047   5.127  23.049  0.2503  0.1398  0.2418
39978W        W48578  21.019   1.727  29.740  0.0748  0.0138  0.1298
39979W        W48579   8.518   5.177  26.292  0.0896 -0.1061  0.0293
39980W        W48580  15.891   3.769  29.566 -0.0200 -0.0942 -0.0343
39981W        W48581  15.188   4.620  41.029 -0.5081  0.1539 -0.0639
39982W        W48582  13.035   6.225  14.104  0.2030 -0.1015  0.1450
39983W        W48583   6.060   4.333  28.671  0.3470  0.0298  0.1856
39984W        W48584   4.574   3.717  34.770  0.0234 -0.1623 -0.0171
39985W        W48585   2.207   5.360  30.294  0.1701  0.1660  0.0416
39986W        W48586  13.351   4.974  31.664  0.0777  0.1638  0.0037
39987W        W48587   1.800   0.601  43.891  0.2004  0.2080 -0.1081
39988W        W48588   3.763   4.041  11.576  0.2608  0.2067  0.0601
39989W        W48589   7.187   5.061   4.634  0.1455 -0.1993 -0.0515
39990W        W48590  19.695   5.378   0.227  0.0763  0.0769  0.0473
39991W        W48591   7.495   4.066  37.411  0.0222 -0.2811 -0.1126
39992W        W48592  12.345   0.626  35.834  0.0155  0.2782  0.2811
39993W        W48593   0.762   4.028  35.302 -0.0189 -0.2982 -0.0482
39994W        W48594   0.807   3.772  15.154 -0.0893 -0.0121  0.1498
39995W        W48595   3.473   5.865  40.851  0.4999  0.0763  0.1878
39996W        W48596  19.476   5.799   9.211  0.0297  0.1231  0.2358
39997W        W48597  10.969   4.085  32.322  0.1034 -0.2163  0.1874
39998W        W48598   1.452   5.019  15.750 -0.3369 -0.0156 -0.0277
39999W        W48599   1.826   4.451  38.104 -0.0101 -0.0953 -0.2301
40000W        W48600  15.222   1.565  15.883  0.2068 -0.5597 -0.2157
40001W        W48601   1.292   2.789   6.139  0.0755  0.0220  0.0590
40002W        W48602   4.360   2.250  34.575 -0.0212  0.1454  0.3365
40003W        W48603   9.519   6.151  28.438 -0.3192 -0.5619 -0.1523
40004W        W48604   3.503   4.880  27.605 -0.0762 -0.3495 -0.0816
40005W        W48605   1.597   5.320   3.287  0.0207  0.0240  0.3560
40006W        W48606  18.000   5.098  35.979 -0.2428  0.0185 -0.0928
40007W        W48607  11.856   4.231   9.913  0.1284  0.0768 -0.1384
40008W        W48608  12.219   4.152   6.491 -0.1514 -0.1194  0.1242
40009W        W48609   8.685   0.199  24.102 -0.0506  0.0240 -0.0434
40010W        W48610  18.312   1.401  16.259 -0.2959 -0.0868 -0.1113
40011W        W48611  19.612   3.558  18.270  0.0490 -0.0193  0.0548
40012W        W48612   0.792   2.657  41.051 -0.0633  0.1077  0.0358
40013W        W48613  13.920   5.148   8.244 -0.2283 -0.0859  0.0939
40014W        W48614  16.267   4.616  42.197 -0.0520 -0.1526  0.1113
40015W        W48615   7.568   4.567  23.250  0.1581 -0.1455 -0.1207
40016W        W48616   2.342   0.139  39.481 -0.1283  0.0780 -0.0726
40017W        W48617  19.185   6.107  35.650 -0.1938  0.0703  0.2179
40018W        W48618   4.878   6.399  23.466 -0.0423 -0.1056 -0.0646
40019W        W48619  19.212   4.811  12.774  0.3961 -0.1031  0.3178
40020W        W48620  15.083   2.038  16.048 -0.0897  0.2140 -0.1844
40021W        W48621  17.805   0.637  31.583 -0.1746  0.1337 -0.2352
40022W        W48622  19.074   6.050   0.673 -0.2478 -0.2810 -0.2334
40023W        W48623  18.027   2.223   1.043 -0.0873  0.1683 -0.2550
40024W        W48624   6.382   4.933  44.247  0.0379 -0.0851 -0.0895
40025W        W48625   5.093   0.555  25.658  0.0788 -0.1504  0.1831
40026W        W48626  10.795   0.067  30.057  0.0497  0.2434 -0.0937
40027W        W48627  14.527   5.344  21.293  0.0471 -0.3026  0.3062
40028W        W48628  15.994   3.967  41.498 -0.3507 -0.0414 -0.0137
40029W        W48629   1.909   4.018   3.614  0.0258  0.1377 -0.0103
40030W        W48630  16.091   2.484  11.754  0.0544  0.1857 -0.2154
40031W        W48631   6.477   0.835   2.567  0.1440  0.2530 -0.2039
40032W        W48632   2.577   0.866  32.897  0.0530  0.1187 -0.2051
40033W        W48633  14.022   4.892   0.607  0.0133  0.2659 -0.2575
40034W        W48634   9.115   1.191   7.540  0.4386  0.3590  0.1916
40035W        W48635   0.338   5.601  42.403  0.3616 -0.1125 -0.3758
40036W        W48636   9.917   0.130   8.683  0.1672  0.0188 -0.0481
40037W        W48637  12.430   5.003  41.677  0.1863  0.0427  0.1446
40038W        W48638  12.997   2.793   0.636  0.0084  0.0145 -0.0616
40039W        W48639  14.230   6.161  20.411  0.0102  0.0182  0.0400
40040W        W48640   9.266   0.342  38.818 -0.0682 -0.1123  0.0812
40041W        W48641   1.900   6.556  28.343  0.0971  0.0944  0.0828
40042W        W48642   6.009   5.036  14.724 -0.2217 -0.0422 -0.0323
40043W        W48643  16.552   0.256   8.727  0.2392  0.2042  0.0278
40044W        W48644   3.613   5.639   2.657 -0.0042  0.2027 -0.0374
40045W        W48645  12.963   5.838  28.426  0.1207 -0.0900  0.1060
40046W        W48646   6.288   3.018  10.970  0.1498 -0.1331  0.2368
40047W        W48647   2.968   3.686  28.737 -0.1563 -0.1713 -0.1490
40048W        W48648  13.142   0.201  36.509 -0.4696 -0.0779  0.2971
40049W        W48649   8.498   3.881  14.992 -0.1977  0.1384  0.0681
40050W        W48650  20.637   2.669  18.767  0.1749 -0.0649  0.1130
40051W        W48651   4.999   0.819  36.411 -0.1116 -0.0936  0.0099
40052W        W48652  13.526   3.163  19.307 -0.1669  0.0383 -0.0247
40053W        W48653   9.968   4.435  32.868  0.1829  0.1026  0.1048
40054W        W48654  13.387   3.271  35.303  0.0818 -0.0244 -0.4020
40055W        W48655  12.040   2.897  36.781 -0.1847 -0.0910 -0.1142
40056W        W48656  15.731   2.832  20.523  0.0077 -0.0618  0.2670
40057W        W48657   8.851   3.556  11.839  0.1706 -0.2376 -0.3098
40058W        W48658  18.201   6.156   6.749  0.1245  0.0999 -0.0485
40059W        W48659  19.128   0.037  39.320  0.1914  0.1328 -0.1450
40060W        W48660  18.291   2.252  13.913  0.0774 -0.3571 -0.0188
40061W        W48661  18.525   3.634   4.606  0.1483 -0.2315  0.0321
40062W        W48662  12.065   4.920  44.214 -0.0071  0.2700  0.2202
40063W        W48663  19.257   2.350  43.697  0.4989 -0.0642 -0.1761
40064W        W48664   6.109   2.927  20.481  0.0589  0.2141  0.1873
40065W        W48665  11.282   6.565  43.018  0.4146  0.1811  0.0014
40066W        W48666   4.730   0.407  43.213 -0.0190  0.0969 -0.1921
40067W        W48667   2.394   2.633  28.119 -0.0684  0.1390 -0.1802
40068W        W48668  13.988   1.923  15.864  0.1038 -0.2176  0.3895
40069W        W48669   7.876   1.724  31.128 -0.1250 -0.0310 -0.1664
40070W        W48670  12.396   0.767  39.957  0.0581  0.1275 -0.5013
40071W        W48671  17.387   4.888  17.758 -0.1354 -0.3789  0.2088
40072W        W48672  10.391   1.705  13.875  0.3089  0.0947  0.0516
40073W        W48673   7.376   5.194  23.032  0.2352 -0.1346  0.1894
40074W        W48674  12.316   1.841  36.262 -0.1379  0.1474 -0.0685
40075W        W48675   5.293   6.306  23.763  0.0540 -0.0614  0.0196
40076W        W48676  20.043   2.272  40.254  0.3871  0.2651  0.1500
40077W        W48677   4.151   1.391  42.315 -0.2371  0.0148 -0.0422
40078W        W48678  19.782   3.177  35.966 -0.4330 -0.0982  0.2216
40079W        W48679  16.718   3.887  29.294 -0.0101 -0.0624 -0.0543
40080W        W48680  13.511   0.731  29.511  0.0273  0.1710 -0.2067
40081W        W48681   3.944   1.372  37.315  0.0479  0.1066  0.3905
40082W        W48682  16.824   5.510  26.155  0.0394  0.1554  0.0883
40083W        W48683   5.340   0.550  13.876  0.1583 -0.3207  0.3563
40084W        W48684   3.230   6.124   6.497 -0.2073  0.1068  0.2016
40085W        W48685  14.923   1.821  17.308 -0.0304 -0.0003  0.2260
40086W        W48686  19.922   3.414   4.923  0.0542 -0.0685 -0.1131
40087W        W48687  14.549   0.897  18.875 -0.0077  0.1169 -0.0783
40088W        W48688   1.601   0.752  14.577  0.1447 -0.0477 -0.0355
40089W        W48689  15.593   0.917  19.960 -0.0128 -0.0803  0.1455
40090W        W48690  11.656   2.310  45.019 -0.0306 -0.2525  0.1641
40091W        W48691  13.309   3.348   4.990  0.0335  0.1090  0.1832
40092W        W48692  17.957   5.800  37.032  0.2878 -0.0069  0.0892
40093W        W48693   7.257   5.943  15.764  0.0411 -0.1220 -0.0473
40094W        W48694   0.571   3.103  12.566 -0.1738 -0.1910 -0.0305
40095W        W48695   1.407   3.055   3.400  0.0504  0.1243  0.0728
40096W        W48696   7.622   3.696  31.007 -0.3507 -0.0738  0.0499
40097W        W48697   9.283   4.364  15.272  0.1772  0.2096 -0.0171
40098W        W48698  14.953   3.781  44.348 -0.2862  0.3560  0.3491
40099W        W48699  11.509   2.652   2.608 -0.1283 -0.1474 -0.1513
40100W        W48700  12.664   4.667   6.941 -0.0686  0.2569  0.1742
40101W        W48701   6.599   4.775  32.915 -0.2675  0.0840 -0.1004
40102W        W48702  12.707   1.878   3.599 -0.1830 -0.0807  0.1495
40103W        W48703   9.035   4.059  11.548  0.0339  0.0896  0.0732
40104W        W48704  19.228   5.611   6.483  0.3502 -0.0395 -0.1528
40105W        W48705   7.635   4.952  30.085  0.0860  0.2524 -0.1863
40106W        W48706  17.215   4.692  31.290  0.2001 -0.1621  0.0230
40107W        W48707  18.091   2.361  34.060  0.1619 -0.1862  0.2715
40108W        W48708  10.388   3.129  27.287  0.0622  0.0615  0.1531
40109W        W48709  18.427   2.113  33.293 -0.1437  0.3024 -0.2457
40110W        W48710  11.634   3.489  18.760  0.1193  0.0634  0.0233
40111W        W48711   4.559   6.124  13.492 -0.0781  0.0542  0.1423
40112W        W48712  12.686   5.273  28.643  0.2879 -0.1101  0.0363
40113W        W48713   7.849   0.681  14.695 -0.3118 -0.0583  0.0563
40114W        W48714   0.331   4.324  43.702  0.2329  0.2156 -0.1836
40115W        W48715  19.039   4.347  16.889  0.2684 -0.1989  0.1329
40116W        W48716   6.795   3.956   3.241 -0.2313  0.0163 -0.3400
40117W        W48717   9.399   3.319   2.953 -0.3531 -0.0761  0.3142
40118W        W48718   3.414   2.591  39.956  0.0863 -0.0821  0.1799
40119W        W48719  11.570   3.344  33.381  0.1067  0.2827 -0.0264
40120W        W48720  11.154   0.763  18.758  0.2877 -0.1166  0.1092
40121W        W48721   4.133   2.918   3.272 -0.1460 -0.1013 -0.1997
40122W        W48722  10.144   5.577  41.049  0.2100 -0.2937  0.0223
40123W        W48723   5.475   3.445  30.964 -0.1925 -0.0288  0.1886
40124W        W48724  13.118   3.501  40.613 -0.0491 -0.1418  0.1490
40125W        W48725   5.813   6.016  16.446 -0.0403 -0.0736  0.2128
40126W        W48726   5.428   2.138  11.646 -0.0539  0.0359  0.1594
40127W        W48727  12.875   3.803  37.570 -0.1577 -0.2923  0.0504
40128W        W48728  19.808   3.022   4.064 -0.1393  0.0796 -0.0519
40129W        W48729  13.227   4.382  33.398 -0.2423  0.1131 -0.2679
40130W        W48730  13.950   4.503  39.727  0.1422 -0.0545  0.1402
40131W        W48731   6.970   5.146  40.643  0.0832 -0.0601 -0.0065
40132W        W48732   8.033   4.625  43.528  0.0357  0.1595 -0.1342
40133W        W48733  16.801   4.034   5.858 -0.0279 -0.0566  0.1963
40134W        W48734   9.272   1.879  26.744  0.0157 -0.1195 -0.0385
40135W        W48735   3.519   3.201  44.267 -0.0441  0.1589  0.2070
40136W        W48736  18.134   1.221   9.665 -0.2880  0.0039  0.2646
40137W        W48737  17.732   6.314  11.239 -0.1216 -0.0637 -0.0252
40138W        W48738  15.508   2.153  22.034  0.1797 -0.0349 -0.0150
40139W        W48739  15.030   1.267  29.525 -0.0528  0.0011  0.1001
40140W        W48740  12.236   3.713  44.390 -0.1181  0.0281  0.0741
40141W        W48741  14.757   4.388  31.611  0.2244 -0.4575 -0.0544
40142W        W48742  16.308   4.998  16.940  0.1614 -0.3018 -0.1769
40143W        W48743  11.794   6.606  43.588  0.0390 -0.2302  0.3508
40144W        W48744   9.291   4.313  29.864 -0.0101  0.2378  0.0092
40145W        W48745   7.692   1.293  24.867  0.2080  0.2035  0.0148
40146W        W48746   7.194   4.256   7.711  0.0209 -0.0056 -0.1434
40147W        W48747   3.042   5.178  40.222 -0.0634  0.2164 -0.0632
40148W        W48748   8.813   5.134  27.107  0.0995 -0.0690  0.0891
40149W        W48749  20.360   5.001  43.426 -0.0490 -0.2112 -0.1324
40150W        W48750   6.534   6.169   5.963  0.1821  0.1942  0.2475
40151W        W48751  10.473   5.673  26.609 -0.2271 -0.2537  0.0484
40152W        W48752  18.134   2.788  14.805  0.0567  0.2623 -0.1641
40153W        W48753   6.844   5.589   3.324 -0.2510 -0.0348 -0.3713
40154W        W48754   3.280   1.266  43.595  0.2284 -0.1866  0.0347
40155W        W48755   3.705   1.336   8.392 -0.0691  0.0110  0.1303
40156W        W48756  17.478   1.222  42.521 -0.1245  0.2307 -0.1646
40157W        W48757  20.930   1.836  39.953 -0.0873 -0.1908  0.0427
40158W        W48758  11.440   3.728  41.389  0.1166  0.1284  0.1121
40159W        W48759  17.860   0.391   7.221 -0.2514 -0.0544  0.0608
40160W        W48760   5.573   5.996   6.534  0.0258 -0.0665 -0.1818
40161W        W48761   3.827   0.154  29.703  0.1712  0.0774 -0.0298
40162W        W48762   2.688   3.340  15.965 -0.1050 -0.0504  0.2355
40163W        W48763  18.142   2.689  39.710  0.1516  0.0347  0.0418
40164W        W48764   3.477   4.979   3.968 -0.0106  0.1222 -0.1832
40165W        W48765  10.562   2.895  38.664  0.0376  0.1371  0.0077
40166W        W48766   1.476   6.269   1.515  0.1133  0.1593 -0.0011
40167W        W48767  16.617   5.250  33.213  0.0946  0.4219  0.0590
40168W        W48768   9.028   1.581  28.034  0.2005  0.3418  0.0515
40169W        W48769  11.865   5.692  29.282  0.0188 -0.0169  0.2718
40170W        W48770  12.715   4.349   7.903  0.3666 -0.0846 -0.0562
40171W        W48771   5.558   4.414  44.225 -0.0412  0.0808 -0.2990
40172W        W48772  19.908   1.548   3.787 -0.1012 -0.0176  0.1781
40173W        W48773  15.779   3.586  19.139 -0.0145  0.3864 -0.1283
40174W        W48774  17.616   5.913  14.131 -0.1911  0.0941  0.2327
40175W        W48775   8.007   6.310  39.337  0.2800  0.4311 -0.1261
40176W        W48776  16.602   5.545   1.891  0.1478  0.0439 -0.1494
40177W        W48777  11.318   2.278  29.189  0.0816 -0.0725 -0.0896
40178W        W48778   6.132   6.379  26.440  0.0377  0.0450  0.3849
40179W        W48779  11.737   2.376  31.054  0.1619  0.1911  0.2925
40180W        W48780  11.913   3.132  34.577  0.0575 -0.0170  0.1002
40181W        W48781   5.633   3.194  44.547  0.0014 -0.2336 -0.1260
40182W        W48782   9.225   0.382  43.520  0.0981 -0.2522  0.1078
40183W        W48783  20.264   1.081   2.196  0.3389  0.1338  0.0180
40184W        W48784   0.834   0.424  37.733 -0.1168 -0.0784  0.6285
40185W        W48785   6.238   1.716  42.967  0.0914 -0.0139 -0.2564
40186W        W48786   3.271   4.572  34.406  0.2925  0.4714  0.0472
40187W        W48787  17.613   0.677  21.887  0.3509  0.2128  0.3093
40188W        W48788   9.153   5.498  39.287  0.0661  0.0376 -0.3035
40189W        W48789  12.505   6.198  40.282 -0.3284 -0.1122 -0.0156
40190W        W48790   6.520   4.091   1.264 -0.1525  0.2866 -0.2517
40191W        W48791   9.015   2.517  30.704  0.0722  0.0345 -0.0273
40192W        W48792  19.759   3.906  44.001  0.0990 -0.1781  0.1549
40193W        W48793   5.756   3.444  33.814 -0.0505 -0.0048 -0.2907
40194W        W48794   8.841   3.033  30.728  0.0083  0.2668  0.0713
40195W        W48795   2.115   1.083  41.567  0.0051 -0.0997 -0.1905
40196W        W48796   0.132   3.582   1.608 -0.0570  0.0334  0.2105
40197W        W48797   6.031   3.405  32.499 -0.1729  0.0420  0.1325
40198W        W48798   9.108   0.237  16.195 -0.1391  0.1790 -0.0387
40199W        W48799  19.018   5.941  12.457 -0.0086  0.0323  0.2133
40200W        W48800  12.988   2.517  10.166  0.0374  0.0568  0.0713
40201W        W48801  20.932   6.161  17.968  0.0709  0.0107  0.0005
40202W        W48802   0.633   2.530  33.196 -0.1356 -0.0838  0.1449
40203W        W48803   9.058   4.859  41.158 -0.0683  0.2320  0.2282
40204W        W48804   5.392   2.655  21.200  0.1916 -0.0682 -0.0188
40205W        W48805   6.583   1.804   1.504 -0.0867 -0.1418 -0.1727
40206W        W48806   0.781   2.323  12.711  0.1768 -0.1509 -0.2047
40207W        W48807   1.390   1.758  36.133 -0.1204  0.0085  0.1238
40208W        W48808  11.003   5.169  42.964  0.1899 -0.0248  0.1675
40209W        W48809  15.359   5.273  17.097  0.1986  0.2044 -0.3182
40210W        W48810   6.431   2.836  11.467 -0.0877  0.0832 -0.0028
40211W        W48811   5.483   1.672  43.296 -0.0170  0.1879 -0.0051
40212W        W48812  20.376   3.973  40.219  0.1532  0.0010 -0.0435
40213W        W48813   8.420   4.139  37.413  0.0592 -0.3001  0.2260
40214W        W48814  17.235   6.052  16.889 -0.3969 -0.1221 -0.0881
40215W        W48815   3.912   5.186  12.757  0.0662  0.2816 -0.2138
40216W        W48816  10.332   2.998  16.207 -0.4358 -0.0570  0.0356
40217W        W48817   2.978   4.246  33.721 -0.2584  0.2345 -0.0553
40218W        W48818  12.711   4.998   6.536 -0.3405  0.0591  0.2599
40219W        W48819  17.374   4.963   2.717  0.0053  0.2326  0.1586
40220W        W48820  10.184   2.692   5.903 -0.0570  0.4204 -0.3493
40221W        W48821   1.852   4.683  27.523 -0.0262 -0.0382  0.0662
40222W        W48822  12.873   3.907   2.667  0.3006 -0.0902 -0.1239
40223W        W48823  13.224   5.638  17.388  0.0026  0.2057  0.1387
40224W        W48824  13.131   1.509  16.991  0.1400 -0.3711  0.0343
40225W        W48825   2.192   2.767   7.022 -0.4580 -0.1523  0.0680
40226W        W48826   5.974   0.291  37.291 -0.2727 -0.0631 -0.0847
40227W        W48827   9.073   3.507  34.612  0.0684 -0.0104 -0.0824
40228W        W48828  14.862   4.024  16.327  0.2266 -0.1003  0.0720
40229W        W48829   4.734   4.161  42.202  0.1409  0.1776  0.2813
40230W        W48830   7.116   5.696  22.636 -0.0155 -0.3505  0.0748
40231W        W48831   8.973   6.505  32.942  0.1650  0.1126  0.1726
40232W        W48832  14.736   5.051  22.135 -0.1946 -0.1002 -0.1709
40233W        W48833  11.053   6.272  32.134 -0.0886 -0.2662 -0.1347
40234W        W48834  21.027   0.240  17.627  0.1029 -0.0023  0.2158
40235W        W48835  15.201   6.250  23.707  0.1144  0.0013  0.2323
40236W        W48836  17.834   3.596  32.586  0.0924  0.0286 -0.0639
40237W        W48837   4.955   3.526  12.334 -0.1715  0.1793 -0.0251
40238W        W48838   9.435   0.495   1.574  0.1584  0.2231  0.0375
40239W        W48839   8.056   4.649  42.406 -0.1110 -0.0416  0.1884
40240W        W48840  12.459   5.380  32.655 -0.0792  0.2280  0.2548
40241W        W48841   0.938   6.081  42.296 -0.0289 -0.2550 -0.1380
40242W        W48842   6.881   6.441  11.641 -0.3317  0.1738 -0.1544
40243W        W48843  13.288   4.324   5.741 -0.0946  0.0187  0.0049
40244W        W48844   9.381   3.188  29.121  0.0641 -0.0869  0.0209
40245W        W48845   0.486   6.597   5.354 -0.1047  0.0295 -0.0696
40246W        W48846  17.199   4.453   8.531  0.2020 -0.0399 -0.0012
40247W        W48847  10.318   4.621  11.567  0.1410 -0.1697  0.1691
40248W        W48848   8.347   6.562  43.765 -0.1439  0.0453  0.0850
40249W        W48849  16.315   1.523  44.759  0.1235  0.0920  0.1768
40250W        W48850  18.397   4.433   4.588 -0.1832  0.0587 -0.0876
40251W        W48851   3.751   0.866  28.592 -0.0086  0.0604  0.1359
40252W        W48852   7.191   6.371  35.977  0.1860 -0.0201 -0.1832
40253W        W48853  20.365   3.148  13.052 -0.0690  0.0839  0.0257
40254W        W48854   5.915   2.104  32.267 -0.1238 -0.0766 -0.4266
40255W        W48855   7.635   6.530   8.386 -0.3557 -0.0353 -0.0918
40256W        W48856  20.689   6.568  13.846 -0.0489  0.2452  0.2605
40257W        W48857   7.074   1.149   9.836 -0.2730  0.1112  0.1870
40258W        W48858  13.560   5.493  37.785  0.1644 -0.2731  0.2416
40259W        W48859   0.022   2.298  17.682  0.3001 -0.0530 -0.0577
40260W        W48860   2.752   3.183  43.249 -0.0741  0.0871 -0.3478
40261W        W48861  14.868   1.850  35.866 -0.3574  0.0649 -0.1128
40262W        W48862  21.109   3.833  32.596 -0.0331  0.3383  0.1086
40263W        W48863  15.209   2.719  15.788  0.0674  0.0559 -0.2455
40264W        W48864   5.809   0.070  41.859  0.2169  0.1366  0.0049
40265W        W48865   7.868   0.607   4.661 -0.2328  0.2134 -0.0546
40266W        W48866  12.843   3.174  41.204  0.0968  0.1715  0.0297
40267W        W48867  13.142   0.224   0.357  0.2292  0.2136  0.0007
40268W        W48868  14.059   1.757  16.859 -0.2700  0.1141 -0.0512
40269W        W48869   0.617   6.193  16.325 -0.1354  0.1547 -0.0394
40270W        W48870  11.856   0.324   3.497  0.0102 -0.1694 -0.3127
40271W        W48871   9.096   2.433  26.568  0.0643  0.1446  0.1325
40272W        W48872  11.728   3.535   2.258  0.1436  0.0389 -0.0520
40273W        W48873  14.786   4.615   0.023 -0.3549  0.2420  0.1063
40274W        W48874  11.987   1.645  30.219 -0.3580  0.0050 -0.2045
40275W        W48875   8.877   6.535  37.611 -0.0208 -0.0887  0.1259
40276W        W48876   4.858   3.238  15.971  0.0625  0.1279  0.0770
40277W        W48877  14.209   5.795  34.292 -0.0560 -0.2119 -0.1403
40278W        W48878   5.093   6.002   2.670 -0.3082 -0.1425 -0.0340
40279W        W48879   7.829   0.570   6.145  0.0645  0.0656 -0.0445
40280W        W48880  20.956   6.196  44.233 -0.0007  0.0054 -0.0622
40281W        W48881  16.661   2.830  44.744  0.0620  0.1073  0.2150
40282W        W48882   3.236   5.008  13.354 -0.0690 -0.1079  0.3146
40283W        W48883   8.064   5.208   0.498  0.3073  0.0691  0.3017
40284W        W48884  16.886   4.188   8.272  0.2133 -0.0871  0.0838
40285W        W48885   1.919   3.549   1.714  0.3684 -0.1523 -0.1440
40286W        W48886  10.465   3.368  43.898  0.2072  0.0648  0.1002
40287W        W48887  10.526   0.967  12.926 -0.1118  0.2807  0.1170
40288W        W48888  10.055   3.440  17.490 -0.2789 -0.0863  0.1539
40289W        W48889  14.580   6.566  10.194 -0.1963 -0.2052 -0.0642
40290W        W48890   3.590   3.088   4.846  0.0338 -0.1186 -0.2424
40291W        W48891  17.747   5.809  17.020 -0.1412  0.5585 -0.0754
40292W        W48892   9.804   0.337  28.094 -0.0740 -0.2124  0.2070
40293W        W48893  18.506   5.028  38.188  0.0838 -0.0628  0.1434
40294W        W48894   9.161   5.619  44.405  0.5458  0.0106 -0.0294
40295W        W48895   7.666   3.184  30.360  0.0928 -0.1774 -0.0958
40296W        W48896  13.796   0.533   6.495 -0.0791  0.3532 -0.1360
40297W        W48897  11.100   4.292  17.746 -0.1648  0.0529  0.1832
40298W        W48898  15.480   3.013  13.651 -0.0899 -0.2149  0.0617
40299W        W48899  11.316   1.305  13.988  0.1424  0.4552  0.2906
40300W        W48900   1.647   5.903  13.369  0.0400  0.2532  0.1572
40301W        W48901  15.268   1.373  30.600  0.2221  0.1975  0.0077
40302W        W48902   7.323   3.484   8.012 -0.0893 -0.1879 -0.5150
40303W        W48903  12.547   3.817  36.351  0.2975 -0.0564  0.1760
40304W        W48904   8.678   4.442  36.469 -0.1371  0.1607  0.1230
40305W        W48905   8.747   0.241  34.496  0.1773  0.0608 -0.0103
40306W        W48906  10.168   0.097  39.249 -0.0226  0.1349 -0.1724
40307W        W48907  11.326   5.103  33.049 -0.1281 -0.0616  0.2244
40308W        W48908  18.289   1.230   5.024  0.0452  0.1980  0.0768
40309W        W48909   1.275   3.509  41.876  0.0268 -0.0146  0.1607
40310W        W48910   9.804   0.135  29.985 -0.3110 -0.0918 -0.0054
40311W        W48911  18.016   4.759  32.923  0.0727  0.2679 -0.0388
40312W        W48912   2.004   4.062  40.953  0.0813  0.1611 -0.0151
40313W        W48913  18.029   0.788  30.143  0.0374  0.0617  0.0887
40314W        W48914  18.479   2.854  42.615  0.1260  0.0026  0.1590
40315W        W48915   3.599   2.009  23.780 -0.0639  0.1299  0.3006
40316W        W48916  18.454   5.039  44.125 -0.0782 -0.1663 -0.2395
40317W        W48917   2.278   6.013   6.637 -0.0162  0.2049  0.1713
40318W        W48918  12.238   0.876   8.064 -0.0729 -0.2864  0.0287
40319W        W48919  16.584   5.872  33.866 -0.0352 -0.0059  0.1120
40320W        W48920   6.232   6.168  16.004  0.1081 -0.1965 -0.1169
40321W        W48921  17.728   3.490  14.273  0.0946  0.1644  0.1083
40322W        W48922  14.695   5.244  29.904 -0.0417  0.0015  0.0034
40323W        W48923  12.321   2.429  43.276  0.2645  0.0710  0.1094
40324W        W48924  10.469   2.306   9.456  0.2430 -0.1024  0.0619
40325W        W48925   4.127   2.403  44.707 -0.5122 -0.3695 -0.0647
40326W        W48926   2.608   3.873  39.915 -0.0376  0.1834 -0.4676
40327W        W48927  14.400   5.533  20.452 -0.1706 -0.1485  0.0212
40328W        W48928   9.820   4.309   7.121  0.4548  0.0908  0.0348
40329W        W48929  18.615   1.238   2.836 -0.0758 -0.0167  0.2962
40330W        W48930  16.491   4.427  37.373 -0.1811  0.1697 -0.0739
40331W        W48931  16.839   1.515  10.125 -0.2050 -0.0474  0.0678
40332W        W48932  10.506   0.261  35.388  0.0177  0.3286  0.0122
40333W        W48933   9.786   0.726  25.350  0.2189 -0.2413  0.1879
40334W        W48934   6.426   4.213  37.765 -0.0662  0.2680  0.2293
40335W        W48935  14.787   6.511  18.743  0.0724 -0.0217 -0.1607
40336W        W48936   4.257   1.710  33.812  0.1951 -0.1072 -0.1927
40337W        W48937  20.090   2.125  39.319  0.1568 -0.2596  0.2018
40338W        W48938  19.312   4.706  44.211  0.1374  0.1597  0.1176
40339W        W48939  17.631   3.258  20.682  0.1456 -0.0534  0.0853
40340W        W48940  17.381   3.416  30.858 -0.0920  0.0139 -0.1141
40341W        W48941   5.097   4.573   9.311 -0.0974  0.0142  0.2278
40342W        W48942  15.022   5.676   2.859 -0.1014 -0.0349 -0.0760
40343W        W48943  14.862   2.321  35.234  0.2565 -0.0250  0.1072
40344W        W48944   8.083   1.315  44.568 -0.2860 -0.0315  0.0748
40345W        W48945  19.516   1.737  31.031  0.1575  0.1225 -0.2334
40346W        W48946   3.720   1.684  26.822  0.0698  0.1136  0.1426
40347W        W48947   9.560   4.620   2.757 -0.0318  0.2350 -0.2090
40348W        W48948   3.402   3.395  28.876 -0.2041 -0.0345 -0.2041
40349W        W48949  12.162   3.458  11.557 -0.2777  0.1711 -0.0209
40350W        W48950  15.741   5.178  35.075 -0.1063 -0.0039  0.0572
40351W        W48951  13.481   0.018  38.733  0.2963  0.0479  0.0386
40352W        W48952  12.990   3.089   0.148 -0.1802 -0.2579 -0.0764
40353W        W48953   4.842   3.482  41.569 -0.1363  0.0139 -0.1080
40354W        W48954   7.223   2.904   3.628  0.0923 -0.0067  0.0293
40355W        W48955   2.080   4.796  37.805 -0.3216  0.1524 -0.0129
40356W        W48956   1.346   3.117  11.302 -0.1510 -0.2019  0.0069
40357W        W48957  14.921   4.442   4.331 -0.3425 -0.1875 -0.1033
40358W        W48958  10.683   5.219  44.024  0.1314 -0.0019 -0.0139
40359W        W48959  11.848   6.449  32.160  0.3484  0.1595  0.1800
40360W        W48960   8.801   2.396  42.450 -0.2691  0.0446 -0.0174
40361W        W48961  19.035   2.492  15.023  0.2256 -0.0351 -0.0535
40362W        W48962  16.353   5.106  11.680  0.0309 -0.0962 -0.0013
40363W        W48963  18.023   1.817  33.192 -0.0017 -0.3737  0.1332
40364W        W48964   7.859   2.886  33.205  0.1428 -0.1823 -0.3143
40365W        W48965   1.458   4.394  26.753 -0.0473 -0.1123 -0.1022
40366W        W48966  16.065   5.745  35.709 -0.0488 -0.0566 -0.2871
40367W        W48967  16.176   6.271  39.513 -0.2768  0.0657  0.1257
40368W        W48968   4.225   4.770  35.875 -0.2650 -0.3332  0.3838
40369W        W48969  19.905   4.845  37.116  0.1424 -0.0511 -0.1620
40370W        W48970  16.186   0.435   2.660 -0.0876 -0.0962 -0.1420
40371W        W48971  13.930   4.003  18.384  0.0218 -0.2854  0.1854
40372W        W48972  12.767   5.260  30.695  0.0257  0.0200 -0.1020
40373W        W48973  14.709   5.476  38.404 -0.1056  0.0318  0.0040
40374W        W48974   6.888   6.249  31.649  0.1345  0.2729 -0.0628
40375W        W48975   4.254   2.391   0.051  0.1703  0.2542 -0.1751
40376W        W48976   8.830   1.280  25.468  0.2170 -0.0893  0.0329
40377W        W48977   6.840   5.581   3.872  0.3915  0.1119 -0.0368
40378W        W48978   0.018   4.029   5.422  0.0561 -0.2149  0.2413
40379W        W48979   5.850   3.590  33.274  0.1331 -0.2181 -0.0769
40380W        W48980  10.416   2.004  42.573 -0.0385  0.0111  0.3939
40381W        W48981   5.081   5.688  12.299 -0.1686  0.1579  0.0825
40382W        W48982  10.271   1.918  38.995  0.3582 -0.0083  0.3005
40383W        W48983   7.293   4.718  33.314  0.2258  0.0718 -0.1063
40384W        W48984   6.468   6.102   2.675 -0.2612 -0.0246 -0.3167
40385W        W48985   9.026   1.136  27.258 -0.0012  0.0715 -0.1269
40386W        W48986   4.165   5.458   8.893 -0.3265 -0.0317  0.3983
40387W        W48987  17.361   2.761  36.828  0.2176  0.0329  0.0113
40388W        W48988  11.064   6.308   5.577 -0.2642  0.2692 -0.0179
40389W        W48989   7.152   4.946  43.670 -0.1824  0.0047  0.0116
40390W        W48990  13.245   1.164  11.304  0.4147  0.3345  0.0990
40391W        W48991   6.173   3.767  34.999 -0.0836 -0.0310  0.1487
40392W        W48992   5.004   2.508  11.014 -0.2762 -0.0944  0.0760
40393W        W48993  12.111   0.926   6.953  0.0167 -0.1957 -0.2747
40394W        W48994   3.941   0.663   6.602  0.1442  0.0174 -0.0471
40395W        W48995  10.748   2.095  39.148 -0.0330  0.2745 -0.0028
40396W        W48996  10.040   2.185  27.705  0.3861 -0.0787  0.2766
40397W        W48997  10.261   5.888   1.036  0.1217 -0.0142  0.1225
40398W        W48998   5.032   1.660   2.370  0.0488  0.4659  0.1571
40399W        W48999  17.971   1.061  38.226  0.3885  0.0721  0.0078
40400W        W49000   9.417   2.336  11.642  0.0323 -0.1610  0.1176
40401W        W49001   2.454   4.356   9.145  0.0960 -0.2332 -0.1135
40402W        W49002   8.679   1.835  11.201 -0.0186  0.1281  0.0672
40403W        W49003  16.882   1.232  33.895 -0.1243 -0.2257 -0.1708
40404W        W49004   7.649   0.485  27.259 -0.1043  0.0828  0.3044
40405W        W49005  11.411   1.600  16.584  0.0377  0.1871  0.1301
40406W        W49006  19.242   3.304  41.149  0.1103 -0.0269  0.1415
40407W        W49007   5.547   5.958  20.885 -0.0767  0.0265 -0.0927
40408W        W49008   8.724   0.599  23.848 -0.1654 -0.2254 -0.0518
40409W        W49009   2.850   6.447  12.140 -0.0667  0.1986  0.1037
40410W        W49010   2.392   2.758   9.345  0.1553  0.0947  0.1312
40411W        W49011  19.740   2.972  43.389  0.3139  0.0820 -0.2112
40412W        W49012  18.609   4.077  22.359  0.2060 -0.1393  0.0684
40413W        W49013  19.263   3.478  16.133 -0.0512 -0.0424  0.1488
40414W        W49014   7.355   5.047  37.275 -0.1040  0.2120  0.0825
40415W        W49015   0.653   4.752  26.917 -0.1128 -0.0805 -0.2656
40416W        W49016  13.795   1.931   1.896  0.0838  0.1969 -0.0210
40417W        W49017  21.076   4.439   5.137  0.0937  0.2570 -0.0619
40418W        W49018  14.654   3.332  44.224 -0.1514  0.0435  0.1065
40419W        W49019   5.146   1.901  35.719 -0.1262 -0.1060  0.2623
40420W        W49020  14.494   5.586  13.113 -0.2713 -0.0493 -0.1611
40421W        W49021  15.982   4.665  12.516  0.0499  0.1553 -0.0032
40422W        W49022   3.103   4.627  24.361  0.1046 -0.2713 -0.0617
40423W        W49023   4.752   5.058  10.827  0.0956 -0.2632  0.0607
40424W        W49024  15.545   1.350  38.581 -0.1232  0.1541  0.1546
40425W        W49025  18.215   2.874  13.187  0.1765 -0.1406  0.0904
40426W        W49026   8.002   3.136  35.746  0.0379  0.0116 -0.2081
40427W        W49027   2.412   2.665  25.977  0.2139 -0.1016 -0.0461
40428W        W49028   2.133   1.854   9.991 -0.0367  0.1559 -0.1041
40429W        W49029  21.134   5.456  18.064 -0.0563 -0.0097 -0.0458
40430W        W49030   2.922   3.440  13.866  0.0379 -0.1871 -0.0740
40431W        W49031  18.126   6.043  10.401 -0.3277  0.0625  0.2699
40432W        W49032   6.986   2.164  29.885 -0.0705  0.2871 -0.0534
40433W        W49033   8.619   2.087   9.239 -0.0048  0.2380  0.3188
40434W        W49034   7.750   6.295  36.563  0.0751  0.0655 -0.0112
40435W        W49035   9.710   1.816  10.992 -0.1706  0.1138 -0.0271
40436W        W49036  17.234   4.432  16.996  0.4648 -0.2043  0.0028
40437W        W49037  14.789   4.582  40.215 -0.0224 -0.1978 -0.0043
40438W        W49038  12.901   0.603   1.799 -0.1199 -0.0782 -0.2058
40439W        W49039   2.330   2.302  42.968  0.6049 -0.2236 -0.1594
40440W        W49040  16.295   1.112  32.071  0.0920 -0.2062 -0.2225
40441W        W49041   4.674   2.635  33.959 -0.0386 -0.0086  0.0669
40442W        W49042   5.341   2.708  14.828 -0.0715 -0.0664  0.2049
40443W        W49043  13.244   6.472  11.987 -0.2711 -0.0157 -0.1312
40444W        W49044  19.228   4.556  44.802  0.2288  0.1444 -0.0057
40445W        W49045   8.644   2.825  28.523 -0.1980  0.3713  0.0768
40446W        W49046   9.470   4.864  33.927 -0.0802  0.0597  0.1323
40447W        W49047  15.959   5.171   5.892  0.3168 -0.1377  0.0009
40448W        W49048  10.561   5.223  41.006 -0.1784 -0.0691  0.1956
40449W        W49049  18.823   4.459  32.711 -0.1252  0.0256  0.0064
40450W        W49050  12.870   0.859  21.664  0.1765  0.1981  0.1170
40451W        W49051   2.653   6.393   9.200 -0.1906  0.0128 -0.2577
40452W        W49052  15.702   1.855  17.858  0.1760  0.0374 -0.0256
40453W        W49053  20.647   2.299  12.006  0.1690  0.2525  0.1030
40454W        W49054  17.490   0.634  14.522 -0.1907 -0.1871  0.0992
40455W        W49055   2.370   6.423   6.895  0.1001  0.0992  0.0424
40456W        W49056  18.697   3.309  18.369  0.1183 -0.1854  0.0860
40457W        W49057   6.478   3.538   9.799 -0.0939  0.1580  0.2698
40458W        W49058   5.643   5.636   7.171 -0.1381  0.0935 -0.3156
40459W        W49059   5.360   3.184   7.962 -0.1405 -0.2526 -0.2799
40460W        W49060   6.779   2.932  29.764 -0.0643  0.0968 -0.1800
40461W        W49061  20.723   6.508  15.177 -0.3658 -0.0728 -0.0935
40462W        W49062   7.636   6.429  43.016 -0.2030 -0.0176 -0.3018
40463W        W49063  13.112   1.971   7.613 -0.4506 -0.0559  0.0930
40464W        W49064   3.987   5.791  29.837 -0.0862  0.0027  0.1720
40465W        W49065   4.999   5.927  41.884  0.2215  0.0915  0.0024
40466W        W49066  16.304   1.555  31.789  0.0408  0.1326  0.0032
40467W        W49067  14.888   1.367   4.785  0.0423  0.0123  0.0617
40468W        W49068  10.766   0.282   0.076 -0.0052 -0.0399  0.0145
40469W        W49069  12.624   5.788  35.968  0.2669  0.1347  0.3031
40470W        W49070  18.798   0.445  14.648 -0.1256 -0.1457  0.0606
40471W        W49071  15.296   1.959  40.148 -0.1704 -0.1909 -0.0593
40472W        W49072   3.226   3.428  28.404  0.2049  0.0419 -0.0658
40473W        W49073  14.437   1.209   2.769 -0.4446  0.0812  0.0602
40474W        W49074   4.764   2.082   8.204 -0.2855 -0.0030  0.0426
40475W        W49075   8.698   5.323   3.833 -0.1535  0.1866  0.3005
40476W        W49076  17.939   0.697  29.111 -0.1992 -0.2119 -0.1837
40477W        W49077  18.319   6.447  29.470  0.1355  0.0879  0.0518
40478W        W49078  17.749   5.469  13.543 -0.0131 -0.0132 -0.0912
40479W        W49079  17.007   3.492  13.269 -0.3664 -0.0527 -0.3815
40480W        W49080  17.536   1.576   9.922  0.0390  0.0575  0.0687
40481W        W49081  19.612   1.343  33.733 -0.2928  0.3876  0.2217
40482W        W49082  15.331   1.080  11.137 -0.1674  0.1081 -0.0751
40483W        W49083  17.015   3.894  18.223  0.3460  0.1100  0.0505
40484W        W49084   7.994   3.941  31.687  0.3132  0.0290  0.0291
40485W        W49085   7.486   4.450   1.816 -0.3084  0.0656 -0.4382
40486W        W49086  20.710   5.478  11.785 -0.1201  0.3051 -0.1882
40487W        W49087   2.220   4.947  27.821 -0.2613  0.1148 -0.1094
40488W        W49088   3.667   2.329   3.508 -0.0760 -0.0989 -0.1024
40489W        W49089   0.719   0.988  40.814 -0.0749  0.1270 -0.0083
40490W        W49090   3.835   4.947   5.628 -0.1918  0.1308  0.0722
40491W        W49091  10.639   1.411   0.101  0.2591 -0.1222  0.1846
40492W        W49092   2.114   6.361  44.346 -0.2740 -0.2616  0.1416
40493W        W49093  19.941   3.164  36.966  0.0678 -0.0041  0.1197
40494W        W49094  16.725   0.455  30.691  0.0239  0.0489  0.1388
40495W        W49095   9.114   2.972  30.318 -0.4421 -0.1496 -0.0885
40496W        W49096  14.904   2.379  43.339 -0.1618 -0.1339 -0.1773
40497W        W49097   4.542   3.153  15.608 -0.3320 -0.2361 -0.1000
40498W        W49098   7.720   3.293  26.912 -0.2461  0.1129  0.0360
40499W        W49099   3.949   1.782  30.006  0.0234 -0.0400 -0.2372
40500W        W49100   0.205   6.150  37.445  0.1986  0.1429  0.2065
40501W        W49101  15.778   3.171  35.801 -0.0034 -0.2338 -0.0525
40502W        W49102   1.197   4.215   7.566 -0.0981  0.0544 -0.1351
40503W        W49103  18.482   6.028  13.966 -0.3132  0.1001 -0.1927
40504W        W49104   5.355   6.218  38.323  0.1884  0.1300 -0.0153
40505W        W49105  17.800   5.426  34.675 -0.0375  0.0506 -0.4151
40506W        W49106   0.633   5.946   1.127 -0.0733 -0.0304 -0.0643
40507W        W49107  15.172   3.959   6.202 -0.1694  0.0176  0.1694
40508W        W49108  20.878   4.940   6.661 -0.2412 -0.2330 -0.1619
40509W        W49109  16.811   4.523   5.830  0.2337 -0.0526  0.0647
40510W        W49110   6.314   2.643  33.950 -0.2491  0.1222 -0.1758
40511W        W49111   8.721   5.148  43.059  0.0342  0.0330  0.3159
40512W        W49112  17.490   3.054  22.019  0.1936  0.0437 -0.2933
40513W        W49113  15.048   6.337  15.235 -0.0669 -0.1538 -0.0831
40514W        W49114  17.702   6.204   3.832  0.0470  0.0050 -0.0041
40515W        W49115  19.654   1.158  18.704 -0.0569 -0.1357  0.1443
40516W        W49116  19.649   3.817  41.261 -0.2780  0.0164 -0.1046
40517W        W49117  15.647   4.771  18.208  0.2402 -0.2535  0.0722
40518W        W49118  16.314   1.504  13.426 -0.0711 -0.1517  0.1444
40519W        W49119   2.640   3.679  42.625  0.0438 -0.1589  0.1358
40520W        W49120   9.735   6.487   0.090  0.0366  0.3016  0.1681
40521W        W49121  14.708   0.716   8.594 -0.0897  0.3038  0.0292
40522W        W49122   6.322   3.388  37.992 -0.1118 -0.1280 -0.0379
40523W        W49123  10.512   2.351   0.941 -0.0426 -0.2583 -0.0788
40524W        W49124   1.611   3.870   0.936  0.0173  0.0978 -0.1126
40525W        W49125   6.660   0.787  30.597  0.0398  0.2302  0.0907
40526W        W49126   1.851   1.663  15.571 -0.0004  0.0942  0.0258
40527W        W49127  14.908   3.683  35.935 -0.0497 -0.0382 -0.1571
40528W        W49128  14.892   0.958   2.784  0.3045  0.2587  0.0501
40529W        W49129   3.187   0.584  33.795 -0.0705  0.1603  0.2074
40530W        W49130   4.165   1.663  32.329  0.0567 -0.0886  0.0364
40531W        W49131   8.770   0.595  40.555 -0.0128 -0.0450 -0.1371
40532W        W49132  14.430   2.368   9.121  0.1714 -0.0970 -0.3119
40533W        W49133   1.520   0.214  30.178 -0.2092  0.3116  0.2311
40534W        W49134  15.014   5.602  31.725 -0.1675  0.1029 -0.1554
40535W        W49135   5.543   4.368  39.782 -0.0508  0.1825 -0.0629
40536W        W49136  12.014   0.048  16.870 -0.2500 -0.0518  0.0120
40537W        W49137  10.001   1.708  10.561 -0.0262  0.1322  0.1556
40538W        W49138   4.035   4.051  29.465  0.0299 -0.2324  0.1552
40539W        W49139   6.477   3.420  21.839  0.0756 -0.4009  0.1044
40540W        W49140   7.249   1.716  14.449 -0.1857 -0.0646 -0.0429
40541W        W49141  17.982   5.411  44.032  0.1501  0.2028  0.2241
40542W        W49142  16.731   2.263  32.814  0.0085 -0.1865  0.2506
40543W        W49143   0.130   4.469   0.211  0.0052  0.2775  0.0361
40544W        W49144  19.144   0.346  38.842  0.2686 -0.2137 -0.2096
40545W        W49145  10.366   1.030  42.851 -0.0775  0.0361 -0.0743
40546W        W49146  20.763   2.417  18.347  0.2405  0.0208 -0.1887
40547W        W49147   8.986   3.441  26.605 -0.2014 -0.0466  0.0241
40548W        W49148   1.726   0.476  13.538  0.0548  0.0867  0.2539
40549W        W49149  19.368   5.853   4.278 -0.1636 -0.1284  0.0543
40550W        W49150   0.461   2.304  39.270 -0.0841 -0.0516 -0.3172
40551W        W49151  20.213   0.799  13.472  0.4259  0.0767 -0.2444
40552W        W49152   3.395   1.108   9.730  0.1047 -0.1711  0.2445
40553W        W49153  18.812   0.533  22.521 -0.1262  0.0997 -0.1341
40554W        W49154  11.263   6.010  35.553 -0.3073  0.4219 -0.0559
40555W        W49155  13.913   6.543  19.567  0.0269  0.0644  0.0699
40556W        W49156  15.710   2.119   5.378 -0.0060  0.3277  0.3884
40557W        W49157  12.400   0.391  13.255 -0.0890  0.0176 -0.0204
40558W        W49158  13.155   1.275  18.395 -0.0536  0.0196  0.2510
40559W        W49159   2.788   6.547  40.880 -0.0119  0.1480  0.1423
40560W        W49160  19.769   2.108  43.804  0.3509 -0.0522  0.1014
40561W        W49161   9.180   0.675  10.887  0.3253  0.4604 -0.1332
40562W        W49162   8.576   5.979  32.567 -0.1072  0.1205 -0.2046
40563W        W49163  10.287   0.071  25.784 -0.0335  0.0623  0.0045
40564W        W49164   8.601   2.508  11.961 -0.0833 -0.1784 -0.0604
40565W        W49165  18.088   0.710   0.782 -0.3919 -0.0178 -0.0113
40566W        W49166  15.293   2.952  31.876  0.3414  0.2475 -0.0210
40567W        W49167   3.086   1.046  35.266  0.1266  0.1952  0.3372
40568W        W49168  13.176   4.594  30.225  0.1790 -0.3005 -0.4623
40569W        W49169  19.858   2.645  30.169  0.2783 -0.2463  0.1997
40570W        W49170   9.442   4.165  28.407  0.1015 -0.0379  0.0407
40571W        W49171  16.942   2.244  10.877  0.1279  0.0192  0.1207
40572W        W49172  10.054   4.192  41.156 -0.3451 -0.2249  0.2144
40573W        W49173  12.718   1.592  19.213  0.0706  0.1651 -0.2988
40574W        W49174   1.930   6.197  26.039 -0.1006 -0.0798  0.1605
40575W        W49175  17.747   2.990  10.493 -0.3504  0.0292  0.2003
40576W        W49176  16.452   0.436   2.174  0.0883 -0.0675  0.0193
40577W        W49177   5.657   5.994  23.623 -0.0982 -0.2552 -0.0887
40578W        W49178   0.355   6.013  11.464 -0.1495 -0.0077  0.4047
40579W        W49179  11.178   4.347   6.683 -0.1599  0.1869  0.1247
40580W        W49180   3.228   0.385   2.622 -0.2647 -0.0012 -0.0849
40581W        W49181  18.759   0.843  41.134  0.1857  0.2897  0.0216
40582W        W49182  15.524   3.202  34.820  0.1861 -0.0832 -0.0584
40583W        W49183   8.334   5.908  24.235  0.2241  0.2293 -0.2181
40584W        W49184   3.565   6.238  40.158  0.0826 -0.0751  0.1649
40585W        W49185  18.329   1.934   7.268 -0.1426 -0.1825  0.0070
40586W        W49186   0.935   6.603  16.083 -0.1180 -0.4293  0.2881
40587W        W49187   7.660   5.097  41.554  0.0707  0.3386  0.1495
40588W        W49188  10.173   4.365  29.273 -0.0917  0.2414 -0.1765
40589W        W49189  13.775   5.436  31.497  0.1837 -0.0716  0.1366
40590W        W49190  15.164   2.036  33.257  0.1046 -0.3814  0.1948
40591W        W49191  13.816   5.283  11.397 -0.1486 -0.1684  0.2213
40592W        W49192  20.129   4.066  43.143 -0.0996  0.1171 -0.0281
40593W        W49193  10.433   2.028  16.415 -0.0437 -0.0431  0.0421
40594W        W49194  20.713   1.206  39.012 -0.1089 -0.0415  0.2829
40595W        W49195  10.318   0.847  16.381 -0.0662 -0.0527  0.1225
40596W        W49196  13.260   1.395  34.056 -0.2034 -0.1763 -0.0256
40597W        W49197   0.196   1.183   5.364  0.0368  0.1052  0.0778
40598W        W49198  13.238   1.634  27.670  0.2522 -0.0304 -0.0636
40599W        W49199  16.544   2.574  36.608 -0.3714 -0.0275 -0.0233
40600W        W49200  17.552   4.683  40.732 -0.2489 -0.2094 -0.1225
40601W        W49201  13.177   1.476   5.630 -0.2360  0.0903 -0.1965
40602W        W49202   9.950   0.516  32.033  0.1885  0.1404  0.1137
40603W        W49203  21.091   0.064  34.209 -0.2295 -0.1692  0.0149
40604W        W49204   5.222   1.633  45.118 -0.0552 -0.2378  0.0523
40605W        W49205  13.076   5.468   2.779  0.2257 -0.2067 -0.0891
40606W        W49206  13.965   3.256  11.094  0.0760  0.2105  0.1050
40607W        W49207   0.578   3.833   2.927  0.1923  0.2089 -0.1002
40608W        W49208  13.845   6.532   5.481 -0.0257  0.3350  0.2632
40609W        W49209   3.411   4.906   0.688  0.0657 -0.0976  0.0302
40610W        W49210   5.917   0.978  27.693  0.1657 -0.0643 -0.0692
40611W        W49211   8.950   5.103  26.589  0.1722  0.3040 -0.2718
40612W        W49212   6.099   3.757  10.394 -0.2061  0.0989 -0.1134
40613W        W49213   6.659   4.858  29.759  0.1445 -0.0027 -0.0782
40614W        W49214   6.949   5.885  13.633 -0.1990 -0.2072  0.0716
40615W        W49215   0.278   2.079  14.048 -0.1098 -0.1329  0.1865
40616W        W49216   4.658   2.622  12.284  0.0967  0.0504  0.2078
40617W        W49217   4.315   2.775   2.013 -0.1331 -0.0338 -0.1809
40618W        W49218  14.773   4.566  21.948  0.0829  0.2538  0.0321
40619W        W49219  20.202   2.744  34.138  0.1109  0.3248 -0.0521
40620W        W49220  11.745   6.038  36.954 -0.2005 -0.1101 -0.3382
40621W        W49221  11.795   5.819   7.868  0.0718 -0.0046  0.0484
40622W        W49222  20.558   0.397   4.686  0.2919  0.1992  0.0196
40623W        W49223  11.096   2.259  14.946 -0.1615 -0.2213  0.3355
40624W        W49224   3.526   2.070  36.942 -0.2081  0.3137  0.0393
40625W        W49225   4.529   5.331  41.975  0.1956 -0.0350  0.0899
40626W        W49226  12.257   5.202  45.120  0.0532  0.3491 -0.0386
40627W        W49227  19.874   2.966   6.189 -0.0282  0.1107  0.1896
40628W        W49228   7.757   0.074  27.964  0.2200  0.1544 -0.0456
40629W        W49229   4.605   2.781  28.974 -0.2275 -0.0057  0.2781
40630W        W49230  10.845   4.859  28.474  0.3164 -0.0158 -0.1510
40631W        W49231  10.162   1.156  16.029 -0.0157  0.1367 -0.0816
40632W        W49232   4.362   4.480  33.646  0.0671 -0.0434  0.1340
40633W        W49233  13.794   2.347  30.248  0.1333  0.1552  0.1124
40634W        W49234  13.885   1.520  13.270  0.0673  0.1546 -0.0598
40635W        W49235  14.680   6.308  44.974  0.1109 -0.0739 -0.2910
40636W        W49236   7.536   3.590  28.730 -0.0527  0.1569  0.0232
40637W        W49237  20.793   2.234  26.903 -0.0098  0.1715 -0.4537
40638W        W49238  14.911   3.891  43.007 -0.1661 -0.0430 -0.0682
40639W        W49239   8.831   2.951  39.995  0.1237 -0.1368 -0.1688
40640W        W49240  15.691   3.868  36.504  0.2896 -0.0423  0.2297
40641W        W49241   0.954   1.936  32.762 -0.0252  0.0060 -0.1314
40642W        W49242  13.722   5.947  12.614 -0.2065 -0.3567  0.2745
40643W        W49243   1.344   3.820  12.079 -0.1872  0.1053 -0.0356
40644W        W49244  18.681   5.356   0.116  0.1676 -0.0699 -0.3820
40645W        W49245   7.725   0.661  45.019  0.0488  0.1136 -0.3579
40646W        W49246   5.897   1.605  38.789  0.0856  0.1572 -0.1476
40647W        W49247   5.079   5.952   4.794 -0.0838 -0.1643 -0.1418
40648W        W49248   1.352   3.134  10.780  0.1293 -0.2095  0.2017
40649W        W49249  19.333   1.224   0.420 -0.1205  0.0800 -0.0797
40650W        W49250   9.961   0.268  27.600  0.2455  0.0532 -0.0551
40651W        W49251   6.232   3.447  35.431 -0.2242  0.0643  0.2335
40652W        W49252  12.932   3.387  10.226  0.1452  0.0532 -0.0684
40653W        W49253   5.700   2.041  25.450  0.3298  0.3270 -0.1526
40654W        W49254   2.301   3.198   1.884  0.1603  0.1155 -0.0374
40655W        W49255  20.463   0.633   4.295 -0.0556 -0.0856  0.1002
40656W        W49256  16.197   5.757  22.856 -0.0612 -0.1706  0.3776
40657W        W49257   6.581   1.190  36.370  0.0072 -0.1784  0.3958
40658W        W49258   9.842   0.067   3.330  0.1464 -0.1774  0.0030
40659W        W49259   1.598   1.051   1.940  0.2311  0.2543 -0.1023
40660W        W49260   3.443   4.859   7.951  0.1576 -0.0684 -0.0748
40661W        W49261   7.656   0.247  32.731  0.0406  0.1984 -0.0699
40662W        W49262  15.630   5.270  22.000 -0.1310 -0.1294 -0.0222
40663W        W49263  18.932   3.000  34.726 -0.4883 -0.3621 -0.0302
40664W        W49264  13.550   2.355   3.586  0.1155  0.1077 -0.3092
40665W        W49265   6.214   5.394  26.988  0.1010  0.0208 -0.4095
40666W        W49266  20.178   3.493  38.689  0.0745  0.0682  0.1282
40667W        W49267   9.576   0.014  34.462 -0.0901  0.1203 -0.0945
40668W        W49268   3.398   0.446  15.632 -0.0576  0.2735  0.1182
40669W        W49269   5.976   0.580  28.437  0.2547 -0.3529 -0.1874
40670W        W49270  19.269   1.958  13.891 -0.2766 -0.0616  0.0191
40671W        W49271  16.966   5.315   5.170 -0.2543 -0.3047 -0.2297
40672W        W49272   6.950   5.588  27.286 -0.0039  0.1551  0.1174
40673W        W49273  16.902   2.090   0.238 -0.0090  0.0011 -0.0996
40674W        W49274  11.170   1.117  42.839 -0.1024 -0.1526  0.2320
40675W        W49275  16.305   2.726   6.042  0.1228 -0.1074  0.0114
40676W        W49276  16.635   2.168  23.683 -0.3294  0.0048 -0.0185
40677W        W49277  15.707   2.268  30.925 -0.1584 -0.1650 -0.2863
40678W        W49278   0.058   4.736   2.004 -0.1509 -0.0545  0.0601
40679W        W49279  10.730   5.249   6.674  0.4027 -0.2076 -0.1375
40680W        W49280  12.060   1.501  27.622  0.0080 -0.0360 -0.0570
40681W        W49281  12.654   3.506  13.197 -0.1956 -0.3001 -0.2505
40682W        W49282  17.851   6.310  42.420  0.0961 -0.2212 -0.0544
40683W        W49283   6.730   2.008   9.140 -0.0474 -0.0321 -0.2319
40684W        W49284   6.906   4.693  36.409 -0.0105  0.1004 -0.1794
40685W        W49285   9.120   6.529  37.127 -0.1967 -0.1800  0.1416
40686W        W49286  12.458   6.050  16.684  0.1788  0.0382 -0.0574
40687W        W49287  18.193   3.687  14.297  0.0031 -0.0839  0.0074
40688W        W49288   9.465   6.027  30.466 -0.1914  0.1794  0.2132
40689W        W49289  16.421   1.951  39.375  0.2148 -0.0243 -0.2424
40690W        W49290   8.961   1.993  16.005  0.2329  0.3351  0.1289
40691W        W49291   8.327   6.030  41.889  0.3028 -0.0783  0.0427
40692W        W49292  14.815   0.090   0.167  0.0218  0.1169 -0.0099
40693W        W49293  15.304   1.585  38.214 -0.1577  0.2865  0.0820
40694W        W49294   3.674   5.034  25.174  0.1735 -0.1907  0.2415
40695W        W49295   3.448   1.452   6.236  0.1756 -0.1797 -0.0107
40696W        W49296  15.957   4.242  20.823  0.2191  0.0694 -0.1797
40697W        W49297   8.464   2.838  43.668 -0.1374 -0.1854 -0.1361
40698W        W49298  16.693   3.754  31.544  0.1794  0.0680  0.2325
40699W        W49299   1.999   4.763   1.435 -0.1373  0.0824 -0.1328
40700W        W49300   2.509   2.846   0.588  0.0822  0.1182 -0.0394
40701W        W49301  17.403   0.471  21.005 -0.2435 -0.2708 -0.3943
40702W        W49302   0.066   2.541   2.330 -0.0129  0.1229 -0.3377
40703W        W49303   2.344   1.461   6.347 -0.2838 -0.1173  0.2446
40704W        W49304  16.458   5.280  24.617 -0.0861 -0.0003 -0.0737
40705W        W49305  12.372   5.493  18.627  0.0613  0.0362  0.0585
40706W        W49306  11.305   1.760   3.089 -0.0920 -0.1021  0.0036
40707W        W49307   2.988   1.675  24.419 -0.3139  0.3223  0.0542
40708W        W49308   9.965   1.531   1.025  0.0292  0.1336  0.1817
40709W        W49309  17.659   1.636   2.375  0.2265 -0.0455  0.2050
40710W        W49310   4.637   2.819  12.717  0.0634 -0.1223 -0.3441
40711W        W49311  20.654   4.770  28.330  0.0127 -0.3363 -0.1731
40712W        W49312   2.032   4.252  41.451  0.1678 -0.1298  0.0834
40713W        W49313  16.084   5.830  41.712 -0.2642 -0.1180 -0.2637
40714W        W49314   1.562   2.066  41.589 -0.0420 -0.0798  0.0196
40715W        W49315   3.372   5.299  14.191  0.0201  0.2629 -0.1587
40716W        W49316  15.400   6.178  14.366 -0.3030 -0.1362  0.3236
40717W        W49317  11.223   5.882   0.037 -0.0371 -0.2330  0.1714
40718W        W49318  15.665   2.690  39.749  0.0264 -0.3318 -0.1180
40719W        W49319  17.877   6.088  23.344 -0.0135  0.1115 -0.1392
40720W        W49320   1.901   5.561   9.431 -0.0955 -0.2588  0.0626
40721W        W49321  20.896   0.805  30.680 -0.1357 -0.1247 -0.0430
40722W        W49322   9.075   3.395  24.147  0.1465 -0.0042  0.3003
40723W        W49323   8.500   1.378  35.207  0.1118 -0.2347 -0.2172
40724W        W49324  20.077   2.733  13.126 -0.0935 -0.0414 -0.0439
40725W        W49325  15.803   4.372  34.237 -0.1727 -0.0159 -0.1397
40726W        W49326   7.814   1.587  41.300 -0.1051 -0.2272 -0.1004
40727W        W49327  20.423   4.057   9.651 -0.1553  0.3145 -0.0470
40728W        W49328  17.052   2.475  12.517 -0.1401 -0.0225 -0.3605
40729W        W49329   6.292   1.787   8.669 -0.0589  0.2054 -0.0403
40730W        W49330  16.253   4.988  44.975 -0.0834 -0.2699  0.2189
40731W        W49331   0.198   1.153  32.435 -0.0048  0.2575  0.1834
40732W        W49332  10.790   0.187  28.065  0.1003  0.0069 -0.0061
40733W        W49333   0.165   5.489  32.519  0.3298  0.1009  0.0905
40734W        W49334  19.060   4.049  34.692  0.1610  0.0173 -0.1000
40735W        W49335  16.599   2.433   5.702 -0.1520  0.3178  0.3594
40736W        W49336  20.052   3.831  11.973  0.1814  0.1904 -0.0979
40737W        W49337  15.725   2.130  44.993 -0.0920 -0.2803  0.0441
40738W        W49338   5.685   6.494  37.107  0.0404 -0.2776  0.0290
40739W        W49339   6.960   6.433   8.518  0.0140  0.0572 -0.0436
40740W        W49340  14.393   4.801  44.168 -0.1642  0.0678  0.0603
40741W        W49341  20.678   1.016  11.914 -0.1592 -0.4212 -0.1711
40742W        W49342  13.938   0.728  29.306 -0.1237 -0.1511 -0.3800
40743W        W49343   8.544   0.952  36.185  0.2779  0.2684  0.2084
40744W        W49344   8.271   5.488  28.280 -0.0303 -0.3428  0.2396
40745W        W49345   3.514   4.236  25.802 -0.1324 -0.0168  0.0557
40746W        W49346  19.476   6.567   9.019 -0.0004 -0.1707 -0.3211
40747W        W49347  13.312   3.193  31.261  0.2246  0.3367  0.2963
40748W        W49348  10.671   6.568  26.647 -0.1069 -0.3832 -0.3694
40749W        W49349   6.204   1.613  32.092 -0.2131  0.1512  0.2665
40750W        W49350   5.071   5.212  33.547  0.0162  0.0119  0.2710
40751W        W49351   0.818   0.278  42.379 -0.2409  0.1730 -0.0888
40752W        W49352  18.934   6.562   8.219 -0.1902 -0.0773 -0.2633
40753W        W49353   9.897   6.560  11.474  0.1852  0.0796 -0.1200
40754W        W49354  19.449   3.833  16.496 -0.1034  0.0428  0.1569
40755W        W49355  15.337   4.973  34.989  0.2336 -0.1409  0.3345
40756W        W49356  13.132   5.503  39.732  0.1873 -0.1213 -0.3458
40757W        W49357  19.012   3.826  13.308 -0.1271  0.0184  0.0637
40758W        W49358   4.101   1.528  36.232  0.3977 -0.1289  0.0530
40759W        W49359   0.738   2.414   1.576 -0.0980 -0.3318 -0.0698
40760W        W49360   8.147   2.062  37.267  0.2167 -0.1476 -0.0862
40761W        W49361   1.904   4.261  33.625  0.1293 -0.2140 -0.1862
40762W        W49362  11.998   0.811  10.759 -0.3744 -0.1634 -0.0720
40763W        W49363  10.731   5.079   0.489  0.1130 -0.2074 -0.0704
40764W        W49364  15.411   2.465  15.218 -0.1809  0.1249  0.2439
40765W        W49365   5.540   3.369  39.003 -0.0854 -0.3507  0.3388
40766W        W49366   9.744   5.960  32.006 -0.2582 -0.4499  0.2493
40767W        W49367  13.150   1.942  43.264  0.0722 -0.0603 -0.0831
40768W        W49368  20.609   0.572  15.666 -0.1831 -0.0027  0.0425
40769W        W49369   6.601   3.699  40.993 -0.0175  0.0019 -0.2350
40770W        W49370  13.113   5.524  43.002 -0.0402 -0.0088  0.2799
40771W        W49371  13.108   5.657  18.309  0.0382 -0.0109 -0.0502
40772W        W49372  11.818   0.279  38.548 -0.1114 -0.0969  0.0554
40773W        W49373   5.489   5.962   9.411 -0.0656 -0.0979  0.2783
40774W        W49374   8.642   0.438   3.676  0.0271  0.0069 -0.0930
40775W        W49375  20.165   5.028  28.309 -0.0868  0.0010 -0.0107
40776W        W49376   9.736   5.539  12.733 -0.1470 -0.0429  0.1668
40777W        W49377   3.886   1.335  26.552 -0.0396 -0.1146  0.0392
40778W        W49378   1.448   3.240   9.525 -0.1413  0.2728 -0.2337
40779W        W49379  12.599   1.167  39.717  0.0234  0.1857 -0.1541
40780W        W49380   6.908   4.579   4.572  0.0916 -0.0467 -0.0170
40781W        W49381  11.328   1.162   7.782 -0.2193  0.0658  0.1933
40782W        W49382   8.643   3.142   7.336  0.0105 -0.1056  0.1888
40783W        W49383   2.071   4.436  15.619  0.0866 -0.0002 -0.0661
40784W        W49384  16.903   1.158  38.913  0.0883  0.0293 -0.0823
40785W        W49385  14.467   0.594  18.425  0.2542 -0.1776  0.0410
40786W        W49386  13.251   4.413  42.495 -0.0076 -0.1554  0.0241
40787W        W49387  13.890   1.219  11.427  0.0870 -0.0590 -0.0719
40788W        W49388   5.761   1.728  29.682  0.1611  0.2222  0.0924
40789W        W49389  15.179   6.366   1.565 -0.0915 -0.0946  0.1148
40790W        W49390  13.412   2.137  33.082 -0.0950 -0.2871  0.2949
40791W        W49391   4.288   1.429  31.154  0.2444 -0.0540 -0.4152
40792W        W49392  10.688   1.646  26.593 -0.1836  0.0194  0.0335
40793W        W49393  15.243   5.349   0.660 -0.1220  0.1762  0.0633
40794W        W49394   0.812   0.315  14.003  0.3381  0.2254 -0.4013
40795W        W49395  11.678   2.541  30.570  0.1061  0.0021  0.0009
40796W        W49396  12.612   0.912  10.200  0.2214 -0.1818 -0.1015
40797W        W49397  15.772   1.258  33.117 -0.2421 -0.0383  0.2296
40798W        W49398  18.703   1.931  41.702 -0.0485  0.1468  0.2465
40799W        W49399  13.151   6.297  16.403  0.0706  0.0292  0.4403
40800W        W49400   4.216   3.471  12.480 -0.0217 -0.3020 -0.1649
40801W        W49401   1.969   5.595  15.823  0.0272  0.1619 -0.0740
40802W        W49402  10.804   6.432  28.483  0.2551 -0.3859 -0.0005
40803W        W49403  10.304   1.581  30.596 -0.1720 -0.1391  0.0995
40804W        W49404  19.846   4.734   0.663 -0.0616  0.1439  0.1225
40805W        W49405   2.606   5.893  43.738 -0.2088  0.1340 -0.1222
40806W        W49406   3.042   0.550  41.411 -0.0499  0.1895  0.1018
40807W        W49407   7.648   2.198  33.630  0.2471 -0.0630 -0.1525
40808W        W49408   7.037   6.314  26.459  0.1358 -0.1024  0.0472
40809W        W49409   6.108   1.057   0.535 -0.2130 -0.3746  0.2305
40810W        W49410  19.279   4.114  35.449  0.0704  0.0832  0.0307
40811W        W49411  20.323   6.388  15.554  0.2013 -0.3179 -0.2709
40812W        W49412  11.921   3.533   1.439 -0.0285 -0.0756  0.1069
40813W        W49413   1.364   1.484  30.590  0.2691  0.2714  0.0779
40814W        W49414  13.640   4.485  36.782 -0.2538 -0.1150  0.0361
40815W        W49415   1.852   0.198  34.133  0.0394  0.0811 -0.2558
40816W        W49416  13.086   4.876  42.393  0.0039 -0.2212  0.0099
40817W        W49417   3.682   4.088  29.916  0.1376  0.2770 -0.2146
40818W        W49418  20.970   2.325  43.369  0.2727 -0.1398 -0.1169
40819W        W49419  11.425   6.075  28.159 -0.0947 -0.3929 -0.0396
40820W        W49420   5.938   4.241  34.198 -0.0632 -0.0847  0.4018
40821W        W49421   9.443   1.194   9.522 -0.0558 -0.2068 -0.4414
40822W        W49422   7.785   6.379  32.646  0.2259  0.3505  0.1158
40823W        W49423  15.932   4.808   0.779 -0.2180  0.1351  0.0760
40824W        W49424   2.015   2.524  30.881 -0.1793  0.1840  0.2028
40825W        W49425   5.835   4.355  31.225  0.2296  0.3220 -0.3675
40826W        W49426   6.564   2.899  32.406  0.0417  0.1019 -0.1677
40827W        W49427  16.512   3.700   4.170  0.1185  0.1478  0.0645
40828W        W49428   3.122   5.133  25.380  0.2174 -0.0473 -0.0031
40829W        W49429   3.651   4.150  35.666 -0.2427  0.4262  0.0181
40830W        W49430  11.904   2.065   7.726  0.0897  0.0538 -0.1543
40831W        W49431  19.792   5.291  36.925  0.2213  0.1862 -0.2172
40832W        W49432  17.345   3.697  43.623 -0.0962 -0.0385  0.0561
40833W        W49433  16.216   0.028  17.811  0.0302 -0.3589 -0.0915
40834W        W49434   1.858   0.294  31.062 -0.2806 -0.0699 -0.1516
40835W        W49435   0.664   2.369  31.855  0.0540 -0.0963  0.1631
40836W        W49436   3.321   3.037   0.836 -0.1897  0.0330 -0.0726
40837W        W49437  19.176   2.407  33.289  0.1470 -0.0551  0.1004
40838W        W49438  15.308   2.705   1.359  0.1220 -0.1581 -0.0883
40839W        W49439   4.220   2.603  11.091  0.1784  0.0811 -0.3663
40840W        W49440  20.314   3.342  39.374 -0.1952  0.1249 -0.1097
40841W        W49441  17.585   0.909  40.426  0.0892 -0.1908 -0.0282
40842W        W49442   1.639   1.962   5.918  0.2697  0.0842 -0.2088
40843W        W49443   0.348   4.314  13.438  0.0574 -0.1199 -0.2604
40844W        W49444  11.290   1.091  41.276  0.2419  0.3157  0.0696
40845W        W49445  20.020   4.748  34.678 -0.1046  0.0019  0.0490
40846W        W49446   5.964   0.739  39.423 -0.1282 -0.0100  0.2417
40847W        W49447   7.565   1.300   5.909 -0.0014  0.2764 -0.1688
40848W        W49448  12.749   1.612  20.180 -0.0138  0.1926 -0.1659
40849W        W49449   7.466   1.999  41.442 -0.2053 -0.0874  0.2558
40850W        W49450  10.193   5.699   9.921 -0.4814  0.0385 -0.2937
40851W        W49451  17.522   5.498  43.811 -0.3958  0.1547 -0.0738
40852W        W49452  20.811   6.308  38.762 -0.5037 -0.0885 -0.1676
40853W        W49453   5.537   3.640   0.399 -0.0747 -0.0348  0.3594
40854W        W49454  12.833   5.982   4.668 -0.1342  0.3168 -0.0424
40855W        W49455   3.883   6.582   4.574  0.1566  0.1683  0.2082
40856W        W49456   2.722   0.430  28.736  0.0696  0.1408  0.0139
40857W        W49457  17.730   3.922  41.755  0.2642 -0.2183 -0.0956
40858W        W49458  13.288   4.734  37.062  0.1605  0.0557 -0.1815
40859W        W49459  13.938   0.146  12.573  0.0417 -0.0423  0.1643
40860W        W49460   5.647   5.756  39.766  0.0909  0.1628 -0.2674
40861W        W49461   1.404   2.075  10.518 -0.1978  0.2144  0.0461
40862W        W49462   4.797   4.915  37.529 -0.1440 -0.2976 -0.2252
40863W        W49463  15.289   3.771  42.511 -0.1072 -0.0750 -0.0968
40864W        W49464  13.965   6.276   9.811 -0.0780  0.1564  0.0414
40865W        W49465   6.256   2.669  36.090  0.0479  0.1167  0.2806
40866W        W49466   1.000   3.701  30.415  0.1782  0.1308 -0.0888
40867W        W49467  14.987   5.463   0.262  0.1008 -0.3024  0.2573
40868W        W49468  13.462   5.233  18.484  0.1722  0.2497  0.0031
40869W        W49469  18.377   4.798  36.193 -0.0115  0.0957  0.0373
40870W        W49470   5.539   4.549  37.618 -0.0256 -0.0116  0.1624
40871W        W49471  18.147   5.432  31.136 -0.2795  0.2046 -0.0757
40872W        W49472   8.189   5.546  24.752 -0.0544 -0.1496  0.0492
40873W        W49473  20.700   1.155  34.580 -0.2802 -0.2355 -0.0519
40874W        W49474  14.683   5.855  10.388  0.1233 -0.1784 -0.0223
40875W        W49475   6.161   3.437  12.058 -0.0166 -0.0578 -0.1997
40876W        W49476   2.561   6.447  12.658  0.2073  0.0077  0.2981
40877W        W49477  19.643   6.530  44.085  0.2230  0.0081 -0.1280
40878W        W49478   3.974   1.739   1.194 -0.1100 -0.0670 -0.2335
40879W        W49479   5.211   1.591  13.876 -0.1754  0.1196  0.2511
40880W        W49480  14.898   4.588  23.476  0.4181  0.1718  0.0558
40881W        W49481  10.999   1.898   4.899 -0.0609 -0.0537 -0.2459
40882W        W49482  18.553   0.777  38.086  0.0014 -0.3686 -0.0127
40883W        W49483   5.885   4.671   1.832  0.0548 -0.1264 -0.1492
40884W        W49484  12.585   5.430  16.702  0.3889  0.0033 -0.1411
40885W        W49485  20.613   1.950  42.388 -0.0958  0.1418  0.1727
40886W        W49486   1.279   0.715  37.767  0.3868 -0.2612 -0.0294
40887W        W49487   6.721   6.166  16.821  0.2247  0.0603 -0.1269
40888W        W49488   4.192   4.948  14.022  0.1772 -0.0870  0.0465
40889W        W49489  14.197   2.094  30.571  0.1605  0.0368 -0.2170
40890W        W49490  19.099   2.921  39.765  0.0632 -0.0015  0.0560
40891W        W49491  13.460   6.292  33.861  0.0702 -0.1969 -0.2146
40892W        W49492  20.241   6.476  14.980  0.1643  0.2721  0.2958
40893W        W49493   4.653   4.244   3.050  0.1681  0.0778 -0.2539
40894W        W49494  14.442   3.031   2.380 -0.1764  0.1461 -0.1072
40895W        W49495  17.694   3.041   9.558  0.2796  0.0676 -0.0050
40896W        W49496   8.422   2.423  29.879  0.0827  0.2939  0.0928
40897W        W49497   9.302   2.835  12.488 -0.0014  0.0309  0.0018
40898W        W49498  14.758   4.329  44.356  0.0764 -0.1765  0.0674
40899W        W49499  11.378   0.866  14.849 -0.1219 -0.2975  0.1973
40900W        W49500   2.504   3.717  44.917  0.1324  0.1463 -0.1582
40901W        W49501   2.429   0.728  13.215  0.1954 -0.1656  0.1057
40902W        W49502  15.350   3.330   3.030 -0.3683 -0.1107  0.3607
40903W        W49503  14.469   2.092   4.353 -0.3427 -0.3510  0.0002
40904W        W49504  20.932   2.189  30.978 -0.1572 -0.2241 -0.0781
40905W        W49505  18.116   4.874   9.628  0.0138  0.0367 -0.2759
40906W        W49506   1.055   4.751  38.652  0.3657 -0.0290 -0.3450
40907W        W49507  16.888   2.783  18.524 -0.6527  0.1283 -0.0294
40908W        W49508  15.886   1.976   4.411 -0.0279  0.0386 -0.1912
40909W        W49509  19.812   6.202  20.759 -0.2025 -0.2065  0.2226
40910W        W49510  11.622   1.286  16.902  0.0978  0.2630  0.1072
40911W        W49511   7.723   5.356  11.813 -0.1574 -0.0624  0.0303
40912W        W49512   6.444   5.892  12.943 -0.2523 -0.1153 -0.4049
40913W        W49513  17.632   3.584   1.758 -0.0608 -0.1279 -0.0590
40914W        W49514   9.942   5.127  45.120  0.1686 -0.1826 -0.5754
40915W        W49515   4.604   6.554  12.691  0.1906  0.1514 -0.0723
40916W        W49516  10.261   2.622   1.492 -0.1612  0.1298 -0.0485
40917W        W49517   7.119   5.701   4.606  0.2767 -0.0199  0.0377
40918W        W49518   8.252   0.697  37.974  0.1193  0.2331 -0.0782
40919W        W49519  15.165   1.696  22.092 -0.1899  0.2889 -0.1340
40920W        W49520  16.194   2.812   7.432  0.5455 -0.0462  0.3629
40921W        W49521  20.896   5.587  31.709  0.1662  0.1960 -0.0478
40922W        W49522   1.583   6.488   2.458  0.0775 -0.1966  0.0765
40923W        W49523   9.544   2.804  35.826  0.2595  0.1160 -0.0305
40924W        W49524  20.690   3.487  10.285  0.2526  0.1800  0.2482
40925W        W49525  13.679   2.633   8.110 -0.2108 -0.0777  0.0459
40926W        W49526  16.372   3.937   7.142  0.0700 -0.0588 -0.4418
40927W        W49527   8.956   1.280  44.369 -0.1968  0.0117  0.1280
40928W        W49528   6.687   0.640  21.271 -0.0134  0.2428 -0.2261
40929W        W49529  15.418   4.352  40.648 -0.0301 -0.0339 -0.2339
40930W        W49530  12.414   1.921   5.434  0.2336  0.1540  0.1134
40931W        W49531  16.337   1.658  12.939 -0.2076  0.2542  0.0230
40932W        W49532   2.966   4.817  13.741  0.1774  0.0470  0.1281
40933W        W49533  10.347   1.179  26.525  0.1785 -0.1184  0.1148
40934W        W49534  11.400   1.553  12.963 -0.2774  0.0999 -0.0461
40935W        W49535  18.040   1.580  30.797  0.1576  0.1539  0.0781
40936W        W49536   5.768   4.662   0.032 -0.1252  0.1807  0.0603
40937W        W49537   8.045   3.198  23.565  0.2268 -0.1192  0.3788
40938W        W49538  16.375   3.425  44.594 -0.0282  0.1313  0.2784
40939W        W49539  13.803   6.099  21.681 -0.0775 -0.1940 -0.2563
40940W        W49540  16.695   5.382  12.642  0.2003  0.1880 -0.0742
40941W        W49541  16.720   5.504   9.499  0.0254  0.2195  0.3556
40942W        W49542   4.908   6.451  24.027 -0.0989 -0.1427 -0.2312
40943W        W49543   7.168   5.976  32.866 -0.0864  0.2913 -0.0649
40944W        W49544   5.203   3.835  41.338  0.2822 -0.0333 -0.0645
40945W        W49545   6.524   4.593  35.093 -0.0113 -0.1114  0.2705
40946W        W49546  19.905   2.152   4.001  0.2676 -0.1351  0.1609
40947W        W49547  16.069   0.778  35.350  0.1501 -0.1279 -0.3082
40948W        W49548  18.590   5.001   8.755 -0.1229  0.0158  0.0795
40949W        W49549  18.489   6.261   7.154  0.1888  0.1759  0.0157
40950W        W49550  20.860   4.743  19.147 -0.1539 -0.0882 -0.0306
40951W        W49551  12.120   3.663  41.930  0.1103  0.1096  0.2708
40952W        W49552  18.108   3.838  44.753  0.1092 -0.3001  0.2002
40953W        W49553   6.645   3.269  44.449  0.1245 -0.2174 -0.0138
40954W        W49554   4.541   4.986  13.594 -0.0725 -0.0039 -0.5081
40955W        W49555   9.619   6.006  36.350 -0.0167 -0.2179 -0.0488
40956W        W49556  16.050   1.074  17.070  0.0489  0.2245  0.1263
40957W        W49557  20.177   3.228   1.445 -0.1908 -0.1680  0.0976
40958W        W49558   6.422   5.314  25.125  0.1966  0.2290 -0.2535
40959W        W49559   4.206   5.023  39.240  0.0231  0.2530 -0.0644
40960W        W49560  18.371   0.784   5.802 -0.1665 -0.0824  0.2218
40961W        W49561  13.530   0.947  17.470  0.1114 -0.1903  0.2134
40962W        W49562   3.947   6.041  44.827 -0.1170 -0.0500 -0.2167
40963W        W49563  20.630   2.784   0.890  0.0961  0.0750 -0.3151
40964W        W49564   2.534   1.251   4.052  0.1635  0.4174 -0.0162
40965W        W49565   5.434   4.096   0.594  0.1369 -0.1781 -0.3413
40966W        W49566  16.814   0.468  20.932 -0.4264 -0.1068 -0.2385
40967W        W49567  14.860   3.234  20.852  0.1918 -0.1302  0.1447
40968W        W49568   1.329   5.381   6.930 -0.0459  0.2652  0.1805
40969W        W49569   0.691   5.802   2.536  0.1119 -0.1523 -0.0225
40970W        W49570   1.028   4.784  33.153 -0.2715  0.1333 -0.2407
40971W        W49571  20.570   0.743  38.775  0.0048 -0.2084 -0.2071
40972W        W49572  15.579   3.142  29.032 -0.2003 -0.1804  0.1358
40973W        W49573   4.003   0.547   7.270  0.1034 -0.4782 -0.2377
40974W        W49574  15.131   2.367  34.255  0.0571 -0.0342 -0.0335
40975W        W49575  17.264   0.494  12.941  0.1379  0.2550 -0.0503
40976W        W49576  20.697   0.174   9.882  0.2927  0.2602  0.2871
40977W        W49577   3.134   5.411   2.051 -0.0300  0.0625 -0.3681
40978W        W49578  15.940   1.736  12.215  0.0806 -0.2273  0.1453
40979W        W49579  15.208   1.280   4.388  0.0181  0.2585 -0.2231
40980W        W49580  14.836   0.096  15.608 -0.1084 -0.3279  0.0228
40981W        W49581  19.834   5.312  30.882  0.2100 -0.0991  0.1304
40982W        W49582  11.827   3.639  19.252 -0.0006 -0.0570 -0.1103
40983W        W49583  17.192   1.518  31.487  0.0024 -0.0463  0.1431
40984W        W49584  16.667   4.215   6.792 -0.0218 -0.1566  0.5354
40985W        W49585  11.727   1.206  28.572  0.1428  0.0578  0.0885
40986W        W49586  15.564   5.430   5.389 -0.1425  0.4108  0.2992
40987W        W49587  18.366   6.260  35.251 -0.1741 -0.0850  0.0870
40988W        W49588  14.434   2.355  28.620 -0.0207  0.1848  0.0182
40989W        W49589   0.101   0.791   4.412 -0.5395  0.0319 -0.1655
40990W        W49590   5.035   0.185   6.057  0.0529 -0.0774 -0.0436
40991W        W49591   9.860   3.904  43.250  0.0567 -0.0468 -0.2401
40992W        W49592  14.771   3.429  30.282 -0.4265 -0.0859  0.0074
40993W        W49593   4.801   5.491  37.696  0.0390 -0.0991  0.1462
40994W        W49594   3.998   4.746  38.034 -0.1322  0.0575  0.1119
40995W        W49595  12.527   3.752  34.993  0.2012  0.2282 -0.1220
40996W        W49596   5.059   5.386   1.751 -0.0651  0.0877  0.2371
40997W        W49597  18.651   4.814  43.714  0.4250 -0.2282 -0.2157
40998W        W49598   6.220   2.875   3.853 -0.3570  0.1926  0.0409
40999W        W49599  14.483   4.777   9.667 -0.3470 -0.0735 -0.1695
41000W        W49600   2.293   0.331  36.386 -0.0134 -0.0768  0.0146
41001W        W49601  16.673   4.656   9.969 -0.1565  0.0603 -0.0010
41002W        W49602   8.548   0.420  24.549 -0.3317  0.0225  0.0351
41003W        W49603   1.636   0.765   0.207  0.1421 -0.1244  0.0019
41004W        W49604   3.345   2.546  25.489  0.1505  0.2399 -0.1846
41005W        W49605  17.646   0.794   9.326  0.0795 -0.0224  0.0747
41006W        W49606   9.567   5.607  33.551  0.0241 -0.2718  0.0291
41007W        W49607   5.489   1.804  25.905 -0.0297  0.3066  0.0542
41008W        W49608  16.326   1.850  38.299  0.0035 -0.0858 -0.2607
41009W        W49609  17.317   0.737   3.990 -0.0921 -0.3542 -0.0565
41010W        W49610   9.075   4.096  31.508 -0.0624  0.0180 -0.1365
41011W        W49611   2.640   1.096   8.862  0.1790 -0.0066 -0.1783
41012W        W49612  14.440   5.426  37.992  0.0521  0.3250 -0.2842
41013W        W49613   1.944   3.785  37.545  0.2228 -0.3952 -0.0364
41014W        W49614  20.447   2.779  33.029  0.1217 -0.2317 -0.2552
41015W        W49615  17.180   2.926  17.198 -0.1269  0.1791  0.3656
41016W        W49616  15.127   1.350  41.354 -0.1504  0.0226  0.2730
41017W        W49617   8.560   3.033  31.612  0.0036  0.0400  0.1323
41018W        W49618   6.566   5.076   8.426 -0.4990  0.2833 -0.2021
41019W        W49619   3.095   5.273  35.816  0.2021  0.0703  0.0105
41020W        W49620  16.632   1.741  43.067 -0.0593  0.0071  0.1137
41021W        W49621   3.901   1.621  14.713 -0.2321 -0.1699  0.1185
41022W        W49622  16.685   5.831   4.417  0.0619  0.1894  0.0169
41023W        W49623   5.701   3.314  32.859  0.1948  0.2465  0.2752
41024W        W49624   7.218   3.050   6.075 -0.1264 -0.2413 -0.0168
41025W        W49625   7.318   1.261   7.471  0.1456  0.0495  0.0552
41026W        W49626  10.234   2.362  37.442 -0.0680  0.0688 -0.1647
41027W        W49627   0.971   2.729  16.692  0.0429 -0.2073  0.2321
41028W        W49628  14.396   2.413  31.386  0.1231 -0.1548 -0.4275
41029W        W49629  11.056   1.881  42.241 -0.0863 -0.0199 -0.0643
41030W        W49630   8.159   1.195  10.821 -0.1255  0.2316  0.1164
41031W        W49631  14.979   2.983  35.063  0.4186  0.0467  0.0752
41032W        W49632  17.823   2.580  15.990 -0.0232  0.2530 -0.2032
41033W        W49633  13.207   4.598  29.083 -0.0022  0.2589  0.1942
41034W        W49634   8.062   4.077  12.564  0.0676  0.1407  0.0387
41035W        W49635  16.656   1.736   0.938 -0.0647  0.1219 -0.0947
41036W        W49636  10.056   3.256  36.534  0.1107  0.2177 -0.0622
41037W        W49637  16.141   4.425  35.232 -0.1532  0.1655  0.0676
41038W        W49638  17.009   1.653  38.773 -0.1633  0.0647 -0.0207
41039W        W49639  14.996   3.080   3.246 -0.2017  0.1344 -0.0121
41040W        W49640  15.642   5.111  42.505 -0.2358 -0.1561  0.0395
41041W        W49641   8.637   4.704  32.172  0.2192 -0.0618 -0.0808
41042W        W49642   6.507   1.500  14.073  0.0522  0.0733  0.0552
41043W        W49643   1.148   2.972  39.477  0.0426  0.0678  0.2581
41044W        W49644   3.406   3.829  30.359 -0.2086 -0.0934 -0.1273
41045W        W49645  17.983   5.444  12.970  0.2265 -0.2670  0.1245
41046W        W49646   0.345   6.176  17.843  0.0342  0.3362 -0.4617
41047W        W49647   0.499   6.354  13.757 -0.1128  0.2508  0.3361
41048W        W49648  15.610   2.050  16.025  0.2477 -0.0712  0.3292
41049W        W49649  14.519   4.569   4.683 -0.0255 -0.2093  0.1157
41050W        W49650  13.009   2.684  17.707 -0.0051  0.1485  0.2772
41051W        W49651   9.493   0.297  31.355 -0.3209 -0.3053 -0.2394
41052W        W49652  11.622   1.856  10.603 -0.1073 -0.0005  0.2659
41053W        W49653  12.505   1.227   4.565  0.1946 -0.2562 -0.1340
41054W        W49654   3.938   4.136  12.038  0.1526  0.2021 -0.1766
41055W        W49655  18.150   3.834  39.862 -0.1604  0.2560  0.1604
41056W        W49656   2.896   5.788   6.102 -0.1512 -0.3779  0.0992
41057W        W49657   5.205   6.166   0.248  0.0534 -0.1519 -0.3564
41058W        W49658   2.371   2.310  32.638 -0.2089  0.0308 -0.2422
41059W        W49659  10.865   0.798  37.342 -0.1764  0.2302 -0.0491
41060W        W49660  15.058   0.666  43.721 -0.3754 -0.0801 -0.0052
41061W        W49661   8.998   3.489   9.504  0.1803  0.2208  0.0423
41062W        W49662  16.106   3.376   2.723 -0.0425  0.3633  0.2240
41063W        W49663  20.276   2.956  37.259  0.1490 -0.3567  0.2564
41064W        W49664   6.576   1.773  33.275  0.2163 -0.1286 -0.2397
41065W        W49665   3.936   3.440  23.536 -0.1144  0.0319 -0.0257
41066W        W49666   3.204   0.984  41.469  0.5906  0.1823 -0.5519
41067W        W49667  18.396   4.485  20.291 -0.1030  0.0655  0.0176
41068W        W49668  17.433   3.637  41.197 -0.0887 -0.1046  0.1902
41069W        W49669  16.995   1.048  22.559 -0.1014 -0.0812  0.0022
41070W        W49670  10.770   3.860  39.925 -0.1972 -0.0940 -0.1432
41071W        W49671   7.746   2.221  32.470 -0.1409  0.0041  0.2100
41072W        W49672  19.183   0.122  40.652  0.0393  0.0459 -0.3046
41073W        W49673   9.731   5.731  10.797 -0.2312  0.2926 -0.1246
41074W        W49674  18.625   6.371  37.791  0.1766 -0.0095 -0.0061
41075W        W49675  16.857   2.748  10.035  0.2314 -0.0832 -0.3114
41076W        W49676   1.980   6.430   1.561 -0.0568 -0.1110 -0.1922
41077W        W49677   7.747   5.693   2.240  0.1056 -0.1090 -0.3176
41078W        W49678   8.440   2.038  16.091 -0.0612 -0.0815 -0.1625
41079W        W49679   0.014   4.537  35.128 -0.1192  0.1376 -0.0067
41080W        W49680   2.665   0.926  25.960 -0.1066 -0.0259 -0.1349
41081W        W49681   8.991   4.331  27.759 -0.0225  0.0230 -0.0422
41082W        W49682   5.236   1.821  44.632  0.0229 -0.0368 -0.1146
41083W        W49683   5.214   4.803  34.778 -0.1987 -0.6261  0.0237
41084W        W49684   7.518   2.092   1.046 -0.0680  0.0394 -0.1840
41085W        W49685  10.131   5.947   0.557  0.1636 -0.2431  0.1186
41086W        W49686   3.339   4.374  32.930 -0.2281 -0.1172 -0.0641
41087W        W49687  12.559   0.693  13.793  0.1448  0.2762  0.0958
41088W        W49688   7.700   4.859  13.570  0.3049  0.0912 -0.2488
41089W        W49689  15.011   2.095  29.262  0.0480 -0.1343 -0.0391
41090W        W49690  20.921   2.665   8.246  0.3130 -0.0222  0.1795
41091W        W49691  12.295   1.016  41.178  0.0018  0.0185 -0.2619
41092W        W49692  15.199   0.587  20.288 -0.0173  0.1931 -0.2053
41093W        W49693   8.225   5.646  38.367  0.0574 -0.0037  0.1057
41094W        W49694  11.633   5.745  16.645 -0.0854  0.1528  0.2751
41095W        W49695  18.268   2.802  15.263 -0.0532 -0.0488  0.0237
41096W        W49696   6.973   5.379   9.953 -0.1257 -0.2668 -0.0240
41097W        W49697   5.950   5.966  14.697 -0.1008 -0.1314  0.1207
41098W        W49698  17.066   6.569  22.982  0.0597 -0.0486 -0.2085
41099W        W49699  18.089   2.022  37.096  0.0286 -0.0364 -0.3552
41100W        W49700   4.227   2.458  41.046  0.0741 -0.4141  0.2421
41101W        W49701   4.774   5.565  10.548  0.1685  0.3714  0.0288
41102W        W49702   1.601   4.130  16.831  0.0075 -0.3929  0.0556
41103W        W49703  19.706   6.262   4.386  0.1089  0.1621 -0.2585
41104W        W49704   1.976   2.810  16.433  0.3097 -0.5178  0.0033
41105W        W49705   0.844   6.148   8.020  0.0238 -0.1646  0.1213
41106W        W49706   9.376   4.932   8.499  0.0152 -0.1089  0.3499
41107W        W49707   1.957   5.400  43.014 -0.0112  0.2707  0.0654
41108W        W49708  18.905   3.063  14.112 -0.1274  0.1539  0.1583
41109W        W49709  17.756   2.367  29.626  0.0844  0.0955  0.2305
41110W        W49710  21.038   0.259  14.069  0.0795  0.1925  0.1060
41111W        W49711   4.623   4.849  42.301 -0.1920  0.0651 -0.2926
41112W        W49712  17.934   5.443  42.867 -0.1759 -0.1640  0.3262
41113W        W49713  13.266   4.752  18.753 -0.1135 -0.1128  0.0306
41114W        W49714  12.910   3.702  14.117  0.0367 -0.2045  0.1688
41115W        W49715  17.032   2.780   7.467  0.3872 -0.1829 -0.0046
41116W        W49716  18.450   3.125  12.824 -0.0314 -0.1388 -0.3239
41117W        W49717  10.878   1.090   5.364  0.1165 -0.4039 -0.0644
41118W        W49718  19.855   2.630  18.541  0.0754 -0.0314  0.0472
41119W        W49719   1.188   0.030   8.709 -0.0071 -0.0178  0.0877
41120W        W49720   9.462   1.794  29.743  0.2072 -0.0736  0.1204
41121W        W49721  18.167   3.339  36.739 -0.2117 -0.1901  0.0043
41122W        W49722  17.611   0.781  14.076  0.0854  0.0214  0.0358
41123W        W49723   0.205   2.482  10.948  0.4093  0.2179  0.1101
41124W        W49724  19.804   0.646   6.449  0.1405 -0.0312 -0.0765
41125W        W49725  11.874   6.215  10.796  0.0876  0.1382  0.2206
41126W        W49726   6.104   5.164  36.908  0.4293  0.0375 -0.0359
41127W        W49727   8.463   2.024  33.348  0.1329  0.1878  0.1212
41128W        W49728  12.691   1.019  30.000  0.2957 -0.0604  0.2935
41129W        W49729   5.847   5.071  41.330 -0.4388 -0.3778 -0.1489
41130W        W49730  17.819   3.517  39.564 -0.0715  0.0469  0.2289
41131W        W49731   9.245   1.310   4.734  0.0784  0.3074  0.0102
41132W        W49732   5.044   0.783  24.096 -0.0158 -0.1914 -0.0642
41133W        W49733  10.351   1.067  40.172  0.0173  0.1528 -0.1784
41134W        W49734  13.205   3.973  20.962  0.1992 -0.1016  0.0841
41135W        W49735   6.984   0.743  24.022 -0.1198  0.0407  0.0339
41136W        W49736  20.318   1.228  38.705  0.0153 -0.0220 -0.1147
41137W        W49737  10.813   3.635  34.975  0.1625 -0.1606  0.2384
41138W        W49738   2.556   6.487   1.396  0.0197 -0.0022  0.2058
41139W        W49739  19.490   2.002  36.683  0.3905  0.3549  0.0835
41140W        W49740   1.671   3.470  34.284 -0.4623  0.3114  0.2428
41141W        W49741  19.035   1.706  21.091 -0.0080 -0.1102  0.0552
41142W        W49742  16.839   3.404  18.442 -0.0625 -0.1087 -0.1516
41143W        W49743  20.201   5.851   2.663 -0.2018 -0.1203  0.1851
41144W        W49744   9.292   5.882  30.024  0.0610  0.1758 -0.0586
41145W        W49745   3.014   4.393   7.285 -0.0619  0.1421 -0.2424
41146W        W49746   8.863   0.406  42.763  0.0682  0.1090  0.1639
41147W        W49747   1.191   3.280  13.828  0.1052 -0.1848  0.2626
41148W        W49748   0.900   3.027   0.777  0.1184 -0.2475  0.0921
41149W        W49749   1.312   3.048  37.096  0.1390 -0.2645  0.1914
41150W        W49750   1.318   5.091   9.889  0.0343 -0.0858 -0.1908
41151W        W49751  12.313   0.929  39.341 -0.1417 -0.0418 -0.4592
41152W        W49752   6.309   3.921   4.160 -0.0507  0.0243  0.1016
41153W        W49753  20.189   2.612  10.871  0.4080 -0.1432  0.0982
41154W        W49754  17.657   4.172   7.493 -0.0830 -0.0176 -0.2583
41155W        W49755   0.145   6.042  42.160  0.2873 -0.0667  0.0530
41156W        W49756  11.866   2.814  16.093  0.1034 -0.2793  0.0091
41157W        W49757   9.689   3.727  28.316  0.0525  0.0052  0.0875
41158W        W49758  11.188   0.732  32.768 -0.0317 -0.0437  0.0791
41159W        W49759  10.008   3.565  40.583  0.1912  0.0247  0.0685
41160W        W49760   8.715   5.250  41.118 -0.0325 -0.0532  0.0050
41161W        W49761  16.758   0.697   4.614  0.1477 -0.1103  0.1793
41162W        W49762  17.789   2.994  13.462 -0.3983 -0.0062 -0.0593
41163W        W49763  16.490   3.216  43.686  0.1935 -0.1007  0.0173
41164W        W49764  16.678   1.758  30.172 -0.0842 -0.0808 -0.0230
41165W        W49765  14.639   2.324   6.840 -0.1186  0.0802  0.1129
41166W        W49766   9.350   6.388  15.171 -0.3039  0.1072  0.0269
41167W        W49767  18.290   5.482  34.776 -0.0054  0.1933 -0.0714
41168W        W49768  20.476   3.387   8.827  0.0355  0.2695  0.0913
41169W        W49769   2.767   1.693  32.279 -0.2230 -0.1873  0.0565
41170W        W49770   4.533   5.412  39.192  0.0999  0.3075  0.0354
41171W        W49771   6.610   4.177  38.223  0.1280 -0.0163  0.1182
41172W        W49772   3.426   2.535  38.387  0.2308 -0.1481  0.0875
41173W        W49773   9.476   2.938  39.300 -0.2580 -0.1318 -0.1669
41174W        W49774   1.106   4.275  40.240 -0.0368 -0.0740 -0.2870
41175W        W49775   4.070   5.404  13.558  0.3523 -0.2639  0.1566
41176W        W49776   1.945   0.267  34.649 -0.0072 -0.1074 -0.0647
41177W        W49777  18.558   0.150  19.043 -0.0900  0.1423  0.0150
41178W        W49778   7.606   2.707   9.572 -0.1969  0.2575 -0.0073
41179W        W49779   8.725   0.088  41.316 -0.2444 -0.2257 -0.1777
41180W        W49780   5.258   5.908  44.880 -0.2277 -0.0185  0.2809
41181W        W49781  11.643   0.643   6.862  0.0862 -0.2362  0.1486
41182W        W49782  17.118   1.524  37.107  0.1029  0.2168 -0.2082
41183W        W49783  17.519   6.166  36.870 -0.0360 -0.0883  0.0307
41184W        W49784  14.217   5.329   5.258 -0.1286 -0.0517 -0.2544
41185W        W49785  13.518   1.506  11.624 -0.1639  0.1180  0.1209
41186W        W49786  19.745   4.219  43.504 -0.0229  0.1653 -0.5257
41187W        W49787   9.876   6.048   9.935 -0.2161 -0.0965  0.2260
41188W        W49788   7.740   5.789  37.607 -0.0481  0.1640 -0.0154
41189W        W49789  20.775   0.605  42.042  0.0417 -0.0026  0.0837
41190W        W49790  18.711   0.303  31.367  0.0905 -0.0428  0.2145
41191W        W49791  14.309   0.730  19.426 -0.0647 -0.3755 -0.1254
41192W        W49792  10.337   0.132   4.745 -0.3042  0.1617 -0.2141
41193W        W49793  11.340   3.011   0.503  0.0687  0.0152  0.0609
41194W        W49794  12.421   1.799  15.346  0.0326  0.1726  0.1810
41195W        W49795  10.396   4.390  10.455  0.1455  0.2683  0.2336
41196W        W49796  12.821   0.092   1.789 -0.1734 -0.0856  0.0392
41197W        W49797  21.001   2.056  12.293 -0.3421 -0.2860 -0.2908
41198W        W49798   8.184   1.090  34.875 -0.0988  0.0287  0.0918
41199W        W49799  20.570   3.351  29.154 -0.5002 -0.0898  0.0814
41200W        W49800  15.853   1.520  12.721 -0.1501 -0.0361 -0.0513
41201W        W49801  20.937   6.562  17.109  0.0433  0.2083 -0.1477
41202W        W49802  15.057   5.428   4.668 -0.0114  0.1206  0.0348
41203W        W49803  12.532   4.093  32.036  0.3064 -0.0345 -0.0993
41204W        W49804   8.149   4.823  37.817 -0.0423 -0.0893 -0.1406
41205W        W49805   7.380   2.920  36.660 -0.0094  0.1175  0.1859
41206W        W49806  14.325   0.704  15.964 -0.0254 -0.1415  0.1120
41207W        W49807   8.795   0.545   4.173 -0.0438  0.0211  0.0913
41208W        W49808  17.837   4.230  14.245  0.1929 -0.0021 -0.0038
41209W        W49809  10.276   1.005   0.155  0.1987 -0.2592 -0.1403
41210W        W49810  12.598   2.902  10.895  0.0276  0.1133 -0.1553
41211W        W49811   3.866   3.451   6.827  0.1840  0.3272  0.3094
41212W        W49812   1.579   0.819  42.450  0.0026 -0.2261  0.0644
41213W        W49813  20.467   5.741  13.624 -0.0392 -0.1301 -0.0047
41214W        W49814  14.604   3.773  12.181 -0.1685  0.0204  0.2022
41215W        W49815   0.522   3.146   6.691  0.1435 -0.0323 -0.1945
41216W        W49816   6.904   1.949  20.961  0.1445 -0.2715  0.1644
41217W        W49817   4.253   1.472  38.099 -0.3650 -0.0553 -0.1090
41218W        W49818   9.150   0.588  37.302  0.0858 -0.2206  0.2521
41219W        W49819  19.662   6.575  10.755 -0.0822  0.2246  0.0250
41220W        W49820  14.865   1.614   7.329 -0.0371 -0.1076  0.2546
41221W        W49821  10.375   0.971  26.056 -0.3512 -0.4230  0.4160
41222W        W49822  16.215   4.852  22.492  0.1781 -0.0297  0.1323
41223W        W49823   5.642   2.354  25.041 -0.1573  0.1762  0.1454
41224W        W49824  11.523   0.439   1.654 -0.0029 -0.0260  0.1747
41225W        W49825  12.285   4.511  41.515 -0.3700  0.2536  0.2351
41226W        W49826   7.184   5.635   0.409  0.1969  0.2222  0.1204
41227W        W49827  17.833   2.834  12.255  0.1606  0.0905  0.2825
41228W        W49828  11.143   5.469  16.616  0.0664  0.1036 -0.0462
41229W        W49829   7.854   2.094  41.777 -0.3942 -0.1120 -0.1925
41230W        W49830   7.109   6.171   5.045  0.1723 -0.0166  0.0715
41231W        W49831  12.918   3.656  29.269 -0.4666  0.0197 -0.0675
41232W        W49832   2.958   5.158   9.104 -0.0835 -0.1852 -0.2046
41233W        W49833   7.634   2.591   5.321 -0.1810 -0.0754  0.1318
41234W        W49834  11.949   4.717  37.160  0.0060  0.1173  0.1380
41235W        W49835  10.385   5.512   2.996 -0.0469  0.0493  0.1937
41236W        W49836  20.557   5.009   8.515  0.0892 -0.0799  0.0766
41237W        W49837   6.645   3.490  39.897  0.0583  0.0807  0.0362
41238W        W49838  12.208   4.031  36.672 -0.1567 -0.2983  0.0553
41239W        W49839  17.362   1.694  11.508 -0.0909 -0.1414  0.1936
41240W        W49840   7.501   0.172  38.002 -0.0163  0.2865  0.0154
41241W        W49841  13.053   2.812  20.128 -0.0400 -0.1960 -0.1547
41242W        W49842  16.487   4.971   1.646 -0.0892 -0.0723  0.3478
41243W        W49843  15.943   0.753  14.224 -0.0382  0.1033 -0.1085
41244W        W49844  19.936   2.486  38.858 -0.0316  0.1529  0.0373
41245W        W49845   7.820   4.690  10.953  0.1278  0.3027  0.2732
41246W        W49846  10.568   1.880  12.375 -0.2894 -0.1001 -0.7105
41247W        W49847  17.176   2.915  30.063  0.2023 -0.3684 -0.1065
41248W        W49848   0.470   1.734   1.146  0.1042 -0.2376 -0.0636
41249W        W49849   4.878   2.948  40.569  0.0192  0.1104 -0.0887
41250W        W49850  10.553   3.177  12.664 -0.0132  0.0169  0.0296
41251W        W49851  20.621   3.204  36.969  0.0511  0.0140  0.2676
41252W        W49852   0.684   1.198  44.540 -0.1069  0.1497 -0.3135
41253W        W49853  14.787   1.209  20.485  0.2720  0.1154  0.1478
41254W        W49854   8.187   0.409  37.523 -0.0193  0.0307 -0.0667
41255W        W49855  10.976   1.007  34.131  0.0107  0.0656  0.0477
41256W        W49856   5.290   6.344   4.449 -0.0417 -0.0825 -0.0087
41257W        W49857  10.852   3.234  35.262 -0.1685  0.0107 -0.0798
41258W        W49858   0.573   2.830  10.066 -0.3899  0.0098  0.1873
41259W        W49859   6.112   2.370  43.509  0.5701  0.3691 -0.1156
41260W        W49860   9.690   3.245  29.659 -0.2506  0.2176 -0.0332
41261W        W49861  13.999   2.850   6.397  0.0864 -0.1965 -0.3090
41262W        W49862   2.047   5.464  42.480  0.1140 -0.0022  0.0686
41263W        W49863   6.348   0.045  23.901  0.1105  0.1089  0.0430
41264W        W49864  11.721   2.505  10.110 -0.1235 -0.0203  0.0411
41265W        W49865   7.532   3.673  44.113 -0.0647 -0.0055  0.1638
41266W        W49866   2.504   1.904  13.608 -0.1132 -0.1218 -0.0661
41267W        W49867  16.304   3.255  41.916 -0.0429  0.1924  0.0737
41268W        W49868  18.448   0.714  39.026  0.2732  0.2523  0.0381
41269W        W49869  16.672   4.465  40.575  0.0835 -0.0866  0.1083
41270W        W49870  18.845   4.696   7.622 -0.2876  0.1118 -0.0272
41271W        W49871  13.468   5.483  14.604  0.0066 -0.0966 -0.1369
41272W        W49872  20.567   1.303   6.301  0.3384 -0.1440  0.0521
41273W        W49873   0.769   4.313  28.067 -0.2300 -0.2897  0.1584
41274W        W49874   8.366   4.389  41.717 -0.1716 -0.0615  0.4421
41275W        W49875  20.517   4.948  39.387 -0.0591 -0.4883 -0.1107
41276W        W49876   9.279   1.546  16.393 -0.0590 -0.1903  0.0440
41277W        W49877  18.933   5.520  40.125  0.0236  0.0551  0.2564
41278W        W49878   8.394   5.945  29.992  0.0742  0.2258 -0.1310
41279W        W49879  14.694   0.351  17.985  0.2416 -0.3314 -0.2530
41280W        W49880   3.018   0.277  13.951  0.0442 -0.0006 -0.0040
41281W        W49881   9.530   4.136  27.555  0.1968  0.2418 -0.0359
41282W        W49882   1.709   2.331  28.510 -0.1230  0.0105 -0.3581
41283W        W49883   0.136   0.096  12.131 -0.1634 -0.0291  0.4030
41284W        W49884  19.311   2.897  15.241  0.0092  0.1803 -0.0965
41285W        W49885   7.498   1.209  29.978 -0.0001  0.3723  0.1006
41286W        W49886  14.224   2.768  18.496 -0.0199 -0.0596 -0.2321
41287W        W49887  12.343   2.107  13.560 -0.0696  0.0254  0.0331
41288W        W49888  13.486   1.920  38.038  0.0356  0.2360  0.0389
41289W        W49889  11.653   1.896   6.155 -0.4363 -0.0871  0.0814
41290W        W49890  10.836   2.303  10.229  0.0777  0.1682 -0.1190
41291W        W49891   6.782   4.988  23.649  0.0452 -0.0017  0.0873
41292W        W49892   3.062   3.614  10.518 -0.4426  0.0546 -0.3157
41293W        W49893  15.931   0.307  17.318  0.1245 -0.4156  0.0865
41294W        W49894  19.553   2.997  37.749  0.2796  0.0230  0.0367
41295W        W49895  15.733   1.354  39.514 -0.0131  0.0416 -0.1755
41296W        W49896   9.251   4.397   8.265  0.1199 -0.3086 -0.0971
41297W        W49897  14.949   2.249   2.662 -0.4319  0.0035  0.0045
41298W        W49898   2.845   1.190  40.216 -0.2075 -0.1965  0.1942
41299W        W49899  17.630   4.754   0.546  0.0587 -0.1380  0.0614
41300W        W49900  17.841   3.904  23.057 -0.1045 -0.0034  0.0976
41301W        W49901   2.882   0.970  36.653 -0.2086 -0.1344  0.0676
41302W        W49902  20.167   5.126  42.963 -0.2447 -0.0239 -0.2077
41303W        W49903  20.180   1.738  15.466  0.0009 -0.2051  0.4641
41304W        W49904  10.838   2.939  41.219  0.0206  0.2644 -0.0758
41305W        W49905   0.167   4.226  35.887 -0.1556  0.0257 -0.0605
41306W        W49906   7.231   3.392  31.169 -0.3075 -0.0598  0.0816
41307W        W49907  18.591   6.046  12.682 -0.2332 -0.1177  0.1409
41308W        W49908  15.519   3.619  29.909 -0.0263  0.0193  0.1881
41309W        W49909   6.251   3.268  30.695  0.3293  0.2475  0.0483
41310W        W49910  17.491   1.714  14.393  0.2472  0.1783  0.1040
41311W        W49911  11.646   5.841  11.155  0.1282  0.0472  0.3033
41312W        W49912   6.235   0.422   3.748  0.3839  0.4358 -0.0625
41313W        W49913  13.641   5.582  44.621 -0.1183 -0.2465  0.2336
41314W        W49914   3.797   1.892  44.661 -0.0224  0.2672 -0.2177
41315W        W49915   8.357   0.021  16.754  0.0060  0.0004  0.0323
41316W        W49916   3.262   1.634  33.964 -0.1168 -0.1043  0.4123
41317W        W49917   8.625   5.712  28.935 -0.0619  0.0068 -0.0517
41318W        W49918   0.199   1.212   0.952 -0.2748 -0.1372  0.0017
41319W        W49919  15.939   0.789  44.725  0.2005 -0.1393 -0.1133
41320W        W49920   6.527   5.705  29.525  0.0519  0.3455 -0.0663
41321W        W49921   1.611   1.594  25.096  0.0727  0.1802  0.1116
41322W        W49922   5.670   1.947  28.553 -0.0143 -0.1239 -0.0463
41323W        W49923   9.941   4.398  34.293 -0.1879  0.3909 -0.1896
41324W        W49924  20.483   4.156   2.206  0.1748  0.1896  0.0064
41325W        W49925   6.601   2.300  25.147 -0.0718  0.0850 -0.0444
41326W        W49926   2.233   5.230  30.775  0.1842 -0.1186  0.0847
41327W        W49927   2.274   1.805   3.441 -0.1552  0.1210 -0.1748
41328W        W49928  12.171   3.354  33.358 -0.0518 -0.3306  0.2026
41329W        W49929  20.118   0.159  41.137 -0.1839 -0.0517  0.0048
41330W        W49930  18.464   0.236  16.459  0.1429 -0.1079  0.1140
41331W        W49931  15.009   0.175  39.601  0.0600  0.0394  0.0937
41332W        W49932   1.273   5.175  10.735 -0.0223 -0.2940  0.0956
41333W        W49933  11.361   6.049  33.157  0.1214 -0.1029  0.1791
41334W        W49934   3.155   1.501  38.762 -0.0190  0.2050  0.0181
41335W        W49935   6.012   0.132  37.931  0.0057 -0.3336  0.2959
41336W        W49936  12.374   5.989  33.191  0.0467  0.0364  0.0229
41337W        W49937  10.207   3.466  36.057 -0.0020 -0.1197 -0.0711
41338W        W49938  16.629   0.651  22.716  0.0277 -0.2620  0.1017
41339W        W49939  19.530   1.685   0.364  0.2181  0.0244  0.0841
41340W        W49940   7.338   3.968   3.078 -0.1535  0.3075  0.4085
41341W        W49941  21.081   1.900  18.979  0.1480  0.0374 -0.1483
41342W        W49942   6.574   4.656  23.285  0.0716  0.2643  0.0802
41343W        W49943  14.822   3.311  13.735 -0.1530 -0.1321 -0.1072
41344W        W49944   2.863   2.668  30.478 -0.0198 -0.1142 -0.0887
41345W        W49945   1.138   2.612  15.708 -0.0129 -0.1105  0.0310
41346W        W49946   9.792   0.439  36.473 -0.1523  0.2039 -0.0152
41347W        W49947  15.858   3.249  25.432  0.3131 -0.0924  0.2001
41348W        W49948   3.559   0.643  15.175 -0.0761  0.2247  0.1204
41349W        W49949  20.228   4.517   2.593  0.0256 -0.1264 -0.0345
41350W        W49950   9.807   4.113  40.677  0.0358 -0.0578  0.2191
41351W        W49951  20.807   0.502   6.233  0.0052  0.0395 -0.0903
41352W        W49952   9.123   5.041  10.811  0.2289  0.0839  0.0692
41353W        W49953   5.464   4.286  24.621 -0.0616  0.0079 -0.0419
41354W        W49954  16.520   2.401  12.496 -0.1478 -0.0662  0.0432
41355W        W49955   9.739   2.163  29.890  0.1368 -0.0590 -0.2947
41356W        W49956   0.507   2.451   4.067  0.2909 -0.1641 -0.0630
41357W        W49957  17.882   5.971  15.705  0.1731 -0.0059 -0.1169
41358W        W49958   2.624   6.515  30.772 -0.0038 -0.0577  0.0431
41359W        W49959  11.168   1.289  40.852  0.1815 -0.0365  0.0121
41360W        W49960   0.153   3.632  11.494 -0.0699 -0.2071 -0.2519
41361W        W49961   0.442   1.258  26.452  0.0106  0.0282 -0.0121
41362W        W49962   3.589   0.661  11.641  0.0400  0.3860  0.0369
41363W        W49963  15.167   6.337  11.073 -0.2241 -0.0885 -0.0984
41364W        W49964   4.173   0.311   4.353 -0.0064  0.0640 -0.1527
41365W        W49965  17.538   5.689  23.271 -0.0302 -0.3993 -0.1148
41366W        W49966   3.910   2.441  44.173 -0.1055 -0.0305  0.0707
41367W        W49967  16.929   3.979  20.933 -0.1421  0.0383 -0.2424
41368W        W49968  19.581   5.672  44.266 -0.1131 -0.1863  0.0463
41369W        W49969   0.718   3.325  35.686  0.1090  0.1827  0.0546
41370W        W49970  20.875   5.207  28.423  0.1687  0.2207  0.4020
41371W        W49971   0.020   2.744  18.911  0.0769 -0.0023 -0.2136
41372W        W49972  15.289   2.550  17.068  0.1584  0.2187  0.1951
41373W        W49973  13.566   2.760  31.468 -0.1299 -0.2237 -0.1553
41374W        W49974  16.712   5.852  19.065 -0.0079 -0.0964  0.2146
41375W        W49975  12.534   2.370   6.168  0.1246 -0.1332 -0.0970
41376W        W49976  19.025   1.874  44.411  0.1157 -0.2137 -0.1855
41377W        W49977  19.442   2.675  32.447  0.1210 -0.0359  0.1534
41378W        W49978  17.702   5.008  22.084  0.1177 -0.2050  0.1485
41379W        W49979  11.757   0.014  40.513 -0.0284 -0.2529 -0.2131
41380W        W49980  15.707   4.018  37.549  0.0923  0.1422  0.2483
41381W        W49981   9.201   2.423  15.859 -0.0219  0.2342 -0.1023
41382W        W49982  12.013   5.740  30.915  0.0129  0.2853 -0.1730
41383W        W49983  10.240   4.648   8.632  0.1270  0.0751  0.0410
41384W        W49984   6.925   4.696  14.280 -0.1848  0.1289 -0.3422
41385W        W49985  12.083   4.469  20.319  0.1789 -0.1490  0.4292
41386W        W49986  15.312   4.567  40.196  0.2719  0.1693 -0.0380
41387W        W49987  12.233   1.975  43.836 -0.0301 -0.1019 -0.1064
41388W        W49988   2.614   3.432  28.406 -0.0183 -0.1187 -0.1133
41389W        W49989  12.237   6.494  13.962 -0.0433 -0.0475  0.0305
41390W        W49990   5.869   0.944  24.469 -0.1943  0.0499  0.1912
41391W        W49991   5.347   6.471  13.797  0.0542 -0.3767 -0.2760
41392W        W49992  10.440   4.792   2.075  0.2019 -0.0942 -0.2623
41393W        W49993   1.308   2.453  29.665  0.1163 -0.0625 -0.0396
41394W        W49994   2.504   2.843   4.299 -0.0791  0.1527  0.0464
41395W        W49995  15.135   2.440  42.024  0.0190 -0.1271  0.0007
41396W        W49996  17.746   0.146  35.694 -0.3000  0.1269 -0.1817
41397W        W49997   0.905   3.752   5.546  0.2325  0.2277 -0.0893
41398W        W49998   2.113   5.534  35.713  0.0513  0.1920  0.0308
41399W        W49999   3.385   3.066  32.496  0.2751 -0.2318  0.0202
41400W        W50000  20.821   4.075  36.135  0.1594 -0.0905  0.0525
41401W        W50001   7.938   2.786   5.692 -0.1094  0.2727 -0.1311
41402W        W50002  11.647   5.930   1.958 -0.1367  0.1187 -0.2193
41403W        W50003  16.202   0.777   8.613 -0.0607 -0.1587  0.1642
41404W        W50004   3.834   0.748  34.142 -0.0528  0.1945 -0.2163
41405W        W50005   1.055   0.321   9.647 -0.1183  0.0728 -0.2089
41406W        W50006   9.992   1.097  29.952 -0.2928  0.3093 -0.0296
41407W        W50007   8.085   5.651  35.355  0.1021 -0.0792 -0.0953
41408W        W50008   1.589   2.139  24.985 -0.1669  0.1489  0.1069
41409W        W50009  14.365   1.525  42.601  0.0958  0.2344  0.1590
41410W        W50010   9.621   4.646  29.879 -0.1300  0.0249  0.2363
41411W        W50011   1.562   6.048  32.594  0.3248 -0.0933 -0.0230
41412W        W50012   5.638   4.708  13.147  0.2023  0.1573  0.1547
41413W        W50013   6.256   1.864   9.179  0.0716  0.0282  0.3386
41414W        W50014  16.026   1.969  31.846 -0.3482  0.0725  0.3091
41415W        W50015   5.226   2.350   2.865  0.1426  0.0281 -0.4381
41416W        W50016   0.191   1.440  43.427  0.0941 -0.0215  0.0864
41417W        W50017   0.069   2.096   2.567 -0.0084 -0.0630 -0.1148
41418W        W50018   9.278   6.121  43.221 -0.3643 -0.0941 -0.0487
41419W        W50019   4.416   0.798  32.486  0.1240 -0.2239  0.2933
41420W        W50020  14.824   3.658  34.996 -0.0989  0.2042 -0.0045
41421W        W50021   5.421   0.150  21.870 -0.0379 -0.2165 -0.0990
41422W        W50022  19.975   2.366   1.611 -0.1331  0.0845 -0.0660
41423W        W50023   0.218   1.529  17.548 -0.2731  0.2338 -0.0150
41424W        W50024  20.552   1.169   3.572  0.1169 -0.1494  0.2334
41425W        W50025   2.074   5.542  26.908  0.1619 -0.2283  0.1783
41426W        W50026  13.883   0.869  42.092  0.0273 -0.0701 -0.0724
41427W        W50027  19.721   4.196   0.540  0.0976 -0.0753  0.0496
41428W        W50028   2.507   4.641  37.538 -0.0205  0.1441  0.0077
41429W        W50029   9.744   5.211  12.342  0.1700 -0.0085 -0.0090
41430W        W50030  12.880   4.348  42.120  0.3210 -0.1767  0.1578
41431W        W50031   7.433   0.089  44.037  0.0309  0.0628 -0.2973
41432W        W50032  13.891   0.545  38.074 -0.2264  0.0242 -0.2502
41433W        W50033  16.953   5.581  14.671 -0.0091  0.4371  0.0207
41434W        W50034   1.908   3.542  44.015  0.1254 -0.1538 -0.0719
41435W        W50035   3.832   3.990  23.546  0.3360 -0.1069  0.2781
41436W        W50036  16.862   5.696  36.040  0.2316 -0.0787 -0.1371
41437W        W50037  18.039   0.297  43.681  0.0440 -0.0830 -0.0465
41438W        W50038  15.458   6.409  42.133  0.0393  0.1333 -0.1825
41439W        W50039   8.855   5.954  40.606  0.0972 -0.0640  0.1910
41440W        W50040   3.326   0.397  28.230  0.0224 -0.2264 -0.2626
41441W        W50041  16.659   2.158  33.747 -0.0784  0.0037 -0.0010
41442W        W50042  15.773   2.614  13.524  0.1429 -0.2933 -0.1688
41443W        W50043   9.003   4.082   5.306  0.2063  0.1721 -0.0060
41444W        W50044  16.297   2.060  24.606  0.2042  0.0538 -0.1640
41445W        W50045   0.787   3.453   0.987  0.0698 -0.2293  0.1499
41446W        W50046  14.445   2.455  14.250 -0.1220 -0.0956  0.0755
41447W        W50047  13.671   6.277   8.896 -0.1121  0.2646 -0.0336
41448W        W50048  17.491   1.441  15.667 -0.0807 -0.0692 -0.1966
41449W        W50049  10.246   5.899   6.564  0.0373  0.0636 -0.0005
41450W        W50050  17.836   2.554   0.720  0.2606 -0.2192 -0.1035
41451W        W50051  16.930   3.183  30.788 -0.1753 -0.0384 -0.0559
41452W        W50052  12.215   3.406  36.642 -0.0927 -0.1342  0.1660
41453W        W50053  13.523   3.896  18.751 -0.1059  0.0694  0.0728
41454W        W50054  19.610   1.074   3.159  0.3651  0.1492  0.0479
41455W        W50055   5.256   6.252  32.827 -0.2153  0.0077  0.0471
41456W        W50056   3.923   4.154  39.993  0.0692  0.2234 -0.0076
41457W        W50057   7.043   1.436  11.512 -0.2056 -0.0934 -0.1295
41458W        W50058  16.204   1.795   1.800 -0.3026 -0.2741 -0.0707
41459W        W50059   2.638   3.754  11.367  0.0179  0.1240 -0.1575
41460W        W50060  15.638   5.261   6.290  0.1856  0.0501 -0.0094
41461W        W50061  10.298   2.457  13.085 -0.2205 -0.2037  0.3059
41462W        W50062  20.994   4.874  14.445  0.1563  0.1433 -0.0440
41463W        W50063   7.820   1.957  38.647  0.0219  0.0299 -0.1882
41464W        W50064   5.093   1.238  31.478  0.1471  0.3013  0.2537
41465W        W50065   1.786   1.852   3.584 -0.1674  0.4532 -0.0701
41466W        W50066   8.501   5.239   8.162  0.2931 -0.0004 -0.4661
41467W        W50067   3.375   0.514  37.323 -0.0601  0.1671  0.1357
41468W        W50068   8.589   0.088  13.707  0.2436 -0.0878  0.1107
41469W        W50069   2.500   6.378  25.285  0.0424 -0.0821 -0.1423
41470W        W50070   9.921   4.405  43.608 -0.1153 -0.1759 -0.1209
41471W        W50071  16.019   0.939  26.716 -0.0633 -0.0482 -0.1077
41472W        W50072   4.423   3.752  12.833 -0.0419  0.0040 -0.0350
41473W        W50073   6.101   6.313  31.283  0.1902 -0.1339 -0.1181
41474W        W50074   0.337   6.113   0.765  0.1386 -0.1064 -0.0904
41475W        W50075  13.667   1.237   9.008 -0.2570  0.2921  0.2198
41476W        W50076  19.979   3.468  28.898  0.1469 -0.3638 -0.1742
41477W        W50077  20.926   2.790  17.554  0.0089 -0.1509  0.0685
41478W        W50078  11.620   5.837   7.014 -0.2824  0.1468 -0.1821
41479W        W50079   1.107   6.097   9.332 -0.0526 -0.3393 -0.0451
41480W        W50080  18.661   6.300  19.767 -0.1199 -0.2030  0.2258
41481W        W50081  11.078   2.366  28.449  0.2878 -0.1829  0.0835
41482W        W50082   4.774   2.709  37.508  0.1520 -0.0030 -0.1458
41483W        W50083  15.068   5.453   4.173  0.0570  0.1260 -0.1811
41484W        W50084   5.691   4.983  28.591 -0.3412 -0.0768  0.2278
41485W        W50085   4.251   5.867  25.655  0.0131 -0.1245  0.2204
41486W        W50086   0.479   0.129   0.730  0.0687 -0.0038  0.1244
41487W        W50087   1.002   5.621   7.258  0.4214 -0.0512 -0.1637
41488W        W50088   4.870   4.581  30.730  0.0122  0.4805  0.2138
41489W        W50089  16.326   1.332  44.030  0.0973 -0.1394  0.0145
41490W        W50090  12.923   3.123   2.107 -0.0128 -0.2893  0.3174
41491W        W50091   1.612   3.003  37.680 -0.1054  0.1060  0.0839
41492W        W50092   9.017   2.778  11.998  0.1210 -0.0069 -0.1010
41493W        W50093  20.194   0.716  14.363  0.2704  0.2243  0.0319
41494W        W50094  16.632   1.370  42.206 -0.3053  0.0579  0.0843
41495W        W50095   6.363   5.352   5.548 -0.5172 -0.1243  0.0893
41496W        W50096   1.988   3.097   1.528 -0.0918  0.0670 -0.0910
41497W        W50097   3.800   2.881  36.126 -0.2527  0.0758 -0.2674
41498W        W50098  18.332   5.979  43.655 -0.2276  0.3462  0.1378
41499W        W50099  15.423   0.804  39.474  0.0250 -0.1598  0.0002
41500W        W50100   6.661   5.715   0.256  0.2721 -0.0192  0.2996
41501W        W50101  15.638   2.249  32.040 -0.1822  0.0262 -0.0715
41502W        W50102  14.863   4.462   0.631  0.0281 -0.0379  0.1280
41503W        W50103   3.036   2.886   6.150  0.1716 -0.2282  0.1648
41504W        W50104  16.650   4.274  15.661 -0.0764 -0.0721  0.0707
41505W        W50105   9.916   3.441  30.175  0.1736  0.0728 -0.0810
41506W        W50106   3.351   6.316  27.071  0.0308 -0.2872  0.1948
41507W        W50107   9.844   4.871   4.137 -0.1485  0.2719  0.0070
41508W        W50108   5.504   1.445  32.772 -0.0375  0.1287 -0.0770
41509W        W50109  17.785   4.576   8.398 -0.0398  0.0559 -0.1915
41510W        W50110   2.439   4.082  42.328 -0.1128  0.2793  0.0360
41511W        W50111  13.963   5.217  39.481  0.2584 -0.2972 -0.2593
41512W        W50112   3.979   4.998   6.398  0.2301  0.0080  0.3039
41513W        W50113  13.488   5.329  43.897  0.1457  0.0500 -0.1131
41514W        W50114   2.102   4.229  14.340 -0.1087  0.0207  0.0803
41515W        W50115   1.300   0.226  37.651  0.1765  0.0782  0.2195
41516W        W50116  13.989   0.172   7.661  0.0054  0.0393 -0.0142
41517W        W50117   0.172   2.168  42.216  0.0617  0.0214 -0.0040
41518W        W50118   3.619   5.760  40.359  0.0560  0.0789  0.0155
41519W        W50119  19.101   3.311  31.753 -0.0555 -0.2047  0.0637
41520W        W50120  20.487   5.051  29.612  0.0861 -0.1891 -0.0250
41521W        W50121  10.450   3.152  30.759 -0.0892  0.2969 -0.2068
41522W        W50122  11.624   1.962  11.916  0.0110  0.2159  0.2985
41523W        W50123  14.149   4.718  15.107 -0.0707 -0.2513  0.1658
41524W        W50124  16.999   4.193   4.737  0.1769  0.0373 -0.0423
41525W        W50125  14.392   1.729  39.212 -0.0916  0.3055  0.2300
41526W        W50126   4.363   4.123  34.508 -0.1678 -0.0604 -0.1996
41527W        W50127  10.371   3.702  16.535 -0.3101 -0.1120  0.1957
41528W        W50128   7.597   6.376  35.633  0.2732  0.0288  0.1861
41529W        W50129   7.908   3.401  15.774  0.0463  0.0238  0.0792
41530W        W50130   6.050   3.304  14.796  0.0288  0.2018 -0.1510
41531W        W50131   1.392   1.501  37.460 -0.0879 -0.1991  0.0390
41532W        W50132   6.049   3.195   9.276  0.0126 -0.1758 -0.0577
41533W        W50133   0.432   6.567  34.166 -0.1647 -0.0798  0.0010
41534W        W50134  18.187   6.061  41.243  0.1012 -0.2879 -0.4309
41535W        W50135   3.942   4.837   3.137 -0.0703 -0.0043  0.4273
41536W        W50136  21.081   5.241   2.294  0.0505 -0.1666 -0.2339
41537W        W50137  18.768   2.724  36.893  0.0681 -0.0703 -0.4293
41538W        W50138   7.984   3.066  44.894  0.0634 -0.0189 -0.0342
41539W        W50139  19.343   5.205   1.170 -0.1510  0.0318  0.1108
41540W        W50140  15.169   1.069  42.303  0.3021 -0.1832  0.0063
41541W        W50141   0.484   2.600   3.558 -0.2766  0.1232  0.0071
41542W        W50142  20.281   1.166   9.411 -0.0446  0.0135  0.0208
41543W        W50143   6.125   3.813  30.539 -0.1217  0.0450 -0.0062
41544W        W50144  20.818   0.506  17.248  0.2380  0.1603 -0.0165
41545W        W50145  19.497   3.669  13.171 -0.2654  0.1124 -0.1245
41546W        W50146  16.452   4.175   9.945  0.1667  0.1801 -0.0813
41547W        W50147   1.480   2.897   9.109 -0.0522 -0.1289  0.0469
41548W        W50148   4.863   4.282  32.740  0.0234 -0.0294  0.2492
41549W        W50149   6.359   4.700  38.100  0.0657  0.1618 -0.1470
41550W        W50150   4.716   6.241  36.220 -0.2528 -0.3031  0.0058
41551W        W50151   4.321   3.727  42.887 -0.6337  0.0168 -0.2605
41552W        W50152  10.082   3.516   8.775 -0.3007 -0.2339  0.1679
41553W        W50153  16.591   4.265  34.994  0.2604 -0.1939 -0.0021
41554W        W50154  13.092   5.822   9.305  0.0531 -0.3400  0.1646
41555W        W50155  20.836   0.378  33.783  0.2468  0.0423 -0.0085
41556W        W50156   0.097   2.925   9.833 -0.0194 -0.3369 -0.0331
41557W        W50157  15.961   4.315  23.182 -0.0868  0.1638 -0.0034
41558W        W50158  18.931   2.701  34.258  0.1504  0.2895  0.3728
41559W        W50159  10.463   4.791  13.774  0.1227  0.1378  0.1099
41560W        W50160   5.386   0.317   5.732 -0.3051  0.3578 -0.0047
41561W        W50161  13.982   1.598  42.916 -0.3355  0.0790  0.1395
41562W        W50162  13.140   5.928  34.530  0.1714 -0.0662  0.0481
41563W        W50163   8.034   4.123  43.007  0.0133 -0.1459 -0.3966
41564W        W50164  11.703   1.533  39.105 -0.2626  0.0964 -0.5523
41565W        W50165  16.047   2.793  40.961 -0.0304 -0.2536 -0.1036
41566W        W50166   4.454   2.802  42.656  0.0677  0.0031  0.2918
41567W        W50167   7.094   0.722   9.517 -0.1721 -0.0518  0.0079
41568W        W50168  15.626   0.872  32.384 -0.2353  0.1329 -0.0417
41569W        W50169  12.866   2.906  39.814  0.1018 -0.2165 -0.1101
41570W        W50170   3.660   5.892  38.341 -0.2294  0.2524 -0.3507
41571W        W50171  15.331   3.004  36.756  0.2339 -0.2162 -0.1812
41572W        W50172   5.207   3.819  22.158  0.0174  0.1071 -0.2314
41573W        W50173   8.008   0.367   3.256 -0.0046 -0.3545 -0.0415
41574W        W50174  17.751   4.205  30.949 -0.0495 -0.1232 -0.1031
41575W        W50175  15.459   4.098  41.571 -0.4007  0.1932  0.3074
41576W        W50176   7.744   1.009   7.540  0.1497 -0.0341  0.0087
41577W        W50177  11.400   1.910   8.082 -0.0736  0.2424 -0.1628
41578W        W50178   6.497   4.508  39.904 -0.0917 -0.0536 -0.0405
41579W        W50179   0.098   0.675  44.478  0.0369 -0.0079  0.0034
41580W        W50180  17.919   4.223  13.505  0.1189  0.3410 -0.1756
41581W        W50181  17.809   6.249  36.530 -0.2149  0.0908 -0.1696
41582W        W50182   3.823   2.985  43.461 -0.1629 -0.1858  0.1494
41583W        W50183   7.487   5.663  23.279 -0.1518  0.2390 -0.1849
41584W        W50184  16.634   5.575   9.041  0.3702 -0.1599 -0.0182
41585W        W50185   6.806   0.280   3.280 -0.0460  0.2715 -0.0690
41586W        W50186  20.054   1.674  42.351  0.0336 -0.2039  0.0212
41587W        W50187  20.845   4.755  41.960  0.2122 -0.2711  0.0981
41588W        W50188   1.050   2.206  30.115 -0.3563  0.3683 -0.3140
41589W        W50189  11.394   2.787  10.369 -0.4456  0.0495  0.0841
41590W        W50190   3.226   0.977  31.368 -0.0971  0.1523  0.4559
41591W        W50191  10.059   3.494  12.510 -0.0095 -0.2842 -0.3900
41592W        W50192   6.716   5.099  13.527  0.1121  0.0393 -0.1778
41593W        W50193   4.042   3.825  14.390 -0.0721  0.0150 -0.0247
41594W        W50194  15.740   5.177  22.569 -0.1129 -0.3628  0.0745
41595W        W50195   8.546   2.462  17.321 -0.4064  0.1750 -0.3573
41596W        W50196  20.808   0.987   9.731 -0.0114 -0.0247  0.1226
41597W        W50197   3.173   6.595   9.515 -0.0730 -0.0461 -0.0111
41598W        W50198  20.834   1.990  37.243  0.1977 -0.1350 -0.1389
41599W        W50199  14.759   4.840  34.142  0.2171  0.0468  0.0511
41600W        W50200   6.202   5.877  34.498 -0.0303  0.2985 -0.1390
41601W        W50201  18.382   2.811  16.274 -0.0887 -0.1565 -0.1089
41602W        W50202  16.887   6.154  19.969  0.2592  0.2085 -0.1445
41603W        W50203   8.482   2.246  30.951 -0.1575  0.3430  0.1178
41604W        W50204   3.975   5.662  15.272  0.1948 -0.1490 -0.1454
41605W        W50205  16.041   5.766  11.319 -0.2386 -0.1537 -0.2394
41606W        W50206   3.654   3.111  37.514  0.0918  0.1404  0.1652
41607W        W50207  13.180   4.472  16.536 -0.0758 -0.1953  0.1029
41608W        W50208   6.374   6.156   4.100 -0.0635  0.1124 -0.0668
41609W        W50209   1.354   3.981  10.167  0.0460  0.3076  0.1875
41610W        W50210  15.164   1.180  40.423 -0.2748  0.0034  0.1353
41611W        W50211   1.018   3.042  41.287 -0.1388  0.1030  0.0318
41612W        W50212   6.639   5.436   4.312  0.6271 -0.1755 -0.2069
41613W        W50213  15.836   4.471  30.130  0.0160 -0.2800 -0.3806
41614W        W50214   4.004   2.220  24.204  0.1052  0.0595  0.0285
41615W        W50215   5.572   4.617  27.763 -0.5650  0.3530  0.3338
41616W        W50216   3.412   0.775  22.871  0.0031  0.1491  0.2760
41617W        W50217  14.847   5.403  19.790  0.0566 -0.1782 -0.2481
41618W        W50218  18.227   0.681  33.551  0.2497  0.1313  0.0171
41619W        W50219   0.739   3.833  34.034 -0.1401  0.1218  0.0586
41620W        W50220  20.845   1.573  12.494 -0.2685  0.2701 -0.2302
41621W        W50221  18.957   3.614  29.118 -0.0037  0.2324 -0.2046
41622W        W50222  12.144   4.320  34.421 -0.0050  0.3122 -0.3307
41623W        W50223   5.896   4.216  23.724 -0.3211  0.0990  0.0371
41624W        W50224  10.438   0.209   5.608 -0.1034  0.1282 -0.3189
41625W        W50225   8.908   5.356  29.165  0.0112 -0.0140 -0.0607
41626W        W50226   4.441   0.870  31.190  0.0848  0.1930 -0.0365
41627W        W50227  13.004   3.686  13.505 -0.0487 -0.1523 -0.1245
41628W        W50228   5.580   0.541  44.427 -0.0929 -0.0399  0.4772
41629W        W50229   4.714   5.581   6.986  0.0040  0.1257  0.0711
41630W        W50230  11.445   5.852   4.221  0.2931 -0.2993 -0.2143
41631W        W50231  14.845   3.560  37.496 -0.5217  0.0662 -0.1039
41632W        W50232   1.420   6.398  44.904 -0.3670  0.1361  0.0173
41633W        W50233  20.997   1.739  44.171  0.2531 -0.1528  0.0510
41634W        W50234  12.819   1.124   4.140 -0.1280  0.0034  0.1085
41635W        W50235  14.455   2.804  36.994  0.0923  0.0416 -0.0504
41636W        W50236  10.019   6.033  14.830  0.2150 -0.0646 -0.0287
41637W        W50237   5.666   1.102  15.098 -0.1027 -0.0842 -0.1102
41638W        W50238   9.428   5.388  37.119 -0.0373 -0.0813 -0.0745
41639W        W50239  14.465   2.877  19.182  0.0310  0.1746 -0.1479
41640W        W50240  20.094   2.630  37.642 -0.2671 -0.0328  0.0456
41641W        W50241   6.385   6.497  12.958 -0.0121  0.0712  0.1433
41642W        W50242   5.768   2.958   0.280 -0.1662  0.0733  0.1220
41643W        W50243   8.481   2.274   6.171  0.3049  0.2159  0.1610
41644W        W50244   6.656   3.103  34.371 -0.2645  0.1504  0.2639
41645W        W50245   5.298   1.217  28.842 -0.0249  0.1870 -0.0379
41646W        W50246  19.815   5.238  20.681 -0.0977  0.1262 -0.1611
41647W        W50247  19.986   1.805  30.177 -0.0284 -0.2793  0.2832
41648W        W50248   1.147   6.172   3.141 -0.0044  0.1346  0.1268
41649W        W50249   0.363   1.855   7.619  0.0794 -0.1341  0.1844
41650W        W50250   6.214   1.790  11.964  0.0873  0.1837 -0.3858
41651W        W50251  14.239   2.608  33.500  0.1901  0.0618 -0.1761
41652W        W50252   5.188   3.301  20.854  0.3905 -0.0035 -0.0316
41653W        W50253  13.909   3.764  39.176 -0.0713 -0.0492  0.1169
41654W        W50254  14.078   3.489  40.588 -0.2400 -0.1092  0.1121
41655W        W50255   7.762   5.927  33.179 -0.2818  0.1852  0.1507
41656W        W50256  16.127   1.514   9.704 -0.2484  0.2382 -0.0583
41657W        W50257  21.107   4.895  15.439  0.4875 -0.4324  0.0222
41658W        W50258  19.578   2.087  10.055  0.2924 -0.0308  0.1831
41659W        W50259  16.346   5.849  34.566 -0.2827 -0.2043  0.1869
41660W        W50260  15.013   4.290  31.086  0.0913  0.0137 -0.1737
41661W        W50261   3.293   2.269  13.504  0.0508 -0.1665  0.0093
41662W        W50262  21.018   0.322  12.504 -0.2358  0.4516  0.2631
41663W        W50263   8.796   5.715  30.128 -0.0208  0.1386 -0.3132
41664W        W50264   7.652   5.200  15.202 -0.2652  0.0236 -0.2640
41665W        W50265  19.994   3.474   9.030 -0.0211  0.0762  0.2226
41666W        W50266  14.475   2.033  13.962  0.1403  0.3420  0.2500
41667W        W50267   7.427   2.422  39.236 -0.2327 -0.1249  0.0954
41668W        W50268   0.254   4.695  17.981 -0.1925  0.0413  0.0502
41669W        W50269  18.846   1.987  30.188  0.0515 -0.0785  0.0547
41670W        W50270   8.265   0.224  28.344 -0.0997 -0.0102  0.2628
41671W        W50271  16.185   4.080  29.975  0.2217  0.0231  0.0639
41672W        W50272  21.031   4.617  33.201  0.1073  0.1549  0.0272
41673W        W50273   6.448   0.977  41.807 -0.2346  0.3320 -0.1703
41674W        W50274  12.942   1.689  13.056  0.0617 -0.0537  0.0298
41675W        W50275   4.390   3.113  25.788  0.2708  0.0179  0.0218
41676W        W50276  19.172   1.501  11.925  0.0729  0.3045 -0.2314
41677W        W50277  20.867   3.679  13.537  0.0291  0.1004  0.3707
41678W        W50278   0.661   0.286  27.752 -0.1802  0.1252  0.0164
41679W        W50279   3.889   2.970   7.737 -0.0959  0.3945 -0.1332
41680W        W50280  17.558   2.620  31.694  0.2739  0.1060 -0.0579
41681W        W50281  20.468   3.149   2.780 -0.2176 -0.1324 -0.1137
41682W        W50282  18.916   6.382   6.058  0.0096 -0.1299  0.1996
41683W        W50283  15.840   2.180  37.919  0.0840 -0.0519 -0.1277
41684W        W50284   1.864   4.136  15.957 -0.0180 -0.0136  0.0220
41685W        W50285   9.023   1.506  30.710 -0.1676  0.4582  0.1921
41686W        W50286   3.251   3.995  31.176  0.1890  0.0060 -0.1646
41687W        W50287  13.481   1.005  40.615 -0.3261 -0.1056 -0.0345
41688W        W50288  20.919   1.104   9.297  0.0024  0.0597  0.2773
41689W        W50289  15.485   5.979  34.016 -0.0126 -0.0241  0.2960
41690W        W50290   7.850   0.187  24.916  0.0115  0.0045  0.1296
41691W        W50291   9.858   1.580   5.438 -0.0594 -0.1143 -0.2303
41692W        W50292  16.014   4.747  21.315 -0.3552 -0.1664  0.2896
41693W        W50293   5.087   3.750  10.177 -0.2342 -0.0185 -0.0800
41694W        W50294   5.589   0.999  27.127  0.0012  0.2020 -0.1594
41695W        W50295   3.679   5.165  25.718  0.1085  0.0961 -0.1478
41696W        W50296   4.812   3.976  15.474 -0.0243 -0.0326  0.2471
41697W        W50297   8.343   2.058  43.794  0.2177 -0.0459 -0.3353
41698W        W50298   9.737   2.538   3.135 -0.1256  0.3576  0.0572
41699W        W50299   5.442   6.491  29.408 -0.2049  0.1885 -0.1308
41700W        W50300   9.901   3.003   6.172 -0.2463  0.0761  0.2753
41701W        W50301  15.692   1.752  35.307  0.1227 -0.1162 -0.0625
41702W        W50302  12.111   5.348   3.604  0.0971  0.1130  0.2129
41703W        W50303  12.503   2.603  41.946 -0.2750  0.1266 -0.0305
41704W        W50304   0.401   3.433   4.269 -0.4070  0.1562 -0.2197
41705W        W50305   8.484   0.579  11.479  0.0931 -0.0712 -0.0941
41706W        W50306  16.576   1.055  20.583 -0.2226  0.2234  0.1970
41707W        W50307   0.559   4.860  17.643 -0.1300 -0.1230  0.3476
41708W        W50308  17.283   3.557   6.494 -0.2033 -0.0464 -0.0555
41709W        W50309   5.787   2.301  28.164  0.1660  0.1152  0.1820
41710W        W50310   8.466   2.086  40.182  0.0415  0.0670 -0.1666
41711W        W50311  17.179   0.057  42.045  0.1493 -0.3495 -0.1290
41712W        W50312  13.390   4.697  13.324  0.1700  0.2321  0.3211
41713W        W50313  10.247   5.744  17.378 -0.2178 -0.0802 -0.0529
41714W        W50314  15.351   0.311  34.837 -0.2780  0.0137  0.1351
41715W        W50315  12.933   6.171   1.716  0.2579 -0.1658 -0.1945
41716W        W50316   6.747   5.600  40.646 -0.4162  0.1264  0.2689
41717W        W50317   4.038   2.898  43.909  0.0631  0.1049 -0.0149
41718W        W50318   9.215   5.601   2.763 -0.1544 -0.1457  0.1747
41719W        W50319  16.360   3.771  34.315 -0.2653  0.0800 -0.0076
41720W        W50320   8.086   2.488  11.048 -0.1995  0.2886  0.0071
41721W        W50321   5.014   2.883   6.499  0.1430 -0.1890  0.1016
41722W        W50322  20.833   3.192   9.556  0.1522  0.1155  0.0502
41723W        W50323   9.046   2.943  13.769  0.2664  0.0676 -0.2536
41724W        W50324   6.361   2.066  21.825 -0.0372  0.0624 -0.0387
41725W        W50325  15.708   6.596  43.301  0.0144 -0.1868 -0.2819
41726W        W50326   6.528   1.842   6.598  0.0903  0.0326 -0.1270
41727W        W50327   7.647   1.299  40.906  0.1913  0.1474 -0.0732
41728W        W50328  19.395   5.513  28.071 -0.1262 -0.0728  0.3021
41729W        W50329   9.407   1.703  38.654 -0.0291  0.0377  0.0701
41730W        W50330  14.319   1.046  22.487 -0.3604 -0.1580 -0.0439
41731W        W50331  12.619   0.531  39.149  0.0125  0.1224  0.3671
41732W        W50332  15.873   1.862  35.853 -0.2151  0.3812  0.2325
41733W        W50333  10.548   0.411  10.092  0.1127 -0.0284  0.1320
41734W        W50334  16.386   0.617   6.390  0.2574  0.2118 -0.0813
41735W        W50335  12.014   0.658  28.074 -0.1625 -0.0933  0.0779
41736W        W50336  19.444   0.960  42.596  0.1755  0.3706  0.0550
41737W        W50337   4.021   6.155  28.396  0.1525 -0.2801 -0.0421
41738W        W50338   2.349   5.245   1.515  0.0120 -0.0651 -0.1089
41739W        W50339   7.209   1.164  38.860  0.1436 -0.1522  0.0117
41740W        W50340  12.409   6.387  40.969 -0.5326  0.0307  0.0610
41741W        W50341   8.386   2.569  28.184  0.2686 -0.0363 -0.0492
41742W        W50342  11.375   3.995  38.137 -0.1201 -0.3485 -0.0561
41743W        W50343   2.982   2.458  39.707 -0.0713  0.0443 -0.2041
41744W        W50344   1.751   5.443  43.446  0.1034  0.1387  0.0181
41745W        W50345   0.540   2.233  38.259 -0.0316 -0.0680  0.2197
41746W        W50346  10.562   3.221  35.715 -0.0755 -0.4246 -0.0221
41747W        W50347   1.098   1.779  14.131 -0.0473 -0.0635  0.1085
41748W        W50348  10.555   5.546  10.428 -0.1774  0.1479  0.0136
41749W        W50349  15.631   0.175   5.889  0.1346  0.1742 -0.3462
41750W        W50350  16.088   4.262  41.894  0.0757  0.1861  0.3177
41751W        W50351   6.831   0.765   0.907 -0.1523  0.0209  0.0249
41752W        W50352  11.532   2.000  33.891 -0.0033  0.0317 -0.1656
41753W        W50353  19.752   4.420  10.040 -0.0500  0.0566  0.4263
41754W        W50354   3.147   3.272  41.127  0.1588  0.3866 -0.0601
41755W        W50355  14.579   6.287  44.454  0.3952  0.2624 -0.0511
41756W        W50356  16.076   0.575  38.932  0.2845  0.3512  0.0272
41757W        W50357  20.168   2.114  45.046 -0.0243  0.0419 -0.3787
41758W        W50358  13.457   6.267   3.124  0.1012 -0.4153 -0.0012
41759W        W50359  17.961   4.662   4.478  0.0586 -0.1440  0.0838
41760W        W50360   2.144   5.447  11.329  0.0640  0.3012  0.0243
41761W        W50361  20.889   5.138   4.450  0.1224 -0.1182  0.1612
41762W        W50362  14.292   2.942  38.125  0.1638  0.0670 -0.1578
41763W        W50363  11.763   5.980   6.258 -0.2595  0.0538  0.1929
41764W        W50364  10.546   4.903  12.129 -0.2895  0.2449  0.0096
41765W        W50365  19.939   5.800   9.029  0.0926 -0.0325  0.0776
41766W        W50366  17.954   4.943  44.225  0.0164 -0.0788 -0.2713
41767W        W50367   2.239   3.944  38.043  0.0147  0.1834 -0.1907
41768W        W50368   1.939   3.924   2.666  0.0382 -0.1797  0.0937
41769W        W50369   1.107   3.437  31.401 -0.2892 -0.2392  0.1402
41770W        W50370  14.403   3.981  18.463  0.0429 -0.0781  0.0447
41771W        W50371  10.018   3.051   6.659 -0.0974  0.1467  0.2880
41772W        W50372   6.070   4.941  22.939 -0.0533 -0.0144 -0.3380
41773W        W50373  16.409   1.359   3.984  0.2702  0.1409  0.1111
41774W        W50374   0.537   3.571  36.609  0.4039  0.1654  0.2496
41775W        W50375  18.499   6.599  13.418 -0.0423  0.2923 -0.3761
41776W        W50376  15.578   6.002  41.166  0.0972 -0.2215  0.0175
41777W        W50377  16.405   2.116   7.500 -0.1320 -0.0829  0.0509
41778W        W50378  20.007   4.953   2.744 -0.3304 -0.2398 -0.0314
41779W        W50379  19.700   2.730  14.266  0.0464 -0.2962 -0.1399
41780W        W50380   1.135   5.303  12.291  0.0924 -0.2062 -0.2386
41781W        W50381   1.799   0.521  11.571  0.1469  0.1402  0.0272
41782W        W50382   0.297   2.385  29.098  0.1597  0.2257 -0.0735
41783W        W50383   6.547   2.031   3.227 -0.0145  0.2250  0.0553
41784W        W50384  15.446   5.132  10.588  0.0399 -0.1661 -0.1275
41785W        W50385  15.155   0.164  17.819  0.2771 -0.0350  0.0089
41786W        W50386  15.082   3.881  39.791 -0.0780  0.1062  0.2070
41787W        W50387  16.326   1.341  20.944  0.0562  0.0717 -0.0402
41788W        W50388   2.376   1.969   9.039 -0.1402  0.2090 -0.0697
41789W        W50389  14.918   0.755  38.124 -0.1452 -0.1599 -0.0899
41790W        W50390   1.479   2.361  40.936 -0.1420 -0.1873  0.3682
41791W        W50391   5.984   1.233  29.572  0.0105 -0.0334  0.0821
41792W        W50392  10.158   1.374  34.795 -0.0160 -0.0251 -0.0675
41793W        W50393   4.596   3.958   4.742  0.1157 -0.0655  0.0838
41794W        W50394  13.667   4.863  35.542 -0.5130 -0.1366 -0.1666
41795W        W50395  19.085   3.296   9.822  0.0846 -0.1703  0.2270
41796W        W50396  16.620   2.895  13.717  0.1345 -0.1996  0.0727
41797W        W50397  14.992   0.599   0.036 -0.0612  0.0061  0.0169
41798W        W50398  15.562   0.704  15.903 -0.0568 -0.1208 -0.2597
41799W        W50399  11.134   3.377  34.461 -0.0781  0.0759 -0.1690
41800W        W50400  12.608   2.863   6.443 -0.1963  0.0114  0.0063
41801W        W50401  12.146   2.820  44.306  0.0667  0.1389  0.1020
41802W        W50402   4.203   5.475  23.417 -0.0758  0.1439 -0.1023
41803W        W50403   4.569   4.183  11.122 -0.0108  0.0781  0.0226
41804W        W50404  10.562   4.150  40.281  0.0209 -0.2959 -0.0036
41805W        W50405  13.280   3.712   7.427 -0.2500 -0.3315  0.0817
41806W        W50406  13.648   1.193  29.101  0.3272  0.0805  0.1637
41807W        W50407  15.513   3.192  39.486 -0.0153  0.2072 -0.0893
41808W        W50408  11.027   2.881  30.181 -0.3748 -0.1461 -0.0238
41809W        W50409   9.212   0.691  29.317 -0.1799  0.0475 -0.0740
41810W        W50410   5.988   0.020   1.653  0.1041 -0.1182 -0.3178
41811W        W50411  19.280   1.825  35.635 -0.2982 -0.0637  0.0376
41812W        W50412  16.758   0.614  37.522 -0.0277  0.0614  0.3155
41813W        W50413   1.911   1.603  41.663  0.3640  0.1231  0.3751
41814W        W50414   3.322   0.387  12.855 -0.2574 -0.1772 -0.0706
41815W        W50415  15.259   2.734  34.714  0.1028  0.2534  0.0930
41816W        W50416   7.478   1.656   3.148  0.2153  0.3390 -0.3459
41817W        W50417  21.107   6.009  42.606  0.0797  0.0268 -0.2261
41818W        W50418  13.897   3.714  40.137 -0.0497  0.1906 -0.1418
41819W        W50419   1.203   3.322  34.109  0.2583 -0.0125 -0.3403
41820W        W50420  19.230   3.942  16.005 -0.2523 -0.2200 -0.3249
41821W        W50421   7.574   0.480   3.472  0.1823 -0.3860  0.0103
41822W        W50422  19.005   1.229   6.173  0.0737 -0.1586  0.3215
41823W        W50423  13.744   5.988  37.583  0.4013 -0.0937 -0.1709
41824W        W50424  16.648   5.658  12.159  0.5473 -0.2899  0.0114
41825W        W50425   5.131   6.249   6.344 -0.2173 -0.3141 -0.0008
41826W        W50426  15.324   4.593  13.507  0.2425 -0.0881  0.1287
41827W        W50427  11.503   6.488  10.491 -0.0971  0.0406  0.3046
41828W        W50428   5.213   1.481  42.271 -0.2264  0.2525  0.0182
41829W        W50429  17.097   5.425  23.363  0.0674  0.1391 -0.1255
41830W        W50430   6.821   0.955  22.740  0.1183  0.2228  0.0300
41831W        W50431  19.667   2.353  39.653 -0.2200  0.3323  0.0108
41832W        W50432  16.334   1.686   8.761  0.2200  0.1973  0.3169
41833W        W50433  20.078   1.776   4.307  0.2373 -0.1229 -0.2069
41834W        W50434   8.936   3.786  29.221 -0.0532 -0.3291  0.1299
41835W        W50435   8.179   3.556  14.839  0.3554 -0.2980  0.0053
41836W        W50436   2.568   1.654  36.082  0.1391  0.3027  0.3902
41837W        W50437   9.858   0.246  16.382 -0.0553 -0.3403  0.0086
41838W        W50438   1.165   1.424   0.381  0.3156 -0.1192 -0.1455
41839W        W50439   3.381   2.913   8.377  0.0157  0.1112  0.3608
41840W        W50440  13.117   3.248   7.652  0.1363  0.2372 -0.0046
41841W        W50441   9.544   4.333  37.007  0.0606 -0.0103  0.2222
41842W        W50442  16.496   5.489  19.349  0.0706  0.0685  0.0406
41843W        W50443   5.822   2.588   8.408 -0.0686  0.1297 -0.0774
41844W        W50444   0.016   0.943  39.615 -0.1103 -0.1222  0.1145
41845W        W50445   7.228   5.458  32.761  0.1626 -0.2889  0.1651
41846W        W50446  16.899   1.860   7.391 -0.1328 -0.2817  0.3001
41847W        W50447   7.903   5.448  25.150  0.0151 -0.0316  0.3368
41848W        W50448   1.014   3.411   9.461 -0.0791  0.0525  0.0649
41849W        W50449   9.161   2.043  11.216 -0.2698 -0.0393  0.1162
41850W        W50450  18.983   5.174  11.896  0.2643 -0.2927  0.0136
41851W        W50451   9.348   5.649  42.420  0.1921  0.2016  0.1499
41852W        W50452  17.412   5.356  17.974 -0.0583  0.1804 -0.0182
41853W        W50453  14.222   1.278   6.023  0.0224 -0.0177  0.0083
41854W        W50454  16.510   0.762   7.039  0.2959  0.2123  0.1770
41855W        W50455  18.174   1.713  39.513 -0.0171 -0.3706  0.0369
41856W        W50456   6.686   6.441   6.904 -0.0519 -0.4412 -0.0701
41857W        W50457   5.843   2.058  10.833 -0.2979 -0.0416 -0.0087
41858W        W50458  17.916   2.022   7.653 -0.1688 -0.0928 -0.2040
41859W        W50459   5.274   4.645  40.153  0.1668  0.1766  0.1170
41860W        W50460   1.460   3.678  30.176  0.1706 -0.2600  0.1603
41861W        W50461  19.589   3.775  44.469 -0.1056 -0.1153 -0.2991
41862W        W50462   0.217   4.182  35.411 -0.0537 -0.1386  0.0004
41863W        W50463  14.829   4.057  44.835  0.0539  0.2992  0.3107
41864W        W50464  15.418   4.521  36.145 -0.2692 -0.1613  0.0072
41865W        W50465  17.705   2.088   9.305 -0.3077  0.2302  0.2009
41866W        W50466   0.750   5.666  33.471  0.2193 -0.1687 -0.3115
41867W        W50467   3.541   3.318   8.152 -0.1551  0.1839  0.1729
41868W        W50468  13.577   5.958  38.062  0.2383  0.0701 -0.0682
41869W        W50469   2.711   1.489  14.432  0.0176  0.0159  0.3537
41870W        W50470  15.913   2.254  42.403  0.1354  0.1461 -0.2074
41871W        W50471  19.139   3.766  11.774  0.0338 -0.0546  0.1582
41872W        W50472  15.806   0.859  38.631  0.2975 -0.1959  0.0839
41873W        W50473   9.256   6.387   1.998  0.0527  0.0782 -0.0080
41874W        W50474   7.587   1.951  36.513 -0.2552 -0.0384  0.2034
41875W        W50475  13.756   3.810  30.002 -0.3061 -0.2728  0.1029
41876W        W50476   8.925   6.179  43.596  0.0139 -0.0876 -0.1060
41877W        W50477   4.136   3.123  14.455  0.2441 -0.0373  0.3595
41878W        W50478   3.051   1.291   5.475  0.0888 -0.2305 -0.0810
41879W        W50479  14.328   1.790  33.298  0.1721  0.2132 -0.2041
41880W        W50480   2.853   6.161  30.066  0.0213 -0.1406 -0.0422
41881W        W50481  13.469   5.678   6.705  0.0290  0.0652 -0.2194
41882W        W50482  15.081   6.431  38.121  0.0947  0.1627  0.3502
41883W        W50483   9.969   0.934  31.208 -0.3297 -0.3260 -0.0509
41884W        W50484  20.485   0.445  11.325  0.0717 -0.1308 -0.5576
41885W        W50485  17.755   0.173  30.769  0.3496 -0.0956  0.2128
41886W        W50486  14.536   1.471  22.225 -0.1641  0.0883 -0.2230
41887W        W50487   5.360   5.805  34.107 -0.1753  0.0100 -0.1226
41888W        W50488  13.958   0.721  18.465  0.0105 -0.4193 -0.0370
41889W        W50489   9.706   0.210   2.854 -0.0640 -0.0874 -0.0561
41890W        W50490   7.712   0.958  44.536  0.1108 -0.3051  0.0944
41891W        W50491   9.174   5.785  26.374 -0.0234  0.1170  0.0246
41892W        W50492  21.087   1.989   2.997  0.0551 -0.0112 -0.0300
41893W        W50493  18.951   0.402  16.523  0.2159 -0.0649 -0.1694
41894W        W50494  16.879   6.254  18.021 -0.4198 -0.2956  0.0492
41895W        W50495   5.102   3.832   0.322 -0.0620  0.0914 -0.1714
41896W        W50496  15.864   5.247   2.406  0.0384 -0.0468  0.0334
41897W        W50497  19.400   5.310   4.610 -0.1278  0.2206 -0.1070
41898W        W50498  10.418   4.897   3.852 -0.1849 -0.1206 -0.4807
41899W        W50499   4.904   1.258   2.920 -0.3436 -0.2881 -0.1168
41900W        W50500   8.986   0.932  44.807 -0.1826  0.1292 -0.1033
41901W        W50501  14.185   3.701  37.037  0.1656 -0.1920 -0.0664
41902W        W50502   1.479   5.566  42.551  0.2801 -0.0778 -0.0077
41903W        W50503  17.383   3.157  14.077 -0.0124 -0.1525  0.2503
41904W        W50504   4.488   3.294  44.053  0.1854  0.0995 -0.0663
41905W        W50505  17.625   1.834   7.087 -0.1349  0.0117 -0.0415
41906W        W50506  19.486   1.075  17.291 -0.1113  0.0671 -0.0494
41907W        W50507  20.678   5.653  39.734  0.1040  0.0985 -0.0801
41908W        W50508  11.445   1.909   0.541  0.2672 -0.1874 -0.1947
41909W        W50509   0.766   0.284  35.050 -0.1793  0.0048 -0.1070
41910W        W50510  18.788   6.300  30.072 -0.0419 -0.1707 -0.1725
41911W        W50511  17.473   4.877  38.121 -0.0620  0.1532 -0.2177
41912W        W50512  16.365   6.298  43.447  0.0658  0.0614  0.3760
41913W        W50513   0.854   3.956   6.622  0.0565 -0.0112 -0.0704
41914W        W50514   8.057   5.054  43.788  0.3384  0.2384 -0.0934
41915W        W50515  15.222   0.375  24.292  0.0242 -0.1105 -0.3081
41916W        W50516   7.721   4.718  32.031  0.0303 -0.1349 -0.1917
41917W        W50517  20.989   5.552  35.732 -0.1647  0.0349 -0.1221
41918W        W50518  16.126   6.587  37.616  0.3078  0.0802 -0.0856
41919W        W50519  20.262   0.805  16.601  0.2423 -0.3286  0.2103
41920W        W50520  16.716   2.550   0.298 -0.0731  0.2857 -0.1896
41921W        W50521  15.931   4.451  29.640  0.2398 -0.2807  0.1735
41922W        W50522  19.318   5.603   0.761 -0.3169 -0.0363  0.0844
41923W        W50523   4.667   3.335  35.154  0.1214  0.2525  0.2078
41924W        W50524   4.378   1.191  23.556  0.0623  0.0579 -0.0234
41925W        W50525   8.310   5.654  10.241 -0.0202  0.1467  0.1175
41926W        W50526   8.945   1.411  40.167  0.0598 -0.1930 -0.0441
41927W        W50527   5.507   2.386  10.886 -0.1609 -0.0840 -0.0468
41928W        W50528   2.209   3.202   9.497  0.2015  0.1353 -0.1989
41929W        W50529   2.831   0.253  43.019 -0.1487 -0.0146  0.1164
41930W        W50530   2.559   5.712  29.243 -0.1053  0.0418 -0.1913
41931W        W50531  20.907   0.871  32.626  0.2866 -0.1942  0.0815
41932W        W50532   2.797   4.576  28.785 -0.1017 -0.1207 -0.3188
41933W        W50533   7.706   3.056  15.491  0.0503 -0.1126 -0.4031
41934W        W50534  12.317   6.597  36.375 -0.0397 -0.0125  0.0254
41935W        W50535   0.084   1.740   5.910  0.2512  0.0971 -0.1104
41936W        W50536  21.093   1.191  29.591 -0.1609 -0.3493  0.0135
41937W        W50537   9.004   3.559  24.677  0.0754 -0.0616 -0.2727
41938W        W50538   3.581   2.505  33.684 -0.1061 -0.1353 -0.3430
41939W        W50539  10.690   5.758  34.475  0.0203 -0.1708  0.0162
41940W        W50540   9.735   1.095   0.204 -0.0035 -0.1972 -0.1510
41941W        W50541  17.056   6.117  38.842 -0.0653  0.2952 -0.0593
41942W        W50542   6.575   4.889  25.442  0.0902 -0.1454  0.1992
41943W        W50543   0.108   0.862  42.250  0.3775 -0.3241  0.1652
41944W        W50544  16.267   5.740  36.210  0.0238 -0.1087  0.0535
41945W        W50545   0.566   2.214   1.154 -0.0495  0.2519  0.3901
41946W        W50546   1.782   2.928   5.792 -0.1783  0.5211  0.0641
41947W        W50547   6.715   6.526   2.329  0.3583  0.2434  0.0072
41948W        W50548   4.963   0.835  44.636 -0.1538  0.0572 -0.4533
41949W        W50549   4.061   0.873   1.558  0.0066  0.1777 -0.3648
41950W        W50550   0.935   3.754   4.494 -0.0538 -0.2704  0.0210
41951W        W50551  11.048   4.558  31.571  0.1732 -0.0780  0.2414
41952W        W50552  18.539   4.120  37.180  0.1149  0.1596  0.2013
41953W        W50553   1.277   2.488   5.739 -0.0348 -0.3148  0.0333
41954W        W50554  14.888   6.403  37.163 -0.2494  0.0884  0.3420
41955W        W50555  20.961   2.528  42.034  0.2502  0.0854 -0.1296
41956W        W50556  20.641   1.050   4.135  0.0632  0.0215 -0.3416
41957W        W50557  13.862   1.437  42.348  0.1242 -0.0749 -0.2514
41958W        W50558  20.490   4.551  44.193 -0.0731 -0.0467 -0.1813
41959W        W50559  14.735   1.701   1.481  0.0526 -0.0149 -0.0069
41960W        W50560  11.951   0.654   0.805 -0.0021  0.2726 -0.1029
41961W        W50561  18.660   5.285  10.226 -0.0981  0.3399 -0.0888
41962W        W50562   8.881   6.591  11.359 -0.1707 -0.1597 -0.0347
41963W        W50563   9.383   0.322   3.240  0.0005  0.2789 -0.0341
41964W        W50564   8.896   0.595   0.734 -0.1782 -0.0536  0.0208
41965W        W50565   3.052   1.103  31.974 -0.1582 -0.0637 -0.2808
41966W        W50566   5.433   6.195  22.623 -0.0317 -0.0636  0.2024
41967W        W50567  12.912   1.674  13.599 -0.2664 -0.0585 -0.1857
41968W        W50568  15.236   4.164  44.501  0.0291 -0.0397  0.0192
41969W        W50569   3.345   6.351  39.721  0.3291  0.1123 -0.2567
41970W        W50570   8.352   5.331  29.166  0.1678 -0.0560  0.4461
41971W        W50571  18.148   4.792  18.159 -0.1745 -0.2825  0.1979
41972W        W50572  16.648   4.768  11.639 -0.0319 -0.3263  0.4178
41973W        W50573   4.679   0.066  35.418  0.0816  0.1921  0.0701
41974W        W50574  18.853   2.011   7.373  0.1559  0.0856  0.2406
41975W        W50575  16.520   1.445  37.008  0.0769  0.1151 -0.0310
41976W        W50576  16.340   1.383  10.134  0.0449  0.0594  0.0928
41977W        W50577   5.440   3.803  40.424  0.0243 -0.0540  0.1059
41978W        W50578   7.953   2.720   9.195 -0.1881  0.1224  0.2470
41979W        W50579  12.561   5.979  19.119  0.0070  0.0450 -0.2515
41980W        W50580  12.411   2.966  12.249  0.0097  0.1682 -0.1611
41981W        W50581  19.389   0.547  10.171 -0.2174  0.3167  0.2770
41982W        W50582  14.118   2.837  43.635 -0.3928  0.1325 -0.1466
41983W        W50583   3.036   3.907  15.294 -0.0266  0.2967  0.0245
41984W        W50584  16.047   2.708  30.792 -0.1902  0.0293 -0.0046
41985W        W50585  13.289   2.568  28.407 -0.1936 -0.2638 -0.2558
41986W        W50586   2.987   3.454  44.961 -0.2031 -0.1086 -0.6264
41987W        W50587  16.942   1.399   1.057  0.1476  0.0369 -0.0382
41988W        W50588   5.734   2.328   7.863 -0.1177  0.3438  0.0325
41989W        W50589  13.396   0.748  27.792  0.1612  0.0958  0.0348
41990W        W50590  11.614   0.200   4.346  0.0194 -0.2002 -0.1008
41991W        W50591  20.346   1.207   7.949  0.0873 -0.2622  0.0304
41992W        W50592  20.036   4.657  44.446 -0.0376 -0.0978 -0.3427
41993W        W50593  13.679   0.147   1.738 -0.0215  0.3064 -0.2297
41994W        W50594  19.211   4.743   5.104  0.0126  0.0013 -0.0477
41995W        W50595   7.539   4.882  33.848 -0.1378  0.0272 -0.1784
41996W        W50596  17.745   2.613  13.100 -0.1571 -0.2195 -0.0965
41997W        W50597  12.127   1.471   5.495  0.1338 -0.2331 -0.1988
41998W        W50598   9.906   2.881  29.161 -0.2027 -0.0983  0.1935
41999W        W50599   5.422   2.003  23.245 -0.1471  0.1533 -0.0675
42000W        W50600  18.915   4.480  11.148  0.0034  0.1200 -0.1688
42001W        W50601   8.899   4.692  41.683  0.2513  0.2547  0.0970
42002W        W50602  10.300   5.831   1.512  0.1205  0.4712  0.0609
42003W        W50603  20.528   4.073  36.609  0.1469 -0.0234  0.1885
42004W        W50604   8.404   5.770   1.039  0.2297  0.2776  0.3707
42005W        W50605   2.376   0.079  26.860 -0.0916 -0.0160  0.4305
42006W        W50606   4.760   0.965  34.330 -0.0138 -0.1170  0.2374
42007W        W50607   1.701   2.939  38.847  0.2503  0.1203 -0.0991
42008W        W50608   9.058   5.718  36.343 -0.0341  0.1362  0.0158
42009W        W50609  17.884   1.406  36.493  0.0375  0.1986  0.2764
42010W        W50610   5.859   4.383  44.744 -0.0430 -0.1844 -0.0255
42011W        W50611  19.115   1.659  41.993 -0.0193 -0.0392 -0.1136
42012W        W50612   0.092   3.672  30.666  0.0259 -0.0642  0.2842
42013W        W50613   3.699   0.641   0.874 -0.1352  0.0873 -0.1374
42014W        W50614   9.166   5.714  42.937 -0.1282 -0.0123  0.0724
42015W        W50615   8.353   6.025  12.563  0.2255  0.1146  0.1068
42016W        W50616  14.737   3.152  35.773  0.1070  0.0752  0.2040
42017W        W50617  20.697   6.548  39.795  0.0553  0.2031  0.1595
42018W        W50618   0.540   3.532   9.197 -0.1891 -0.0712 -0.1438
42019W        W50619  12.709   3.584   5.773 -0.3025  0.0846 -0.1825
42020W        W50620  20.327   4.130   5.613 -0.0770 -0.1336 -0.2444
42021W        W50621   2.240   0.595  12.640 -0.1383 -0.0399  0.0557
42022W        W50622   0.340   0.375   5.069  0.0906 -0.2572 -0.1277
42023W        W50623  20.587   5.381  34.205 -0.0284  0.2217 -0.4395
42024W        W50624   3.172   1.264  10.483  0.3394  0.0426 -0.0506
42025W        W50625   6.258   3.364   3.772  0.2818 -0.0301 -0.0654
42026W        W50626   2.866   5.499  37.415 -0.0734  0.0539 -0.1552
42027W        W50627  12.057   3.810  13.602  0.0111  0.0433 -0.0169
42028W        W50628   4.740   1.090   6.232 -0.2685 -0.1112  0.1464
42029W        W50629  10.853   4.970   2.501 -0.2690 -0.2676 -0.1824
42030W        W50630  15.035   6.064  23.248 -0.0040  0.0033  0.1073
42031W        W50631  17.130   3.751  21.346 -0.4309  0.1463  0.2326
42032W        W50632   4.260   3.874  33.383  0.0039  0.2857  0.0856
42033W        W50633   0.086   2.817  16.439 -0.3765  0.4603 -0.3397
42034W        W50634  20.831   3.105   7.921  0.0796  0.3412  0.1454
42035W        W50635   5.268   1.498  42.875  0.1055  0.1269 -0.2682
42036W        W50636  16.068   4.068  36.118  0.1665 -0.1965 -0.0198
42037W        W50637   9.832   3.103  36.087  0.1696 -0.2023  0.0267
42038W        W50638   4.973   1.048  21.116 -0.0535 -0.4063 -0.0520
42039W        W50639   5.092   5.307  36.113 -0.1885  0.0472 -0.1068
42040W        W50640  11.854   4.488  34.062 -0.0979 -0.1315  0.1556
42041W        W50641   9.922   6.258  42.615 -0.2070 -0.1852 -0.0259
42042W        W50642  17.043   0.334  40.844 -0.1202  0.0654 -0.1173
42043W        W50643  12.841   4.535  40.891 -0.3388 -0.1366  0.1222
42044W        W50644   3.887   2.605  29.506 -0.0659  0.3565  0.0160
42045W        W50645   7.302   1.764   8.357 -0.1526 -0.1913  0.0205
42046W        W50646  16.549   2.111  33.263 -0.0928  0.0659  0.3540
42047W        W50647  14.816   4.210  20.028 -0.0654 -0.1502 -0.1172
42048W        W50648  19.467   2.238  31.269  0.3240 -0.2369 -0.0710
42049W        W50649  14.302   3.525   0.345  0.1294  0.1191 -0.1000
42050W        W50650  12.726   5.147  33.887 -0.1162  0.1838 -0.1668
42051W        W50651  12.308   0.128  41.384  0.1828  0.0344  0.1740
42052W        W50652  20.545   0.721   3.248 -0.1288 -0.2149 -0.0042
42053W        W50653   6.668   2.397  21.015 -0.2074  0.0961  0.2134
42054W        W50654   9.483   3.195   1.591 -0.0850  0.1066 -0.1102
42055W        W50655   2.827   5.568  31.931  0.2202  0.2501  0.0116
42056W        W50656  18.165   0.422  19.006 -0.0184 -0.1586 -0.2326
42057W        W50657  10.221   2.859  14.909 -0.0315  0.1523  0.2990
42058W        W50658  15.739   0.268  15.793  0.1963  0.1967  0.0239
42059W        W50659   1.800   4.079  12.205 -0.1545  0.2118 -0.3801
42060W        W50660   7.344   4.874  21.901  0.0217 -0.0707  0.0365
42061W        W50661  11.064   3.092  42.088  0.0038 -0.1471  0.1073
42062W        W50662   3.559   3.638  11.811 -0.1675  0.4431 -0.0263
42063W        W50663  16.122   4.928  42.593  0.0369 -0.0664 -0.0216
42064W        W50664  19.198   1.811  14.823  0.0003 -0.0233 -0.0871
42065W        W50665   3.238   3.399  12.477  0.0905 -0.0456 -0.3742
42066W        W50666  15.239   3.494  23.429  0.1176  0.2074 -0.2773
42067W        W50667  20.800   4.844   2.270  0.0496  0.0297  0.1524
42068W        W50668   3.648   2.025  38.424  0.1295  0.2004  0.2682
42069W        W50669  20.482   4.161  20.162  0.2207  0.0226  0.1054
42070W        W50670   4.111   1.633  12.847 -0.0505  0.4046  0.1723
42071W        W50671  19.360   5.528  13.304 -0.1888  0.1793  0.0232
42072W        W50672   7.880   3.726  42.705 -0.0239  0.0352 -0.2256
42073W        W50673   3.682   3.528  11.339  0.0678  0.1660  0.2424
42074W        W50674  14.101   6.068  31.013 -0.0289  0.2794  0.2459
42075W        W50675  13.316   5.843  44.839  0.2174  0.1294  0.2233
42076W        W50676   3.847   5.151   0.825  0.2454 -0.4347  0.2241
42077W        W50677  18.467   2.247   0.671 -0.0530  0.0803 -0.1257
42078W        W50678   8.586   4.739   1.502 -0.1435  0.1750 -0.2455
42079W        W50679  13.724   5.577  33.414  0.1470  0.2860 -0.3840
42080W        W50680   8.527   2.411  31.446  0.2159 -0.0565 -0.2322
42081W        W50681   8.015   4.100  13.255 -0.1311 -0.2246 -0.1500
42082W        W50682  17.742   2.049   6.664 -0.0704  0.1330  0.1822
42083W        W50683   1.974   1.512   7.206  0.0445 -0.0858  0.0030
42084W        W50684   8.980   1.669  32.481  0.1453  0.1481 -0.0028
42085W        W50685  13.649   1.165   4.205  0.0939 -0.3100  0.0834
42086W        W50686   5.045   2.741   7.370  0.2799  0.0805  0.0719
42087W        W50687  10.211   3.565  39.916  0.0100 -0.2547 -0.2365
42088W        W50688   3.547   5.240  29.535 -0.0596  0.2098 -0.0805
42089W        W50689   3.460   2.568   4.754 -0.0508 -0.1924  0.1236
42090W        W50690   1.711   3.217  30.259  0.0724  0.0283 -0.1377
42091W        W50691  19.364   4.463  16.035 -0.1861 -0.0957 -0.0120
42092W        W50692   2.622   5.962   4.461 -0.0125 -0.0238  0.1946
42093W        W50693   5.323   5.342   3.082 -0.1842 -0.1869 -0.1823
42094W        W50694   7.194   1.620  23.504  0.0989 -0.1086  0.0889
42095W        W50695   5.131   0.883  22.461  0.0055  0.1543 -0.0265
42096W        W50696  17.536   6.317  10.289 -0.1804  0.0153  0.0435
42097W        W50697   8.454   3.873   8.221 -0.3290 -0.0583  0.0165
42098W        W50698  15.987   0.110   0.087  0.1408 -0.0383 -0.1751
42099W        W50699  16.273   1.252  19.507 -0.0975 -0.2042  0.2238
42100W        W50700   1.867   2.268   0.476 -0.5333 -0.1335 -0.0798
42101W        W50701  17.548   0.037  17.355 -0.1053  0.2110  0.3629
42102W        W50702   0.587   1.088  34.541 -0.0569  0.0002 -0.0072
42103W        W50703   5.876   5.405  13.981  0.1269  0.0790 -0.0809
42104W        W50704  20.832   1.133   6.719 -0.2783  0.0140  0.0409
42105W        W50705   5.379   2.700   7.813 -0.0877  0.0830 -0.0674
42106W        W50706  14.258   0.754  14.311 -0.0442  0.0801 -0.1400
42107W        W50707   5.680   4.864   1.447  0.1601  0.0952  0.2585
42108W        W50708   7.457   2.373  27.236  0.2522 -0.0094 -0.0464
42109W        W50709  17.920   2.957   0.076  0.2031  0.0501  0.2121
42110W        W50710   4.863   5.479  12.716 -0.2574  0.0521 -0.0506
42111W        W50711   0.424   0.431  16.265  0.3310  0.1980 -0.2091
42112W        W50712  10.501   5.275  14.061  0.1976 -0.0208  0.1194
42113W        W50713   2.013   5.919  14.133 -0.0725  0.3119 -0.1100
42114W        W50714   7.177   5.652  41.959  0.1196 -0.0845 -0.0422
42115W        W50715  13.750   4.284   6.537 -0.0305  0.3580  0.3340
42116W        W50716   7.795   0.512  41.621  0.3051 -0.1213 -0.1723
42117W        W50717   9.655   1.322  43.997  0.1260  0.3223  0.0254
42118W        W50718  11.203   4.499  33.459  0.0555 -0.0077  0.0813
42119W        W50719  14.723   4.325  36.590 -0.0505  0.1511  0.0352
42120W        W50720   2.473   1.576  28.750  0.1076 -0.2465 -0.1837
42121W        W50721   2.915   1.980  11.668  0.0112  0.0194 -0.0164
42122W        W50722  16.651   1.238   4.543 -0.3060 -0.0425  0.0691
42123W        W50723  14.808   0.103  38.990  0.2749 -0.0063 -0.2945
42124W        W50724  20.683   5.303  30.510  0.3181 -0.0432  0.3881
42125W        W50725   0.799   1.758   8.847 -0.2367  0.0367 -0.0556
42126W        W50726  15.646   5.340  30.440  0.2605 -0.1526  0.1497
42127W        W50727  18.623   5.483  40.683  0.0954  0.1871 -0.0037
42128W        W50728   9.105   0.905  28.523  0.0869  0.0644 -0.0318
42129W        W50729   7.334   1.469  36.425 -0.2865 -0.1970 -0.1450
42130W        W50730   0.337   4.956  10.878  0.1346  0.1486 -0.1358
42131W        W50731  13.595   1.663  41.949 -0.0401 -0.1529 -0.1597
42132W        W50732  16.745   0.873   9.347  0.2249 -0.0336  0.2892
42133W        W50733  12.022   6.337   9.024  0.0577  0.3602  0.0391
42134W        W50734  10.551   3.663  37.345  0.0414 -0.1381 -0.0087
42135W        W50735  19.112   1.180  40.348  0.0850  0.2302  0.1637
42136W        W50736   5.684   0.456  10.564 -0.4572  0.2579 -0.1857
42137W        W50737  18.534   4.697   8.013  0.1531  0.0743 -0.1672
42138W        W50738   2.524   2.406  28.727  0.0396  0.3636 -0.0455
42139W        W50739   4.890   5.067  40.356 -0.0031  0.3548 -0.0678
42140W        W50740   5.707   6.157  31.014  0.3027 -0.1695 -0.0119
42141W        W50741   7.227   5.528  11.696  0.0040  0.5126  0.1266
42142W        W50742   8.686   6.589  42.604 -0.2912 -0.0750  0.0770
42143W        W50743   4.748   2.073   4.401  0.0319 -0.0110 -0.3141
42144W        W50744   6.465   5.914  35.931 -0.3139  0.0848  0.0584
42145W        W50745  17.127   4.504   6.197 -0.0849 -0.0960  0.2143
42146W        W50746  14.583   0.361  35.425 -0.1342 -0.0882 -0.2331
42147W        W50747   7.121   5.583  33.264  0.3036  0.0422  0.1609
42148W        W50748  18.708   5.879  40.354  0.0241 -0.2024 -0.1655
42149W        W50749  12.689   0.412  11.419  0.1283 -0.1819 -0.2258
42150W        W50750   3.277   6.156  39.270  0.0969  0.1955  0.2514
42151W        W50751  19.411   4.892  20.675 -0.0941 -0.1654  0.0227
42152W        W50752   2.038   1.702   2.302  0.1033 -0.0573  0.0514
42153W        W50753  20.545   0.091  28.172 -0.0499  0.0273  0.0223
42154W        W50754  10.541   3.146   9.202  0.0456  0.0349 -0.1274
42155W        W50755  18.410   1.614   6.892  0.2678 -0.2541  0.0485
42156W        W50756  10.394   3.714  39.473  0.0884  0.0568 -0.0048
42157W        W50757   7.238   6.572  27.996 -0.3525  0.0810  0.0482
42158W        W50758  12.197   6.406  15.512  0.5983 -0.2568 -0.0042
42159W        W50759   7.133   1.237   0.978 -0.1501  0.1220  0.1747
42160W        W50760   2.955   3.683  14.294 -0.1489 -0.1497  0.0082
42161W        W50761  20.831   2.505   8.945  0.1408 -0.0628  0.1167
42162W        W50762  16.135   4.646  33.952  0.0837  0.1314  0.0839
42163W        W50763   2.742   3.744  15.666 -0.0686 -0.1934  0.0805
42164W        W50764  15.990   5.483  38.945 -0.0931 -0.1167  0.0508
42165W        W50765   6.671   3.120   4.285  0.2596  0.4059 -0.1010
42166W        W50766  16.811   2.611  24.052 -0.0144  0.0898  0.2243
42167W        W50767   0.882   3.820  12.416 -0.0711  0.1376  0.0964
42168W        W50768  12.378   4.919  36.930  0.1334 -0.0817  0.0161
42169W        W50769   5.509   2.354   3.911  0.0539  0.0644 -0.2839
42170W        W50770   9.455   3.659  29.267  0.0864  0.0993 -0.0352
42171W        W50771   4.542   2.192  40.693  0.0174 -0.0260  0.2153
42172W        W50772  19.327   4.573  29.607  0.0935  0.0119  0.1859
42173W        W50773   5.864   6.072  36.738 -0.1895  0.0301  0.1815
42174W        W50774   5.200   6.332  41.154  0.1623 -0.2329 -0.0192
42175W        W50775   8.722   1.597  12.744  0.0007  0.1659 -0.1575
42176W        W50776  10.105   2.796  13.868  0.2605  0.4615 -0.3098
42177W        W50777  10.457   5.506  14.513 -0.0230  0.3015 -0.0089
42178W        W50778   2.093   3.319  13.354  0.0133 -0.1096 -0.2562
42179W        W50779   9.313   5.513  30.972 -0.2240  0.3930 -0.2704
42180W        W50780  10.220   0.406  16.693  0.1010 -0.0906 -0.0566
42181W        W50781   2.663   1.646  33.279  0.2626 -0.1731 -0.2023
42182W        W50782   7.867   6.294  13.981  0.0215  0.0388 -0.0685
42183W        W50783  15.477   0.852  15.423 -0.1926  0.0675 -0.1544
42184W        W50784  14.174   0.911   8.124 -0.3969  0.2087 -0.4289
42185W        W50785  11.608   4.015   8.439  0.2339  0.0935 -0.1538
42186W        W50786   6.485   2.455  36.965 -0.0868 -0.2701 -0.0003
42187W        W50787   9.041   2.386   6.768 -0.1801 -0.1872  0.4920
42188W        W50788  19.179   6.289  37.675  0.1014  0.0011 -0.1725
42189W        W50789  20.535   1.080  41.232 -0.3068  0.1051 -0.0606
42190W        W50790  18.296   5.351  22.684  0.1287  0.1875  0.2367
42191W        W50791  17.968   1.717  20.202 -0.1521  0.2386  0.0208
42192W        W50792   6.342   1.138  43.097 -0.2642  0.0221  0.1376
42193W        W50793  12.516   0.741  37.471 -0.2153  0.1109  0.0304
42194W        W50794   1.409   2.962  29.003  0.1179 -0.1114  0.0695
42195W        W50795  15.572   4.327  16.901  0.0279  0.2261 -0.1550
42196W        W50796  12.583   1.947  14.383 -0.1331 -0.0982 -0.1016
42197W        W50797   2.252   3.464  24.957 -0.0946  0.1039 -0.1057
42198W        W50798  15.916   5.139  39.777  0.2176 -0.1212 -0.2430
42199W        W50799   3.361   5.941  29.247 -0.1924 -0.5008 -0.1534
42200W        W50800  13.701   3.123   0.394  0.1761  0.1343  0.2614
42201W        W50801   0.790   0.608  34.509  0.3257 -0.3233  0.2179
42202W        W50802  18.874   4.632  15.460 -0.1412 -0.0333 -0.0322
42203W        W50803   6.621   0.967   4.135  0.2343  0.1627  0.0631
42204W        W50804  14.047   2.168  34.274  0.0072 -0.0656 -0.1901
42205W        W50805   3.704   5.886  39.205 -0.1189 -0.0610  0.1154
42206W        W50806  14.462   2.392  18.274 -0.4827 -0.2094  0.1156
42207W        W50807  15.127   3.344  20.311 -0.0621  0.1712 -0.0074
42208W        W50808  17.019   4.072  42.525  0.2083  0.2856  0.1500
42209W        W50809   2.997   0.727  44.346  0.1160  0.0772 -0.2447
42210W        W50810   1.731   3.336   2.130  0.2201 -0.0021 -0.0983
42211W        W50811   2.826   5.000   2.691  0.0509 -0.0458 -0.0240
42212W        W50812  17.502   3.772  38.632 -0.0976 -0.0899 -0.0760
42213W        W50813  13.621   3.950  42.369 -0.0075  0.0495 -0.2184
42214W        W50814   1.029   2.567  26.868  0.0861 -0.1977 -0.2862
42215W        W50815   8.363   4.664   3.275  0.0722  0.0167  0.0297
42216W        W50816  16.854   0.180   0.392  0.2155 -0.0561 -0.2717
42217W        W50817   6.445   6.512   8.653  0.0042 -0.1466 -0.2108
42218W        W50818   1.578   5.340  25.141 -0.0096 -0.2797  0.0326
42219W        W50819  16.913   1.238  20.930 -0.0541 -0.2668 -0.0547
42220W        W50820   0.124   5.249  30.219 -0.0532 -0.0635 -0.1803
42221W        W50821   7.639   0.466  34.277 -0.0784  0.0627  0.0242
42222W        W50822   7.686   3.638  34.277  0.0547  0.1399  0.0557
42223W        W50823   9.455   5.533  38.841 -0.0613 -0.1399 -0.2195
42224W        W50824   9.467   4.720  40.861 -0.0566  0.0325  0.2385
42225W        W50825   9.673   1.815   2.023 -0.1124 -0.2917 -0.0623
42226W        W50826  11.998   2.105  13.155  0.2229  0.0587  0.2883
42227W        W50827  14.995   2.363  13.594 -0.0456  0.1277 -0.3560
42228W        W50828  17.762   0.625   0.355  0.2451  0.1741 -0.2698
42229W        W50829   3.700   1.085  44.324  0.2167 -0.0639  0.1190
42230W        W50830   6.205   3.314  23.531 -0.2030 -0.0531 -0.2798
42231W        W50831   0.879   1.951  16.613 -0.1396 -0.1740 -0.1106
42232W        W50832  13.951   4.531  41.293 -0.0235  0.1230  0.0021
42233W        W50833  19.903   0.259  31.908  0.3477  0.1732 -0.1266
42234W        W50834   8.473   6.546  23.756  0.0834  0.0857 -0.2099
42235W        W50835  19.251   3.007  41.690 -0.3945 -0.0908 -0.1659
42236W        W50836   4.836   5.469   4.977  0.1427 -0.3570 -0.0506
42237W        W50837  20.908   3.848  42.382 -0.0236 -0.0938 -0.3593
42238W        W50838   4.383   2.121  32.088 -0.3073 -0.1961  0.0837
42239W        W50839  16.105   2.635  12.606 -0.0630  0.2548 -0.5059
42240W        W50840   5.641   6.511   7.756 -0.0628  0.2399  0.3159
42241W        W50841   3.726   1.770  38.005 -0.0033  0.2322  0.0151
42242W        W50842  15.169   4.734  37.177  0.3968 -0.3083 -0.1748
42243W        W50843   9.991   2.737  41.806 -0.2713 -0.2116 -0.3112
42244W        W50844   8.112   5.400  26.064 -0.1350  0.0979  0.3245
42245W        W50845   3.698   2.315  15.862 -0.1530 -0.2146  0.2177
42246W        W50846   5.462   2.709  40.592 -0.1214  0.0101 -0.2431
42247W        W50847  18.357   3.007  40.799 -0.2957 -0.1179  0.2595
42248W        W50848   2.165   5.833  30.534  0.0309 -0.0122  0.2232
42249W        W50849  13.129   4.195  18.852 -0.2768  0.0609 -0.3916
42250W        W50850   9.456   0.242   5.692 -0.0584  0.0487 -0.0948
42251W        W50851  19.276   1.654   1.410  0.0601 -0.0927 -0.2070
42252W        W50852   4.851   0.918  35.921  0.0736 -0.1205  0.0334
42253W        W50853   8.823   2.722  29.852  0.0420 -0.1172 -0.3256
42254W        W50854  12.536   0.161  17.031  0.3155  0.1258 -0.2367
42255W        W50855  16.241   6.322  33.607  0.0219 -0.0167 -0.0497
42256W        W50856  18.030   2.129  33.647  0.0633 -0.2864  0.2288
42257W        W50857   1.325   4.043  12.786 -0.0438 -0.0387  0.2615
42258W        W50858   1.695   0.744  26.875  0.0849 -0.2941  0.3153
42259W        W50859   4.183   1.791  13.386  0.0326 -0.1804  0.0243
42260W        W50860  19.479   5.103  32.619  0.1833  0.0866 -0.1590
42261W        W50861  11.061   0.823  40.922  0.0282 -0.2480 -0.0588
42262W        W50862   8.107   0.138  32.817  0.0430  0.2661 -0.1130
42263W        W50863   6.280   5.722  41.670  0.0983  0.0494 -0.0982
42264W        W50864  15.898   0.126  12.220  0.3999  0.0461  0.0529
42265W        W50865   7.263   4.756  22.799 -0.2185 -0.1860 -0.0532
42266W        W50866  12.549   6.529   8.370 -0.2778  0.1176  0.0138
42267W        W50867  12.697   2.803  15.792  0.1235  0.0657  0.0263
42268W        W50868   4.217   0.303  38.096  0.0122 -0.2378 -0.1615
42269W        W50869  18.312   1.209  19.352  0.0779 -0.1541 -0.0405
42270W        W50870   2.466   4.745  15.630 -0.2291 -0.0325  0.0245
42271W        W50871  17.772   6.465  32.596  0.0915  0.0302 -0.0327
42272W        W50872   7.116   1.642  37.967  0.0077 -0.2801  0.3185
42273W        W50873   6.472   0.906  12.989 -0.0321 -0.0088  0.4352
42274W        W50874   6.074   5.335  28.705 -0.0558 -0.2204  0.0227
42275W        W50875  21.065   0.476   2.273 -0.0690  0.1490 -0.1088
42276W        W50876  20.825   1.333   1.026  0.0823 -0.1203 -0.2205
42277W        W50877  12.505   2.476  17.701 -0.0390 -0.0455  0.1221
42278W        W50878   8.542   0.913  15.370  0.2858 -0.0738  0.0918
42279W        W50879   4.966   4.082  22.768  0.0477  0.1535  0.1756
42280W        W50880   5.418   5.579  16.015  0.2082 -0.1826  0.1368
42281W        W50881  19.627   3.947  15.691  0.0805  0.1164  0.4643
42282W        W50882  11.649   4.502   4.225  0.2282 -0.0557  0.1642
42283W        W50883  20.240   2.549   0.723 -0.3251  0.1704 -0.1635
42284W        W50884  14.288   1.542  21.832 -0.0125  0.1417 -0.0179
42285W        W50885  11.050   1.048  12.077  0.0326  0.0515  0.1836
42286W        W50886  15.845   6.593  39.592  0.0389  0.0329  0.0584
42287W        W50887   8.313   0.005  11.271 -0.0192 -0.3030  0.1163
42288W        W50888   7.486   4.386   6.393  0.0231  0.1940  0.4029
42289W        W50889  15.958   3.458  11.731 -0.1039  0.1055  0.0470
42290W        W50890   7.922   1.594  13.053 -0.1566 -0.0748  0.0308
42291W        W50891   2.492   3.745   0.856 -0.2301 -0.3145  0.1257
42292W        W50892   5.515   1.353  44.624  0.4591 -0.0837 -0.0136
42293W        W50893  16.620   1.273  16.212 -0.2597 -0.1774  0.0464
42294W        W50894  14.474   0.921  31.070  0.0976  0.4175 -0.0823
42295W        W50895  16.156   4.068  13.308  0.2699 -0.1757  0.0515
42296W        W50896  11.143   3.938  14.600  0.2411 -0.0303 -0.0937
42297W        W50897   6.480   2.822  20.786  0.2037 -0.1735  0.1242
42298W        W50898   3.564   3.809  28.091 -0.1578 -0.0896 -0.2250
42299W        W50899  17.443   4.266  15.723 -0.0173  0.3002 -0.0722
42300W        W50900   9.216   1.285  33.328 -0.2719  0.1153  0.1843
42301W        W50901  20.002   5.438  38.130 -0.0195 -0.1821 -0.0714
42302W        W50902  17.857   2.193  34.872  0.1175  0.1376 -0.1064
42303W        W50903   5.758   4.610  34.524  0.1865  0.0716 -0.1565
42304W        W50904   3.666   5.491  27.534  0.2850 -0.0418 -0.3161
42305W        W50905   5.728   6.277   5.479 -0.1724  0.1313 -0.1041
42306W        W50906   2.014   2.957  32.851  0.0829 -0.1309  0.0808
42307W        W50907  20.895   2.349  19.122 -0.0209  0.1108  0.0175
42308W        W50908  13.858   4.025  16.081 -0.0296 -0.3196  0.1747
42309W        W50909  20.556   2.355  35.634  0.5000 -0.2886  0.1113
42310W        W50910   5.985   0.958  20.421  0.4822 -0.0642 -0.1582
42311W        W50911  11.342   0.408   3.351  0.1111  0.2421 -0.1521
42312W        W50912   8.817   6.274  23.509  0.0006 -0.0906  0.1409
42313W        W50913  16.410   1.460  37.528  0.1397 -0.1195 -0.0651
42314W        W50914   0.113   3.350  11.003 -0.3454 -0.1192 -0.3046
42315W        W50915  13.166   4.483  11.453  0.4180  0.0780 -0.1551
42316W        W50916   4.940   3.112  36.702 -0.0164 -0.4135  0.1887
42317W        W50917  15.846   4.426   4.164 -0.0719 -0.2681  0.3301
42318W        W50918   5.141   3.344   6.959  0.0948 -0.4657 -0.0533
42319W        W50919   5.597   2.951  32.212 -0.1981  0.1772 -0.2504
42320W        W50920   5.836   2.692   3.311 -0.1968 -0.2047  0.0052
42321W        W50921   1.908   0.110  16.320  0.0840 -0.0317  0.1743
42322W        W50922  16.944   0.390  31.171 -0.3759 -0.4678 -0.1054
42323W        W50923  18.620   4.448  41.645  0.1230  0.0733 -0.0056
42324W        W50924  10.679   0.253   2.125 -0.1734 -0.0362 -0.0096
42325W        W50925  21.116   4.660  41.001  0.0228 -0.0640 -0.0902
42326W        W50926   9.576   0.324  41.795 -0.2769  0.0015 -0.1490
42327W        W50927  15.388   5.619  36.881 -0.1181  0.3324  0.3885
42328W        W50928   2.048   4.707  37.344  0.2638  0.0984 -0.2272
42329W        W50929  13.115   3.207   9.368 -0.2582  0.1990  0.0138
42330W        W50930  20.110   4.923   1.405 -0.0861  0.1772 -0.0456
42331W        W50931  14.211   2.045  19.197 -0.0244 -0.0997  0.0616
42332W        W50932  15.774   5.973  22.526  0.0947 -0.1948 -0.0209
42333W        W50933   4.472   0.543  44.410 -0.1012  0.3173 -0.1346
42334W        W50934  14.632   1.344  18.093  0.0232 -0.0163  0.4068
42335W        W50935  10.322   5.942  42.019  0.0896 -0.4281 -0.0539
42336W        W50936   4.769   6.527  11.351 -0.1072  0.1798 -0.2688
42337W        W50937  20.753   6.515  41.588 -0.0766  0.1527 -0.5872
42338W        W50938   0.526   2.310   7.417 -0.0089 -0.1518  0.0253
42339W        W50939   3.108   1.457  26.873  0.0917 -0.0653 -0.4884
42340W        W50940  16.200   4.234   2.074  0.2421 -0.0254  0.1826
42341W        W50941   1.068   1.053  11.058 -0.1030  0.0730 -0.1234
42342W        W50942   1.010   5.380  13.521  0.0457 -0.0345 -0.1753
42343W        W50943   8.875   1.053  10.351  0.1818 -0.1110  0.0580
42344W        W50944  17.482   4.454   2.899  0.0036  0.0305  0.0106
42345W        W50945  12.679   1.477  42.148  0.0921 -0.0856 -0.0175
42346W        W50946   2.246   2.118  42.503 -0.0604 -0.0637 -0.1427
42347W        W50947  12.862   4.007   1.715 -0.0835 -0.0565 -0.0199
42348W        W50948  11.160   4.994  10.019  0.1352  0.4075  0.1988
42349W        W50949   4.768   4.582  12.587  0.0260 -0.3124 -0.0084
42350W        W50950   1.697   2.506  17.248  0.0797 -0.1083  0.0847
42351W        W50951   6.001   6.179  11.531  0.0877  0.5183 -0.1127
42352W        W50952   8.505   0.297  10.424 -0.2963 -0.1914  0.0737
42353W        W50953   5.135   0.563  22.065  0.2136  0.0851  0.2732
42354W        W50954   5.273   2.086  11.199  0.1861 -0.0587 -0.0159
42355W        W50955   7.283   4.554  40.144 -0.0235  0.0283  0.1890
42356W        W50956   5.850   6.358  26.918 -0.1529 -0.0831  0.0598
42357W        W50957  17.804   4.622   3.352 -0.4532 -0.0208  0.0952
42358W        W50958  19.065   6.221  31.911  0.1778 -0.1271  0.0839
42359W        W50959   0.589   0.970   7.112  0.1277  0.0860  0.0536
42360W        W50960  11.547   3.205  36.754  0.0719  0.0176  0.1615
42361W        W50961   7.861   0.135  25.393 -0.2953 -0.1602 -0.0529
42362W        W50962  17.659   5.273  42.462 -0.0565  0.3112  0.1656
42363W        W50963   4.219   1.372  39.697  0.1425 -0.0290  0.0379
42364W        W50964  12.703   0.904  43.139 -0.1106 -0.1616 -0.2476
42365W        W50965  11.772   2.833  31.362  0.1861  0.0676 -0.0296
42366W        W50966   3.231   4.769  35.640  0.0738  0.1675  0.1630
42367W        W50967   7.482   1.386  26.022 -0.0134  0.1352 -0.1972
42368W        W50968   5.587   1.426  28.462 -0.0152  0.1099 -0.0708
42369W        W50969   9.380   0.126   5.167 -0.0536  0.2195  0.0724
42370W        W50970   3.865   5.571   2.252 -0.1560 -0.2532  0.1947
42371W        W50971   3.050   3.973  13.920  0.0743 -0.1768  0.2531
42372W        W50972  20.431   6.606  37.064  0.1643  0.0707 -0.3611
42373W        W50973   3.330   0.300  39.665  0.0465  0.1420  0.0361
42374W        W50974   9.223   6.476  44.000  0.1762  0.0597 -0.2073
42375W        W50975   7.701   0.842  16.216 -0.1240 -0.2289 -0.1300
42376W        W50976  12.194   5.159  34.692  0.0407  0.0114 -0.2202
42377W        W50977   3.956   1.387   6.103  0.1132  0.0758 -0.1672
42378W        W50978   9.196   4.384  11.244  0.4270 -0.0103 -0.0925
42379W        W50979   4.494   3.078  27.369  0.0329 -0.1014  0.0956
42380W        W50980   8.397   0.394  25.094  0.0405 -0.3376  0.0785
42381W        W50981   6.515   4.996  22.592  0.1627 -0.0156 -0.0780
42382W        W50982  20.081   5.474  43.358  0.0534 -0.0481  0.3949
42383W        W50983  12.942   5.501  32.535 -0.1396 -0.0369 -0.0376
42384W        W50984  10.454   0.556  10.610  0.2389  0.1206 -0.2850
42385W        W50985  14.210   4.441  19.158  0.0905 -0.0881  0.1156
42386W        W50986   1.532   3.002  43.944  0.0811 -0.2395 -0.0938
42387W        W50987   5.758   1.504   0.312  0.1142 -0.0525  0.2072
42388W        W50988   5.613   4.095  31.702 -0.2370 -0.1068 -0.0261
42389W        W50989   5.223   5.472   9.593  0.2102 -0.1048  0.1553
42390W        W50990   5.475   0.823  29.154  0.4290 -0.1015 -0.2082
42391W        W50991   9.526   4.759   8.028  0.0076  0.0268  0.1763
42392W        W50992   0.567   3.257  18.480  0.2719  0.0226  0.1231
42393W        W50993  13.326   1.605   1.874  0.0179 -0.2707  0.0230
42394W        W50994  18.191   6.497  38.685 -0.0915 -0.2249  0.1926
42395W        W50995  18.815   2.135  44.907 -0.0250  0.0977  0.0868
42396W        W50996   8.204   3.403  26.986 -0.2177  0.2280 -0.1034
42397W        W50997  10.557   2.440  38.841  0.1809 -0.2745 -0.1486
42398W        W50998   9.526   5.989  26.693 -0.0627 -0.1692 -0.1829
42399W        W50999  11.350   5.626  18.355  0.1496  0.1939 -0.1741
42400W        W51000   5.231   0.516   1.271  0.1988  0.0934 -0.0457
42401W        W51001  16.812   3.642  43.658  0.1436 -0.0044 -0.0195
42402W        W51002  17.048   0.270  41.437  0.1471 -0.0722 -0.1237
42403W        W51003  11.325   4.851  40.796 -0.0764  0.4947 -0.1473
42404W        W51004  18.287   6.085  39.446 -0.0959  0.0180 -0.2735
42405W        W51005  13.073   3.855  42.350  0.0864  0.1315  0.2316
42406W        W51006   0.687   5.467  39.873  0.0244 -0.2249  0.3168
42407W        W51007   9.044   1.047   8.264 -0.0469  0.2417  0.2984
42408W        W51008  19.441   2.873  11.921  0.1584  0.0992 -0.0818
42409W        W51009   4.913   0.397   4.947  0.2035 -0.0491  0.1228
42410W        W51010  11.338   1.934   1.905  0.0569 -0.2831 -0.3622
42411W        W51011   3.713   2.616  28.015  0.0320 -0.2580 -0.0405
42412W        W51012   3.867   3.431  10.579 -0.3202 -0.0298  0.1463
42413W        W51013   9.454   0.048  12.297  0.0150  0.1445 -0.1907
42414W        W51014  21.064   3.898   1.354 -0.2979  0.4961  0.1815
42415W        W51015  15.764   1.051  16.632 -0.0574  0.0657  0.0565
42416W        W51016  17.155   6.210  11.843  0.2408 -0.0180 -0.0275
42417W        W51017  20.549   2.480  16.461 -0.1253  0.2662 -0.4383
42418W        W51018   1.856   5.774   7.612 -0.0122  0.0273 -0.0245
42419W        W51019  15.623   6.386  40.284  0.0416 -0.0155  0.3262
42420W        W51020   4.473   1.716  31.850  0.0004 -0.1753  0.2544
42421W        W51021   9.416   5.465  29.200  0.0688 -0.1909  0.1126
42422W        W51022  10.558   1.414  15.842  0.2063 -0.3274  0.2320
42423W        W51023   5.049   4.716  28.861  0.4375 -0.0115 -0.0522
42424W        W51024   2.436   1.690  30.518  0.2756  0.1231 -0.4596
42425W        W51025  20.870   2.898  37.358  0.2056  0.2069 -0.1956
42426W        W51026   2.169   5.967  24.814 -0.2405  0.1240  0.4242
42427W        W51027   1.107   1.653  10.372  0.3181 -0.1256 -0.1700
42428W        W51028  15.710   5.727   6.376  0.0520 -0.3689  0.1044
42429W        W51029   9.185   2.666  44.272  0.3734  0.2404  0.4195
42430W        W51030  10.198   1.004  38.070  0.0577  0.1313  0.1221
42431W        W51031  10.548   5.572  36.631 -0.0446 -0.3082 -0.0786
42432W        W51032   8.334   5.056  36.036  0.1529 -0.0817  0.0352
42433W        W51033   1.502   6.375  25.879  0.2569 -0.0808  0.3516
42434W        W51034  16.841   2.791  22.391 -0.1856 -0.1933  0.1449
42435W        W51035  14.304   1.961  31.072  0.4244  0.0305  0.0067
42436W        W51036  11.632   2.867  44.585  0.1953 -0.4556  0.1170
42437W        W51037   8.470   4.996  26.771  0.1622 -0.0253  0.0664
42438W        W51038  20.335   3.695   4.684 -0.1053 -0.2410  0.2143
42439W        W51039  20.963   5.160   1.763 -0.1354 -0.1177  0.5013
42440W        W51040   8.122   1.600  10.122  0.0910  0.0836 -0.0345
42441W        W51041   1.755   6.190  35.746 -0.2352  0.1695  0.1420
42442W        W51042  14.383   5.116   7.639 -0.2877  0.2704  0.2419
42443W        W51043  20.218   4.579  28.521  0.0437 -0.0485  0.1314
42444W        W51044  13.643   5.779  17.632  0.0246 -0.0492  0.2734
42445W        W51045   9.181   1.835  38.168  0.1270 -0.0204 -0.3452
42446W        W51046   0.730   4.867  42.369 -0.1987  0.3232 -0.0567
42447W        W51047  18.837   3.568  36.838  0.2329  0.2524  0.1478
42448W        W51048   7.244   4.996   5.688  0.2498  0.2679 -0.2589
42449W        W51049  12.309   0.683  42.463 -0.1150 -0.0977 -0.0565
42450W        W51050  11.861   3.936  31.298  0.1340  0.2093  0.2075
42451W        W51051   3.741   2.876  38.617  0.1345  0.1406 -0.2744
42452W        W51052   0.740   5.135  13.225 -0.1210 -0.0433  0.0221
42453W        W51053  20.439   6.038  38.399  0.1873 -0.0625 -0.0116
42454W        W51054   0.045   0.661   8.580 -0.0884 -0.0913  0.0251
42455W        W51055   7.991   4.210   6.448  0.2560  0.2477 -0.1774
42456W        W51056  10.990   2.046  43.514  0.2853  0.1465 -0.0419
42457W        W51057  13.105   0.985  18.763 -0.2263  0.0359  0.0716
42458W        W51058   2.992   0.914  26.980  0.0922 -0.0278 -0.0024
42459W        W51059  20.176   3.248  17.620 -0.0013  0.0666  0.0257
42460W        W51060  15.660   0.585  43.889 -0.0113 -0.0874  0.1502
42461W        W51061  12.645   6.108  14.419  0.0185  0.2730  0.0740
42462W        W51062   6.871   5.379  40.200  0.0774  0.3722 -0.1810
42463W        W51063  21.006   4.265  13.669  0.4425  0.0899 -0.0933
42464W        W51064   0.431   6.547  37.288  0.2044 -0.1115 -0.1400
42465W        W51065  13.163   3.043  11.392  0.0006 -0.2353  0.2954
42466W        W51066   2.961   0.980  37.802  0.1563 -0.0907 -0.2597
42467W        W51067  11.077   3.309  39.963  0.0288  0.2366 -0.0224
42468W        W51068   6.021   1.503   8.925 -0.1268  0.1687 -0.1973
42469W        W51069  15.716   0.562   5.571 -0.2289  0.1177 -0.1308
42470W        W51070   1.274   3.768  33.946 -0.0898 -0.0548  0.0850
42471W        W51071   0.494   4.813  43.561 -0.1855 -0.4658  0.0339
42472W        W51072  11.788   2.874   6.557  0.1361  0.0580 -0.1228
42473W        W51073   0.523   6.222  36.452 -0.1723  0.1684  0.1389
42474W        W51074  14.791   4.126   8.502 -0.1252 -0.2604 -0.1331
42475W        W51075  17.279   3.350  20.346  0.1287  0.0692  0.0797
42476W        W51076   2.326   1.196  14.674 -0.1083 -0.0958  0.1313
42477W        W51077   2.677   3.686  38.069 -0.1442  0.0440  0.0015
42478W        W51078   5.081   0.399  36.053 -0.0651  0.2161  0.1137
42479W        W51079  12.523   4.206  19.413 -0.3785 -0.3763 -0.2475
42480W        W51080   6.898   0.689  30.167 -0.3411  0.0969 -0.0458
42481W        W51081   4.752   2.399  16.190 -0.0129 -0.2236  0.0479
42482W        W51082  15.154   3.372  42.091  0.0975  0.0977 -0.1335
42483W        W51083  11.232   1.558   6.423  0.3155  0.2633 -0.2259
42484W        W51084  18.630   3.351  10.080 -0.2280 -0.1195  0.1404
42485W        W51085   7.727   5.221  32.033  0.2424  0.3852  0.0335
42486W        W51086   7.350   4.195   8.526  0.1948  0.0481 -0.0289
42487W        W51087  13.131   3.525   2.459  0.1777 -0.1973  0.0026
42488W        W51088   6.546   2.412  25.644  0.0465  0.1965 -0.3809
42489W        W51089  14.986   0.871   5.787 -0.2414 -0.0687 -0.0593
42490W        W51090  10.302   4.341  43.947 -0.1805 -0.0707 -0.2107
42491W        W51091  11.826   5.350   6.182  0.0829 -0.0681  0.2648
42492W        W51092  17.060   5.012  29.981 -0.0331 -0.1009 -0.2776
42493W        W51093   1.674   3.982  37.930  0.0651 -0.0035  0.0450
42494W        W51094  14.279   4.816  19.473  0.1678 -0.0836 -0.0141
42495W        W51095   8.520   4.265  32.514  0.0995  0.2714 -0.2220
42496W        W51096  15.186   0.046  14.074  0.1750 -0.2308 -0.1139
42497W        W51097   8.784   2.578  36.681 -0.0001 -0.0376  0.3935
42498W        W51098   7.988   3.576  44.871 -0.0294  0.1610  0.2874
42499W        W51099  10.820   3.019  43.334  0.0412 -0.2657  0.1815
42500W        W51100   4.011   5.482  39.177  0.1229 -0.5031  0.0035
42501W        W51101  14.631   0.919  44.426  0.0428 -0.1308  0.0690
42502W        W51102  10.110   6.210  36.206  0.1034 -0.0386  0.4660
42503W        W51103  17.818   3.815  36.966 -0.3383 -0.1757 -0.3129
42504W        W51104   0.616   2.264  34.650  0.1328  0.1585 -0.0956
42505W        W51105   4.396   4.563  38.301 -0.1235 -0.1286 -0.0577
42506W        W51106   3.674   5.546  32.608  0.1939 -0.0230 -0.2177
42507W        W51107  16.009   3.684   0.634  0.1375  0.0021 -0.0438
42508W        W51108   2.203   5.862  40.479  0.1097  0.3369 -0.0095
42509W        W51109   6.991   4.624  42.104 -0.0264  0.0827  0.0013
42510W        W51110   2.829   2.584   5.585 -0.0191  0.0526 -0.2205
42511W        W51111  13.689   2.784   5.459  0.1742 -0.0055  0.1298
42512W        W51112  11.153   4.567  44.644 -0.1783  0.1171 -0.0086
42513W        W51113  13.403   4.865   0.051  0.1217 -0.0760  0.0433
42514W        W51114   2.879   1.786   1.872  0.0936  0.0077  0.2651
42515W        W51115  11.631   2.758  34.029  0.0236 -0.2079  0.0682
42516W        W51116  11.331   1.860  31.210 -0.1293  0.1321  0.1653
42517W        W51117   2.468   5.454  38.210  0.1434 -0.2133 -0.0817
42518W        W51118   1.109   0.024  27.764 -0.0247  0.2606 -0.0988
42519W        W51119   8.049   1.507   8.411  0.1101  0.0374  0.2654
42520W        W51120   5.127   1.971  35.146 -0.1570  0.0872 -0.1730
42521W        W51121   1.457   2.647  43.019  0.0796 -0.0185  0.0575
42522W        W51122  13.530   5.594  35.222  0.2290 -0.1521 -0.0261
42523W        W51123   5.217   3.277   2.443  0.0112  0.1717  0.0546
42524W        W51124  11.804   4.276  13.690 -0.0319  0.1056 -0.1895
42525W        W51125   2.662   1.902  34.346  0.3067 -0.0332  0.1005
42526W        W51126   5.613   2.486  27.086 -0.0242 -0.0597  0.1969
42527W        W51127  18.782   0.882  20.623 -0.1469  0.0836 -0.0331
42528W        W51128   5.397   4.220  23.634 -0.1265  0.0494 -0.0313
42529W        W51129   8.046   0.796  26.609  0.2086 -0.0619 -0.0838
42530W        W51130   3.504   6.532  25.397  0.1319  0.3417 -0.0667
42531W        W51131  12.755   4.838  40.467 -0.1804  0.2641 -0.1004
42532W        W51132   4.542   1.539  29.279 -0.1011 -0.0015 -0.0940
42533W        W51133  17.441   4.049   1.154  0.1772 -0.4011 -0.0131
42534W        W51134   4.611   0.096  13.251  0.2686  0.1488 -0.0518
42535W        W51135   0.326   5.078  39.500  0.0016 -0.4340 -0.0697
42536W        W51136   8.770   2.171  34.933 -0.0241  0.0080  0.0944
42537W        W51137  20.064   5.583  15.326  0.1895  0.1449  0.0173
42538W        W51138   0.504   4.146  16.350  0.2831  0.0718 -0.0879
42539W        W51139  18.002   5.724   9.153  0.0490 -0.1891 -0.2011
42540W        W51140  20.051   2.980  30.768 -0.2272 -0.1245 -0.1909
42541W        W51141   5.046   3.828  25.862 -0.3398 -0.1075  0.0439
42542W        W51142   2.361   0.449  26.552 -0.0698  0.0832  0.0317
42543W        W51143  11.216   0.954  10.981  0.1178  0.0556 -0.0180
42544W        W51144  17.619   1.355   5.852  0.2062  0.3429 -0.2368
42545W        W51145  16.074   2.966  32.073  0.2458 -0.1010  0.0511
42546W        W51146   8.657   6.068  36.565  0.1680  0.0623 -0.0395
42547W        W51147  16.971   4.955  16.062 -0.2265 -0.0573  0.2487
42548W        W51148  15.971   2.737  20.131  0.0909 -0.0208  0.0681
42549W        W51149  13.168   0.816  34.185 -0.0200 -0.3237  0.1886
42550W        W51150  18.595   2.381   8.292  0.2719 -0.0991  0.2126
42551W        W51151   1.895   3.158  15.995  0.1959  0.2388 -0.1148
42552W        W51152  16.791   1.067  14.895 -0.0624  0.1752  0.0251
42553W        W51153  12.217   2.262  42.236  0.0713 -0.3516  0.0506
42554W        W51154  12.415   5.192  11.740 -0.2541 -0.1161  0.2307
42555W        W51155  10.050   5.084   9.742  0.0173 -0.0229 -0.0036
42556W        W51156   9.789   4.284  39.725  0.0230  0.2691 -0.1058
42557W        W51157   0.568   6.202  29.067  0.0197 -0.1242 -0.1836
42558W        W51158   8.095   3.439  24.000 -0.1285  0.0335  0.0715
42559W        W51159  16.410   5.102  41.939  0.0669 -0.1504 -0.3081
42560W        W51160  13.763   5.611  37.306  0.4078 -0.0840  0.1665
42561W        W51161   3.739   5.227   3.578 -0.3280 -0.3410  0.0155
42562W        W51162  19.652   4.666  33.299  0.3687  0.0681 -0.2613
42563W        W51163  18.140   6.320   4.663  0.0957  0.0530  0.0369
42564W        W51164   3.091   1.060  43.045  0.0153 -0.0467  0.0921
42565W        W51165  20.056   3.565  33.760  0.1319  0.2410 -0.0810
42566W        W51166  20.336   6.329  29.062  0.0675  0.2369  0.0287
42567W        W51167  20.794   4.330  41.165  0.0954 -0.1403 -0.0641
42568W        W51168   2.377   3.408   5.215 -0.1194 -0.0568 -0.1415
42569W        W51169  20.889   4.122  30.376  0.1655 -0.1425  0.0505
42570W        W51170   7.573   0.310  12.802  0.1743  0.0665 -0.0680
42571W        W51171  12.259   0.629   1.203 -0.3246 -0.4126 -0.0234
42572W        W51172   0.053   2.758  43.384  0.0750  0.0053 -0.4985
42573W        W51173   5.117   0.822  27.384  0.1725 -0.0029  0.0970
42574W        W51174   7.521   0.044  13.741  0.1032 -0.0697 -0.5282
42575W        W51175  20.047   6.287  10.967 -0.2873  0.0832  0.0926
42576W        W51176   5.055   4.503  34.380 -0.0955  0.1756  0.1436
42577W        W51177  12.168   6.560  38.768  0.1310  0.2411  0.0236
42578W        W51178   1.607   0.603  34.936  0.1695 -0.1389  0.2039
42579W        W51179   5.827   0.463  30.867  0.0744 -0.1386 -0.2090
42580W        W51180  11.364   5.855   6.452 -0.1706 -0.1662 -0.1678
42581W        W51181   2.107   0.290  14.551 -0.2484  0.0358  0.1583
42582W        W51182   0.165   4.138  14.339 -0.0372  0.1527 -0.1611
42583W        W51183  15.864   1.428  24.971  0.3497  0.2089  0.1293
42584W        W51184   8.120   0.207  24.064  0.0773 -0.2920  0.2719
42585W        W51185   1.370   5.507   7.532 -0.2628 -0.0917 -0.1290
42586W        W51186   2.141   1.074   2.229 -0.0013 -0.1902  0.4283
42587W        W51187  10.925   1.127  13.591  0.0302  0.0701 -0.1895
42588W        W51188   2.568   2.271   7.380 -0.0019 -0.0685 -0.2865
42589W        W51189  15.229   3.516   8.028 -0.0083  0.1528 -0.2677
42590W        W51190   2.398   3.228  12.021  0.0951 -0.1767 -0.2625
42591W        W51191   1.584   6.363  31.094 -0.2360  0.1548 -0.1009
42592W        W51192   6.279   6.035  36.509 -0.5082 -0.2898  0.2831
42593W        W51193   7.329   5.993  22.972 -0.2080 -0.0513  0.1406
42594W        W51194   2.595   3.805  12.595 -0.0569 -0.1499 -0.0768
42595W        W51195  13.791   4.763  20.968 -0.2347  0.0607 -0.1580
42596W        W51196  19.971   5.715  35.635  0.2027 -0.1146  0.1669
42597W        W51197   1.586   6.289  36.224  0.3758  0.0814 -0.0481
42598W        W51198   9.377   2.560  27.618  0.0223 -0.0871  0.1748
42599W        W51199   3.252   1.065  40.967  0.0606 -0.1197  0.0717
42600W        W51200  14.750   1.098  37.140  0.2324 -0.1337  0.0259
42601W        W51201  18.342   0.217  18.025  0.1378 -0.0698  0.2437
42602W        W51202   1.466   4.590   0.717  0.1040 -0.0301 -0.1414
42603W        W51203  19.360   3.414  14.040 -0.1437 -0.1828 -0.4019
42604W        W51204  10.176   2.332   4.661  0.1366 -0.1393 -0.2581
42605W        W51205  18.439   4.227  14.323 -0.0878  0.2632  0.3420
42606W        W51206  19.347   2.631  18.690 -0.1084 -0.4200 -0.1490
42607W        W51207  14.646   5.143  20.731  0.0002 -0.3013 -0.1533
42608W        W51208   1.929   2.176  10.655  0.2685  0.0691  0.0872
42609W        W51209  12.880   2.087   7.995  0.1446  0.1674 -0.1318
42610W        W51210  11.431   4.687   9.067  0.0913  0.1914  0.1175
42611W        W51211  16.733   3.597  38.835 -0.0973  0.4119  0.0390
42612W        W51212  19.121   1.707  32.665  0.4777  0.0342 -0.1239
42613W        W51213   0.523   2.546  43.841  0.0201  0.2182  0.1340
42614W        W51214   2.467   0.272  35.384 -0.0419  0.0418  0.2751
42615W        W51215   2.123   6.425  33.951 -0.2811  0.3303 -0.2588
42616W        W51216  16.885   0.967   3.431 -0.2161  0.0693 -0.0993
42617W        W51217   1.550   5.236   9.485 -0.0585 -0.0973  0.0168
42618W        W51218  17.684   0.841  23.714  0.3049 -0.0768  0.1543
42619W        W51219   8.198   5.902  32.948  0.0719 -0.0250  0.2753
42620W        W51220   6.343   4.342  39.386  0.0482 -0.0711  0.3242
42621W        W51221   1.631   4.423  36.187  0.0498 -0.0618 -0.0001
42622W        W51222   5.822   0.492   3.294 -0.2051 -0.1697  0.1606
42623W        W51223   1.233   5.985   4.113 -0.3883  0.0662  0.2074
42624W        W51224  17.021   0.035  14.060 -0.2267  0.0542 -0.2895
42625W        W51225  13.781   0.110  20.020  0.0393  0.1629  0.4718
42626W        W51226  19.188   4.067  40.885  0.1106 -0.0274  0.0410
42627W        W51227  19.236   2.691   9.083  0.0747 -0.1727  0.4804
42628W        W51228   3.314   4.418  29.068 -0.0101 -0.0510  0.2704
42629W        W51229   9.282   4.166   0.881  0.1960  0.4222 -0.0511
42630W        W51230  17.780   3.381  43.507 -0.1804  0.0229  0.2086
42631W        W51231   9.405   2.496  25.196  0.0981  0.0668 -0.1812
42632W        W51232   7.892   0.828   3.962  0.1130  0.0073 -0.0932
42633W        W51233  16.951   3.330  16.935 -0.2921 -0.1513  0.1955
42634W        W51234   7.750   0.427  37.137 -0.0570 -0.0895  0.2246
42635W        W51235  17.181   4.881   6.983  0.0495  0.2936  0.3133
42636W        W51236  16.814   5.003   0.539 -0.0767 -0.0395 -0.1657
42637W        W51237  10.390   3.627   1.464 -0.0163 -0.0611 -0.2523
42638W        W51238   2.802   3.499  37.558  0.0382  0.0068  0.1305
42639W        W51239   6.390   2.177   2.287  0.2421  0.0247  0.1729
42640W        W51240   3.613   0.748   9.994 -0.0212  0.0367  0.1220
42641W        W51241   6.750   4.574  25.795  0.0494 -0.1451 -0.0304
42642W        W51242   7.063   1.183   4.373  0.0505 -0.1131 -0.2455
42643W        W51243  20.965   1.374  31.578 -0.4291  0.1428 -0.5569
42644W        W51244   0.552   0.784  15.173  0.1002 -0.1343 -0.1044
42645W        W51245   0.003   0.697  15.145  0.3876  0.0821 -0.2508
42646W        W51246  11.946   3.438  28.312 -0.4653 -0.1564  0.0086
42647W        W51247  15.457   6.301  43.659  0.1117  0.2380 -0.0475
42648W        W51248   3.081   1.074   0.475  0.0457  0.1532 -0.0481
42649W        W51249  11.288   0.471  10.584 -0.2867  0.0141  0.0782
42650W        W51250   2.212   0.749  28.260 -0.0579 -0.2185  0.0748
42651W        W51251   8.497   3.994  11.656 -0.0464 -0.1517  0.1140
42652W        W51252  17.705   1.319  18.699  0.0333 -0.0773 -0.1482
42653W        W51253   2.958   2.346   7.051  0.2138 -0.0009 -0.2304
42654W        W51254   8.995   1.266  14.076 -0.3349 -0.1886 -0.0601
42655W        W51255  15.052   2.545  10.733  0.2048 -0.2090  0.3397
42656W        W51256   1.453   1.092  44.540 -0.0885 -0.1618 -0.1215
42657W        W51257   0.222   3.962  13.796 -0.1695 -0.3756  0.0735
42658W        W51258   5.206   3.467   5.971  0.0151  0.0802 -0.1011
42659W        W51259  11.477   6.535  18.867  0.3071  0.1531 -0.0201
42660W        W51260  20.608   0.156   0.599 -0.0558 -0.1238 -0.0265
42661W        W51261  20.788   4.624   4.461 -0.1154  0.0687 -0.1684
42662W        W51262  15.097   2.518   1.765 -0.0747 -0.0307 -0.1305
42663W        W51263  10.763   5.155  16.659 -0.4247  0.1298  0.1822
42664W        W51264   0.244   4.950  43.151  0.1369 -0.0786 -0.1553
42665W        W51265   1.572   2.801   4.151  0.1076  0.1191 -0.1821
42666W        W51266  15.919   3.013  22.097 -0.0839 -0.0188  0.0911
42667W        W51267  21.062   5.186  36.316  0.1227 -0.0490  0.0191
42668W        W51268   7.663   2.004  37.340 -0.4372  0.0256 -0.1745
42669W        W51269  13.240   3.890  41.443 -0.2183 -0.1299 -0.5397
42670W        W51270   0.963   6.595   8.173  0.0517 -0.0463  0.2244
42671W        W51271   3.954   6.481  42.044  0.0855 -0.1056  0.3118
42672W        W51272  20.697   2.347  11.543 -0.1172  0.1264 -0.0956
42673W        W51273   5.401   1.031  42.467  0.0692  0.0449  0.1027
42674W        W51274   1.641   3.907  42.748  0.1403  0.0300 -0.0045
42675W        W51275   8.195   0.405  40.084 -0.2012 -0.0503  0.0224
42676W        W51276  14.336   2.438  30.893  0.0445 -0.1494 -0.1399
42677W        W51277  12.207   3.188  42.723  0.1737 -0.0191 -0.0358
42678W        W51278  11.042   2.154  34.533 -0.1454  0.1279 -0.1463
42679W        W51279  21.131   0.875   2.545  0.0070  0.2298 -0.1491
42680W        W51280  17.649   5.364  36.301 -0.1719  0.2005  0.1722
42681W        W51281   8.275   1.533  26.490 -0.2418 -0.0501  0.0967
42682W        W51282   8.589   4.387  43.975 -0.2134  0.0144 -0.0702
42683W        W51283   3.716   1.940  32.205 -0.0938  0.1141 -0.1593
42684W        W51284   8.290   3.068  13.469 -0.0462 -0.3485 -0.0174
42685W        W51285   3.928   5.994  14.331 -0.3196 -0.2105 -0.0341
42686W        W51286  12.320   6.167   7.252 -0.0617  0.0325  0.1162
42687W        W51287  12.271   1.777  42.046 -0.2429  0.0723 -0.1417
42688W        W51288  18.319   3.543  31.865  0.1234 -0.0507  0.0201
42689W        W51289   9.911   1.884  40.843  0.1243  0.2667 -0.1366
42690W        W51290   5.980   5.635  37.966  0.0245 -0.0119 -0.0875
42691W        W51291  17.567   0.329  33.822 -0.0962  0.1805  0.0371
42692W        W51292   6.699   6.094  38.131  0.0094  0.0489 -0.1450
42693W        W51293   2.441   3.147   7.456  0.2377 -0.0893  0.1851
42694W        W51294   8.451   5.778  40.448  0.0221  0.0079  0.2103
42695W        W51295  15.048   6.406  34.767  0.3336  0.1084 -0.0664
42696W        W51296  10.116   5.068  17.951  0.1715 -0.3410 -0.1160
42697W        W51297  17.472   0.922  39.507  0.1468  0.0437 -0.1653
42698W        W51298  12.500   6.560  28.113  0.1459  0.1963 -0.0333
42699W        W51299  16.218   5.278  23.612  0.0729  0.1480  0.0076
42700W        W51300   0.798   1.734  42.632 -0.0703  0.0773 -0.2032
42701W        W51301   5.784   2.610  42.199 -0.3054  0.1132 -0.0356
42702W        W51302  14.046   4.727  35.301  0.2092 -0.3702  0.5327
42703W        W51303  13.255   5.349  37.361 -0.3363 -0.0316 -0.0985
42704W        W51304  11.631   4.565   2.167  0.3761 -0.3667 -0.1411
42705W        W51305  19.752   3.317  43.017  0.3778  0.0075 -0.0096
42706W        W51306  16.948   6.179  16.169  0.2543  0.0872  0.0269
42707W        W51307   1.507   0.781  27.880  0.1557  0.1975 -0.0178
42708W        W51308   8.133   2.718   9.758  0.1561 -0.1726  0.0464
42709W        W51309   0.788   2.548  39.657  0.0153  0.2340 -0.0806
42710W        W51310   1.503   3.151  12.098 -0.0361  0.3540 -0.0958
42711W        W51311   4.791   2.443   4.856 -0.1645  0.2082 -0.2370
42712W        W51312  10.091   4.533  24.997 -0.0290 -0.2243  0.0258
42713W        W51313   0.266   0.721   0.795 -0.2929 -0.1957  0.0081
42714W        W51314   2.592   4.283   5.960 -0.1375 -0.2659 -0.3183
42715W        W51315  19.826   6.606   4.762  0.1638 -0.3106 -0.0975
42716W        W51316   6.429   2.488  15.549  0.1392  0.0048 -0.0543
42717W        W51317  17.860   1.180  37.760  0.0172  0.0599  0.0410
42718W        W51318   0.776   6.338  36.876  0.3313  0.3724  0.0564
42719W        W51319   5.356   2.324  30.938 -0.0354  0.0678  0.0985
42720W        W51320   4.773   5.299  35.723 -0.2302  0.2022 -0.3285
42721W        W51321   8.826   5.927  39.629  0.0431  0.0524  0.0621
42722W        W51322   2.615   2.869  43.675  0.0031 -0.0001 -0.2748
42723W        W51323  18.279   1.673  36.165 -0.0079  0.2415  0.3295
42724W        W51324  13.220   4.099  37.420 -0.0601  0.0017  0.0085
42725W        W51325  15.943   5.375  37.293 -0.1765  0.0159  0.1513
42726W        W51326  17.043   0.061  11.915 -0.1770 -0.4214  0.1449
42727W        W51327  12.550   4.822  13.836 -0.3255 -0.1160 -0.0155
42728W        W51328  16.698   3.149   1.499  0.3379 -0.0507 -0.0449
42729W        W51329   6.850   2.211  43.112 -0.1681 -0.0385 -0.0875
42730W        W51330   5.752   2.177  33.346 -0.0409  0.1154  0.1389
42731W        W51331  15.638   3.309  20.279 -0.2629 -0.0667  0.1296
42732W        W51332  16.271   6.177  29.843  0.1438 -0.3793  0.0682
42733W        W51333  17.069   5.195  17.579  0.0964  0.0015  0.0365
42734W        W51334  14.710   0.527  31.423  0.0737  0.0606  0.1792
42735W        W51335  16.122   5.340  33.179  0.2000 -0.0444 -0.2111
42736W        W51336   4.802   3.845  14.988 -0.3243  0.0035  0.0789
42737W        W51337  12.512   2.417  19.114 -0.3733  0.0945 -0.1111
42738W        W51338  13.395   3.889  39.241  0.0610  0.2636 -0.1084
42739W        W51339  11.823   5.533  18.764 -0.0798 -0.0827  0.4074
42740W        W51340  10.214   5.421   5.535 -0.2787 -0.0595  0.1552
42741W        W51341  13.299   1.406  12.203  0.0542  0.1661 -0.1038
42742W        W51342   4.192   1.384  11.805  0.1929  0.0739 -0.3016
42743W        W51343  19.669   2.646  40.216  0.2155  0.1498 -0.1516
42744W        W51344   1.312   1.851  24.302  0.0616  0.0242 -0.1232
42745W        W51345  12.576   3.821  21.069 -0.1479  0.0265  0.0551
42746W        W51346   2.854   6.083  33.843 -0.0963  0.1081 -0.4649
42747W        W51347   6.264   0.350  39.247  0.1970 -0.2542  0.1693
42748W        W51348  13.535   4.821  16.733 -0.1392 -0.2519 -0.3135
42749W        W51349   3.309   3.429   1.703 -0.2978 -0.1590 -0.0225
42750W        W51350  14.381   3.358   9.136  0.0229 -0.1865 -0.0765
42751W        W51351   6.918   6.142  27.261  0.0093  0.1059 -0.0570
42752W        W51352  12.379   0.116  10.683  0.1067 -0.0263  0.1177
42753W        W51353   2.925   0.902  37.184  0.1382 -0.1634  0.3596
42754W        W51354   7.097   4.086  11.553 -0.1015  0.0621  0.0659
42755W        W51355   0.555   1.440  11.473 -0.0947 -0.1576  0.2289
42756W        W51356  14.857   2.220  12.952  0.2356  0.0820 -0.0471
42757W        W51357  20.375   2.237  43.773 -0.1065  0.0280  0.2385
42758W        W51358   9.350   6.542  43.511 -0.2098 -0.1447  0.1784
42759W        W51359  19.770   4.882  39.836 -0.1111  0.0706  0.2180
42760W        W51360   0.041   0.004  18.057 -0.2786 -0.1473 -0.3041
42761W        W51361  21.088   1.682  34.117 -0.0381  0.3233 -0.0180
42762W        W51362   4.942   5.295  11.236  0.0072 -0.0630  0.0234
42763W        W51363  14.208   4.684   9.116 -0.2753 -0.2152  0.1678
42764W        W51364  10.186   5.863   8.276  0.1686  0.0469  0.0668
42765W        W51365   0.834   1.683   5.740 -0.0437  0.1280 -0.2181
42766W        W51366   5.694   0.867  31.831 -0.0391 -0.1810  0.0543
42767W        W51367  11.303   5.720  14.175 -0.0401 -0.0779 -0.1550
42768W        W51368  14.147   6.270  34.464 -0.1422  0.0567 -0.1871
42769W        W51369   5.367   4.390   4.781 -0.2832  0.2128 -0.1027
42770W        W51370  13.253   2.537  11.541  0.1921  0.0893 -0.1067
42771W        W51371   9.193   2.466  28.719 -0.2007  0.0839 -0.3901
42772W        W51372  15.666   5.589  33.049 -0.1020  0.0482 -0.2143
42773W        W51373  13.685   0.229   3.476 -0.0801 -0.0133  0.2807
42774W        W51374   8.749   4.335  39.992 -0.0430 -0.0935 -0.1522
42775W        W51375  13.355   2.729  18.110 -0.1163  0.0337  0.2545
42776W        W51376   4.457   1.054   0.310  0.2910  0.1422 -0.0021
42777W        W51377  14.326   2.085   9.682  0.2577 -0.3094 -0.1702
42778W        W51378  13.536   3.057  36.734 -0.0710 -0.1296  0.2426
42779W        W51379  12.675   6.603  20.940  0.3936 -0.0341  0.1803
42780W        W51380  11.498   5.038   5.925 -0.0272 -0.0019 -0.2266
42781W        W51381  10.275   3.312   2.842  0.1170 -0.0859  0.0437
42782W        W51382  17.325   4.707  30.791 -0.0180  0.0711  0.0561
42783W        W51383   2.702   6.046   8.016  0.1405  0.0103 -0.0034
42784W        W51384  16.075   4.862   0.321 -0.1501 -0.3114  0.0738
42785W        W51385  14.430   2.135  16.025 -0.1962 -0.0596 -0.0012
42786W        W51386   7.052   3.550  28.033  0.1789  0.3376 -0.1574
42787W        W51387  16.608   1.128  23.789 -0.1170  0.0820  0.1211
42788W        W51388  17.756   3.880  13.049  0.2966  0.4074  0.0580
42789W        W51389   5.988   6.526  35.028  0.3079  0.0862 -0.0432
42790W        W51390  13.058   6.349  15.155 -0.1872 -0.1582  0.0928
42791W        W51391  18.182   2.230  14.985  0.1119 -0.2443  0.3697
42792W        W51392  20.727   4.486   1.870  0.0008 -0.0441  0.0831
42793W        W51393   4.931   3.151  27.757  0.0377  0.2526 -0.0205
42794W        W51394  13.559   5.210   4.680 -0.2587 -0.1009 -0.0394
42795W        W51395  20.217   5.791  39.877 -0.0348  0.0139  0.1615
42796W        W51396  10.525   1.630   9.001 -0.1861 -0.0389 -0.2893
42797W        W51397  17.228   6.029  17.793  0.1545 -0.1021 -0.3176
42798W        W51398  19.896   3.716  31.710  0.0058  0.0648  0.0144
42799W        W51399   5.916   3.502  30.186  0.0560 -0.0053 -0.2285
42800W        W51400  10.186   0.479  31.037 -0.1789  0.1097  0.1481
42801W        W51401  15.324   4.704   1.220  0.1559 -0.1652  0.0077
42802W        W51402   5.481   4.593   2.852 -0.2965  0.3550  0.1569
42803W        W51403   0.441   5.615  11.100  0.1757  0.0276 -0.2731
42804W        W51404  17.549   1.983   8.226 -0.4930 -0.2430  0.0313
42805W        W51405  17.403   5.665  11.690  0.2584  0.0187 -0.0847
42806W        W51406  16.221   0.877   7.767  0.2256 -0.1153 -0.1855
42807W        W51407  10.347   3.467  14.291 -0.0131 -0.0108  0.1557
42808W        W51408   3.465   1.286  25.650  0.1815 -0.0003 -0.0421
42809W        W51409   6.229   3.895  20.415 -0.2057 -0.1794 -0.1180
42810W        W51410  14.284   2.198  17.841  0.0670 -0.1577  0.1396
42811W        W51411  13.534   6.131  18.930 -0.3634 -0.0836  0.0312
42812W        W51412   2.011   1.330  10.090 -0.3065  0.0282 -0.1600
42813W        W51413   8.313   2.385  34.262 -0.1934  0.0756 -0.0082
42814W        W51414  16.657   2.908  12.607  0.0674 -0.2538  0.2591
42815W        W51415   3.331   1.378   5.009  0.0260 -0.1066  0.0042
42816W        W51416  16.138   2.503   8.467  0.1169 -0.0207 -0.0216
42817W        W51417  13.495   1.715  14.351  0.2560 -0.0968  0.1623
42818W        W51418  16.990   3.065  14.359 -0.1880  0.0308  0.0820
42819W        W51419   2.047   2.690  39.135  0.0650  0.1032  0.0821
42820W        W51420  10.680   4.279  36.560 -0.1321  0.3658  0.1486
42821W        W51421   8.481   3.161   2.016  0.2003 -0.0172 -0.0004
42822W        W51422  13.033   0.231  35.546  0.0357  0.0537 -0.3762
42823W        W51423   2.894   5.292  27.193 -0.0370  0.2018  0.1752
42824W        W51424   2.116   5.235  14.840  0.1930 -0.0449  0.0783
42825W        W51425   1.178   6.243  28.015  0.1207 -0.0336 -0.0690
42826W        W51426  17.380   3.989  17.088  0.0434 -0.0454  0.1172
42827W        W51427   7.810   1.438   3.617  0.1727 -0.2292 -0.0107
42828W        W51428   0.893   1.737   0.917 -0.2413 -0.2686  0.2138
42829W        W51429  12.304   3.211  33.930  0.2002  0.0534 -0.3369
42830W        W51430   1.834   6.522  15.834  0.1724 -0.2598 -0.1232
42831W        W51431   8.477   3.165  11.521  0.0120 -0.0593  0.2079
42832W        W51432   7.616   2.285  26.635 -0.2640 -0.1717  0.1668
42833W        W51433  16.448   0.430  39.266 -0.0526 -0.1889 -0.0102
42834W        W51434   3.965   4.796  24.086  0.1905 -0.0821  0.0678
42835W        W51435  15.267   0.573  21.225 -0.1707 -0.1947 -0.0455
42836W        W51436  14.388   1.479  28.453 -0.0138 -0.1306  0.3073
42837W        W51437  13.542   3.290   5.549  0.2064  0.2564  0.2276
42838W        W51438   5.684   5.503  15.099  0.2251  0.0731 -0.2504
42839W        W51439  18.259   5.586  42.017 -0.2683  0.2032  0.0021
42840W        W51440  10.152   0.275  28.885  0.1520  0.0009 -0.2648
42841W        W51441   2.623   4.945   6.637  0.1621  0.2096 -0.0884
42842W        W51442  11.215   0.186  29.669  0.1807 -0.0569 -0.3458
42843W        W51443  13.846   4.932  37.034  0.1669 -0.1852 -0.0451
42844W        W51444  13.470   4.615   3.968  0.1904 -0.3833 -0.0319
42845W        W51445  15.238   5.407  19.426  0.0704 -0.0176  0.0629
42846W        W51446   0.615   5.055  16.109 -0.0838  0.1067 -0.4632
42847W        W51447  18.398   3.611  40.231  0.3706  0.0330  0.0387
42848W        W51448  19.524   1.325   9.076 -0.0436 -0.0405  0.0693
42849W        W51449  12.839   6.023   7.122  0.1753  0.1503  0.2625
42850W        W51450  14.820   1.837  33.904  0.1884 -0.2580 -0.0406
42851W        W51451   8.407   6.415  24.245 -0.0064 -0.0681 -0.0935
42852W        W51452   6.469   1.256  37.404 -0.3675 -0.1519 -0.1713
42853W        W51453  17.004   2.187  20.718 -0.0894 -0.1107 -0.1397
42854W        W51454   8.223   1.208  37.917 -0.1256 -0.1622  0.0323
42855W        W51455   1.150   4.616  28.753  0.2769 -0.0622 -0.0105
42856W        W51456  14.368   1.772   6.120 -0.1727 -0.0939  0.0080
42857W        W51457   3.326   2.004  33.609  0.2133  0.2637 -0.4678
42858W        W51458  20.227   6.526  31.595  0.1017  0.1734 -0.0694
42859W        W51459   9.341   4.241  40.608 -0.2457 -0.2517 -0.0506
42860W        W51460   9.561   1.920  39.488 -0.0832  0.1155  0.1512
42861W        W51461   0.326   1.043  28.056  0.0686 -0.1969 -0.0383
42862W        W51462  11.001   4.606   7.051 -0.0265  0.0344 -0.1094
42863W        W51463  15.378   4.487   7.950  0.0428 -0.0944 -0.1668
42864W        W51464   4.228   5.742   6.917  0.0724  0.0117  0.2509
42865W        W51465   0.951   4.705  40.479  0.1299  0.3262 -0.1847
42866W        W51466   8.465   3.905  12.159 -0.1374  0.0333  0.0307
42867W        W51467  11.706   0.221  34.115  0.0095 -0.1813 -0.2312
42868W        W51468  15.867   3.176  39.162  0.1589  0.1695  0.0385
42869W        W51469  18.612   4.149  31.220  0.1163 -0.1712 -0.0437
42870W        W51470   9.713   2.733  33.399  0.1047 -0.2136 -0.1865
42871W        W51471  19.519   6.227   6.422 -0.2899 -0.1493 -0.4490
42872W        W51472   3.852   0.859  26.911  0.0665  0.0909  0.0853
42873W        W51473  15.944   4.806  37.843  0.2430 -0.2374 -0.3520
42874W        W51474  17.238   4.129  39.645  0.1244 -0.2622  0.0482
42875W        W51475   4.608   5.247  33.173 -0.1617 -0.1011  0.1500
42876W        W51476   7.135   6.317  14.368 -0.2752  0.2777  0.1841
42877W        W51477  20.511   0.071  18.846 -0.0834  0.1061 -0.3806
42878W        W51478  12.017   2.038  28.335 -0.1366  0.3014  0.1723
42879W        W51479   3.154   6.575  29.987  0.1025  0.0368 -0.2625
42880W        W51480  16.652   2.765   3.178 -0.2239  0.0643 -0.1926
42881W        W51481   0.501   3.169  45.054  0.0579 -0.2366 -0.1274
42882W        W51482   5.096   0.570   4.510 -0.0053 -0.2650 -0.1747
42883W        W51483  16.965   2.411  10.400  0.0401  0.0428  0.1703
42884W        W51484  10.205   6.377  39.719 -0.0032  0.0383  0.1619
42885W        W51485  13.497   6.458  31.977 -0.0150  0.2008 -0.1011
42886W        W51486   5.080   4.596  43.769  0.0934 -0.1494 -0.3349
42887W        W51487   8.959   4.191  15.609  0.1678 -0.2107  0.0443
42888W        W51488   0.466   3.923  33.601 -0.2263  0.0747 -0.0797
42889W        W51489  19.517   1.911  41.716  0.0923 -0.2228  0.0120
42890W        W51490   0.660   0.194  30.106 -0.2490 -0.0556 -0.0540
42891W        W51491   1.134   2.326  31.516  0.0731  0.0706  0.1226
42892W        W51492  12.268   5.002   5.944  0.0151 -0.2595 -0.0977
42893W        W51493  13.773   4.408  21.887 -0.1752 -0.0894 -0.1653
42894W        W51494   9.831   6.183  12.636 -0.0457  0.0435  0.0223
42895W        W51495  19.905   1.844   2.550  0.2217  0.0163 -0.5278
42896W        W51496  17.453   1.326  13.927  0.0844 -0.1097 -0.1940
42897W        W51497   3.451   6.307  15.605  0.0317 -0.1126 -0.1376
42898W        W51498   4.839   2.143  38.464  0.1621  0.2892 -0.2047
42899W        W51499  10.498   2.011  10.899  0.0894 -0.1103 -0.0154
42900W        W51500  13.526   2.812   7.625 -0.1456  0.2019  0.1606
42901W        W51501  13.078   3.598   0.042  0.0434 -0.1721  0.0543
42902W        W51502   0.678   4.649   8.073  0.0966 -0.4487  0.2695
42903W        W51503  10.311   0.240  29.744 -0.2475  0.0830 -0.0547
42904W        W51504   5.647   1.430  27.904 -0.1149  0.1498 -0.0852
42905W        W51505   6.582   5.679  38.420  0.1940  0.1326 -0.0731
42906W        W51506   8.917   1.521   6.587 -0.2300 -0.1694  0.4010
42907W        W51507   5.570   2.548  40.147 -0.0614 -0.1362 -0.0064
42908W        W51508   7.007   5.003   4.198  0.1079 -0.3617  0.0656
42909W        W51509  10.368   1.179  32.175  0.4108  0.3999  0.1938
42910W        W51510  12.704   4.661  11.554 -0.0349  0.0933  0.1397
42911W        W51511   2.653   6.008  15.050 -0.1442  0.0351 -0.4280
42912W        W51512   4.629   3.623  30.810  0.1329  0.1047 -0.1614
42913W        W51513  11.617   0.431  32.782  0.2525  0.1066  0.3013
42914W        W51514  18.943   1.219  20.963  0.2776  0.0668 -0.1146
42915W        W51515   5.048   0.935  23.172 -0.2715 -0.1338 -0.0810
42916W        W51516  10.429   4.400  33.042 -0.1378 -0.0734 -0.3049
42917W        W51517   4.290   2.522   4.437  0.1723  0.1374  0.0644
42918W        W51518  16.667   1.738  34.023 -0.3096 -0.0837 -0.0925
42919W        W51519   4.970   6.603   0.992 -0.1072  0.2239 -0.1490
42920W        W51520   5.753   3.183  40.939 -0.0488  0.0705 -0.2406
42921W        W51521   3.671   6.402  39.089  0.1434 -0.0364 -0.0092
42922W        W51522   7.473   0.299   5.679 -0.1677 -0.0444 -0.0380
42923W        W51523  12.040   0.653   6.196 -0.2528 -0.0972 -0.0272
42924W        W51524   5.735   0.067   4.552 -0.1705  0.1737 -0.1721
42925W        W51525  15.313   0.372  23.486 -0.1531  0.2313  0.3035
42926W        W51526   2.809   3.026  40.827 -0.0186 -0.2348 -0.1981
42927W        W51527  16.946   4.699   3.084 -0.0649  0.1616 -0.0320
42928W        W51528   3.089   4.971  15.844 -0.2212  0.0168 -0.1826
42929W        W51529   7.726   6.603  44.433 -0.0305 -0.1814 -0.2083
42930W        W51530  17.706   6.416  20.012  0.0811  0.0101  0.0756
42931W        W51531  18.908   1.336  41.310 -0.0529  0.0803 -0.1009
42932W        W51532  20.249   2.196  11.736  0.2046 -0.0259 -0.0783
42933W        W51533  13.041   0.673  20.472 -0.0462  0.1859  0.0399
42934W        W51534  18.563   5.420  35.206 -0.0351  0.0946 -0.0142
42935W        W51535   1.415   2.345  26.493  0.3598  0.2024  0.0879
42936W        W51536  11.396   4.951  31.468  0.1039  0.1860  0.0090
42937W        W51537  19.486   6.012  21.076  0.1485 -0.1781  0.0395
42938W        W51538  10.912   1.631  12.668  0.0719  0.1108 -0.1368
42939W        W51539  16.456   3.008  30.688  0.2398 -0.1559 -0.2580
42940W        W51540  21.022   4.119  11.383  0.1817 -0.1240  0.1969
42941W        W51541  16.009   2.787   9.139 -0.0180 -0.0110 -0.1157
42942W        W51542  18.442   2.176   2.679 -0.1231 -0.2770  0.0478
42943W        W51543  20.356   4.125  15.336 -0.1090 -0.0813  0.0200
42944W        W51544  15.210   2.044  43.589 -0.1168  0.1879  0.1602
42945W        W51545   2.929   4.849   0.995 -0.1907 -0.3621  0.0706
42946W        W51546   4.517   2.880  38.273  0.1099  0.1402 -0.0043
42947W        W51547  14.028   6.457  41.448 -0.0288  0.0525 -0.2741
42948W        W51548   2.270   4.803  41.260  0.2148 -0.2182 -0.0795
42949W        W51549  10.910   1.338  42.089  0.1528 -0.1180  0.0828
42950W        W51550  10.164   0.968  33.259 -0.1301  0.1240 -0.1462
42951W        W51551  15.708   3.692   2.772 -0.0745  0.2577  0.0434
42952W        W51552  13.157   5.244   7.398  0.1623 -0.3450  0.2632
42953W        W51553  17.163   6.100   3.917 -0.2858 -0.1247 -0.0037
42954W        W51554   6.370   0.150  38.571 -0.0931 -0.1347  0.1331
42955W        W51555  15.623   5.608  39.664  0.1336  0.0413 -0.0986
42956W        W51556  11.911   1.937  36.566  0.2000  0.2844 -0.0529
42957W        W51557  17.507   2.652  23.216 -0.0121 -0.2745  0.1059
42958W        W51558  11.333   0.216   8.902 -0.4183  0.2076  0.2089
42959W        W51559   6.132   2.592  29.438 -0.3607 -0.2636 -0.0633
42960W        W51560  17.882   3.639  19.738  0.2769  0.1948 -0.0662
42961W        W51561   0.559   6.524  38.664 -0.2908  0.1717  0.1713
42962W        W51562  11.476   5.636   0.476  0.1936  0.1439 -0.4513
42963W        W51563   1.951   3.124   7.429  0.0610  0.0247  0.0359
42964W        W51564  19.698   3.256  33.646  0.2131 -0.0412  0.0065
42965W        W51565  16.809   1.856  38.374 -0.0492  0.0206 -0.1367
42966W        W51566   5.852   3.822  14.046  0.0369 -0.1884 -0.0575
42967W        W51567   1.675   3.922   4.183  0.1248  0.5191 -0.2386
42968W        W51568   3.150   5.542  23.993 -0.1292 -0.0140  0.0674
42969W        W51569   7.105   1.419  30.941  0.0375 -0.3933 -0.1743
42970W        W51570   7.479   3.239  38.693  0.1991  0.0167  0.1147
42971W        W51571   7.334   2.606   8.045  0.1664 -0.0480 -0.2220
42972W        W51572   1.215   5.493   0.459 -0.2190  0.2342  0.0525
42973W        W51573   8.000   0.212  34.554  0.1183  0.2195  0.1496
42974W        W51574   3.335   1.549  31.494 -0.0501 -0.0043 -0.0101
42975W        W51575  19.950   1.296  12.734  0.1779  0.1081 -0.1634
42976W        W51576  15.238   5.111  22.315 -0.1568 -0.0356 -0.0444
42977W        W51577  17.626   0.833  19.671 -0.0232  0.1386 -0.1644
42978W        W51578   1.972   6.139   6.244 -0.1671  0.0987  0.0273
42979W        W51579   0.889   0.722  38.152 -0.1874 -0.0437  0.3364
42980W        W51580   6.683   2.103  40.463 -0.0355  0.3075  0.3243
42981W        W51581  17.770   4.559  29.435  0.1980  0.0153  0.0436
42982W        W51582   6.681   3.507  11.954  0.0369 -0.1202  0.0925
42983W        W51583   4.687   4.003  29.970 -0.1360  0.0352 -0.0110
42984W        W51584  11.751   3.716  40.597 -0.2700  0.1382 -0.1367
42985W        W51585  18.239   2.336  21.419  0.0310  0.1410  0.0372
42986W        W51586   3.964   1.755   9.821  0.1714 -0.0179 -0.2005
42987W        W51587  18.541   5.618   2.801 -0.1253  0.1268 -0.2748
42988W        W51588  10.181   6.473   2.679  0.0762  0.1318  0.1186
42989W        W51589   3.556   1.958  10.065  0.3254  0.1906 -0.0718
42990W        W51590   3.076   1.715  35.203  0.0177  0.1437  0.2602
42991W        W51591   2.279   1.873  15.496 -0.0510 -0.2531  0.1480
42992W        W51592   4.185   2.239  23.752  0.1176  0.1646  0.1170
42993W        W51593  18.140   6.263   1.696  0.1240  0.0169 -0.3198
42994W        W51594   4.574   3.263  28.735  0.0024  0.3667  0.0260
42995W        W51595  10.874   1.917  44.089  0.1970 -0.0991 -0.0236
42996W        W51596  21.132   3.609   7.189  0.2040 -0.1566 -0.0109
42997W        W51597   0.918   2.670  29.883  0.1885  0.2118  0.1076
42998W        W51598  12.199   4.119   5.102 -0.1499  0.2620  0.0824
42999W        W51599  19.050   6.578   3.855 -0.1816  0.3085 -0.0404
43000W        W51600  13.852   0.136  40.160 -0.0407 -0.1312 -0.1202
43001W        W51601   5.829   2.844  37.183  0.2411  0.1379 -0.0410
43002W        W51602   5.037   4.462  10.996 -0.1510  0.3312 -0.0562
43003W        W51603   0.441   4.761  15.251  0.1194  0.0769  0.0475
43004W        W51604   5.779   0.576  21.321 -0.1223 -0.1055  0.0117
43005W        W51605   7.103   1.283   6.951 -0.0686 -0.0716  0.1358
43006W        W51606   6.032   0.459  22.652 -0.3651 -0.0613  0.4606
43007W        W51607   6.433   3.727   4.662  0.0393 -0.2152 -0.0034
43008W        W51608  18.209   2.180  44.077 -0.1111  0.0514 -0.3938
43009W        W51609  19.247   6.174  39.163  0.1573 -0.1843  0.0816
43010W        W51610   5.589   4.811  25.996  0.2816  0.1749  0.1248
43011W        W51611   3.941   6.283  37.292 -0.0421 -0.0747 -0.1046
43012W        W51612  17.003   6.123  33.624 -0.2984 -0.0945  0.0063
43013W        W51613   6.987   0.681  35.538 -0.3682  0.0496 -0.2491
43014W        W51614  13.221   6.095   5.868 -0.2876  0.2300  0.0414
43015W        W51615  17.506   4.952  43.909 -0.0998  0.0092 -0.2538
43016W        W51616  13.596   4.709  36.353  0.2201 -0.1294 -0.0534
43017W        W51617   2.419   5.584   5.200 -0.1296 -0.0367 -0.0098
43018W        W51618  12.544   0.186  13.747 -0.2617 -0.1973  0.1203
43019W        W51619   9.388   6.449  29.140  0.2131  0.0995  0.3996
43020W        W51620   3.114   6.534  33.968 -0.0610  0.0454  0.1236
43021W        W51621  14.550   0.657   4.253 -0.3379 -0.0904 -0.1095
43022W        W51622   4.008   4.141  45.034 -0.0344 -0.0230  0.0288
43023W        W51623   3.040   2.566   3.797  0.1044  0.1858  0.0773
43024W        W51624  14.881   2.410   4.610 -0.0185  0.0823 -0.1807
43025W        W51625   6.509   4.524   7.859  0.1630  0.2160 -0.2440
43026W        W51626   5.799   5.211   9.608 -0.1251  0.0353 -0.1536
43027W        W51627   0.237   1.515  13.133 -0.1176 -0.0527 -0.1739
43028W        W51628   5.934   1.082  13.044  0.0729  0.2626 -0.1384
43029W        W51629  12.001   0.556   5.723  0.0896  0.4334 -0.2728
43030W        W51630   7.563   1.235   0.754 -0.2070  0.0159  0.2434
43031W        W51631   6.402   3.477  22.655  0.3211  0.0983 -0.2727
43032W        W51632  16.446   2.263  29.284  0.1338 -0.2060 -0.0939
43033W        W51633  10.952   3.849   1.178  0.2946 -0.5537  0.1131
43034W        W51634   7.253   4.020  23.870 -0.2547 -0.0497 -0.1300
43035W        W51635   3.693   2.833   3.774  0.2174  0.1504  0.0840
43036W        W51636   0.242   3.873  30.227  0.0758  0.0624 -0.1654
43037W        W51637   4.247   1.884  44.969  0.1698 -0.1249  0.1540
43038W        W51638  16.561   5.199  12.198 -0.1223  0.1630 -0.1383
43039W        W51639  15.793   1.315  33.717 -0.1547 -0.0028  0.1910
43040W        W51640  17.078   6.516  17.641 -0.1137 -0.0309 -0.1400
43041W        W51641   5.372   1.058  15.527 -0.0870 -0.0043 -0.1309
43042W        W51642  10.807   4.870   4.346  0.2120  0.0316  0.3770
43043W        W51643  20.023   2.245  10.284 -0.0682 -0.0992 -0.2785
43044W        W51644   4.450   3.260  27.906  0.2334  0.1140 -0.0141
43045W        W51645  20.890   1.048   8.705  0.0673 -0.0595 -0.2409
43046W        W51646  18.020   4.030  42.145 -0.0549  0.0458 -0.2702
43047W        W51647  19.967   3.591   2.645 -0.0448 -0.1403  0.4257
43048W        W51648  14.409   5.286  14.775 -0.3046  0.1293 -0.2478
43049W        W51649   0.647   3.109  12.048  0.2800  0.0369  0.1760
43050W        W51650  14.313   2.662  38.520 -0.1068  0.2711  0.0807
43051W        W51651  10.701   2.891  39.286  0.0981  0.0313  0.1751
43052W        W51652   9.569   0.356  29.122  0.1683  0.0161 -0.0622
43053W        W51653  18.238   2.539  34.508  0.1842 -0.1953  0.0770
43054W        W51654   1.976   4.097  43.083 -0.0221 -0.1100 -0.1123
43055W        W51655  14.584   6.590  36.404  0.0745 -0.1580 -0.0560
43056W        W51656   2.929   5.139  42.422 -0.1697  0.0968  0.1967
43057W        W51657   6.942   6.076  40.943 -0.2355  0.1516 -0.4333
43058W        W51658  17.906   1.015  12.342  0.0508  0.0102 -0.1636
43059W        W51659  15.237   1.040  28.515 -0.0382  0.3028  0.0068
43060W        W51660   0.792   6.095  12.457  0.0953 -0.0686 -0.0119
43061W        W51661  17.913   2.356  45.107  0.0017 -0.1219  0.3985
43062W        W51662   2.052   2.613  16.016 -0.2043  0.0841 -0.3139
43063W        W51663  12.457   2.028   2.230 -0.2056  0.0854 -0.0106
43064W        W51664   5.114   4.449  21.536 -0.0278  0.2851  0.0554
43065W        W51665  19.232   3.548  21.755 -0.1398 -0.0252 -0.0467
43066W        W51666  18.589   3.338  29.848  0.0886 -0.1364  0.2318
43067W        W51667   9.120   6.268  31.185 -0.0929 -0.0607  0.2642
43068W        W51668   9.421   6.061   2.330 -0.0130 -0.1289  0.0439
43069W        W51669  20.543   4.063   8.350 -0.0961 -0.1494 -0.2950
43070W        W51670   1.498   1.919  34.780  0.0611  0.2362  0.2853
43071W        W51671   6.308   2.432  41.750  0.1083  0.1794 -0.1119
43072W        W51672   0.174   2.488  42.989 -0.1244 -0.2162 -0.1928
43073W        W51673   8.179   3.781  16.561 -0.1257  0.1355  0.0866
43074W        W51674   2.197   1.450  13.697  0.1163  0.0644 -0.3711
43075W        W51675   7.771   5.504   6.935 -0.3478  0.0720  0.0572
43076W        W51676   0.200   2.343  12.039 -0.0965 -0.0108  0.0451
43077W        W51677  11.316   1.713  28.948 -0.4302 -0.0068  0.1141
43078W        W51678  21.067   5.357  15.729  0.3335  0.2409 -0.0407
43079W        W51679   0.685   1.216  39.193 -0.0182  0.1730  0.1327
43080W        W51680  10.057   3.008  40.657  0.0941 -0.1339  0.2216
43081W        W51681   8.670   5.269  37.015  0.0837 -0.1237 -0.0342
43082W        W51682  14.136   2.584  19.421 -0.2134 -0.2071 -0.2988
43083W        W51683  12.036   4.234  12.871  0.0601  0.2014  0.0005
43084W        W51684   0.348   0.695  27.650  0.1128  0.2633 -0.1003
43085W        W51685  12.419   1.812  30.474  0.0110 -0.1851 -0.0059
43086W        W51686   3.250   0.048  28.653 -0.1590  0.0708 -0.1877
43087W        W51687  20.505   1.732   8.747  0.0226 -0.0713 -0.1822
43088W        W51688   7.858   3.966  44.514 -0.0865  0.2023  0.1818
43089W        W51689  15.055   4.045  22.732  0.0780  0.0414 -0.2042
43090W        W51690  14.306   4.828  41.103 -0.0171  0.1167  0.1966
43091W        W51691   6.504   5.129  40.492  0.1639  0.0411  0.5256
43092W        W51692  10.539   1.344   2.112 -0.2276 -0.0790  0.0231
43093W        W51693  17.035   5.497   4.213 -0.3379  0.0623 -0.1143
43094W        W51694  10.551   4.874  35.896  0.2378 -0.1292 -0.0370
43095W        W51695   7.534   1.615  21.654 -0.0372 -0.2648  0.0582
43096W        W51696  12.379   6.195  19.501  0.0789 -0.0204 -0.0088
43097W        W51697   7.266   0.987  26.150  0.0284 -0.2151 -0.2800
43098W        W51698  14.692   1.102  39.844 -0.3506  0.0254 -0.0225
43099W        W51699  19.835   0.257  15.983  0.0677 -0.2127 -0.0307
43100W        W51700  20.997   5.952  40.938 -0.0097  0.0029  0.1865
43101W        W51701   3.752   1.232  41.391  0.1393  0.1303 -0.2705
43102W        W51702  10.760   5.018  36.349  0.0402  0.1566 -0.0286
43103W        W51703  20.906   3.408  42.199 -0.1168  0.0782 -0.3053
43104W        W51704  17.009   4.545   0.282 -0.0619 -0.5904 -0.0946
43105W        W51705   3.741   4.043  41.403 -0.1252  0.0837  0.3515
43106W        W51706   3.219   5.854  10.080  0.0764 -0.0404 -0.0101
43107W        W51707  13.734   3.807  41.503  0.1813  0.0474 -0.1537
43108W        W51708   0.466   4.123  39.456 -0.0110  0.1087  0.0681
43109W        W51709   5.234   4.741  24.689  0.0335  0.0841 -0.0673
43110W        W51710  13.386   1.728  41.330  0.1117 -0.0113  0.0462
43111W        W51711   6.688   0.066  27.928  0.0032 -0.0546 -0.0331
43112W        W51712  16.976   2.696   5.983  0.3239  0.0923 -0.1648
43113W        W51713  19.187   2.048   0.152  0.1983  0.1940  0.0602
43114W        W51714  16.033   0.190  41.541  0.1945 -0.0063 -0.1469
43115W        W51715   8.282   2.872  27.094  0.1860 -0.2015  0.2168
43116W        W51716  19.778   0.031   3.730 -0.0279  0.3407 -0.0633
43117W        W51717   4.648   4.513   5.398  0.1836  0.2232  0.3541
43118W        W51718   3.640   2.167   6.514  0.3277  0.0142  0.2781
43119W        W51719  20.902   2.866   4.576 -0.4632  0.2372 -0.0774
43120W        W51720   8.711   5.579  24.417 -0.0892  0.2503 -0.1762
43121W        W51721   3.507   6.379  10.912  0.1406 -0.1050  0.1218
43122W        W51722  19.917   5.067  33.016  0.2526 -0.1696  0.1477
43123W        W51723   8.991   0.087   3.902  0.1502  0.2707  0.2091
43124W        W51724  18.086   4.967  17.438 -0.1564 -0.0101  0.0952
43125W        W51725  16.570   0.672  15.663 -0.0686 -0.3031  0.3527
43126W        W51726   7.842   3.494   4.185  0.2399  0.1866  0.1830
43127W        W51727  14.786   3.943  30.377  0.5173 -0.1930 -0.2761
43128W        W51728  12.623   3.861   9.319 -0.1623 -0.2358 -0.1762
43129W        W51729   6.449   4.899  13.046 -0.0518 -0.2310  0.3274
43130W        W51730  15.600   5.926  40.088  0.1987  0.1982 -0.1759
43131W        W51731   9.504   4.232  15.672 -0.0510  0.2440  0.1201
43132W        W51732  13.145   1.206  11.786  0.0882 -0.0665  0.0332
43133W        W51733   1.690   0.757  17.178  0.0794  0.1099 -0.0309
43134W        W51734   2.795   0.349  44.596  0.2058  0.1162  0.0196
43135W        W51735  11.010   1.238  37.538 -0.0205 -0.1958 -0.2438
43136W        W51736  20.387   0.541   2.193  0.3608 -0.0430  0.0098
43137W        W51737   2.386   3.560  43.143  0.0932  0.0949  0.3604
43138W        W51738   1.880   0.775  36.851 -0.1630  0.1878 -0.5989
43139W        W51739  14.136   0.133   8.659 -0.0747 -0.2902 -0.3104
43140W        W51740  13.305   3.148  40.073  0.2592 -0.2596 -0.0708
43141W        W51741   7.673   2.286   5.742  0.0399 -0.1859  0.0722
43142W        W51742  16.316   5.682  30.444 -0.2843  0.0964  0.0681
43143W        W51743   3.177   3.261  37.364 -0.0663  0.2549 -0.0500
43144W        W51744  18.021   0.616  32.651 -0.1788  0.2147  0.0270
43145W        W51745   3.030   5.079  35.293 -0.1623 -0.0124  0.1175
43146W        W51746   2.858   2.499  35.809 -0.0508  0.2839  0.1365
43147W        W51747  16.506   2.231  30.211 -0.0454  0.3164 -0.0849
43148W        W51748   4.544   2.344  26.833 -0.1369 -0.1530 -0.1758
43149W        W51749  12.703   4.817  38.805 -0.1799  0.0592  0.2972
43150W        W51750   2.396   0.288  14.001 -0.2478 -0.0798 -0.1809
43151W        W51751   4.110   5.655  27.408 -0.2345  0.3113  0.0980
43152W        W51752  16.584   1.666  20.597 -0.2407  0.1556 -0.0676
43153W        W51753   1.500   2.452  44.800  0.1627  0.3821  0.3300
43154W        W51754  11.814   5.663  32.314 -0.1258  0.5009  0.4593
43155W        W51755   6.019   4.635  35.259 -0.3965 -0.0090 -0.0081
43156W        W51756  17.696   2.887  31.275 -0.0036  0.1294 -0.0852
43157W        W51757   5.716   6.014  15.124  0.2983  0.2960 -0.1566
43158W        W51758   2.930   5.645   9.627 -0.3530  0.2674  0.3918
43159W        W51759  11.254   3.093  37.153  0.1612  0.0006 -0.0019
43160W        W51760   5.515   1.557   7.563  0.2818 -0.2009 -0.3880
43161W        W51761   8.967   0.291   5.667 -0.0971  0.1063  0.1358
43162W        W51762  12.861   0.111  31.137 -0.0585 -0.1535  0.0338
43163W        W51763  10.828   2.509  40.082 -0.2340  0.1444  0.0732
43164W        W51764   1.380   2.838  26.481  0.1201  0.0521 -0.1208
43165W        W51765  12.833   2.664  28.306  0.0593 -0.0644  0.0476
43166W        W51766  11.045   0.734  17.685 -0.1781  0.2992  0.5814
43167W        W51767   3.978   5.369  33.570  0.0078 -0.0448  0.0868
43168W        W51768   0.001   3.230   3.423  0.0469  0.2806 -0.0291
43169W        W51769  18.030   0.585  35.412 -0.0230 -0.0670 -0.1871
43170W        W51770  15.568   2.875  41.101 -0.0264  0.0091  0.2004
43171W        W51771  12.902   2.541  18.642 -0.0333 -0.0679  0.1455
43172W        W51772  11.716   4.558   4.705  0.1058  0.1209  0.1395
43173W        W51773   0.633   5.785  36.153  0.1537  0.0189  0.1609
43174W        W51774   9.937   5.531  43.644 -0.2504  0.1907  0.2803
43175W        W51775  20.340   4.850   6.552 -0.2840  0.0007 -0.1865
43176W        W51776  20.733   2.840  44.641 -0.2504  0.2663  0.1731
43177W        W51777  18.333   6.113  23.178  0.1827 -0.3742 -0.0747
43178W        W51778  11.678   0.123  31.289 -0.0335 -0.2983 -0.1717
43179W        W51779  20.995   4.523  11.706 -0.1169  0.0080  0.2714
43180W        W51780   7.066   5.719   6.558 -0.0520  0.1106 -0.4088
43181W        W51781  18.436   1.333  14.683  0.2065  0.1226  0.1955
43182W        W51782  11.894   0.295  19.193 -0.1136  0.4461 -0.2327
43183W        W51783   9.118   1.390  23.809 -0.0833 -0.0110  0.0745
43184W        W51784  14.815   4.173   4.933 -0.0623  0.1585  0.0599
43185W        W51785  11.857   3.845  38.366 -0.0849 -0.1366  0.0009
43186W        W51786  13.488   4.138   4.813  0.0563 -0.2746 -0.0761
43187W        W51787   7.450   2.858  10.410 -0.3569  0.0017  0.1128
43188W        W51788   4.766   1.447  28.828  0.3885  0.3084  0.1084
43189W        W51789   8.407   1.848  15.247  0.1708 -0.1284 -0.3125
43190W        W51790  10.504   2.199   1.990  0.2625 -0.0060 -0.0456
43191W        W51791   8.913   6.550   8.590 -0.0453 -0.0572 -0.2253
43192W        W51792   7.405   6.331   9.957  0.2188  0.4929 -0.0048
43193W        W51793  20.090   1.310  31.495  0.2718 -0.0675 -0.2656
43194W        W51794  12.492   4.370  31.024 -0.0780  0.1169  0.1582
43195W        W51795   9.036   0.635   2.546  0.1926 -0.0063 -0.1213
43196W        W51796   7.796   5.963  22.485 -0.1665 -0.1447 -0.0161
43197W        W51797  16.310   0.913  39.193  0.0147 -0.1951 -0.1261
43198W        W51798  18.582   0.978   6.827 -0.0733 -0.1622  0.0026
43199W        W51799  18.865   4.588   5.437  0.1098  0.0904  0.0250
43200W        W51800  11.919   0.700  11.902 -0.0348 -0.1268  0.0164
43201W        W51801  20.862   2.116  38.507 -0.1192 -0.1300  0.0459
43202W        W51802  19.136   2.936  29.615  0.0122  0.0373 -0.0176
43203W        W51803   2.099   4.589  25.850  0.1670  0.0588  0.1602
43204W        W51804   6.746   2.848  37.283  0.0109  0.1534 -0.1479
43205W        W51805   5.367   4.675   6.222  0.0961 -0.0932  0.1655
43206W        W51806  11.433   0.783  38.476  0.1735  0.2624  0.2126
43207W        W51807  13.868   3.153  28.310 -0.1279 -0.3879  0.1825
43208W        W51808  19.423   1.156  38.755  0.2243 -0.0246 -0.0399
43209W        W51809  14.707   1.466  32.933 -0.3222  0.0648 -0.1779
43210W        W51810   3.941   6.451  44.529 -0.1074  0.0124  0.1964
43211W        W51811  17.815   1.298  16.923  0.2144 -0.0094  0.1408
43212W        W51812   7.320   5.228  12.654  0.1738  0.0625 -0.0087
43213W        W51813   2.844   1.203  29.705  0.1578  0.0034  0.0651
43214W        W51814  18.059   5.770  20.977 -0.2749 -0.1577 -0.0925
43215W        W51815  12.920   4.984  13.335  0.0695 -0.1781  0.1385
43216W        W51816  19.490   5.106  43.817  0.3899 -0.0393  0.0426
43217W        W51817  13.140   6.304   9.684 -0.3233 -0.0739  0.2400
43218W        W51818  10.513   3.080  26.533  0.3247 -0.0013  0.1762
43219W        W51819  10.916   1.946  17.264 -0.1778 -0.0679 -0.0650
43220W        W51820   8.340   2.172  32.343 -0.1597 -0.1995  0.1893
43221W        W51821  19.248   0.635  35.920 -0.1236  0.0479 -0.0422
43222W        W51822  11.295   5.068  27.479  0.0110  0.0160  0.1556
43223W        W51823   0.405   2.285   6.883  0.0158  0.2592 -0.1543
43224W        W51824   0.300   1.333  11.012 -0.2252 -0.1484  0.2391
43225W        W51825  12.246   6.003   9.304  0.2697  0.1345 -0.0373
43226W        W51826  21.078   2.728  30.982 -0.3922  0.2446 -0.3776
43227W        W51827  16.753   0.253  17.319  0.3998  0.2574  0.0524
43228W        W51828   4.898   3.571  13.295  0.0660 -0.2021 -0.0906
43229W        W51829  16.608   1.892  12.601  0.0713  0.0713 -0.0977
43230W        W51830   5.437   1.842  33.079 -0.1832 -0.1862  0.0465
43231W        W51831  16.501   1.967  13.303 -0.0666  0.1157  0.1969
43232W        W51832   8.347   0.380  10.951  0.6186  0.2467 -0.1357
43233W        W51833   4.364   6.149  13.031 -0.1019 -0.1365 -0.1764
43234W        W51834   5.066   5.473  44.136  0.0823 -0.1891  0.0870
43235W        W51835  16.026   5.024  13.034  0.3351 -0.0562  0.5701
43236W        W51836  18.698   4.040  15.982  0.1859  0.1588  0.0737
43237W        W51837   7.284   6.116   8.191  0.0967  0.0241  0.2222
43238W        W51838  15.290   3.290   4.828  0.1024 -0.2111  0.1037
43239W        W51839   2.491   0.435  27.829 -0.1533 -0.2725  0.1242
43240W        W51840   6.854   3.767  13.300 -0.1695 -0.1182 -0.2229
43241W        W51841   7.056   5.644  12.193 -0.0464 -0.2214 -0.0480
43242W        W51842   2.378   5.547   4.671  0.4294  0.2538  0.1101
43243W        W51843   6.778   3.028  41.796 -0.0483 -0.0859 -0.1925
43244W        W51844   3.088   1.001  15.286  0.0137  0.0112  0.0475
43245W        W51845   3.501   6.573  33.173  0.1167  0.1265 -0.0902
43246W        W51846  17.852   1.944  19.704  0.0070 -0.0429 -0.3182
43247W        W51847  16.346   1.921  13.782  0.2765 -0.3994  0.1172
43248W        W51848  14.900   0.297  10.985 -0.1525 -0.1956  0.0269
43249W        W51849  11.033   2.856  11.720 -0.0254 -0.3691 -0.2818
43250W        W51850   4.607   2.451  43.643  0.1842 -0.1939 -0.1394
43251W        W51851   2.733   3.529  15.210 -0.2513 -0.0649 -0.1393
43252W        W51852   3.151   1.554  15.181 -0.1442 -0.0165  0.4431
43253W        W51853  19.917   2.979  20.952  0.1388 -0.1169  0.2591
43254W        W51854  19.243   2.322  41.377 -0.0153 -0.0126  0.3242
43255W        W51855   7.583   3.818  29.590  0.1845  0.0450 -0.1274
43256W        W51856  14.119   1.752  35.593  0.3074  0.3175  0.4205
43257W        W51857  19.578   0.841   8.814 -0.2208 -0.3276 -0.1004
43258W        W51858  20.908   3.992  30.844 -0.1038 -0.1217  0.0538
43259W        W51859   5.741   0.218  38.375 -0.3222  0.0263 -0.0781
43260W        W51860  11.378   1.665  39.470  0.0007 -0.1434  0.1754
43261W        W51861  16.358   5.767  22.262 -0.1197 -0.1474 -0.0364
43262W        W51862  19.045   1.978  31.155 -0.1195  0.1848 -0.0350
43263W        W51863   6.787   4.115  42.141 -0.3059  0.1616 -0.0025
43264W        W51864   7.222   3.167  10.760 -0.1541 -0.1432  0.0766
43265W        W51865   0.240   2.841  12.907  0.1314  0.0368 -0.0143
43266W        W51866   8.842   2.347  27.616 -0.0690 -0.2092 -0.0370
43267W        W51867  17.773   3.078   0.820 -0.0887 -0.1677 -0.1704
43268W        W51868   1.719   2.296   7.785  0.2935  0.0188  0.3545
43269W        W51869   2.170   2.946  12.866  0.0772  0.0251  0.2487
43270W        W51870   9.498   0.214   0.520  0.0395  0.1419  0.0067
43271W        W51871   4.169   0.739  31.573  0.0718 -0.1916 -0.0494
43272W        W51872  10.446   3.758  40.893 -0.1889 -0.0303 -0.1605
43273W        W51873  19.187   0.359   8.401 -0.4341 -0.1848 -0.3340
43274W        W51874   4.579   1.241  25.776  0.0622  0.1693  0.0535
43275W        W51875  11.509   3.526   8.543  0.2401 -0.0469 -0.1436
43276W        W51876  11.408   5.202   0.680 -0.4243 -0.2330 -0.1088
43277W        W51877  14.324   0.102  44.641  0.2486 -0.1234 -0.1131
43278W        W51878   0.666   5.787  12.094 -0.2058  0.3179 -0.0975
43279W        W51879   1.501   3.695   4.574 -0.0714 -0.1760  0.1544
43280W        W51880  13.075   3.072   9.895  0.3099  0.2213  0.1117
43281W        W51881   8.079   5.752  25.617  0.3696 -0.0887  0.0587
43282W        W51882  17.672   0.442   5.939  0.3965 -0.2837  0.0885
43283W        W51883   2.324   6.264  35.344 -0.1069  0.1302  0.0270
43284W        W51884  11.290   0.237   2.864 -0.0336 -0.0673 -0.0552
43285W        W51885   2.717   5.066   9.615 -0.1010  0.0475 -0.0639
43286W        W51886  13.736   5.415  34.221 -0.0361  0.0476 -0.1137
43287W        W51887   9.342   1.273   8.842 -0.1137 -0.0389  0.1088
43288W        W51888   5.265   1.512   9.745  0.3277  0.0897 -0.2900
43289W        W51889   4.137   3.416  42.137 -0.2457 -0.0695 -0.2568
43290W        W51890   0.787   3.896  14.606 -0.1340  0.0688  0.1682
43291W        W51891  13.830   1.462   3.905 -0.0738 -0.2104  0.0590
43292W        W51892  13.466   1.652  17.597 -0.0734  0.2417  0.0088
43293W        W51893   7.422   1.029   9.271 -0.1199  0.0049  0.0514
43294W        W51894   8.415   6.173  39.654  0.4325 -0.3670  0.2177
43295W        W51895   4.826   3.333  12.796  0.1046  0.0260  0.1235
43296W        W51896  13.513   6.224  42.565 -0.0204 -0.1538  0.0146
43297W        W51897  10.493   4.928  12.789  0.2860  0.0210 -0.0105
43298W        W51898  15.133   0.562  22.206 -0.2327  0.2921 -0.2098
43299W        W51899   8.159   5.119  32.640  0.1204 -0.1188  0.2597
43300W        W51900   5.872   3.140  28.036  0.1471  0.0620 -0.6585
43301W        W51901   2.537   1.372  25.695  0.1287  0.0138  0.2330
43302W        W51902   6.299   0.268   6.801  0.0115  0.0509 -0.2885
43303W        W51903  11.645   2.890   7.849  0.1854 -0.0934  0.1960
43304W        W51904  11.781   3.678  43.839 -0.1571 -0.1591  0.0453
43305W        W51905  15.358   3.090  23.781 -0.0915  0.0293  0.1106
43306W        W51906   9.471   5.298  43.094  0.0539 -0.2983 -0.0996
43307W        W51907  18.765   2.527  11.802  0.0128  0.1930  0.1024
43308W        W51908   7.558   5.230  16.371  0.0538 -0.1748 -0.0525
43309W        W51909   2.811   0.711  35.587  0.0210  0.1158  0.4297
43310W        W51910   4.286   3.362  24.275  0.2627  0.1057 -0.1113
43311W        W51911  11.746   3.343  10.706  0.4149  0.3577 -0.0550
43312W        W51912  10.521   0.556  43.713  0.1956 -0.2924  0.1720
43313W        W51913  18.863   3.161  42.435  0.1182 -0.0041 -0.1149
43314W        W51914  14.296   2.377  34.926  0.1315  0.2850  0.1578
43315W        W51915   9.429   6.287  33.251 -0.0808 -0.0290 -0.2097
43316W        W51916  17.834   0.822   3.175 -0.0604  0.1564 -0.1019
43317W        W51917  17.690   6.415   1.970  0.0441  0.2934 -0.0971
43318W        W51918   5.215   6.578  14.437 -0.0600  0.1074  0.1992
43319W        W51919  17.866   3.181  34.548 -0.1745  0.3176  0.2100
43320W        W51920  16.153   0.465   1.047 -0.0783 -0.1819  0.2240
43321W        W51921   0.931   5.720  27.478  0.0891 -0.1620  0.0266
43322W        W51922  11.124   0.763   2.185  0.3005  0.0914 -0.3752
43323W        W51923   4.034   0.495   3.831  0.2559  0.2463  0.0931
43324W        W51924  18.311   1.862  43.686  0.3421 -0.0106  0.0533
43325W        W51925   9.747   0.281  32.944 -0.0705 -0.2784  0.2968
43326W        W51926  11.291   3.214  12.142 -0.0204 -0.0475  0.2841
43327W        W51927  18.370   6.479  43.688 -0.2120 -0.2021  0.2914
43328W        W51928  15.067   0.879  43.278 -0.2122 -0.0617 -0.1475
43329W        W51929  13.534   0.071   1.245 -0.0417  0.1070 -0.1039
43330W        W51930  13.062   0.764  36.319 -0.0174  0.1396  0.0047
43331W        W51931  14.800   4.530  17.390 -0.1887  0.2161  0.1034
43332W        W51932   2.050   4.257   6.111 -0.0242  0.1234 -0.0477
43333W        W51933  19.115   6.248   2.814  0.0080 -0.4589  0.1264
43334W        W51934  10.340   2.424  44.213 -0.0370 -0.2382 -0.0560
43335W        W51935  17.841   0.738   6.431  0.2975 -0.2082  0.0644
43336W        W51936   4.964   4.351   0.360  0.1799  0.6105 -0.0987
43337W        W51937   7.262   4.458  44.053  0.0551 -0.1685 -0.0038
43338W        W51938   7.070   3.626   5.423  0.0725 -0.1197  0.2002
43339W        W51939   7.722   4.833   1.396 -0.0031  0.1015 -0.1989
43340W        W51940   6.869   4.945  35.020 -0.2381 -0.1448 -0.1734
43341W        W51941  13.138   3.440   3.972  0.0249  0.3444 -0.0503
43342W        W51942   8.937   4.621  24.414  0.2439 -0.0834 -0.0377
43343W        W51943  21.088   4.248   6.620  0.1187 -0.0374  0.2303
43344W        W51944   1.402   6.328  27.409 -0.0850  0.0100 -0.3659
43345W        W51945   6.386   3.341  11.610  0.0494  0.2441  0.3365
43346W        W51946  21.095   3.369  33.592  0.0005 -0.1343  0.0270
43347W        W51947  16.070   5.610  35.008 -0.5507  0.2051 -0.1518
43348W        W51948   0.783   1.041  30.116 -0.1985 -0.0773  0.1896
43349W        W51949  15.538   5.367   4.085 -0.0366  0.1042  0.1602
43350W        W51950  18.131   4.922  31.450  0.1506  0.0403 -0.2353
43351W        W51951  13.832   6.504   7.169  0.0229 -0.0098 -0.0209
43352W        W51952   0.045   4.581  36.940 -0.1853  0.3096 -0.4006
43353W        W51953   1.242   0.117   9.201  0.0498  0.1227 -0.0436
43354W        W51954  20.956   2.700  11.860 -0.1478 -0.2833 -0.2831
43355W        W51955   8.194   0.192  44.274 -0.1015 -0.0981 -0.2517
43356W        W51956   0.510   5.663  17.963 -0.2876 -0.2336  0.0156
43357W        W51957   2.432   4.382  39.873  0.0971  0.1625 -0.1017
43358W        W51958  12.357   5.266  31.033  0.2762 -0.1259 -0.2126
43359W        W51959   9.046   0.170  31.430  0.3154 -0.1073  0.0728
43360W        W51960   8.365   5.363  29.973 -0.0395  0.0789 -0.1303
43361W        W51961  13.534   1.215  40.137  0.0998  0.2033 -0.1602
43362W        W51962   8.175   4.310  31.284  0.1481 -0.1665  0.0444
43363W        W51963  13.462   0.056  12.395 -0.2162  0.2901  0.1117
43364W        W51964   7.481   4.190  15.497  0.0769  0.0155 -0.0525
43365W        W51965  14.959   1.896  36.375 -0.1136  0.1402 -0.1872
43366W        W51966  15.817   3.742   1.419  0.3194 -0.2677  0.2475
43367W        W51967  16.794   1.581   5.677  0.2316 -0.0713 -0.1965
43368W        W51968   5.193   4.685   0.115  0.0143 -0.2380  0.4077
43369W        W51969  19.108   6.546  45.056  0.0202  0.0149  0.0358
43370W        W51970   7.446   0.537  16.540 -0.0852  0.0661  0.0410
43371W        W51971  14.933   2.336  32.995 -0.3057 -0.3293 -0.4386
43372W        W51972  10.087   2.238   0.676  0.2683 -0.0153  0.1877
43373W        W51973   7.905   2.477  29.054 -0.3777 -0.0973  0.0075
43374W        W51974   4.575   2.548  13.132 -0.2705 -0.0564 -0.2297
43375W        W51975   0.053   4.674  16.289  0.3535 -0.0749  0.1672
43376W        W51976   9.466   0.104  40.350 -0.1152  0.0852  0.0545
43377W        W51977  10.694   0.014  39.737  0.0425 -0.1606  0.1096
43378W        W51978   5.950   5.237   1.963 -0.0597 -0.2167 -0.0818
43379W        W51979  11.482   1.045  33.664 -0.2309  0.2167 -0.1398
43380W        W51980  15.761   0.834  36.613  0.2490  0.3627  0.1362
43381W        W51981  14.160   3.140  19.473 -0.2131 -0.0018 -0.0589
43382W        W51982  18.203   4.022  13.902 -0.0240  0.3551 -0.0344
43383W        W51983   1.767   4.484   5.344  0.0003 -0.0833  0.1046
43384W        W51984  15.234   5.093  37.574 -0.2211  0.2040  0.1318
43385W        W51985   7.328   5.761  36.945 -0.0140  0.0413 -0.0663
43386W        W51986   7.031   3.740   7.738 -0.2092  0.0135  0.0916
43387W        W51987  16.946   1.018  36.905  0.1524  0.0092  0.0311
43388W        W51988   1.131   5.585  29.298  0.0723 -0.1259  0.1766
43389W        W51989   6.615   1.838  40.848  0.1615  0.1233  0.1025
43390W        W51990  19.218   2.309  17.288  0.1588 -0.0637  0.3908
43391W        W51991   5.686   5.895  13.169 -0.0422  0.0598 -0.0762
43392W        W51992   8.686   6.378  31.447  0.1892  0.0071  0.0652
43393W        W51993  19.307   3.021  35.973  0.0005  0.4594 -0.0731
43394W        W51994  16.238   5.475  12.396 -0.0841 -0.0456 -0.0737
43395W        W51995   0.192   2.705  17.873 -0.1535 -0.0615 -0.1096
43396W        W51996  15.976   5.490  44.998  0.2550 -0.3761 -0.1116
43397W        W51997  21.014   5.607  18.671 -0.1433 -0.2217 -0.0863
43398W        W51998  12.011   6.382  35.973  0.1529 -0.1781  0.2752
43399W        W51999  13.411   3.051  14.677  0.1202  0.1959  0.0899
43400W        W52000   7.925   3.172  39.611 -0.1443  0.0571 -0.1689
43401W        W52001   2.990   4.463  12.141 -0.0260 -0.2473 -0.3364
43402W        W52002  11.378   5.545  10.813  0.0163 -0.1771  0.2144
43403W        W52003   8.168   2.223   4.386 -0.0319  0.0526  0.0755
43404W        W52004  10.986   4.473   1.601 -0.0098  0.3665  0.1897
43405W        W52005   6.826   1.241  42.672 -0.0488 -0.1157 -0.3921
43406W        W52006  14.924   0.503  38.537 -0.0065  0.1977  0.1294
43407W        W52007  14.988   2.828   0.910 -0.0002  0.1182 -0.1321
43408W        W52008   3.477   2.871  44.761 -0.0743  0.2478  0.0273
43409W        W52009   0.880   3.587  43.113 -0.0633 -0.1859  0.0152
43410W        W52010  19.777   0.225  43.201 -0.0637 -0.0756  0.0511
43411W        W52011   7.454   5.814   6.088  0.2830 -0.1644  0.1198
43412W        W52012   9.457   5.090   1.973  0.0168 -0.0058  0.4430
43413W        W52013   8.378   4.669  37.323  0.0427  0.0065  0.2721
43414W        W52014  15.896   0.171  11.453 -0.4425  0.2095  0.3385
43415W        W52015   5.433   4.474  20.612  0.1106 -0.0197  0.1279
43416W        W52016   3.818   6.173   5.182 -0.0039 -0.1259  0.2116
43417W        W52017   8.494   0.450  32.671 -0.0537  0.0783  0.0411
43418W        W52018   1.124   1.735  10.857  0.3956 -0.0083 -0.1689
43419W        W52019   0.211   5.825  43.064  0.2490 -0.0079 -0.0789
43420W        W52020   1.164   1.714  31.503 -0.0191 -0.1147  0.2625
43421W        W52021  14.615   1.268  40.424  0.2729  0.2530 -0.2281
43422W        W52022  10.426   2.960  11.182  0.0346  0.3669  0.1408
43423W        W52023  19.377   6.576  44.647 -0.1958  0.0993 -0.1747
43424W        W52024   4.071   5.949  44.311 -0.3330  0.2844 -0.0971
43425W        W52025   7.142   2.613  42.928 -0.3400 -0.1108  0.0051
43426W        W52026  19.186   0.426  31.213 -0.3970  0.0604 -0.2831
43427W        W52027   2.251   5.640   1.203  0.0713  0.0214 -0.1209
43428W        W52028  20.645   2.257   6.099  0.1917  0.0784 -0.1918
43429W        W52029  10.506   5.002   2.926 -0.0938  0.1072 -0.1269
43430W        W52030   7.499   6.001  41.021  0.0749 -0.0103  0.1612
43431W        W52031   1.936   3.677  36.332  0.0645 -0.1157 -0.1505
43432W        W52032   3.368   2.287  27.835  0.1501  0.0639 -0.0695
43433W        W52033  12.056   4.788  29.518  0.1257 -0.1212 -0.0679
43434W        W52034   4.414   6.057   9.863 -0.1520 -0.0153  0.0222
43435W        W52035  18.433   3.919  18.171  0.1857 -0.0854 -0.2538
43436W        W52036   6.846   3.614  37.025  0.1429 -0.0976  0.0269
43437W        W52037  11.505   5.935  27.249  0.1862  0.2664 -0.3216
43438W        W52038  19.776   2.717   7.724  0.2370  0.0295  0.1732
43439W        W52039   4.086   0.458   1.190 -0.0921  0.2006  0.0962
43440W        W52040   7.296   3.838  25.989 -0.4025 -0.1672 -0.0370
43441W        W52041   1.277   3.649  26.074 -0.1148  0.0761 -0.0353
43442W        W52042   5.695   5.998  29.423 -0.1550 -0.2354 -0.1282
43443W        W52043   0.047   5.832   3.666  0.0771 -0.1404 -0.0597
43444W        W52044  15.938   2.754  29.937 -0.1637 -0.1255  0.0243
43445W        W52045  15.305   2.904  17.433 -0.0947 -0.0635 -0.1513
43446W        W52046   7.935   0.641  30.317  0.2503  0.1962 -0.0292
43447W        W52047  16.488   2.465   9.963 -0.0114 -0.1774 -0.1367
43448W        W52048   3.340   6.512  42.056  0.0358  0.1188 -0.1471
43449W        W52049   7.153   3.273  40.518  0.1357  0.3757  0.2143
43450W        W52050  11.458   6.391   9.171  0.0161 -0.1775 -0.1077
43451W        W52051  13.477   4.215  36.381  0.0336 -0.1664 -0.0871
43452W        W52052  16.919   5.650  17.535  0.1887  0.1492  0.2857
43453W        W52053   1.095   0.979  30.729  0.0494 -0.1121  0.1183
43454W        W52054  16.372   2.902  10.838  0.0780  0.1016 -0.0356
43455W        W52055   9.382   2.449  41.189  0.2256 -0.0803  0.1084
43456W        W52056  19.038   3.182  30.015 -0.1549  0.1584  0.2279
43457W        W52057   2.473   4.927  10.750  0.0198 -0.0996  0.1578
43458W        W52058   8.598   4.857  44.262 -0.3512  0.1289 -0.0876
43459W        W52059   8.467   2.588   2.747  0.0131 -0.1480 -0.2369
43460W        W52060   7.691   3.032   6.358  0.2602 -0.2090  0.0172
43461W        W52061  17.865   4.344  22.795  0.2248  0.1476  0.0080
43462W        W52062  13.057   4.561  40.184 -0.1667  0.1189  0.0124
43463W        W52063  16.554   2.158  32.073  0.1203  0.3248 -0.0652
43464W        W52064  10.092   2.103   7.215 -0.0316  0.2159 -0.3573
43465W        W52065   9.711   1.910  27.028 -0.1471 -0.0294 -0.0076
43466W        W52066  19.165   4.330   1.830  0.0484 -0.0693  0.0140
43467W        W52067  18.979   6.075  31.337  0.3375  0.1271 -0.0116
43468W        W52068   7.580   6.463  23.914  0.3218 -0.0300 -0.0804
43469W        W52069   6.100   3.985  32.338 -0.1075 -0.1064  0.2308
43470W        W52070  16.874   2.280   3.267 -0.0935 -0.0849 -0.1669
43471W        W52071   0.221   2.734  14.642 -0.4230 -0.0065 -0.1706
43472W        W52072  18.353   1.416   1.594  0.0899 -0.1494  0.0596
43473W        W52073  10.085   5.549  33.340  0.5100  0.0685  0.0107
43474W        W52074  12.306   5.703  20.136  0.0977 -0.0526 -0.1109
43475W        W52075   3.960   3.270  11.656 -0.2209 -0.1286 -0.1075
43476W        W52076   2.901   5.556  11.423  0.0109  0.0259 -0.0486
43477W        W52077   5.213   3.770   2.522  0.2334  0.2061  0.2083
43478W        W52078  13.341   2.031  39.045 -0.2072  0.1756 -0.0992
43479W        W52079  17.528   0.945   8.177 -0.0880 -0.2040  0.0373
43480W        W52080   8.963   6.029  16.363 -0.1070  0.0215  0.1384
43481W        W52081  11.553   1.353  18.009  0.1542  0.1766  0.0150
43482W        W52082  14.290   4.729  10.162 -0.0206 -0.2857 -0.2541
43483W        W52083   0.225   4.768  39.125 -0.2271  0.1639  0.0822
43484W        W52084   2.292   6.386  13.700 -0.2163  0.1308 -0.1041
43485W        W52085   5.890   4.663  20.517 -0.2677 -0.0255 -0.3476
43486W        W52086   7.129   6.100  30.233 -0.1513 -0.1250 -0.0806
43487W        W52087   8.322   1.294  24.342 -0.0451 -0.0610  0.0467
43488W        W52088  17.970   3.251  32.146 -0.0322 -0.1726 -0.0990
43489W        W52089   8.052   0.546  12.751 -0.0929 -0.1477  0.0009
43490W        W52090   0.859   2.919  43.926 -0.1235 -0.0911 -0.0721
43491W        W52091  17.269   4.366  32.540  0.2590 -0.1813  0.0567
43492W        W52092   0.103   1.819  17.926 -0.1373 -0.1697 -0.0814
43493W        W52093  16.415   4.655  31.530  0.3431  0.2640 -0.0072
43494W        W52094   0.431   0.220  11.381 -0.4495  0.0633 -0.1379
43495W        W52095  19.674   2.342  40.638 -0.0951 -0.0799 -0.0544
43496W        W52096  10.641   0.719  38.771  0.1776  0.1970  0.1097
43497W        W52097   4.720   2.849  35.292  0.0757 -0.0787 -0.1031
43498W        W52098   6.836   1.633  32.852 -0.0678 -0.0209  0.0746
43499W        W52099   7.046   2.777   0.877 -0.0294 -0.3116  0.1436
43500W        W52100  18.969   2.901  21.153  0.1180 -0.0286 -0.2632
43501W        W52101   6.961   6.434  13.695  0.0934  0.1585 -0.0144
43502W        W52102  14.271   4.884  42.346  0.1803  0.0152  0.2126
43503W        W52103   7.629   1.146  32.816 -0.1633  0.0871 -0.1997
43504W        W52104   4.950   3.437   3.823 -0.1296 -0.3501 -0.2181
43505W        W52105  14.284   3.438  13.828  0.0012  0.0393  0.0342
43506W        W52106   3.771   2.206  25.977 -0.0128  0.0942  0.2786
43507W        W52107  21.015   0.065   6.052  0.3335  0.0914  0.0966
43508W        W52108  10.617   3.347  39.783  0.1552  0.2399  0.2072
43509W        W52109   9.041   1.549  17.277  0.1094 -0.4525 -0.2121
43510W        W52110  13.179   3.871   3.724  0.3031 -0.1208  0.0132
43511W        W52111   9.682   5.291  38.177 -0.1451  0.1288 -0.1217
43512W        W52112   9.664   3.154  17.409 -0.0584 -0.0207 -0.1535
43513W        W52113  14.109   4.056  33.651  0.1180 -0.0704  0.0312
43514W        W52114  15.692   4.810  22.204  0.2447 -0.1010  0.1059
43515W        W52115  10.962   4.229   3.877 -0.0224 -0.1316  0.0333
43516W        W52116  18.912   4.137  37.455  0.0896 -0.1476  0.6043
43517W        W52117  20.361   5.622   5.426  0.0216  0.0202  0.0822
43518W        W52118  12.772   3.218  28.498 -0.1835 -0.2529 -0.2063
43519W        W52119  13.489   2.249  15.840 -0.1167 -0.2821  0.1881
43520W        W52120  20.105   0.915  29.807 -0.0056 -0.2576  0.1477
43521W        W52121   1.997   4.454   7.086 -0.2184  0.0308 -0.0274
43522W        W52122  16.385   1.490  32.434  0.0952 -0.2813 -0.3127
43523W        W52123   5.786   3.000  15.026 -0.3595  0.0507 -0.0998
43524W        W52124  19.004   5.520   3.627 -0.3739 -0.2251  0.0435
43525W        W52125  18.600   3.077  36.540  0.2568 -0.0305  0.0312
43526W        W52126  12.919   0.699  33.298 -0.1145 -0.1656 -0.2339
43527W        W52127   3.871   3.840   5.888 -0.0178  0.1569  0.2434
43528W        W52128  10.564   4.969  15.983  0.2145  0.0526 -0.2150
43529W        W52129  10.708   0.184  33.681 -0.0835  0.1311  0.0155
43530W        W52130  17.855   3.891  39.035 -0.0075 -0.0310  0.2222
43531W        W52131   1.754   0.061  12.206 -0.2402 -0.2238 -0.0311
43532W        W52132   9.395   3.711  33.215  0.1403  0.2021 -0.3539
43533W        W52133  15.183   1.435  12.751 -0.2847 -0.1105  0.0036
43534W        W52134  16.356   5.622  38.061  0.0518 -0.3108 -0.1984
43535W        W52135   0.819   0.535  30.470  0.3258 -0.0556 -0.2378
43536W        W52136  16.231   5.326  40.515  0.1648  0.1799  0.0368
43537W        W52137   8.868   0.805   9.877 -0.2872 -0.0672 -0.1275
43538W        W52138  14.417   3.633   4.261 -0.1581  0.1604 -0.0760
43539W        W52139  10.380   1.525  11.944  0.0069 -0.0397  0.1172
43540W        W52140   0.794   3.594  41.950  0.1442 -0.1301  0.0971
43541W        W52141   4.470   3.895  33.931  0.0656  0.0995 -0.3549
43542W        W52142   8.742   5.216  33.365  0.3013  0.3283  0.1421
43543W        W52143   8.167   4.805  26.329  0.3192  0.3230  0.0473
43544W        W52144  18.705   1.255   9.672  0.3302  0.0407 -0.0295
43545W        W52145   8.954   0.502  32.393  0.0033  0.2332 -0.1789
43546W        W52146  17.083   3.318   8.173 -0.0450 -0.4161 -0.0616
43547W        W52147  18.687   4.891   2.466  0.0624  0.3294 -0.3387
43548W        W52148   4.561   5.617  13.677 -0.0435 -0.2283 -0.4846
43549W        W52149  11.421   3.722   4.372  0.1434 -0.1140 -0.0614
43550W        W52150   8.698   4.533   5.294  0.2335  0.1456  0.1796
43551W        W52151   2.615   4.140  29.459  0.3930 -0.1844  0.0819
43552W        W52152   0.747   6.156  37.719 -0.0414 -0.0085 -0.1222
43553W        W52153   9.303   1.651  30.295 -0.1302  0.0219  0.1239
43554W        W52154  20.587   1.830  10.949  0.1559 -0.4882  0.0563
43555W        W52155  19.349   1.721   7.229  0.0550 -0.2040 -0.0499
43556W        W52156   8.898   2.019  17.344  0.0398  0.1510 -0.2671
43557W        W52157  18.307   1.735  36.724 -0.1338 -0.1006  0.0568
43558W        W52158   6.812   6.459   1.364  0.0698  0.0811 -0.0300
43559W        W52159   2.320   5.148  12.145 -0.0623  0.0195  0.0661
43560W        W52160   1.102   6.560  14.012 -0.2262  0.0707 -0.0220
43561W        W52161   8.428   6.186   4.971 -0.2166  0.2940  0.1790
43562W        W52162  18.339   5.718  11.618  0.0494 -0.0159 -0.1204
43563W        W52163  19.815   3.502  17.006  0.0987  0.0251  0.2550
43564W        W52164   1.225   6.169   2.598 -0.2385 -0.3322 -0.1691
43565W        W52165  17.158   5.321  33.446  0.2148  0.2372 -0.0319
43566W        W52166   6.219   5.939  22.830  0.3689  0.1127 -0.0824
43567W        W52167   9.636   5.700  27.209 -0.1850 -0.0539  0.1148
43568W        W52168   8.207   4.878  10.677  0.1990  0.3205  0.1978
43569W        W52169  14.254   4.065  43.601 -0.0045  0.0093  0.3510
43570W        W52170   0.378   3.598  40.326 -0.2506  0.2139 -0.1180
43571W        W52171  10.332   5.420  16.485 -0.1553  0.0316 -0.0097
43572W        W52172  18.554   4.672  30.470  0.1248  0.1163  0.0174
43573W        W52173   1.063   6.198  36.351  0.3360  0.0759  0.0696
43574W        W52174   6.459   2.764  25.339 -0.2421 -0.0301  0.3106
43575W        W52175  11.096   1.321  32.894  0.1409  0.0072 -0.1952
43576W        W52176  19.165   0.235  33.805 -0.0489  0.1163 -0.1164
43577W        W52177  14.438   5.873  37.755 -0.0916 -0.1515 -0.2528
43578W        W52178  14.906   2.867  32.889 -0.1561  0.2287 -0.0022
43579W        W52179  21.138   2.671  12.375  0.1624  0.2383  0.0597
43580W        W52180   3.363   2.152  35.344  0.2860  0.0520 -0.2812
43581W        W52181  12.155   3.388  12.128  0.1143  0.1929 -0.4551
43582W        W52182   6.428   1.058  42.290 -0.2191  0.1235 -0.1516
43583W        W52183  17.156   4.016  44.441 -0.2068 -0.1107 -0.2306
43584W        W52184  17.023   5.113  29.299 -0.0320  0.0071 -0.1584
43585W        W52185   8.842   1.397  42.338 -0.1676 -0.0894 -0.1320
43586W        W52186  12.683   6.206  30.525  0.1195 -0.2553 -0.0242
43587W        W52187   8.388   0.498  16.617  0.1359  0.0454 -0.4185
43588W        W52188   4.696   3.029  23.534 -0.2728  0.2839 -0.4488
43589W        W52189  20.117   2.236  15.133  0.0367  0.0181 -0.1678
43590W        W52190   5.572   2.522  15.227 -0.1049  0.0407  0.2039
43591W        W52191  12.217   3.157   9.208 -0.1772 -0.1505 -0.2182
43592W        W52192  11.330   0.331  33.621 -0.3345  0.1341 -0.1857
43593W        W52193  11.689   5.303  16.873 -0.1225  0.0363 -0.0233
43594W        W52194   9.780   0.530   1.083 -0.2672 -0.1451 -0.2411
43595W        W52195   9.805   3.091  37.577 -0.0757  0.0815 -0.3783
43596W        W52196  17.119   1.356  16.020 -0.0242 -0.2967 -0.0471
43597W        W52197  18.239   4.911  42.035  0.1142  0.4379  0.3412
43598W        W52198  12.879   4.309   6.675  0.1411  0.1137  0.0220
43599W        W52199  18.004   4.891  22.503  0.2207 -0.3488 -0.0597
43600W        W52200   3.269   4.263  10.690  0.1902 -0.1293 -0.1955
43601W        W52201   7.525   3.263  37.701 -0.1741 -0.2464 -0.0022
43602W        W52202  12.276   1.644   3.859  0.4563 -0.0201  0.0047
43603W        W52203  15.148   5.402  39.764  0.0336 -0.0511  0.0689
43604W        W52204   3.203   2.074  41.609 -0.0664  0.1538  0.4215
43605W        W52205  14.540   3.305  40.391  0.2152 -0.1700  0.1610
43606W        W52206  13.337   5.404   5.084  0.1026  0.2783 -0.0310
43607W        W52207   1.372   0.303  12.520  0.0422  0.2497 -0.1216
43608W        W52208   1.275   3.270   4.922 -0.0497  0.2355 -0.3411
43609W        W52209  16.488   4.109  32.776 -0.0762 -0.0883 -0.1493
43610W        W52210  15.773   4.680  39.962  0.0834  0.0430  0.1375
43611W        W52211  13.742   5.393   0.811  0.1554 -0.2573 -0.0014
43612W        W52212   5.688   1.935  27.219  0.2868  0.0733  0.2212
43613W        W52213  18.462   3.328   3.382 -0.3712 -0.1166  0.3400
43614W        W52214   8.472   0.026  33.168  0.0555  0.0644 -0.1902
43615W        W52215  13.053   4.362  33.877 -0.0302 -0.0206  0.0324
43616W        W52216  14.288   3.561  37.532 -0.0806 -0.1317  0.1200
43617W        W52217  16.235   5.450   2.979 -0.5219  0.2679  0.3075
43618W        W52218   2.976   5.654  23.531  0.4322  0.0646 -0.0349
43619W        W52219  20.448   3.507  32.411 -0.1585  0.2034 -0.0074
43620W        W52220  14.463   6.232  37.374  0.3640 -0.0705 -0.0618
43621W        W52221  14.464   6.518  21.812  0.0956  0.3094 -0.3162
43622W        W52222   2.541   1.141  37.588 -0.1017 -0.1422 -0.0518
43623W        W52223   1.107   1.416  11.859  0.0033  0.1346 -0.0477
43624W        W52224   2.704   6.540  34.513 -0.1411  0.2933  0.1429
43625W        W52225  12.300   2.788  44.786 -0.1853 -0.0563  0.2041
43626W        W52226   7.186   0.174  16.357  0.1413  0.1774  0.2428
43627W        W52227   1.608   4.370  11.325  0.0462 -0.1896  0.0331
43628W        W52228  11.243   3.435  41.769  0.2682 -0.0702  0.2315
43629W        W52229   5.620   3.684  30.586 -0.0503 -0.0106 -0.0015
43630W        W52230   3.084   4.220  34.773 -0.0791 -0.0018  0.0742
43631W        W52231   0.722   0.538   2.940 -0.4780  0.2664  0.0345
43632W        W52232   3.281   2.666  32.908 -0.0838  0.1431  0.0875
43633W        W52233   0.899   3.463  39.055  0.1958  0.0891 -0.1354
43634W        W52234   0.778   3.786  33.080  0.2026  0.0938  0.0547
43635W        W52235  14.985   6.503   5.155  0.0784 -0.3090  0.1019
43636W        W52236  17.168   5.180  32.318  0.0553  0.1207  0.1711
43637W        W52237  16.021   5.087  36.138  0.2289 -0.0212 -0.0861
43638W        W52238  17.056   6.359  12.328 -0.2165  0.2930 -0.1122
43639W        W52239   3.240   1.318  13.240  0.0584  0.3382  0.1643
43640W        W52240  21.099   3.263  35.029  0.0897 -0.0495 -0.2596
43641W        W52241  17.793   1.856  36.178 -0.2213 -0.0054  0.1081
43642W        W52242   4.716   6.570  40.832  0.0400  0.0801  0.1654
43643W        W52243  13.374   1.576  43.772  0.0828 -0.0782  0.3735
43644W        W52244   7.302   5.179   9.465  0.0079 -0.0973  0.0812
43645W        W52245  18.699   2.539   3.025 -0.0139  0.0366  0.0169
43646W        W52246   9.320   5.302  39.706 -0.3298 -0.3080  0.0256
43647W        W52247  11.547   1.504  32.614 -0.0037 -0.0896 -0.0408
43648W        W52248   2.888   0.735  38.279  0.1996  0.1413  0.1751
43649W        W52249   5.126   0.741  37.979  0.2096 -0.0774  0.1292
43650W        W52250  12.807   1.653  29.241 -0.1204 -0.0448 -0.0831
43651W        W52251   0.490   4.309  41.177 -0.2345 -0.1727  0.4041
43652W        W52252  18.176   5.482  16.905  0.0739  0.1070 -0.0683
43653W        W52253   0.879   2.998  26.633  0.1675 -0.1318 -0.0923
43654W        W52254  14.770   5.485  37.603 -0.1958 -0.1450 -0.0612
43655W        W52255   3.058   4.867  37.911  0.0316  0.0643 -0.1383
43656W        W52256  12.062   4.402  11.441 -0.0578  0.2300 -0.2282
43657W        W52257   1.215   3.502  17.222 -0.1927  0.1793  0.2470
43658W        W52258  19.206   3.392  29.512 -0.2206 -0.0473  0.0960
43659W        W52259  10.198   2.610  27.422 -0.1035 -0.3402 -0.1537
43660W        W52260  12.026   3.888  34.086  0.1410 -0.3858  0.1616
43661W        W52261  12.709   4.930   4.573 -0.0948 -0.0864  0.1003
43662W        W52262  20.458   2.615  44.196 -0.1521  0.2041 -0.2330
43663W        W52263  19.648   3.755  10.029 -0.0036  0.3750  0.1485
43664W        W52264   8.047   0.247  42.029 -0.2682 -0.4415 -0.2605
43665W        W52265  14.257   5.364  37.531 -0.1092  0.2460  0.0688
43666W        W52266   5.762   3.089  44.005  0.1276 -0.0468 -0.0323
43667W        W52267  13.411   6.085  12.173 -0.2146 -0.0551 -0.1939
43668W        W52268  17.145   3.735  24.382 -0.0735 -0.4672 -0.0840
43669W        W52269   8.656   0.143  31.104 -0.0320 -0.1757 -0.0685
43670W        W52270  13.656   6.334  31.066  0.1330 -0.1692 -0.1412
43671W        W52271   6.706   5.700  22.304 -0.1188 -0.1539  0.2074
43672W        W52272  16.361   4.048  43.824 -0.2621  0.3755 -0.1147
43673W        W52273  17.401   2.022  20.960  0.0193  0.2688 -0.0229
43674W        W52274   6.244   4.616  33.293 -0.0700  0.1184  0.3480
43675W        W52275  18.459   1.232  31.403 -0.0385  0.1859 -0.2473
43676W        W52276  20.010   6.208  39.433 -0.4527  0.0202 -0.0388
43677W        W52277   0.452   3.951  28.492  0.1201  0.0196  0.2935
43678W        W52278  18.567   1.508   3.664 -0.0947  0.4641  0.0485
43679W        W52279   5.972   3.593  26.396  0.0308  0.0839 -0.3908
43680W        W52280  15.904   4.624  36.058 -0.0456  0.1808 -0.2497
43681W        W52281  11.335   6.172   1.718 -0.0967 -0.0767 -0.2887
43682W        W52282  15.045   4.187  18.712 -0.2016  0.0091  0.0160
43683W        W52283  18.130   5.997   5.052 -0.0626  0.2449  0.1491
43684W        W52284  11.588   2.874  32.817 -0.2387  0.0312 -0.1395
43685W        W52285   8.531   6.062   0.596 -0.1794 -0.1217 -0.2424
43686W        W52286   3.538   0.952   8.641  0.0178  0.0817 -0.0779
43687W        W52287  12.330   3.366  12.881  0.1836 -0.2490 -0.1327
43688W        W52288   3.066   4.187  28.617 -0.1440  0.0498 -0.0884
43689W        W52289  19.679   0.689   0.593  0.1073  0.0897  0.0949
43690W        W52290   1.934   2.030   8.142  0.1026  0.2267 -0.0445
43691W        W52291   5.207   4.139   2.190  0.0145  0.0358  0.0183
43692W        W52292  18.429   5.901  12.155 -0.0478  0.0121  0.0082
43693W        W52293   5.622   2.648  41.715  0.1983  0.0137 -0.0638
43694W        W52294  19.855   4.276  37.260 -0.0058  0.2302  0.0878
43695W        W52295   5.114   4.055  33.109  0.1286  0.2617  0.0671
43696W        W52296  14.904   2.991  43.958  0.0336  0.3493  0.2186
43697W        W52297  11.527   5.658  42.958  0.2320 -0.0451 -0.1747
43698W        W52298   1.024   3.286  45.055 -0.1916 -0.5374  0.1105
43699W        W52299   4.678   5.374  25.659  0.3110 -0.3360 -0.0615
43700W        W52300  15.636   1.263  44.661 -0.0450  0.0185  0.1435
43701W        W52301   5.959   0.480  27.826 -0.2665  0.3136 -0.0957
43702W        W52302   2.648   1.963   2.257 -0.1654 -0.2457 -0.0432
43703W        W52303  13.480   6.363  19.861 -0.0605  0.0270 -0.2038
43704W        W52304   2.991   1.174  26.503 -0.0263  0.0022  0.3728
43705W        W52305  15.424   5.811   0.926 -0.0173 -0.0543  0.1284
43706W        W52306  10.004   0.928   4.766 -0.2831 -0.0285  0.1944
43707W        W52307   6.278   3.006  35.694  0.1206  0.2297  0.1258
43708W        W52308   5.809   3.105  31.736 -0.0892 -0.2677 -0.1202
43709W        W52309  16.653   0.328  24.588  0.0932 -0.0816  0.3295
43710W        W52310  18.431   3.060   5.585 -0.1970 -0.1458 -0.1019
43711W        W52311   8.911   5.529  10.743 -0.0735 -0.0819 -0.0905
43712W        W52312  12.202   3.278  19.258  0.0224 -0.1190  0.2514
43713W        W52313  20.264   0.664   1.693  0.1252 -0.0678 -0.0826
43714W        W52314   9.723   5.994  15.733 -0.1947 -0.2770  0.0954
43715W        W52315  19.307   3.834  16.971 -0.2494 -0.0428 -0.0380
43716W        W52316   3.504   2.612  30.532  0.3318  0.0102 -0.1343
43717W        W52317  16.855   2.893  16.721  0.1008 -0.1123  0.1026
43718W        W52318  15.789   6.158   6.062 -0.1048  0.0127 -0.2132
43719W        W52319   5.215   6.251   5.367 -0.3852  0.1432  0.2530
43720W        W52320  10.700   3.164  44.296 -0.0532 -0.2941  0.0295
43721W        W52321   8.104   0.667  23.061 -0.2595 -0.1420  0.3426
43722W        W52322  14.230   4.213   2.711  0.2779  0.1728  0.0323
43723W        W52323  12.409   2.492  30.333  0.1525 -0.1950 -0.3584
43724W        W52324  16.344   6.278  29.359  0.0608 -0.1746  0.3575
43725W        W52325   6.844   4.497  35.941 -0.0561  0.0393  0.0897
43726W        W52326  12.818   4.665   5.646 -0.0781  0.2298 -0.1307
43727W        W52327   1.437   2.616  28.137 -0.1308 -0.3443  0.0065
43728W        W52328  10.089   3.113   3.327 -0.0620 -0.0813 -0.0764
43729W        W52329  12.457   3.483   3.360  0.1772  0.1896  0.2398
43730W        W52330   6.648   4.621  37.722  0.3292 -0.4484 -0.0368
43731W        W52331   7.942   6.182   2.056  0.0265 -0.0574 -0.3508
43732W        W52332   5.405   4.596  42.511  0.0601 -0.0216 -0.3640
43733W        W52333  19.016   0.486  12.858 -0.1125  0.0530 -0.2800
43734W        W52334  20.822   1.198  32.955 -0.3662 -0.0150 -0.0587
43735W        W52335   2.156   1.291   5.832 -0.0022  0.0086 -0.3839
43736W        W52336   2.590   4.030   1.493  0.0671  0.2038 -0.0270
43737W        W52337   8.462   0.227  36.819 -0.2700 -0.3142  0.0783
43738W        W52338   5.646   5.612   0.986 -0.2159  0.0071  0.1349
43739W        W52339  15.970   4.008  42.423  0.0778 -0.1457 -0.0735
43740W        W52340  10.480   1.024  31.692 -0.3088 -0.0011  0.0693
43741W        W52341  12.168   4.806  15.963  0.0553 -0.0287 -0.0922
43742W        W52342   9.680   4.682  25.183  0.1523  0.1518  0.1203
43743W        W52343  20.392   0.098  30.739  0.2058 -0.0270 -0.1424
43744W        W52344   9.016   4.690   6.285 -0.0430  0.0908  0.1207
43745W        W52345  20.560   6.392   6.015  0.2094  0.1390  0.1465
43746W        W52346   9.361   5.553  28.227 -0.0967 -0.0182 -0.0828
43747W        W52347  15.930   2.482  43.702  0.0718  0.1000  0.0420
43748W        W52348  14.551   3.403  13.354  0.3161  0.0902 -0.3309
43749W        W52349  10.667   5.800   8.599  0.0193  0.2301  0.1252
43750W        W52350  15.032   4.882  34.540  0.0068 -0.1443 -0.0065
43751W        W52351   7.131   5.309  44.536  0.4218  0.2493 -0.0918
43752W        W52352  14.147   0.863  44.528 -0.0702 -0.1159 -0.2042
43753W        W52353   7.532   0.608  29.326  0.0081 -0.1398 -0.0564
43754W        W52354   3.077   3.581   3.656 -0.0231  0.1654  0.3215
43755W        W52355  20.281   4.458  13.219 -0.1374  0.4664  0.1012
43756W        W52356  15.412   2.195   4.558 -0.1317  0.0520 -0.2513
43757W        W52357  16.759   6.094  32.673 -0.0113  0.0875 -0.0443
43758W        W52358  19.433   2.343  42.738  0.3343 -0.1673  0.2150
43759W        W52359  19.479   3.840   0.758 -0.3266  0.0101  0.1234
43760W        W52360   8.711   5.663   6.477  0.0883 -0.2443 -0.0014
43761W        W52361   9.758   0.200  13.106 -0.0642  0.1889  0.4233
43762W        W52362   2.787   1.619  39.618 -0.0501 -0.2568  0.0850
43763W        W52363   5.517   0.426  34.414 -0.0489  0.0253 -0.2225
43764W        W52364  18.767   5.789  18.846 -0.1154  0.0759 -0.0667
43765W        W52365   3.043   3.985  26.063 -0.2658 -0.0856 -0.2118
43766W        W52366  19.235   4.561  32.995 -0.1104 -0.2126  0.3578
43767W        W52367   0.468   5.155  18.112 -0.0367 -0.1310  0.1720
43768W        W52368  16.847   1.310  36.123 -0.0784  0.1812 -0.1254
43769W        W52369  15.198   4.106  13.521 -0.1100 -0.0642  0.2280
43770W        W52370   0.023   0.665  11.461 -0.2887 -0.1228 -0.2742
43771W        W52371  19.395   5.850  10.081  0.1772  0.0783 -0.2586
43772W        W52372   7.738   1.231   9.641  0.0598 -0.4234 -0.0328
43773W        W52373  20.557   3.578   9.796  0.3366  0.2668  0.2026
43774W        W52374  14.175   6.112  41.796  0.0441  0.2230 -0.2665
43775W        W52375  15.357   1.101  10.156 -0.1335  0.0859 -0.2184
43776W        W52376  20.745   0.167  32.325 -0.2327  0.0024 -0.1077
43777W        W52377  11.824   3.425   4.486  0.1176  0.1122 -0.1934
43778W        W52378   0.051   4.106   8.292 -0.3540 -0.0376 -0.1583
43779W        W52379   9.216   1.948   6.556 -0.0381  0.1892  0.1447
43780W        W52380  17.566   1.864  34.527 -0.1147 -0.0283  0.1088
43781W        W52381  16.794   5.690   6.028 -0.2621  0.2358 -0.2198
43782W        W52382  18.622   0.765  34.544  0.2241 -0.0306 -0.0883
43783W        W52383   6.908   6.400  34.137  0.1064  0.2205 -0.2890
43784W        W52384   3.059   3.853  24.931 -0.0932  0.0383  0.3434
43785W        W52385  16.900   3.998  16.884 -0.0027  0.3882 -0.1676
43786W        W52386  12.610   3.322  16.817 -0.2926 -0.0693  0.0615
43787W        W52387  17.246   6.183   4.858  0.1495 -0.1348  0.0571
43788W        W52388   9.109   3.262  42.737  0.1144  0.4205 -0.0067
43789W        W52389   6.916   4.828   9.298 -0.1534  0.1150 -0.0198
43790W        W52390  19.973   4.632  40.766 -0.0795 -0.1745 -0.4003
43791W        W52391  14.437   5.514  18.208  0.0666  0.2316 -0.2825
43792W        W52392  18.614   1.392  40.142  0.0311  0.0013  0.3313
43793W        W52393   0.054   1.340  34.446 -0.0371  0.1646  0.0731
43794W        W52394   9.623   2.289  35.857  0.0327  0.1796 -0.0759
43795W        W52395   4.127   2.960  23.804  0.0672 -0.2350  0.0627
43796W        W52396   1.946   0.042  39.210  0.3954 -0.1347  0.1174
43797W        W52397   6.949   0.398  42.590 -0.0081  0.1499 -0.0506
43798W        W52398   4.048   0.489  33.023  0.0087 -0.0261  0.0750
43799W        W52399  19.619   6.503  28.270 -0.0704  0.4938 -0.3784
43800W        W52400  10.560   2.840   3.421  0.1127  0.1108  0.0991
43801W        W52401   5.534   4.985  22.848 -0.0137  0.0634  0.0844
43802W        W52402   5.263   0.614  39.148  0.0057 -0.0004 -0.1697
43803W        W52403  18.348   4.719   7.409  0.1248 -0.0187  0.0818
43804W        W52404   7.606   5.154  32.541  0.2154  0.2541  0.3769
43805W        W52405  11.025   3.901  29.286 -0.0233 -0.1578 -0.3494
43806W        W52406  17.255   5.294  31.329  0.1336 -0.2270 -0.0454
43807W        W52407   1.580   1.095  36.606  0.0278 -0.0199 -0.0163
43808W        W52408   2.260   1.723  14.378  0.0891 -0.1634 -0.0142
43809W        W52409  13.792   3.997  19.362  0.2273 -0.1041  0.2503
43810W        W52410  15.126   3.179   9.010 -0.1533  0.0513 -0.1405
43811W        W52411   7.972   6.353  40.707  0.1242 -0.3038 -0.2556
43812W        W52412   6.903   6.076   7.775 -0.0257  0.0086  0.0029
43813W        W52413  10.271   0.090  15.156 -0.1980 -0.1690  0.1310
43814W        W52414   4.690   2.536  32.818  0.0922 -0.0036 -0.0696
43815W        W52415  16.665   3.538   7.281 -0.0467 -0.2095  0.1918
43816W        W52416  10.914   1.638  39.259  0.1559  0.1137  0.2182
43817W        W52417   5.026   4.687  41.036 -0.2527 -0.2007 -0.3598
43818W        W52418   8.690   3.623   6.719 -0.2817  0.2509  0.2542
43819W        W52419  18.174   6.085  16.950 -0.0300 -0.3801 -0.1879
43820W        W52420   8.213   1.532   5.779  0.1644 -0.1081  0.1651
43821W        W52421  19.666   4.079  35.903 -0.0886  0.2308 -0.1551
43822W        W52422  20.691   4.356   7.483 -0.0006  0.3306  0.1049
43823W        W52423   2.858   0.120  22.633 -0.1109  0.1127  0.2634
43824W        W52424   1.171   4.119  11.480  0.1946  0.0292 -0.0601
43825W        W52425  13.629   1.903  16.182  0.0621  0.0007  0.0667
43826W        W52426  19.209   6.071  11.994  0.2183  0.2056 -0.1768
43827W        W52427   5.276   5.298  32.608 -0.0664 -0.1482  0.1570
43828W        W52428  20.638   4.032  28.595  0.0848  0.2629 -0.0047
43829W        W52429   9.506   2.344  30.843  0.3026 -0.1873  0.1892
43830W        W52430  20.467   0.509  37.324  0.0564  0.0254 -0.0163
43831W        W52431   5.827   2.115  41.784  0.4417  0.0346 -0.0814
43832W        W52432   4.308   5.006  23.423 -0.1542 -0.2202  0.0011
43833W        W52433  15.343   4.237  35.133  0.0995  0.1614  0.1656
43834W        W52434  18.242   3.608  21.174 -0.1815 -0.0085 -0.0287
43835W        W52435   8.294   5.474  14.420 -0.3591  0.0538  0.1089
43836W        W52436   9.689   5.684   2.643  0.0282  0.0441  0.0407
43837W        W52437  18.095   2.933  38.222 -0.0400 -0.1930 -0.1928
43838W        W52438  16.608   0.493  42.918  0.0916 -0.0490  0.2552
43839W        W52439   1.895   1.335   6.718 -0.0135 -0.0561  0.2333
43840W        W52440  11.370   1.820  12.484 -0.0371 -0.1047 -0.2908
43841W        W52441  17.925   1.890   2.037 -0.0046  0.0068 -0.1856
43842W        W52442  13.194   0.090  28.674  0.1743  0.3253 -0.3555
43843W        W52443   8.430   3.511  15.915  0.0828 -0.0760 -0.2603
43844W        W52444  20.799   6.105  15.411  0.2131  0.0325  0.2263
43845W        W52445  14.645   2.225  12.410 -0.0431  0.2481 -0.1419
43846W        W52446   2.869   5.424  39.669 -0.0926 -0.0077 -0.2967
43847W        W52447  10.086   5.927   2.811 -0.2722  0.1405 -0.0598
43848W        W52448  19.037   3.085  20.309  0.0746 -0.0914  0.2072
43849W        W52449   9.779   3.672   6.635 -0.0049 -0.1403  0.1335
43850W        W52450   5.911   0.649  38.881  0.2178  0.0879  0.2890
43851W        W52451   5.373   6.217   2.961  0.2023  0.1124 -0.0053
43852W        W52452   8.304   1.469  16.753  0.1824  0.2822  0.3327
43853W        W52453   7.918   0.264  22.582 -0.0921  0.2662 -0.3214
43854W        W52454   4.851   5.028  24.825 -0.4414 -0.0354 -0.0962
43855W        W52455  19.516   4.198  31.669 -0.1369  0.0672  0.0966
43856W        W52456   9.806   0.069   1.317 -0.1099 -0.1605 -0.1708
43857W        W52457  18.839   1.411  29.932 -0.0228 -0.1533 -0.0971
43858W        W52458   2.749   1.118  12.422  0.3810  0.2058 -0.1257
43859W        W52459   7.536   6.338  30.452 -0.1865 -0.0623  0.0264
43860W        W52460  10.822   0.913  16.511  0.0702  0.1467  0.2017
43861W        W52461   1.676   1.252  39.290  0.0616  0.2004 -0.1850
43862W        W52462   0.399   5.945  27.767 -0.0662  0.3897  0.1572
43863W        W52463  20.803   0.019  29.881  0.0944  0.2196  0.3696
43864W        W52464   2.679   0.072  10.083 -0.3419  0.1458  0.2797
43865W        W52465  19.883   1.705  43.414 -0.0753 -0.3538  0.0138
43866W        W52466   7.564   1.078  37.725  0.2395 -0.0088  0.2944
43867W        W52467   3.732   2.315   4.428 -0.0611 -0.2342 -0.0390
43868W        W52468   9.054   0.151  35.426 -0.0370 -0.1307 -0.0811
43869W        W52469  10.691   0.939  16.011 -0.1018 -0.0377 -0.1055
43870W        W52470  14.038   0.913  30.485  0.0047 -0.0013  0.0668
43871W        W52471   1.977   4.915  44.805 -0.0890 -0.2480  0.1166
43872W        W52472   4.142   5.206  25.045  0.1858 -0.0932  0.1831
43873W        W52473  12.022   4.754  10.338  0.0655  0.0769 -0.0541
43874W        W52474  15.357   1.948  14.325 -0.0889  0.0596 -0.0454
43875W        W52475  13.686   2.716  31.984  0.1678  0.1152  0.0150
43876W        W52476  16.619   0.876  23.175 -0.0055 -0.0512  0.0273
43877W        W52477  13.109   4.266  36.965  0.1991  0.0878 -0.1382
43878W        W52478  17.106   2.786  31.944  0.0741 -0.1064  0.1994
43879W        W52479  18.150   5.953   9.640  0.1971 -0.2244  0.0257
43880W        W52480   1.152   1.165  12.624  0.3551  0.0541  0.0962
43881W        W52481  19.193   3.489  18.601  0.3785 -0.2012 -0.0769
43882W        W52482  17.531   3.678  37.776  0.0074 -0.2795 -0.2330
43883W        W52483  17.158   0.562  24.144  0.1458 -0.1679 -0.1221
43884W        W52484   4.593   5.781   6.511 -0.2118 -0.2542  0.0514
43885W        W52485  15.332   0.963  38.251  0.2846  0.1094  0.2490
43886W        W52486  14.170   2.904   3.336  0.0444 -0.0174  0.0189
43887W        W52487   9.714   0.550  32.453 -0.0330  0.0349  0.0017
43888W        W52488  10.380   1.914  15.009 -0.1969  0.1102  0.1918
43889W        W52489  10.768   2.359  13.306  0.0914 -0.0844 -0.3997
43890W        W52490   8.831   0.394  14.022 -0.0356 -0.0981 -0.2657
43891W        W52491   1.643   1.845  43.132 -0.0312  0.3159 -0.2670
43892W        W52492  13.232   3.369  30.778  0.0512 -0.1113 -0.3678
43893W        W52493   9.269   2.249   8.842 -0.1636  0.0808 -0.1132
43894W        W52494  17.534   4.937  35.956 -0.3409 -0.1350  0.1966
43895W        W52495   8.740   4.519  14.275  0.0064  0.1312 -0.3605
43896W        W52496   5.239   0.013  36.958  0.0640  0.1122  0.1023
43897W        W52497   5.245   6.303   8.692  0.0185 -0.2020  0.1337
43898W        W52498  10.767   1.937  13.685 -0.3390 -0.2480  0.1033
43899W        W52499   9.792   0.542  15.029 -0.0965  0.0309  0.2059
43900W        W52500  14.363   0.726  16.996 -0.1423  0.0421  0.0975
43901W        W52501  18.274   0.514  39.466  0.1615  0.0163 -0.1208
43902W        W52502   4.177   5.329   4.986 -0.0989 -0.2518  0.0446
43903W        W52503   2.771   0.672  42.372  0.2946 -0.0238 -0.5800
43904W        W52504  14.313   2.932  32.041  0.1495  0.1700  0.2044
43905W        W52505   0.247   2.290  12.538 -0.2383 -0.0510  0.1231
43906W        W52506  21.049   1.997  11.752 -0.4231  0.1900 -0.2203
43907W        W52507  16.395   1.768  40.536 -0.0992 -0.2924  0.0733
43908W        W52508  19.950   2.178   8.242  0.1151 -0.0128 -0.1783
43909W        W52509   9.032   1.380   1.712  0.3141 -0.0702  0.1358
43910W        W52510  17.883   0.518  38.370  0.0033  0.1916 -0.0382
43911W        W52511  12.529   5.237  13.456  0.2496 -0.1018  0.0236
43912W        W52512  11.234   5.021   4.870 -0.0098 -0.0016  0.1025
43913W        W52513  10.262   2.655  30.669  0.1558 -0.2432  0.0362
43914W        W52514   3.374   5.044  24.075 -0.1023 -0.0531  0.1998
43915W        W52515   7.154   5.780  28.624 -0.1480  0.2671 -0.2115
43916W        W52516   5.813   2.866  44.882  0.0457 -0.0185 -0.3015
43917W        W52517   9.019   1.090  43.402 -0.2082  0.1962  0.0865
43918W        W52518   2.923   1.881  10.186  0.0215 -0.2636  0.2179
43919W        W52519  17.539   3.067   5.527 -0.2891  0.2549 -0.3123
43920W        W52520  12.483   1.150   1.128 -0.0778  0.0082  0.1615
43921W        W52521  16.641   6.385   6.939  0.2486 -0.0766 -0.0936
43922W        W52522   5.409   6.082   7.413 -0.2080  0.0827  0.0160
43923W        W52523  15.612   1.958   3.203 -0.1105  0.2318  0.3473
43924W        W52524   6.727   1.842  26.279  0.1306 -0.0418  0.0058
43925W        W52525   6.913   2.072  42.513  0.1210  0.2702 -0.2699
43926W        W52526  17.246   3.462   5.403  0.4056  0.2694  0.1686
43927W        W52527   4.309   1.758   8.585  0.0214  0.1287 -0.2339
43928W        W52528  20.790   0.112  11.988  0.1972  0.0496 -0.1084
43929W        W52529  14.511   4.604   7.094  0.0092  0.0407  0.4056
43930W        W52530  11.616   6.098  14.022 -0.2944  0.1551  0.2058
43931W        W52531   2.330   6.584  32.669 -0.0471  0.0154  0.4050
43932W        W52532   3.012   4.130  32.647  0.0274 -0.3168 -0.3104
43933W        W52533  10.572   2.352   3.616  0.0455  0.0974  0.2181
43934W        W52534  17.241   6.532  23.443 -0.0850  0.1596  0.0440
43935W        W52535   3.760   1.218  22.781  0.0227  0.1102  0.2743
43936W        W52536   5.435   1.772  12.437  0.2684 -0.0113 -0.1552
43937W        W52537  17.952   5.993   1.076 -0.2484  0.2176  0.2418
43938W        W52538  17.810   4.527  11.888 -0.0667 -0.3234  0.2716
43939W        W52539  16.241   0.615  29.785  0.1779  0.0497 -0.0902
43940W        W52540   3.606   0.242  42.924 -0.1194 -0.0871  0.1093
43941W        W52541   1.404   3.103  15.596  0.1351  0.1063  0.3049
43942W        W52542  19.449   5.210   2.177  0.1051 -0.0423 -0.3484
43943W        W52543  16.766   5.292  31.986 -0.0971  0.1877  0.2035
43944W        W52544  15.474   1.386  32.307  0.0403  0.1230  0.0111
43945W        W52545   3.786   0.039  39.516 -0.2118 -0.2380  0.0567
43946W        W52546  20.560   2.701  17.897 -0.1165  0.2457  0.1325
43947W        W52547  11.366   3.162   3.606  0.1135 -0.2382 -0.0640
43948W        W52548   2.687   0.499  23.575  0.2091 -0.1733 -0.1691
43949W        W52549  16.462   0.925  34.030 -0.1198  0.1249  0.0430
43950W        W52550  11.567   5.823  32.753 -0.3121 -0.0404 -0.1941
43951W        W52551  15.316   1.459  44.979 -0.3199  0.0569 -0.3101
43952W        W52552  14.149   5.062  16.230  0.0709  0.0360  0.1282
43953W        W52553  11.202   1.424  35.156  0.0458  0.0267  0.1459
43954W        W52554   9.311   1.626  34.533  0.0421 -0.0764 -0.0241
43955W        W52555  20.259   5.061  44.271 -0.2007  0.0243 -0.1140
43956W        W52556   5.846   0.578   0.498  0.1574 -0.0068  0.2026
43957W        W52557   0.280   3.302  16.016 -0.0960  0.1871 -0.1522
43958W        W52558   4.037   0.829  24.940  0.0199  0.2924 -0.1286
43959W        W52559   1.398   0.282  17.201  0.0522  0.1851  0.1302
43960W        W52560  14.647   1.691   2.782  0.1567  0.0269 -0.0496
43961W        W52561  18.285   0.725  36.283 -0.0794 -0.0616  0.0471
43962W        W52562  12.481   5.668   6.690 -0.4572 -0.1775 -0.2388
43963W        W52563   1.699   5.438  39.944  0.0518  0.0271  0.1853
43964W        W52564  20.724   6.604  15.734 -0.1172 -0.0810  0.0173
43965W        W52565   2.992   6.235  37.616 -0.0501  0.0899  0.1232
43966W        W52566   8.744   0.251  42.196  0.3414  0.0667 -0.0252
43967W        W52567  17.883   5.522  16.568  0.1266 -0.2317  0.2627
43968W        W52568  10.556   5.374  43.267  0.1510  0.0189  0.0006
43969W        W52569  13.438   2.914  29.127  0.1038 -0.1187  0.0540
43970W        W52570   8.907   0.076   3.379  0.2896 -0.1281 -0.1446
43971W        W52571   2.453   5.977   9.456  0.0191  0.2548  0.1190
43972W        W52572  17.069   2.984   6.435 -0.3599 -0.0219  0.1356
43973W        W52573  14.895   5.501  17.380  0.0995  0.0540  0.2099
43974W        W52574  16.199   3.295   7.310 -0.0619  0.0821  0.2854
43975W        W52575   6.646   4.339  12.307 -0.2902  0.0671 -0.2720
43976W        W52576  19.625   1.236  29.684  0.1814 -0.1247 -0.3094
43977W        W52577   8.186   3.418  38.718 -0.1147 -0.3088 -0.0023
43978W        W52578  10.652   0.071  42.500  0.0253 -0.2057 -0.2796
43979W        W52579  13.032   2.967  11.897 -0.2643  0.0788  0.1756
43980W        W52580   1.627   5.431  11.052  0.2032  0.0683 -0.1018
43981W        W52581   3.183   5.790  34.899  0.0252  0.2262 -0.1157
43982W        W52582  14.167   4.515   4.316  0.3177  0.0919 -0.0092
43983W        W52583   6.199   4.783   8.693  0.0037  0.0361  0.0283
43984W        W52584   8.903   5.652   9.060 -0.2382  0.0596  0.1177
43985W        W52585   9.367   4.682  23.631 -0.1933 -0.2309  0.1514
43986W        W52586  19.346   6.515   0.840 -0.1172  0.2695  0.1303
43987W        W52587  10.714   5.794  29.473  0.2814  0.2748 -0.3126
43988W        W52588  10.059   2.431  12.033 -0.0216  0.1745  0.4990
43989W        W52589   8.924   5.179   6.335 -0.3524 -0.1978 -0.1457
43990W        W52590  13.714   0.511  18.079  0.0843 -0.0053  0.0158
43991W        W52591   2.556   0.995  27.959 -0.3211 -0.2271 -0.1560
43992W        W52592   7.330   4.523  24.293 -0.0925 -0.0924  0.2114
43993W        W52593  18.340   5.215  39.164 -0.0383  0.2137  0.0715
43994W        W52594   1.194   2.563  29.188  0.2085  0.2794 -0.4099
43995W        W52595  20.544   4.164  37.889  0.0710  0.0599  0.1607
43996W        W52596  14.632   4.212   5.431 -0.0463  0.2133  0.0281
43997W        W52597   6.351   3.910  14.047  0.1577  0.1615 -0.0994
43998W        W52598   2.062   3.425   8.305 -0.1827 -0.0232  0.3038
43999W        W52599  21.067   1.775  38.820  0.0829  0.3099  0.0718
44000W        W52600   4.772   3.517  34.373 -0.1044 -0.2691 -0.2344
44001W        W52601  15.693   5.382  34.096 -0.0003 -0.3663 -0.2003
44002W        W52602   7.809   3.428   1.150 -0.1507 -0.2310 -0.2295
44003W        W52603   7.855   5.373  23.119  0.0466  0.1938  0.0281
44004W        W52604   6.157   3.268  34.966  0.1209  0.1220  0.3676
44005W        W52605  20.494   2.315  43.284  0.0698 -0.0721 -0.0550
44006W        W52606   2.010   5.604  44.455 -0.1019  0.0678 -0.0777
44007W        W52607  19.018   1.508  19.361 -0.2524 -0.0484  0.0407
44008W        W52608  12.020   4.167  33.699  0.1899 -0.0501  0.0127
44009W        W52609   3.494   6.598  23.089 -0.1690  0.1491 -0.1038
44010W        W52610   4.165   3.480  33.789 -0.0047 -0.2112  0.2048
44011W        W52611   4.817   2.302   7.295 -0.0325 -0.2989 -0.0907
44012W        W52612  15.238   4.300  19.124 -0.0492 -0.0868  0.0705
44013W        W52613  17.210   2.357  41.314 -0.2969  0.0278 -0.1662
44014W        W52614  16.769   0.232  34.179 -0.0609  0.2724 -0.0141
44015W        W52615   7.487   5.011  28.930 -0.0610 -0.0637 -0.1389
44016W        W52616  19.824   0.536   1.383  0.1160  0.0557 -0.0060
44017W        W52617   6.111   0.212   4.278 -0.0953 -0.2688 -0.1919
44018W        W52618  20.857   5.583  13.244 -0.0049  0.1326 -0.1825
44019W        W52619  11.326   2.495  34.291  0.1482 -0.0077 -0.2429
44020W        W52620  13.634   3.832   6.615 -0.2063 -0.0342  0.1562
44021W        W52621  12.860   1.128  14.810 -0.0725  0.0598  0.1200
44022W        W52622  10.276   6.413  27.683 -0.0528  0.0392  0.2263
44023W        W52623   9.589   6.213  44.299  0.0046  0.3585 -0.4280
44024W        W52624  17.077   5.626  33.822  0.2242  0.0150 -0.0292
44025W        W52625  10.433   0.669  32.032  0.0364 -0.2755 -0.1034
44026W        W52626   4.101   1.484  15.874 -0.1015 -0.1810 -0.0737
44027W        W52627  14.139   0.427  15.467  0.1565 -0.0122  0.3432
44028W        W52628  20.716   0.039  43.098  0.0541 -0.1832  0.1592
44029W        W52629   9.071   4.005   2.405 -0.0924 -0.0686 -0.0577
44030W        W52630  12.781   1.556  15.147  0.0669  0.0238  0.4338
44031W        W52631  17.429   4.591  20.809  0.1607  0.2812 -0.1964
44032W        W52632  16.573   0.076  41.240  0.1950 -0.0260 -0.2528
44033W        W52633  13.610   6.250  44.807  0.0623  0.0243  0.2458
44034W        W52634   0.762   1.306  15.376  0.0219 -0.2292  0.0566
44035W        W52635  14.121   0.157  30.143 -0.2354  0.0293  0.4878
44036W        W52636  14.117   4.457  30.687  0.0277 -0.0727 -0.1441
44037W        W52637   7.432   4.248  26.598  0.1996 -0.1006 -0.0946
44038W        W52638  16.421   5.677  31.951  0.2719 -0.2520  0.0962
44039W        W52639  12.612   1.179  29.102 -0.0040  0.0779 -0.2058
44040W        W52640  10.166   4.269   9.330  0.0000 -0.0652  0.0821
44041W        W52641   9.486   1.847   2.673 -0.0501 -0.1150  0.0960
44042W        W52642   7.606   4.374  23.920 -0.0132  0.1232  0.0397
44043W        W52643  12.639   0.914   7.674  0.1807 -0.1206 -0.2130
44044W        W52644  15.215   4.853   8.440 -0.2231  0.1773  0.1814
44045W        W52645   5.099   6.571  13.324  0.0262  0.0495  0.0775
44046W        W52646   4.378   3.003   8.968  0.3353  0.2493 -0.0391
44047W        W52647   5.248   4.802  38.358 -0.1866 -0.1511  0.0159
44048W        W52648  15.264   3.539   3.947  0.1702  0.3656 -0.1679
44049W        W52649  14.796   1.240  43.129 -0.2761 -0.0136 -0.2163
44050W        W52650  20.559   4.341  13.911 -0.3480 -0.1811  0.2386
44051W        W52651   8.441   2.080  44.358  0.1021  0.1947  0.3295
44052W        W52652  17.748   0.226   5.262 -0.0697  0.2170  0.2819
44053W        W52653   6.215   2.751  28.930  0.0299  0.2729 -0.0967
44054W        W52654  11.879   2.920  42.411  0.3729  0.1806 -0.1293
44055W        W52655   3.107   0.784   3.010  0.2138  0.2147 -0.0111
44056W        W52656   4.731   4.158  43.743 -0.0559  0.0996 -0.1856
44057W        W52657   7.948   6.025  11.409 -0.1607 -0.1150  0.0182
44058W        W52658  21.011   1.690  36.447  0.0196  0.0645  0.0341
44059W        W52659  19.941   5.694   5.174 -0.1253  0.0479 -0.0996
44060W        W52660  13.520   2.920   9.474  0.0075  0.1403 -0.1024
44061W        W52661  17.073   6.354  39.325  0.0372  0.1792  0.0638
44062W        W52662   6.948   0.628   4.375  0.0544  0.0149 -0.0707
44063W        W52663  19.400   6.119  44.408 -0.1462 -0.1919  0.1622
44064W        W52664   7.615   5.368   0.609  0.0766 -0.0876  0.1033
44065W        W52665   2.574   0.710  14.131  0.1300 -0.2808  0.1918
44066W        W52666  13.572   4.435  33.955 -0.2546 -0.0501  0.2540
44067W        W52667   0.115   6.519  28.168 -0.0738  0.0112 -0.0630
44068W        W52668   3.338   6.212  12.014 -0.1064  0.0744 -0.0077
44069W        W52669  20.894   5.921  11.593  0.3276  0.2672  0.0351
44070W        W52670  18.324   5.619   7.833  0.0158  0.3865  0.1501
44071W        W52671  15.942   4.088   9.609 -0.2805 -0.0984 -0.1099
44072W        W52672   4.797   2.939  14.721  0.2440  0.2693  0.0387
44073W        W52673   5.148   3.791  31.937  0.1141 -0.1208 -0.1823
44074W        W52674   7.501   1.808   5.832 -0.0482  0.0956 -0.2645
44075W        W52675  16.468   2.580   9.262  0.1027  0.0424 -0.1241
44076W        W52676   6.570   0.381  14.413  0.2893 -0.1255  0.0785
44077W        W52677  16.603   0.141  14.347  0.2449  0.2220 -0.0075
44078W        W52678  20.002   4.433  15.535  0.0568 -0.1334 -0.0203
44079W        W52679  21.013   1.028   4.995 -0.1977 -0.0871 -0.1453
44080W        W52680  14.016   1.764   0.932  0.4105  0.1115  0.4142
44081W        W52681   1.102   4.868  29.774 -0.2202  0.1268 -0.2553
44082W        W52682  11.083   2.811   7.892 -0.1313  0.0770  0.0409
44083W        W52683  11.673   2.211  40.639 -0.1746  0.0581 -0.1028
44084W        W52684  19.542   4.704   2.793  0.1350  0.0226 -0.3393
44085W        W52685  17.595   2.487  17.822 -0.1402 -0.1638 -0.0456
44086W        W52686  14.194   3.153  12.373  0.1371 -0.1675 -0.2829
44087W        W52687  17.736   4.845   6.123 -0.0110 -0.0909  0.0139
44088W        W52688   8.543   5.851  42.304 -0.2465 -0.3198  0.2096
44089W        W52689  16.780   4.406  25.023  0.0178 -0.2315 -0.0133
44090W        W52690  15.853   4.906  16.576 -0.0373  0.2388 -0.0517
44091W        W52691  19.058   2.247  11.421 -0.2043 -0.3260 -0.1076
44092W        W52692  15.207   3.571  22.562 -0.0715 -0.2547 -0.0141
44093W        W52693  16.426   6.400  18.165 -0.1031  0.1686 -0.0317
44094W        W52694  12.170   2.248  37.574 -0.1738  0.0695 -0.1370
44095W        W52695  10.660   4.326   7.411  0.2741 -0.1434  0.2599
44096W        W52696  15.569   1.016  12.747 -0.2686 -0.0463  0.0050
44097W        W52697  14.706   5.526  41.592  0.0737 -0.0042 -0.1352
44098W        W52698   5.321   5.912  38.782  0.0564  0.1226  0.3550
44099W        W52699   3.511   0.955  14.021  0.0837 -0.1649  0.1735
44100W        W52700  15.025   2.822  21.061 -0.0835  0.0593 -0.0517
44101W        W52701  11.679   3.953  18.563  0.1453  0.1286 -0.1957
44102W        W52702   7.936   6.268  31.925  0.2277  0.2038 -0.0525
44103W        W52703   7.029   4.504  21.968  0.1715 -0.0620  0.1144
44104W        W52704   4.889   4.086  16.254 -0.1184 -0.1249  0.1178
44105W        W52705   3.795   6.052  23.808 -0.3007  0.0696  0.1856
44106W        W52706  16.176   6.169   1.554  0.1412 -0.1207 -0.3761
44107W        W52707  18.792   2.202   5.228  0.0159  0.2672 -0.0946
44108W        W52708  13.009   6.445  42.471  0.2005 -0.1552 -0.0403
44109W        W52709   2.862   6.380   6.212  0.0053  0.0135  0.1950
44110W        W52710   9.597   0.271  43.828  0.1159  0.0230  0.0919
44111W        W52711  13.116   4.939  34.660  0.0975  0.0626  0.1686
44112W        W52712  12.514   2.534  18.198 -0.0595 -0.0460  0.1898
44113W        W52713   5.885   1.918   0.655  0.0211  0.2424 -0.3087
44114W        W52714   8.171   5.853   6.213 -0.2252  0.1641 -0.0153
44115W        W52715  11.053   5.023  43.683  0.1792 -0.1364 -0.1101
44116W        W52716   1.853   4.486  24.937  0.1905 -0.0290 -0.0878
44117W        W52717  10.969   1.251   2.300 -0.1448  0.0197  0.2817
44118W        W52718   0.706   5.197  17.305 -0.1913  0.2179  0.0763
44119W        W52719   3.009   3.692  44.105 -0.1167  0.0416  0.2562
44120W        W52720   5.766   2.354  34.809 -0.2749  0.1368 -0.3415
44121W        W52721  15.797   5.863  13.702 -0.1990  0.2672 -0.0251
44122W        W52722   1.758   2.560   5.464  0.1442  0.0268 -0.0129
44123W        W52723   0.711   0.253   9.162  0.0795 -0.0348  0.0946
44124W        W52724  11.014   3.708  17.515 -0.3592  0.2241 -0.1592
44125W        W52725  12.494   3.883  19.805 -0.1283 -0.1897  0.1121
44126W        W52726  11.184   6.135  14.430  0.0728 -0.1636  0.0325
44127W        W52727   9.732   1.404   4.523 -0.2357  0.0329  0.0978
44128W        W52728  12.426   1.913  39.434 -0.2471  0.2320  0.0311
44129W        W52729  14.274   0.018  41.061 -0.3054 -0.0702 -0.0630
44130W        W52730  10.951   2.039  18.448 -0.1604  0.4156 -0.0540
44131W        W52731  12.520   1.879  38.965  0.1920  0.0726  0.2526
44132W        W52732   8.634   5.845  31.638 -0.3677  0.3035 -0.0003
44133W        W52733   0.934   6.133  10.994 -0.2678 -0.0995 -0.0279
44134W        W52734  20.937   3.161  40.716  0.0684 -0.1042 -0.1576
44135W        W52735   3.989   4.035   2.558  0.0695 -0.0280 -0.2704
44136W        W52736  18.472   1.371  21.896 -0.0640 -0.2792  0.0304
44137W        W52737  11.764   0.382  40.866 -0.0579 -0.1869 -0.0834
44138W        W52738   6.029   3.095  16.016 -0.0346 -0.1196 -0.2988
44139W        W52739  15.410   0.765  40.516 -0.0097  0.2380 -0.0482
44140W        W52740  10.898   1.544  10.803 -0.0344 -0.0986 -0.1421
44141W        W52741  10.541   3.897   0.105  0.0862  0.1540 -0.0521
44142W        W52742  19.695   4.358  18.217  0.2136 -0.1905  0.1708
44143W        W52743   5.169   0.090  12.722  0.0624 -0.0505  0.0835
44144W        W52744   4.494   2.302   9.801 -0.0436 -0.0207  0.0657
44145W        W52745   5.212   2.200  15.133  0.0184  0.0915  0.0901
44146W        W52746  14.228   5.663   3.587  0.0829 -0.0291 -0.2296
44147W        W52747   6.696   4.970   5.471 -0.2371  0.1297 -0.1827
44148W        W52748   5.061   5.664   5.367 -0.0495 -0.1820  0.0265
44149W        W52749  15.294   5.487  11.934  0.3329 -0.0458  0.0710
44150W        W52750  17.314   1.192  16.922 -0.1887 -0.0118 -0.0377
44151W        W52751  14.060   4.230  29.207  0.0651 -0.0696 -0.3886
44152W        W52752  17.246   5.341  44.251  0.0402  0.1028  0.1148
44153W        W52753  16.475   3.578  32.853  0.3050 -0.0560  0.0489
44154W        W52754  14.789   3.124  31.068 -0.1917  0.1333 -0.3700
44155W        W52755  18.229   3.517  20.679 -0.2565 -0.1866 -0.0826
44156W        W52756   3.228   2.103  43.864 -0.1967  0.1723  0.0338
44157W        W52757   3.719   6.329  40.658  0.0124  0.0317  0.0124
44158W        W52758   7.524   5.508  38.035  0.0983 -0.1300  0.0380
44159W        W52759   4.653   4.580  21.767 -0.1486 -0.0994 -0.2328
44160W        W52760   9.098   4.732  44.151 -0.0745  0.1535  0.0205
44161W        W52761   3.226   0.515  43.901 -0.2809 -0.1593  0.0578
44162W        W52762  18.189   0.463  42.838 -0.0641 -0.1547 -0.2154
44163W        W52763  20.736   1.430   4.932 -0.0904  0.2523  0.2531
44164W        W52764  14.967   4.281   6.782 -0.2647 -0.2923  0.2991
44165W        W52765  18.628   1.655  44.708  0.0269 -0.0189 -0.3837
44166W        W52766  17.897   0.147  12.348 -0.2574 -0.3324 -0.0405
44167W        W52767   5.014   5.247   7.841 -0.1483  0.2417  0.0234
44168W        W52768  18.480   1.350   6.261 -0.4399 -0.1799  0.1066
44169W        W52769   4.594   1.055  24.082  0.2168 -0.3384 -0.0508
44170W        W52770   7.107   2.543  24.856  0.0999  0.0448 -0.0338
44171W        W52771   2.488   5.473  43.083 -0.0318 -0.0580 -0.2097
44172W        W52772   6.077   0.074  24.340 -0.2949 -0.1063 -0.0778
44173W        W52773  15.196   3.976  35.547 -0.0602 -0.1202 -0.0163
44174W        W52774   5.818   0.946   3.479  0.3484 -0.1375  0.2441
44175W        W52775   5.585   0.539   3.740  0.0754 -0.2315 -0.0140
44176W        W52776  14.441   2.690  16.003 -0.3060 -0.2272  0.2193
44177W        W52777   2.339   3.563  30.612  0.1857 -0.0255 -0.2959
44178W        W52778  17.628   0.700  30.572  0.2129  0.0417  0.2624
44179W        W52779  21.092   4.917  33.581 -0.0004 -0.0374 -0.0033
44180W        W52780   5.531   0.944  12.342  0.1368  0.1239  0.0966
44181W        W52781  20.939   3.303   5.965 -0.1678 -0.0451 -0.1875
44182W        W52782  18.985   3.302  15.304 -0.0453 -0.1818  0.0749
44183W        W52783   8.944   6.090  10.567 -0.3371 -0.0216 -0.0918
44184W        W52784  10.438   2.032   7.651 -0.0185 -0.0189 -0.1985
44185W        W52785   3.642   5.617  30.236  0.0993 -0.1653  0.0878
44186W        W52786  12.232   4.938   1.010 -0.0101 -0.2606 -0.2225
44187W        W52787  17.683   1.710  16.034  0.0289  0.0734 -0.2134
44188W        W52788   2.078   5.631  10.891  0.0947  0.0838  0.1984
44189W        W52789  18.989   4.156  15.591 -0.0751  0.5184  0.1000
44190W        W52790   4.783   4.071  37.123  0.1829  0.0348 -0.2265
44191W        W52791  12.654   0.261  34.663 -0.0617  0.1821 -0.0912
44192W        W52792  13.091   0.064  30.248  0.0601  0.0246 -0.0391
44193W        W52793  16.696   2.523  11.218  0.3532 -0.0219 -0.1228
44194W        W52794   6.520   2.842  26.217  0.1876 -0.2730  0.2611
44195W        W52795  11.878   3.263  36.307 -0.0588 -0.3153  0.0287
44196W        W52796   8.323   6.285   9.632 -0.0260  0.0106  0.1015
44197W        W52797   0.861   5.727  34.567 -0.1494  0.0586  0.2749
44198W        W52798   4.821   1.417  39.711  0.2874  0.1407  0.3467
44199W        W52799  11.181   6.458   8.442 -0.0092 -0.2591 -0.4079
44200W        W52800   2.640   5.263  31.051 -0.1477 -0.0512 -0.0418
44201W        W52801  12.924   3.438  11.610 -0.1471  0.0093 -0.0791
44202W        W52802  19.679   2.141  11.714  0.0761  0.2607  0.3868
44203W        W52803   6.367   0.532   7.678  0.2683 -0.0865  0.0164
44204W        W52804  18.028   0.315  40.941  0.2454 -0.0516  0.0257
44205W        W52805   6.177   3.330   5.627  0.2086 -0.0418  0.0515
44206W        W52806  15.286   3.878  21.353 -0.1814 -0.2665 -0.0200
44207W        W52807  11.360   3.340  37.631  0.0912 -0.2195 -0.0814
44208W        W52808  18.143   4.657  43.325 -0.1908  0.1891 -0.0504
44209W        W52809   2.303   0.733  40.873  0.0887 -0.0170 -0.1372
44210W        W52810   7.674   0.556  39.283  0.1998 -0.3328  0.1660
44211W        W52811  20.288   4.413  37.025  0.0005  0.0719 -0.0703
44212W        W52812   4.365   3.980   0.714 -0.2236 -0.1086 -0.0661
44213W        W52813  14.614   4.064  35.753 -0.2284  0.1500 -0.0124
44214W        W52814   6.757   4.092  23.248 -0.2461 -0.0447  0.2541
44215W        W52815  18.611   2.837  29.812  0.2411  0.1896 -0.0799
44216W        W52816   2.111   4.424  31.148  0.0861  0.0991 -0.1870
44217W        W52817  21.087   4.369  42.315 -0.1244  0.1948 -0.1854
44218W        W52818   5.697   1.769  11.944 -0.1692  0.2857 -0.1334
44219W        W52819   5.389   4.154  15.618  0.0896 -0.1418 -0.2435
44220W        W52820   7.991   0.424   9.205 -0.2433 -0.1234 -0.0181
44221W        W52821   2.015   2.683   3.936 -0.2770  0.1937  0.0254
44222W        W52822  12.793   0.084  15.499 -0.2329 -0.0976  0.2964
44223W        W52823  14.561   2.971  29.221  0.1966 -0.0399  0.2369
44224W        W52824  13.443   2.220  17.101  0.1082 -0.0407  0.1749
44225W        W52825  15.141   0.395   5.885 -0.0992 -0.1693  0.1019
44226W        W52826  13.255   5.723  34.102  0.1969 -0.0181 -0.2042
44227W        W52827   8.744   4.479   0.040  0.1309 -0.3140  0.1036
44228W        W52828   6.665   5.005  24.527  0.0464 -0.0125 -0.0729
44229W        W52829   1.637   6.091   5.129  0.2328 -0.0773 -0.0075
44230W        W52830   3.516   1.824  29.504 -0.2047 -0.0189 -0.0224
44231W        W52831  10.663   4.729  38.363  0.2687  0.1407 -0.0550
44232W        W52832  17.392   0.559  16.748  0.2123 -0.1913  0.2402
44233W        W52833   1.296   5.332  35.329 -0.0863  0.3380 -0.1730
44234W        W52834  18.999   1.733   7.790  0.0140 -0.0680 -0.3687
44235W        W52835   0.846   0.913  43.820  0.2207  0.2173 -0.1102
44236W        W52836   4.173   3.859  24.050 -0.2865 -0.1501 -0.2344
44237W        W52837   8.020   0.435  12.289  0.1169 -0.3278  0.1142
44238W        W52838   0.355   3.202  39.915  0.0455  0.0699  0.2929
44239W        W52839  11.607   0.242  40.007  0.1736  0.0476 -0.2867
44240W        W52840  12.913   0.950  31.028 -0.2955 -0.3752 -0.0581
44241W        W52841   3.546   6.390   6.818 -0.2313  0.1538  0.1329
44242W        W52842   4.350   5.307   9.327  0.1787  0.2000  0.0624
44243W        W52843  15.116   5.150   2.349  0.0059  0.1007 -0.0293
44244W        W52844  18.982   2.976  14.849  0.0632 -0.1956  0.0998
44245W        W52845  16.509   0.696  39.684 -0.0113  0.1624 -0.0849
44246W        W52846  11.539   5.014  43.641  0.1342  0.0270 -0.2306
44247W        W52847   2.049   6.194  40.901  0.0150 -0.0388 -0.0807
44248W        W52848   7.072   1.175  30.231 -0.3462  0.1002 -0.4048
44249W        W52849  11.080   5.249  17.976  0.1050  0.0246  0.5033
44250W        W52850  18.673   2.568   7.670  0.0191  0.2336 -0.1338
44251W        W52851   6.663   3.426   9.325  0.1549  0.1638  0.0368
44252W        W52852   3.795   3.273  34.062 -0.0133 -0.2830 -0.1543
44253W        W52853   6.924   3.788  25.611 -0.1926 -0.1426 -0.1163
44254W        W52854  19.898   3.324  37.571  0.3796  0.2695 -0.3916
44255W        W52855   8.489   4.875   4.062  0.0798 -0.0308  0.0752
44256W        W52856   1.749   4.708   0.330 -0.2906  0.2812 -0.0029
44257W        W52857   4.877   0.265   0.414 -0.1959 -0.0992 -0.1237
44258W        W52858  20.349   4.303  16.193  0.1294 -0.1042 -0.1525
44259W        W52859   7.020   2.911  44.534  0.2606  0.1283 -0.1724
44260W        W52860  18.079   3.723  29.844 -0.1928 -0.0063 -0.3366
44261W        W52861   0.433   0.633   0.307  0.1452 -0.1597 -0.1165
44262W        W52862  14.393   4.889  36.235 -0.1265 -0.4144 -0.2134
44263W        W52863  10.315   5.124  27.499 -0.3502 -0.1330 -0.2340
44264W        W52864  14.357   2.858   7.082  0.0417  0.2058  0.3987
44265W        W52865   7.059   4.051  37.008 -0.1759 -0.5310  0.1990
44266W        W52866  10.080   2.887  17.503 -0.0248  0.2203  0.2123
44267W        W52867   4.973   0.041   8.955 -0.1396  0.1035 -0.0970
44268W        W52868  16.994   2.311   8.640  0.0101  0.3337  0.0641
44269W        W52869   7.332   5.498  32.266  0.1280 -0.0562  0.3728
44270W        W52870   4.162   4.408  44.551 -0.0660 -0.0308  0.1499
44271W        W52871  16.711   2.953  42.099 -0.0348 -0.3251  0.0117
44272W        W52872   7.181   0.704   1.306  0.0467  0.1322 -0.1944
44273W        W52873  17.320   1.740   5.652  0.0509 -0.0667  0.0185
44274W        W52874  18.604   0.800   0.838  0.4817  0.3145  0.1442
44275W        W52875  20.977   0.843   1.217  0.0734  0.1612  0.0161
44276W        W52876  16.487   5.736  40.718  0.0619 -0.0079  0.0826
44277W        W52877   7.583   1.933  40.955 -0.2241 -0.1522 -0.0287
44278W        W52878   4.490   5.324  14.523  0.0228  0.2539  0.0430
44279W        W52879  15.410   1.464   5.147  0.1491  0.0767  0.3445
44280W        W52880  19.880   2.249  18.937 -0.0538 -0.1646  0.1080
44281W        W52881  20.178   5.972  14.178 -0.0417 -0.1850  0.2468
44282W        W52882   1.793   3.572  12.057 -0.0895  0.2374  0.1500
44283W        W52883  20.614   0.861  36.964  0.3846  0.1345  0.2256
44284W        W52884  10.006   2.274  15.651  0.1629  0.0868 -0.2376
44285W        W52885   9.590   6.251  25.592 -0.0885  0.1724  0.2311
44286W        W52886  16.930   1.168  30.420 -0.0174  0.2578  0.0646
44287W        W52887   6.449   2.516   9.771 -0.0159 -0.1616  0.0885
44288W        W52888  16.459   4.794   9.568 -0.1313  0.2003 -0.1469
44289W        W52889   1.131   4.639  36.332  0.0501  0.0329  0.2430
44290W        W52890  15.749   4.568   8.336  0.2808  0.1549  0.1009
44291W        W52891   2.815   1.486  29.119  0.1623 -0.0241  0.0641
44292W        W52892   4.783   3.579  43.002 -0.2922 -0.2857 -0.1771
44293W        W52893  19.004   0.143  18.183  0.4257  0.2491  0.0040
44294W        W52894   3.950   3.648  35.608  0.2217 -0.0312 -0.0239
44295W        W52895   5.169   0.107   8.443 -0.0974  0.2818 -0.0745
44296W        W52896  17.908   0.382  23.010 -0.1395  0.0959 -0.1579
44297W        W52897  16.778   0.207  39.011 -0.0654  0.1547  0.2490
44298W        W52898  10.289   3.150  39.384  0.3376  0.0218 -0.2402
44299W        W52899  18.947   0.199   1.458  0.1513 -0.0213 -0.0745
44300W        W52900  12.483   0.163  32.498 -0.0640 -0.1219  0.1078
44301W        W52901   2.936   4.930  39.457 -0.0350  0.1479  0.0380
44302W        W52902   6.382   2.814  33.292  0.1833  0.1123  0.0302
44303W        W52903   4.350   5.348   0.680 -0.1474 -0.1144 -0.1233
44304W        W52904   1.546   1.155   9.755  0.0415 -0.4037  0.0416
44305W        W52905   9.671   4.009  35.687  0.0709  0.3405  0.2944
44306W        W52906  14.339   4.966  37.159 -0.0854 -0.0681  0.1313
44307W        W52907  14.094   5.544  14.320  0.0570  0.2805 -0.0423
44308W        W52908  20.620   5.144  37.590 -0.0952  0.0970  0.1933
44309W        W52909  16.492   3.374   8.179  0.2693 -0.1578 -0.1373
44310W        W52910   5.965   2.121  29.222  0.2948 -0.0940 -0.1909
44311W        W52911  12.325   1.128  44.884  0.1038 -0.5243  0.0058
44312W        W52912   6.637   5.738   5.549 -0.0009 -0.0515 -0.2217
44313W        W52913   2.764   0.710  40.185 -0.0021 -0.1015  0.1877
44314W        W52914   7.658   4.857   0.461  0.0981 -0.1059  0.1077
44315W        W52915   7.869   2.886  15.969  0.1559 -0.0378  0.3137
44316W        W52916  12.702   1.300  21.542 -0.0971  0.1923 -0.0447
44317W        W52917   2.968   0.825   9.687 -0.0989  0.3592  0.0356
44318W        W52918  16.988   5.945  24.574  0.0938  0.1039 -0.0320
44319W        W52919   7.250   4.929  43.170  0.0930  0.0881  0.1144
44320W        W52920   8.433   3.357  41.311  0.1122 -0.2331  0.3978
44321W        W52921   9.645   0.136  15.352  0.2355  0.0077  0.1363
44322W        W52922  12.249   4.228  28.218 -0.0082 -0.0499 -0.1409
44323W        W52923   6.726   1.468   1.174  0.0645 -0.1934 -0.2654
44324W        W52924   9.467   0.663   2.902  0.1424  0.0761 -0.0650
44325W        W52925  12.778   2.898  10.390  0.0629  0.3019 -0.0536
44326W        W52926   4.864   1.439   0.235  0.2287  0.1806 -0.1703
44327W        W52927   6.659   0.171  42.223  0.3097  0.4037 -0.0761
44328W        W52928  17.055   5.449  11.988 -0.2182 -0.3868  0.0313
44329W        W52929  12.261   0.203  12.772 -0.2120  0.0001  0.0369
44330W        W52930  17.730   2.420  34.439  0.0914  0.1642 -0.0145
44331W        W52931  13.795   1.623   5.941  0.3685 -0.1758 -0.0660
44332W        W52932  16.879   2.453   9.602  0.2397  0.1298  0.1174
44333W        W52933   6.539   6.295   0.008  0.1894  0.2938 -0.2945
44334W        W52934  15.448   6.415  22.705  0.0401 -0.1808 -0.3937
44335W        W52935  19.251   0.984  20.358  0.1685  0.0201 -0.0695
44336W        W52936  12.154   5.264   7.472  0.4147  0.1065  0.2557
44337W        W52937   1.932   4.805  41.829  0.0261  0.3297  0.1712
44338W        W52938   6.575   4.218  27.850  0.2876  0.2871  0.0753
44339W        W52939   6.008   6.474  22.044  0.1272 -0.2102  0.0999
44340W        W52940   6.145   1.594  29.954  0.0128 -0.0480  0.3424
44341W        W52941   0.673   1.135   5.975  0.1031  0.3961 -0.0702
44342W        W52942  19.935   5.464  14.238  0.2158  0.0801 -0.1430
44343W        W52943  14.249   1.279  32.872 -0.4719 -0.1773 -0.1743
44344W        W52944   5.483   2.138  26.733 -0.1605 -0.0374 -0.0643
44345W        W52945  12.290   6.580  31.253  0.2497  0.0938  0.0863
44346W        W52946   4.796   3.789   2.862 -0.0933  0.2517 -0.3000
44347W        W52947  19.454   3.467   9.014 -0.0702  0.2629 -0.0003
44348W        W52948  17.403   2.193  21.405  0.1494 -0.1571 -0.2149
44349W        W52949   2.435   6.508  41.340 -0.0075 -0.1168 -0.1487
44350W        W52950  16.709   4.094  20.434  0.0234  0.0281 -0.1570
44351W        W52951  20.711   2.006   1.305 -0.1479  0.1559 -0.2087
44352W        W52952   8.093   1.187  32.988 -0.2545 -0.0095 -0.1181
44353W        W52953  13.278   0.712  19.549  0.2127  0.0389 -0.0892
44354W        W52954  16.915   3.665  23.670  0.1222 -0.0536 -0.1395
44355W        W52955  17.648   3.077  44.752  0.0361 -0.1180 -0.0797
44356W        W52956   4.141   1.229  14.932  0.0306 -0.4008 -0.1263
44357W        W52957  12.993   2.340  44.214  0.1441 -0.1674 -0.0588
44358W        W52958   9.906   5.997  24.978 -0.0929  0.2471 -0.0047
44359W        W52959   1.361   6.597   6.563 -0.0408  0.2565 -0.0086
44360W        W52960  12.030   3.786   4.719 -0.1094 -0.0349 -0.0874
44361W        W52961   8.228   4.751   2.347 -0.1457  0.0393  0.2642
44362W        W52962   7.571   2.726  30.521 -0.0259  0.0415  0.0959
44363W        W52963   5.427   1.820   3.822 -0.2809 -0.1494  0.1579
44364W        W52964  18.309   1.018  20.691 -0.2055  0.2873 -0.1380
44365W        W52965  14.375   1.585   2.325  0.5532  0.1011 -0.0964
44366W        W52966   0.406   1.137   9.819 -0.3242 -0.0216 -0.1868
44367W        W52967  10.295   3.628  44.857  0.0320  0.0993 -0.1753
44368W        W52968   3.001   2.382   4.878 -0.4161  0.0800 -0.0490
44369W        W52969  16.105   0.555  31.239 -0.0350  0.1763 -0.4133
44370W        W52970   4.482   0.380  38.883  0.0176 -0.0370 -0.1543
44371W        W52971  19.987   4.308  36.561  0.1201  0.0365  0.1222
44372W        W52972   0.935   3.559  34.499 -0.1491 -0.1646 -0.3025
44373W        W52973  17.362   2.012   0.416  0.2213  0.2058 -0.3430
44374W        W52974  20.372   6.024   6.333  0.0304 -0.1720 -0.0912
44375W        W52975  13.529   2.071  29.265  0.0339 -0.2201 -0.1470
44376W        W52976  14.012   6.082  11.382 -0.0679  0.4105  0.1253
44377W        W52977  15.752   0.919  29.283  0.0055  0.0444  0.2062
44378W        W52978   1.529   5.869  13.882  0.1712 -0.0909  0.0247
44379W        W52979  11.962   5.067  18.475 -0.0642  0.1851 -0.0236
44380W        W52980  11.173   5.599  30.951 -0.0536  0.3957  0.0011
44381W        W52981   8.401   2.104  26.278 -0.2295 -0.2301  0.1787
44382W        W52982   0.520   1.163  11.905  0.0387 -0.2099  0.0294
44383W        W52983   5.077   6.335  39.597 -0.2996 -0.0809 -0.2093
44384W        W52984   1.400   3.243  38.575  0.2199  0.0590 -0.1431
44385W        W52985   5.267   6.246  25.125 -0.3515 -0.0716  0.0176
44386W        W52986  20.945   6.501  43.512 -0.0017 -0.2357 -0.2921
44387W        W52987   7.083   2.298  44.494  0.1943  0.1394  0.0984
44388W        W52988  13.703   3.363  13.018  0.1131  0.0106 -0.0835
44389W        W52989   4.599   0.759  33.402  0.2357 -0.0748 -0.0860
44390W        W52990  18.903   3.262  39.490  0.2909  0.3160  0.4119
44391W        W52991  12.071   1.928  34.351  0.1863  0.1112 -0.3345
44392W        W52992  12.308   1.209   4.052  0.2453  0.2297  0.1034
44393W        W52993   9.374   1.566  35.321 -0.3343  0.0142 -0.0813
44394W        W52994   6.887   5.138  42.045  0.2211 -0.0793  0.0287
44395W        W52995   4.471   2.643  23.716  0.1600 -0.0622  0.2016
44396W        W52996  14.238   2.430   0.428 -0.0096  0.0330 -0.0278
44397W        W52997  18.997   4.550   0.127 -0.0417 -0.1101  0.1446
44398W        W52998   3.819   3.747  38.708 -0.0475  0.1903 -0.0385
44399W        W52999  15.934   0.725  41.485 -0.0293  0.3511 -0.2526
44400W        W53000  12.558   5.108  18.957  0.1925  0.2362  0.0466
44401W        W53001   8.639   3.686  33.717 -0.0687  0.1229 -0.2038
44402W        W53002  15.226   3.179  35.865  0.1287 -0.0420  0.1965
44403W        W53003  19.797   0.933   9.788 -0.1299 -0.0853  0.2562
44404W        W53004   8.611   0.051   5.049  0.2376  0.1216  0.1106
44405W        W53005  15.313   6.030   3.046 -0.0168 -0.0976 -0.1419
44406W        W53006   1.237   5.496   5.987 -0.4131  0.2153  0.2371
44407W        W53007  18.140   2.178  18.543 -0.1319  0.2015 -0.2874
44408W        W53008   6.870   5.691  35.488 -0.1968 -0.1186 -0.0431
44409W        W53009  14.557   4.153  32.850  0.0367 -0.3920 -0.1653
44410W        W53010  19.226   3.997   0.279  0.1834  0.0184  0.1496
44411W        W53011  17.996   1.849   3.208  0.0618 -0.2514 -0.0359
44412W        W53012  17.743   2.966  16.254 -0.2925 -0.3554 -0.0352
44413W        W53013  12.087   0.361  13.678 -0.0941 -0.2641  0.0176
44414W        W53014  16.918   1.173  19.238 -0.1253  0.3443  0.0426
44415W        W53015   4.876   4.961   8.706  0.1823  0.1715 -0.0993
44416W        W53016   9.738   1.735  14.267 -0.1672 -0.0785 -0.1727
44417W        W53017  17.327   3.432   0.732  0.2544  0.5273 -0.1645
44418W        W53018  10.186   3.662  41.389  0.1332 -0.1476  0.1666
44419W        W53019  14.161   5.784  21.821  0.1690 -0.1492 -0.1842
44420W        W53020   1.568   5.926  15.787  0.1287  0.1150  0.0106
44421W        W53021  13.376   2.208   0.267  0.1642 -0.1611  0.1311
44422W        W53022   9.643   2.543  35.266 -0.1135 -0.0148 -0.0240
44423W        W53023   2.769   1.082   9.314 -0.2897 -0.3537  0.1317
44424W        W53024  15.355   2.501  21.696 -0.1615 -0.4462  0.2230
44425W        W53025   6.188   3.247  13.419  0.0739  0.1692  0.1842
44426W        W53026   8.328   6.294  17.100  0.0098  0.1995 -0.1384
44427W        W53027   4.083   5.087  32.012  0.4601  0.0253  0.0509
44428W        W53028  20.072   1.198  41.554 -0.0998  0.0683  0.0867
44429W        W53029  17.964   3.094   8.200  0.0929 -0.2615 -0.1436
44430W        W53030   8.815   3.637  42.828 -0.1966 -0.0403 -0.3710
44431W        W53031  16.450   3.861  22.443 -0.0193 -0.2054  0.0563
44432W        W53032   1.559   1.961  37.527  0.0160  0.0452  0.0046
44433W        W53033   8.182   2.683  39.691  0.0595 -0.0368 -0.0652
44434W        W53034   2.835   1.624  31.575 -0.1005  0.2292 -0.0312
44435W        W53035   1.296   5.954  30.824 -0.4550 -0.0328  0.5005
44436W        W53036  12.230   5.018  35.210  0.0600  0.0509 -0.0240
44437W        W53037  20.523   5.459  17.450  0.3391  0.1479  0.0315
44438W        W53038   3.094   3.097   1.435  0.0203  0.0243  0.0151
44439W        W53039   2.302   0.326  42.895  0.0821  0.1795 -0.0712
44440W        W53040  12.135   2.200  40.874  0.1526  0.4112  0.1415
44441W        W53041  16.306   5.336  35.833 -0.2561 -0.1171 -0.0067
44442W        W53042   8.727   1.997  27.998 -0.0837  0.2031  0.0255
44443W        W53043  15.810   4.657  33.431 -0.1701 -0.0092  0.1385
44444W        W53044  12.677   4.652  33.670  0.2193  0.1125 -0.3417
44445W        W53045  15.022   3.516  35.439 -0.2384 -0.1148 -0.0427
44446W        W53046   9.096   2.801  40.774 -0.1290  0.0186 -0.2205
44447W        W53047  20.293   4.448  31.095 -0.0370 -0.0872  0.1224
44448W        W53048   5.633   5.658   2.905 -0.1234  0.1157 -0.3087
44449W        W53049  11.890   2.703   5.241  0.2223 -0.0964  0.1121
44450W        W53050   5.568   4.365  21.098  0.1172  0.0943  0.1450
44451W        W53051  10.150   4.038  10.185 -0.2276 -0.1116  0.2344
44452W        W53052  10.717   3.185  40.359 -0.1661 -0.1118 -0.1167
44453W        W53053   9.554   2.079  35.379 -0.1170  0.0328 -0.0550
44454W        W53054  13.579   2.158  13.448 -0.0322  0.3026 -0.3751
44455W        W53055   7.835   3.421   7.877 -0.0444  0.0258  0.2020
44456W        W53056   0.461   4.560  36.644  0.0302 -0.1475 -0.1307
44457W        W53057  15.535   0.203  33.133 -0.1687 -0.0995 -0.0908
44458W        W53058   9.445   1.070  37.319  0.5139 -0.4145  0.2923
44459W        W53059  16.239   3.076   0.253 -0.3468 -0.1626 -0.0766
44460W        W53060  11.336   4.828  44.991 -0.2624 -0.4038 -0.0036
44461W        W53061   2.687   5.238  33.369  0.0696  0.1249 -0.0699
44462W        W53062   8.243   6.227  30.632 -0.1304  0.1419 -0.1846
44463W        W53063  16.567   5.728  24.777  0.3452 -0.1656 -0.0915
44464W        W53064  17.465   1.389  43.192  0.1845  0.0111 -0.1027
44465W        W53065   4.814   5.678  41.129  0.0798 -0.3635 -0.4220
44466W        W53066   7.257   0.999   2.008 -0.4354  0.1379  0.3543
44467W        W53067  14.560   4.695  11.672  0.0816  0.0740 -0.0010
44468W        W53068   2.251   6.034  25.657  0.3930  0.2457 -0.2158
44469W        W53069   3.757   2.093  43.877  0.1349  0.1433  0.1120
44470W        W53070  15.593   3.589  37.837  0.0022 -0.0683  0.2735
44471W        W53071  15.083   4.685  31.429 -0.1226  0.0314 -0.1289
44472W        W53072   0.475   6.310  30.326 -0.2712  0.1922 -0.0757
44473W        W53073  12.178   2.376   1.019 -0.2284  0.0371  0.0239
44474W        W53074  19.588   3.408   7.351  0.0693  0.0203  0.1894
44475W        W53075   1.667   4.508  35.618  0.0815  0.2259 -0.1691
44476W        W53076   7.580   2.023  29.035  0.0175 -0.0862 -0.0209
44477W        W53077   2.724   2.053  12.213  0.1300 -0.0205  0.3239
44478W        W53078  19.854   5.624   4.583 -0.1096  0.0888 -0.0619
44479W        W53079  14.996   1.340   1.789 -0.1285 -0.0291  0.1388
44480W        W53080  14.849   4.873   3.339 -0.0487  0.0672  0.2298
44481W        W53081   0.803   3.857  28.991 -0.1369 -0.0023 -0.1738
44482W        W53082   1.123   6.400  30.835  0.2208 -0.1059 -0.1988
44483W        W53083  16.354   0.311   1.578  0.1483  0.1152 -0.0355
44484W        W53084   0.053   3.451  38.951 -0.0824  0.0972  0.2659
44485W        W53085  13.070   2.778  13.878  0.1828 -0.0073 -0.0164
44486W        W53086  17.547   1.198  29.904 -0.2277 -0.0417  0.1124
44487W        W53087   3.280   5.360  29.086  0.1451 -0.1429  0.1859
44488W        W53088  11.817   1.812  42.924  0.1110  0.2724 -0.3647
44489W        W53089   8.540   0.779  28.281  0.1686 -0.2040  0.2404
44490W        W53090  17.211   2.653  15.303  0.2698 -0.0287 -0.0547
44491W        W53091  16.761   0.226  42.516  0.1133 -0.3883 -0.1618
44492W        W53092   3.069   4.610  28.367 -0.1508  0.1967 -0.3289
44493W        W53093  14.715   1.627  41.287  0.1921  0.3950  0.3136
44494W        W53094   4.588   5.970  14.035 -0.1883 -0.3053  0.0817
44495W        W53095  17.021   1.848  36.682 -0.0612 -0.1708 -0.1318
44496W        W53096  17.310   3.012   4.594 -0.0791  0.1563 -0.0879
44497W        W53097   8.687   6.466   0.362  0.1206  0.0048  0.1536
44498W        W53098  13.976   1.499  34.527 -0.0733 -0.2353 -0.2035
44499W        W53099   2.041   3.916  25.044  0.1787  0.1047  0.1401
44500W        W53100  20.298   5.781  40.398  0.2343  0.1591 -0.1434
44501W        W53101   8.169   0.863   1.126 -0.0839  0.0040 -0.3305
44502W        W53102   6.718   1.401  44.487 -0.0690  0.0259 -0.1772
44503W        W53103  11.011   2.905  44.670 -0.1974  0.1373 -0.1492
44504W        W53104   7.980   2.858  34.823 -0.0586 -0.2474 -0.0656
44505W        W53105  11.892   0.406  33.648  0.0990 -0.1372 -0.3451
44506W        W53106  15.615   4.248  42.854  0.0668  0.0493 -0.3048
44507W        W53107  21.005   5.351  32.127 -0.3700 -0.0617  0.0604
44508W        W53108   4.555   1.304  41.663  0.0013 -0.1695  0.0728
44509W        W53109   7.451   1.781  30.742 -0.2089  0.3877 -0.1253
44510W        W53110   8.254   1.398  22.075  0.1246 -0.0786  0.0673
44511W        W53111  16.109   0.485  23.731 -0.0031  0.0454  0.2250
44512W        W53112  18.180   0.180   7.908 -0.2872 -0.3755  0.2611
44513W        W53113   4.523   4.589  42.804 -0.0459  0.4884  0.0136
44514W        W53114   8.743   3.483  39.882  0.0175  0.1318 -0.2290
44515W        W53115   6.002   3.856  43.301  0.1148  0.0810 -0.0386
44516W        W53116   6.532   0.346   2.549 -0.2369 -0.1191  0.1455
44517W        W53117   8.417   5.089   7.360  0.0974 -0.1971  0.0087
44518W        W53118   0.868   1.923  34.031 -0.0296 -0.2845 -0.0806
44519W        W53119  14.713   4.720  31.035  0.2790 -0.1094  0.0345
44520W        W53120   5.764   5.791  33.737  0.0723 -0.0485 -0.1329
44521W        W53121   3.010   5.365   7.498  0.1495  0.1323  0.0379
44522W        W53122   5.797   3.547  40.623  0.1556 -0.2691 -0.2335
44523W        W53123   1.682   3.540  39.970  0.1663  0.1142  0.0833
44524W        W53124  15.387   0.844  31.460  0.0343  0.0256 -0.0322
44525W        W53125   2.749   5.629  40.114 -0.2189  0.0512 -0.1832
44526W        W53126  17.399   2.717   8.809  0.2759 -0.4576 -0.0712
44527W        W53127  14.046   6.017  39.067  0.2726 -0.4652 -0.2353
44528W        W53128  16.081   1.959   6.836  0.1146 -0.4047  0.0235
44529W        W53129  12.808   2.870  37.343 -0.5125  0.0409 -0.1926
44530W        W53130  17.927   1.690   5.557 -0.2004 -0.1723  0.3657
44531W        W53131  16.587   4.082   1.104  0.1012  0.2126  0.0287
44532W        W53132   7.936   4.629  25.929 -0.0752 -0.1122  0.0886
44533W        W53133   3.568   4.388  31.408 -0.1145  0.1139  0.2062
44534W        W53134  11.700   6.090  30.640  0.0727  0.0821  0.3204
44535W        W53135   2.797   4.838  27.009  0.1416  0.0741  0.2277
44536W        W53136   1.015   5.061  14.795  0.2917 -0.0205 -0.2431
44537W        W53137   0.215   4.243  12.850  0.3441  0.0049 -0.0201
44538W        W53138  11.826   4.917  39.229  0.0476  0.0086  0.3690
44539W        W53139  18.113   6.232  22.022 -0.1210 -0.1487 -0.1706
44540W        W53140   8.858   5.984  15.731  0.0659  0.1144  0.2542
44541W        W53141   9.406   0.150   8.390 -0.2685 -0.1822  0.3598
44542W        W53142  11.102   0.559  44.368  0.3236  0.0994 -0.0604
44543W        W53143   8.610   3.901  35.429  0.0049  0.1588 -0.0510
44544W        W53144  18.207   3.997  19.644 -0.2396 -0.3853 -0.0665
44545W        W53145  14.249   1.272  17.749 -0.0503 -0.0194  0.0635
44546W        W53146   7.398   3.308  27.268  0.0524  0.0873  0.0544
44547W        W53147   9.185   2.722  39.742 -0.0295  0.0386 -0.1109
44548W        W53148  19.352   5.710   5.985 -0.2677 -0.2489  0.0196
44549W        W53149  10.928   2.864  39.737 -0.0018 -0.1382 -0.2665
44550W        W53150   4.863   1.244  40.488  0.1703 -0.0361  0.2266
44551W        W53151   1.407   0.509  38.228 -0.1592  0.0727 -0.1733
44552W        W53152  17.581   5.756   7.508 -0.3318  0.0715  0.1203
44553W        W53153  13.791   1.926  38.752 -0.1784  0.0125 -0.2845
44554W        W53154  16.634   3.298  20.114 -0.0760 -0.0578 -0.2062
44555W        W53155  20.954   1.914  27.895  0.0376  0.2565  0.1561
44556W        W53156   4.743   5.028  42.841  0.3829  0.2671 -0.0129
44557W        W53157   3.927   2.601   6.732 -0.1697  0.0638  0.0333
44558W        W53158  20.035   3.550   3.464  0.1050  0.2453  0.2286
44559W        W53159   8.391   6.451  14.907 -0.0196 -0.1627  0.0632
44560W        W53160  12.546   4.486  36.540  0.0495 -0.4268 -0.3435
44561W        W53161   3.165   4.179   6.144 -0.0239  0.0985 -0.0931
44562W        W53162  17.332   5.950   0.712  0.0381  0.4196 -0.1348
44563W        W53163  17.379   1.513   0.778  0.1172  0.0033 -0.2157
44564W        W53164  11.715   0.652  36.065 -0.0104 -0.1718 -0.1593
44565W        W53165  18.504   5.842  22.821 -0.0502  0.2598 -0.1726
44566W        W53166   2.323   5.971  33.902 -0.0785 -0.2974  0.2247
44567W        W53167  16.854   5.801  37.388 -0.3453  0.0481  0.1450
44568W        W53168   8.803   0.789   5.934  0.2313  0.1335 -0.0686
44569W        W53169  18.157   5.251  42.409  0.0488  0.1062 -0.0539
44570W        W53170  21.089   3.224   0.288  0.0580 -0.1859  0.0540
44571W        W53171   1.877   2.679  36.262 -0.2001  0.0884 -0.0025
44572W        W53172   5.073   3.805  15.900  0.0561  0.0676  0.1170
44573W        W53173   6.093   5.961  37.568  0.0843  0.1666  0.2150
44574W        W53174  16.341   2.808   6.910  0.0073  0.2699 -0.0695
44575W        W53175  20.353   3.892  31.474 -0.0293 -0.0811 -0.0485
44576W        W53176   8.251   5.423  24.254  0.0293  0.2172 -0.1287
44577W        W53177   3.815   0.494   9.484 -0.0005  0.5341  0.0735
44578W        W53178   6.083   0.835   2.198 -0.1442  0.1413  0.2292
44579W        W53179   4.241   0.849  10.459  0.0335  0.0587 -0.1516
44580W        W53180   6.712   3.954  23.767 -0.0276 -0.1756 -0.2714
44581W        W53181   5.384   0.310  26.535  0.0534 -0.2108  0.1123
44582W        W53182  13.145   3.632  15.463  0.0161 -0.0714  0.1520
44583W        W53183  20.314   1.673  29.295  0.0483 -0.0271  0.1848
44584W        W53184   7.491   6.091  10.957 -0.0844 -0.1582  0.0779
44585W        W53185   8.672   0.043  27.581  0.1760 -0.0434  0.0892
44586W        W53186  13.403   2.127  44.628 -0.0161  0.1305  0.4150
44587W        W53187   9.277   1.519   6.949  0.2087 -0.1133 -0.0482
44588W        W53188   2.050   5.428  24.851  0.2120 -0.1342  0.1305
44589W        W53189  19.170   4.141  17.848 -0.2200  0.0204  0.1089
44590W        W53190  16.260   2.713  21.588  0.0016  0.1118 -0.0075
44591W        W53191   8.309   1.690   0.173  0.2578  0.1457  0.1909
44592W        W53192   9.537   1.990  16.707  0.2792  0.0868 -0.4770
44593W        W53193  13.440   5.359  33.811 -0.0862 -0.1373  0.0679
44594W        W53194   1.404   4.909  17.234 -0.2789 -0.0975 -0.0654
44595W        W53195  17.196   1.334  44.159  0.3185 -0.0724  0.0000
44596W        W53196  18.365   2.196  19.467 -0.2006  0.1042  0.0799
44597W        W53197  16.207   2.210  10.384  0.1048 -0.2864  0.2836
44598W        W53198   2.977   1.542   9.001 -0.2303 -0.1268  0.3630
44599W        W53199  15.152   2.195  16.686  0.2028 -0.1037  0.1005
44600W        W53200   5.672   0.757  36.580 -0.1892  0.1179  0.0273
44601W        W53201   7.923   2.092  23.792  0.2494 -0.2649  0.0919
44602W        W53202   0.653   2.711   6.380 -0.1098  0.0329  0.0825
44603W        W53203   3.223   4.160  24.193  0.3062 -0.1021  0.2242
44604W        W53204  10.892   3.076  13.547  0.1400  0.0370 -0.2151
44605W        W53205  11.524   6.098  36.096 -0.1937 -0.0337 -0.4594
44606W        W53206   8.666   3.567   8.587  0.0706  0.2001 -0.1613
44607W        W53207  13.067   0.803   2.432 -0.1017 -0.2390  0.0622
44608W        W53208  15.624   1.714  30.271 -0.0849 -0.0875  0.1170
44609W        W53209   6.248   0.232  26.193 -0.4237  0.0085  0.2437
44610W        W53210  15.522   3.179   1.418  0.1192  0.2364 -0.1380
44611W        W53211  20.817   1.673  29.311 -0.0731 -0.2623 -0.0336
44612W        W53212   7.916   0.885   0.270  0.0073 -0.1401 -0.3391
44613W        W53213  11.809   4.522  41.395 -0.0661 -0.0648 -0.2475
44614W        W53214   4.290   6.354  34.265 -0.1215 -0.0707 -0.1038
44615W        W53215  14.825   4.411  13.769  0.1058 -0.0796  0.0722
44616W        W53216   3.725   0.343  44.998  0.0770  0.0260 -0.0283
44617W        W53217  19.234   4.200  43.363 -0.0402 -0.1502 -0.1033
44618W        W53218  17.552   0.250  14.174  0.1973  0.1960  0.0979
44619W        W53219  10.062   4.408  31.528  0.3188  0.0853  0.0706
44620W        W53220   1.278   2.285   3.615  0.0545  0.3723 -0.2120
44621W        W53221   3.126   2.606  32.406  0.1160 -0.3384  0.2843
44622W        W53222  12.663   0.269  33.120 -0.2472 -0.0238  0.2764
44623W        W53223  20.244   2.461  33.356  0.1774  0.1380 -0.0637
44624W        W53224  18.295   1.191  41.918 -0.0517 -0.0611  0.1143
44625W        W53225  14.345   1.241  19.379  0.1208 -0.0122  0.1032
44626W        W53226   5.838   1.219   7.865 -0.0214  0.0326 -0.0651
44627W        W53227   3.270   2.329  23.993  0.0654  0.0279  0.2973
44628W        W53228   5.746   3.756  22.230 -0.0575  0.2230  0.1947
44629W        W53229   9.564   3.164  14.700  0.1286  0.1628  0.0116
44630W        W53230  19.428   2.620  14.686  0.1560 -0.2861 -0.1129
44631W        W53231   9.120   4.025  42.138  0.0626 -0.2317 -0.1561
44632W        W53232   6.627   4.276  11.325 -0.2184  0.1248 -0.1053
44633W        W53233  19.989   3.665  15.081  0.2160 -0.0342 -0.1237
44634W        W53234  13.435   4.345   0.052 -0.2496  0.2343  0.3803
44635W        W53235   0.822   4.160   3.668 -0.2465 -0.0008  0.2493
44636W        W53236  19.485   4.971   4.211  0.2939  0.1508  0.3309
44637W        W53237  14.828   0.888  17.219  0.4539 -0.1218 -0.1409
44638W        W53238  17.631   1.800   5.192  0.0377  0.1946 -0.2224
44639W        W53239  19.932   2.092   0.385 -0.2403  0.3507  0.0004
44640W        W53240  14.056   4.903  16.687  0.1551  0.0976 -0.0684
44641W        W53241  10.310   5.037  35.014  0.1278 -0.1687 -0.2981
44642W        W53242  14.066   5.267  40.169  0.3388 -0.1342 -0.0249
44643W        W53243  12.987   2.646  35.869  0.0442 -0.2824  0.0510
44644W        W53244   8.051   6.474   1.193 -0.2209  0.1988 -0.1629
44645W        W53245   5.828   3.579  15.670  0.0905  0.4917 -0.2667
44646W        W53246   7.902   2.128  36.831  0.0921  0.1089  0.0884
44647W        W53247   4.312   0.081   3.518  0.2171  0.1210  0.0591
44648W        W53248   6.723   5.582   7.788  0.0107 -0.1071  0.0651
44649W        W53249  20.401   5.010   4.156  0.3002 -0.3004 -0.0239
44650W        W53250  16.312   6.167  31.186  0.2355  0.0262 -0.1676
44651W        W53251   9.744   1.757  43.633 -0.3257  0.0173  0.2062
44652W        W53252  21.092   0.782  31.199 -0.2698 -0.0733  0.1181
44653W        W53253  11.505   5.977   8.334 -0.0139 -0.0518 -0.5030
44654W        W53254  18.541   6.291   1.409 -0.0065 -0.0670  0.0539
44655W        W53255  11.622   3.839  12.731  0.0488  0.3744 -0.3470
44656W        W53256  15.443   1.234   8.843  0.4404  0.0263  0.2658
44657W        W53257  15.103   2.649  29.825 -0.3124 -0.0322 -0.1704
44658W        W53258  15.642   1.424  42.806  0.4490  0.2592  0.2381
44659W        W53259  16.646   2.561   1.466  0.2344  0.2615  0.1517
44660W        W53260  20.853   6.240   6.436 -0.0779  0.1199  0.0312
44661W        W53261   2.543   6.020  14.349 -0.5551 -0.1761  0.3215
44662W        W53262  14.338   5.283   9.383 -0.0067  0.2032  0.0751
44663W        W53263  14.140   0.900  13.839  0.0372  0.0549  0.1370
44664W        W53264   0.142   3.981   0.456  0.2727  0.1288 -0.0566
44665W        W53265   6.925   5.330   8.211  0.0667  0.2224  0.0618
44666W        W53266   4.907   4.258  33.879  0.1157 -0.0310  0.0065
44667W        W53267   4.639   5.439  30.135  0.0138 -0.0322  0.2217
44668W        W53268  11.401   2.309   4.210 -0.1690 -0.1473 -0.0985
44669W        W53269  14.458   0.295   2.538 -0.2182  0.1114 -0.1278
44670W        W53270   5.785   1.816  21.440 -0.1078  0.2115 -0.4434
44671W        W53271  10.455   1.274  16.620 -0.1576 -0.0513  0.2738
44672W        W53272   5.986   6.263  33.738  0.1805  0.0379  0.0434
44673W        W53273   7.465   4.005  30.657  0.0109 -0.0392 -0.0111
44674W        W53274   3.680   6.214  29.675 -0.0523  0.2616  0.0695
44675W        W53275  13.286   2.371  20.236  0.0109 -0.4438  0.1048
44676W        W53276   0.895   3.028  13.506 -0.3062 -0.0212  0.0877
44677W        W53277  19.160   5.359  42.222 -0.1727 -0.1213 -0.1299
44678W        W53278   4.311   3.158   2.864  0.0583  0.1407  0.0571
44679W        W53279   7.631   4.005   6.077 -0.0279 -0.1353  0.3449
44680W        W53280  15.181   3.718  17.548 -0.0172 -0.1245  0.0654
44681W        W53281  15.271   6.478  23.310 -0.1059  0.0200  0.3649
44682W        W53282  17.109   0.107  43.807 -0.1775 -0.0596 -0.0083
44683W        W53283   9.400   2.896  15.606 -0.1088 -0.1287  0.0331
44684W        W53284   6.403   4.474  43.877 -0.2233  0.1276  0.1161
44685W        W53285   3.421   0.532   2.149 -0.0278  0.1209  0.1384
44686W        W53286  16.029   4.733  34.794 -0.1637 -0.0195 -0.0647
44687W        W53287  13.037   1.415  38.084 -0.2952  0.1134 -0.1337
44688W        W53288  17.436   3.219  35.477 -0.1921 -0.2752 -0.2124
44689W        W53289   6.861   4.844  28.447 -0.0477 -0.0374 -0.1252
44690W        W53290  17.325   4.909  10.589 -0.3377  0.2437 -0.1017
44691W        W53291   4.410   2.868  35.691  0.0015 -0.0551  0.0804
44692W        W53292   2.190   3.594  11.623  0.1703  0.2207 -0.2521
44693W        W53293  10.321   6.566  40.181 -0.5704 -0.2105 -0.0575
44694W        W53294  16.271   4.132  29.486  0.0555  0.0866 -0.0157
44695W        W53295  11.895   3.365  43.083 -0.2239 -0.2066  0.3667
44696W        W53296  10.176   0.673  32.491 -0.2541 -0.0509  0.1060
44697W        W53297  13.654   4.646  33.478  0.0200  0.0072 -0.0927
44698W        W53298   6.104   3.057  33.725  0.0412  0.3462  0.0904
44699W        W53299  12.368   5.558  34.551 -0.0212 -0.2928  0.2529
44700W        W53300  10.607   5.883  30.925  0.1761 -0.0258 -0.0579
44701W        W53301   9.305   1.852   1.675  0.3341  0.1617  0.2208
44702W        W53302   9.689   1.909   0.843  0.1808 -0.1188 -0.0394
44703W        W53303   1.963   6.395  38.189 -0.2367  0.3291 -0.2190
44704W        W53304   1.065   3.837  44.436  0.0638  0.0006 -0.1903
44705W        W53305  17.997   0.091   3.676 -0.0130  0.0173  0.2367
44706W        W53306   9.499   2.368  33.631  0.4478 -0.2884  0.1724
44707W        W53307  13.486   1.738  36.286 -0.1912 -0.3393  0.0499
44708W        W53308   4.216   4.195  40.573  0.0256  0.0121 -0.1046
44709W        W53309  13.905   5.048   5.021 -0.0616  0.0366 -0.1098
44710W        W53310   8.968   5.899  12.289  0.0676 -0.2537 -0.2838
44711W        W53311  20.242   2.030  44.243  0.0793  0.1479  0.1999
44712W        W53312   8.580   3.742  26.204 -0.1245  0.2538  0.0966
44713W        W53313   1.564   3.190  13.490 -0.0966 -0.0776  0.1154
44714W        W53314   3.951   2.234  32.893  0.1882  0.1605 -0.0213
44715W        W53315  15.267   1.298  20.714 -0.2713  0.1387  0.0535
44716W        W53316   3.307   1.927  15.619  0.0920  0.0262  0.1200
44717W        W53317  15.747   5.716  15.668 -0.1616  0.2141  0.2301
44718W        W53318   6.223   2.121   5.133 -0.0384  0.0705  0.1723
44719W        W53319   4.535   1.136  39.296  0.0392 -0.3673 -0.0174
44720W        W53320  20.302   3.725  43.566  0.2980  0.2457  0.1256
44721W        W53321  14.644   2.206  44.790 -0.2687  0.0348 -0.0592
44722W        W53322  18.313   3.375   9.667  0.2268  0.0788  0.2260
44723W        W53323  16.861   6.491   3.644 -0.1219  0.0162 -0.0127
44724W        W53324   3.604   0.924   4.504  0.0159 -0.2506 -0.1027
44725W        W53325  16.851   3.959  31.054  0.0158 -0.2170 -0.1513
44726W        W53326   9.283   6.469   2.513 -0.0066 -0.0096  0.0313
44727W        W53327   7.313   2.891  16.077  0.4684 -0.1316  0.0195
44728W        W53328  16.846   6.490   8.828 -0.0833 -0.2763 -0.3690
44729W        W53329  15.956   0.288  19.774 -0.1477 -0.1158  0.2594
44730W        W53330   8.903   4.911   1.950  0.2015 -0.0452  0.1199
44731W        W53331   1.314   4.774   8.752  0.0468  0.1823  0.0886
44732W        W53332   7.422   1.806   2.555  0.1334 -0.0348 -0.3442
44733W        W53333   8.045   6.052   9.254 -0.0606 -0.0025 -0.4027
44734W        W53334  12.724   5.367   9.842 -0.1776  0.2264 -0.4489
44735W        W53335   1.416   5.533  37.317  0.0861 -0.1084 -0.1255
44736W        W53336   9.787   3.554  42.407 -0.1056  0.1118  0.0178
44737W        W53337  18.798   4.870  37.720 -0.0897 -0.0135 -0.0185
44738W        W53338   7.967   5.235  35.704 -0.1459  0.1449 -0.0914
44739W        W53339  10.807   1.738   2.268 -0.1897 -0.0578  0.1035
44740W        W53340  10.867   2.629  29.124 -0.2397 -0.0642 -0.2535
44741W        W53341   5.288   1.617   6.897  0.0073  0.1304 -0.2368
44742W        W53342  12.059   2.128  10.871  0.0274  0.1942 -0.0646
44743W        W53343   0.675   1.191   5.414 -0.0600  0.0212  0.2883
44744W        W53344  10.208   4.070   6.961  0.3133  0.0500 -0.2538
44745W        W53345   1.057   6.110  26.010  0.0398 -0.0217  0.1549
44746W        W53346  18.950   5.662   0.411 -0.1363  0.1342  0.0333
44747W        W53347   0.207   5.993   7.418  0.0760  0.1036  0.3416
44748W        W53348   4.684   0.275  38.423  0.0902 -0.0802  0.4463
44749W        W53349   3.736   3.840  14.792 -0.0076  0.1195  0.0260
44750W        W53350  18.922   6.546  16.285 -0.0967  0.1609  0.0208
44751W        W53351   4.688   0.554   9.033  0.2144  0.0859 -0.0888
44752W        W53352  10.607   0.764  26.465 -0.0507 -0.2075 -0.1964
44753W        W53353   9.743   4.296  16.438 -0.2790  0.1859 -0.0441
44754W        W53354  13.061   0.349  12.418 -0.2655  0.2328 -0.2023
44755W        W53355  19.548   4.185   8.075  0.1230  0.1620  0.2083
44756W        W53356  14.808   4.807   7.578  0.1202 -0.2615  0.0796
44757W        W53357  14.512   3.699   5.274 -0.0558  0.2827 -0.1757
44758W        W53358   3.115   3.487   6.973  0.0825 -0.0405  0.0005
44759W        W53359  16.373   0.459  20.751 -0.1264  0.2384  0.0679
44760W        W53360   0.747   5.489  15.618  0.0504 -0.4222  0.0643
44761W        W53361  17.954   4.371  12.962  0.0120 -0.2170 -0.1215
44762W        W53362   0.864   4.431  13.608 -0.0728 -0.1829  0.0357
44763W        W53363   9.137   3.353  15.248  0.0942  0.0964  0.0444
44764W        W53364   4.743   6.119  33.445  0.1884  0.2612 -0.1402
44765W        W53365  19.122   1.073  36.268  0.4001  0.2676  0.3623
44766W        W53366   7.722   0.321  16.140 -0.0140 -0.1334  0.1045
44767W        W53367  15.429   3.040   0.969 -0.2348  0.0679  0.4329
44768W        W53368   2.762   5.369   6.407 -0.2687 -0.1947 -0.2251
44769W        W53369  11.923   5.312   9.718  0.2282  0.3600 -0.0532
44770W        W53370   8.052   6.178  24.556  0.1031 -0.1159 -0.0236
44771W        W53371   4.830   5.438   7.427 -0.0966 -0.0076  0.0911
44772W        W53372  14.855   1.942   8.566 -0.0832 -0.2536 -0.1526
44773W        W53373   9.134   2.254  37.487 -0.2555 -0.1274 -0.1623
44774W        W53374   7.435   0.228  42.606  0.0292 -0.1186 -0.1666
44775W        W53375  20.879   1.505  11.968  0.2310 -0.2012  0.0256
44776W        W53376  10.688   2.872   5.869  0.3296 -0.1278 -0.1071
44777W        W53377  13.543   6.517   0.359 -0.0577  0.0429  0.1853
44778W        W53378   2.527   4.386  45.117  0.0449 -0.0124 -0.3907
44779W        W53379   0.388   0.043  43.779  0.0661 -0.0214 -0.0648
44780W        W53380  12.162   1.581  45.109  0.0870  0.0235  0.1399
44781W        W53381  14.303   1.734  36.003 -0.3034 -0.0180 -0.3547
44782W        W53382  11.212   1.249   9.922  0.0396 -0.2563 -0.0000
44783W        W53383  16.982   0.409  35.184  0.0719 -0.0673  0.0013
44784W        W53384   6.925   0.486  13.727 -0.1015 -0.1434 -0.2900
44785W        W53385   6.184   4.348   0.021 -0.1260 -0.2576 -0.0879
44786W        W53386   1.344   0.960  27.386  0.0696 -0.1551 -0.0641
44787W        W53387  16.182   6.028   1.086 -0.1320 -0.1724  0.1540
44788W        W53388  20.526   5.603  19.131 -0.1800 -0.0524  0.4714
44789W        W53389  13.415   1.227  17.891  0.0776 -0.1708 -0.3855
44790W        W53390   1.569   0.613  44.370  0.5207 -0.0972  0.0741
44791W        W53391  11.969   4.005  41.507  0.2348  0.0370  0.1317
44792W        W53392  11.548   4.277  33.204  0.3120  0.0354 -0.0152
44793W        W53393  12.912   0.021  11.575  0.2521  0.2561 -0.4271
44794W        W53394   7.247   1.999   1.568 -0.1333 -0.3046  0.4286
44795W        W53395  10.304   4.556  32.055  0.2783  0.2049 -0.0386
44796W        W53396  20.455   0.582  32.461 -0.2114 -0.1049  0.0222
44797W        W53397  17.812   6.314  40.394  0.0513  0.4127 -0.2614
44798W        W53398  16.428   3.310  34.553  0.1553 -0.2744  0.0769
44799W        W53399  19.741   3.142  34.165  0.2401  0.1482 -0.1579
44800W        W53400  16.185   4.150   8.976  0.3257  0.2824 -0.0994
44801W        W53401   4.728   6.516   4.873  0.2298  0.0278  0.3399
44802W        W53402  18.930   0.789  10.203 -0.0089 -0.0933  0.1594
44803W        W53403   7.797   2.612  43.915 -0.0429 -0.1350 -0.2190
44804W        W53404   4.406   4.575   6.794 -0.0530 -0.1710 -0.1177
44805W        W53405  18.737   6.495  17.688  0.1125  0.0787  0.3005
44806W        W53406  11.219   4.253   1.179  0.0297 -0.0566 -0.2382
44807W        W53407   4.703   3.889  41.242 -0.1209 -0.0969  0.0842
44808W        W53408   9.952   2.040  36.281 -0.0124 -0.0688  0.1351
44809W        W53409  20.002   4.651  38.598  0.0763  0.1006 -0.2353
44810W        W53410  14.426   4.339   8.057  0.1762  0.0400  0.0325
44811W        W53411   4.919   4.627  13.434  0.0340  0.1110  0.0778
44812W        W53412  19.854   0.455  30.474  0.0042 -0.1701 -0.0515
44813W        W53413  16.082   5.113  17.947 -0.1953 -0.2029  0.1338
44814W        W53414   5.876   1.292  13.563  0.2023 -0.0725 -0.0201
44815W        W53415  15.691   3.032  19.802  0.1179 -0.0955  0.3011
44816W        W53416   6.451   1.997  43.327 -0.1416 -0.3352  0.0619
44817W        W53417   8.118   5.668  30.303 -0.1581 -0.0252  0.2062
44818W        W53418  10.415   3.760  25.884  0.0925 -0.1543  0.0476
44819W        W53419   0.976   6.591  15.576 -0.2561 -0.0782  0.3910
44820W        W53420  14.593   2.669   2.660  0.1910  0.2833 -0.1433
44821W        W53421   4.938   2.543  23.441 -0.0012  0.2577  0.0328
44822W        W53422   2.087   2.694  32.411 -0.1213 -0.0365 -0.4000
44823W        W53423   2.507   1.543  44.490  0.2119  0.2478  0.0585
44824W        W53424   2.615   3.206   0.156 -0.0344  0.2182 -0.1566
44825W        W53425   2.383   3.348  39.716 -0.2781 -0.0243  0.1311
44826W        W53426  15.677   2.473  15.669  0.0835 -0.0151 -0.3270
44827W        W53427   9.574   3.692   4.860 -0.3104  0.1382  0.0368
44828W        W53428  11.553   0.961  28.124 -0.2263 -0.1001  0.4552
44829W        W53429   2.699   0.806  12.812 -0.0267 -0.0793 -0.3483
44830W        W53430  13.068   4.499   3.316  0.2239 -0.0458 -0.0767
44831W        W53431  12.940   5.001  12.818  0.0311  0.1343  0.2890
44832W        W53432  17.608   4.864  31.492  0.2280  0.1795 -0.0240
44833W        W53433  16.307   0.242  25.672 -0.1191 -0.2216  0.0130
44834W        W53434   9.332   2.058  36.190  0.0204  0.1389 -0.0953
44835W        W53435  15.599   4.652  20.934 -0.2434 -0.5343  0.0112
44836W        W53436  12.120   6.193   9.770 -0.3117 -0.0706 -0.0473
44837W        W53437   6.210   3.816  43.806  0.3761 -0.1352 -0.0695
44838W        W53438   0.926   2.118  13.187  0.2281 -0.2472 -0.1469
44839W        W53439   3.274   6.403  41.549  0.0825 -0.2524 -0.1081
44840W        W53440  16.314   6.489  42.463  0.1421 -0.1537 -0.1752
44841W        W53441  14.396   0.485  32.742 -0.0289 -0.1240  0.2386
44842W        W53442  13.729   4.747  37.906  0.0834 -0.3436 -0.0762
44843W        W53443   0.896   1.189   9.696  0.2433  0.1103 -0.0281
44844W        W53444   3.084   3.163  24.526 -0.0251 -0.2262 -0.1144
44845W        W53445   8.837   6.421  27.113 -0.0543 -0.2575 -0.0400
44846W        W53446  16.620   2.687  31.977 -0.3368 -0.0538  0.3946
44847W        W53447  11.043   2.098   8.728 -0.0869 -0.4950  0.0177
44848W        W53448   1.970   5.928  38.644  0.0923  0.1034  0.4427
44849W        W53449  17.707   0.978   8.834  0.1115  0.0311  0.0482
44850W        W53450  17.102   6.397   7.842 -0.0555  0.0329 -0.2456
44851W        W53451  16.635   0.375  13.903  0.0181  0.1701 -0.1479
44852W        W53452  10.581   5.641  33.420 -0.1244 -0.1810 -0.3927
44853W        W53453   1.955   3.666  16.201  0.1920 -0.1957  0.0195
44854W        W53454   5.747   1.815  40.805  0.1078 -0.2075 -0.0188
44855W        W53455  18.491   5.953  36.798  0.1586 -0.2254  0.2019
44856W        W53456  12.053   2.410  14.905 -0.1055 -0.1620  0.1405
44857W        W53457   0.441   0.093  41.691 -0.2152 -0.0637 -0.1550
44858W        W53458   2.769   6.239  36.793  0.1370  0.3530 -0.1767
44859W        W53459   6.118   0.587   2.804 -0.1234  0.2507  0.0044
44860W        W53460  19.072   2.225  36.447 -0.0781 -0.3125  0.0233
44861W        W53461  17.973   4.559  42.341 -0.2818  0.0694 -0.0620
44862W        W53462   0.058   1.227  35.687 -0.0536 -0.0792  0.3895
44863W        W53463   0.377   5.728  36.697  0.0407  0.1567 -0.0188
44864W        W53464  11.494   4.600  41.898  0.1710 -0.0121 -0.0928
44865W        W53465   0.828   2.349  28.948  0.5403  0.1004 -0.2431
44866W        W53466  20.320   2.060  14.636 -0.1286  0.0579  0.0633
44867W        W53467  12.167   4.681  32.429  0.1011 -0.3289 -0.2827
44868W        W53468  10.649   6.280   0.195 -0.0003  0.4134  0.0775
44869W        W53469  10.041   0.036  10.971  0.0320 -0.3010  0.1711
44870W        W53470  19.395   3.379  17.243 -0.1097 -0.1877  0.0384
44871W        W53471   0.490   6.428  33.672 -0.3039 -0.0376 -0.2247
44872W        W53472   9.727   3.275   6.994 -0.0541 -0.0288 -0.0404
44873W        W53473   9.407   0.285  16.651  0.0654 -0.0705  0.0713
44874W        W53474  14.161   6.268   5.033  0.2200  0.0257 -0.3191
44875W        W53475   3.239   0.531  31.680 -0.4242  0.0063  0.0874
44876W        W53476   2.730   0.281  31.647  0.0182  0.2337 -0.0248
44877W        W53477  10.044   0.654  37.683  0.3670  0.0730  0.1253
44878W        W53478  19.928   5.340  17.906  0.1707  0.1086  0.0264
44879W        W53479   1.275   1.682  28.362 -0.2444  0.2007 -0.1959
44880W        W53480   0.925   1.558  40.643 -0.1312  0.1538  0.1071
44881W        W53481   8.048   5.297  13.275 -0.0304 -0.0543 -0.4728
44882W        W53482  13.346   5.504  29.387 -0.2715  0.2844  0.2318
44883W        W53483   3.692   0.383  36.915 -0.6081  0.2234 -0.3444
44884W        W53484   5.904   0.515  12.925 -0.1365 -0.2566 -0.0166
44885W        W53485   1.736   4.420   6.542 -0.1824  0.1778  0.1618
44886W        W53486  17.974   3.725  11.750  0.1046 -0.3033  0.0061
44887W        W53487   1.777   5.361  16.558 -0.1807  0.0849  0.1516
44888W        W53488  19.097   3.754  20.729 -0.1765  0.1031 -0.1260
44889W        W53489  13.470   4.718   0.576  0.1519  0.1123 -0.1020
44890W        W53490   8.212   3.361  28.065  0.1084 -0.0877  0.0803
44891W        W53491  13.339   0.221  19.702  0.0535  0.0890  0.0504
44892W        W53492  15.101   0.026  10.213 -0.0685  0.1254  0.2656
44893W        W53493  14.542   3.854  11.699  0.1870 -0.2300  0.0348
44894W        W53494   0.821   3.910   9.491  0.2954 -0.1743  0.1988
44895W        W53495  12.930   5.369  30.281 -0.1130 -0.0683 -0.1646
44896W        W53496   2.224   5.682  43.553  0.0330  0.2327  0.0454
44897W        W53497  18.388   4.840  14.736 -0.2171  0.1082 -0.1329
44898W        W53498  17.881   5.244   6.742 -0.1064  0.1148  0.3446
44899W        W53499  17.396   6.551  11.555 -0.0199 -0.1171  0.1966
44900W        W53500   7.579   5.838  43.401  0.0424  0.1989  0.4492
44901W        W53501   4.787   0.168  15.800 -0.3411 -0.1405  0.1594
44902W        W53502  19.264   2.373  13.583  0.2172 -0.0405 -0.0898
44903W        W53503   8.918   1.833   9.616 -0.2661  0.2359  0.2140
44904W        W53504   0.914   5.725   7.777 -0.1074 -0.0678  0.0614
44905W        W53505  18.046   5.918   4.097  0.2098  0.1344  0.2127
44906W        W53506   6.240   0.573  21.045  0.2258  0.4499  0.1112
44907W        W53507  14.933   1.533  41.806 -0.2370 -0.1098  0.0040
44908W        W53508  10.912   2.979   3.682 -0.0627 -0.1581 -0.0011
44909W        W53509  21.052   1.101  35.238  0.0862  0.0080 -0.1223
44910W        W53510   9.799   5.143  29.327 -0.2199  0.3267  0.1089
44911W        W53511   5.771   4.231  22.595 -0.1350 -0.2408 -0.0473
44912W        W53512  12.307   5.527  19.094  0.0184 -0.1862 -0.0830
44913W        W53513   6.614   5.395  10.763  0.0101  0.0371 -0.0892
44914W        W53514  14.655   4.033  13.360  0.0253  0.3523  0.0899
44915W        W53515  20.078   6.286  37.082  0.0480  0.1120  0.2485
44916W        W53516  11.470   0.975  17.642  0.1088  0.1458 -0.2615
44917W        W53517  20.413   2.933   0.451  0.0248  0.0708 -0.0694
44918W        W53518   4.518   5.739  32.995 -0.0934  0.0124 -0.1101
44919W        W53519   9.166   3.191  44.298 -0.1092 -0.0349 -0.0040
44920W        W53520   9.419   6.207   4.124 -0.1015 -0.1679  0.2367
44921W        W53521   1.464   6.219  10.797  0.0325  0.0674 -0.0877
44922W        W53522  14.621   3.136  34.632  0.0513  0.4186  0.0262
44923W        W53523  10.756   0.796  43.055 -0.1355 -0.3171 -0.0185
44924W        W53524  10.053   4.682  14.956 -0.4231 -0.0289 -0.0846
44925W        W53525  14.930   2.554  19.290 -0.0513  0.0960 -0.0844
44926W        W53526  13.272   4.098  35.619 -0.0066 -0.3073 -0.0897
44927W        W53527  10.345   1.307   9.365  0.0637  0.1042  0.2397
44928W        W53528   3.995   0.895  11.786  0.0138 -0.1495  0.0703
44929W        W53529   6.301   0.112  44.887 -0.1697  0.0400 -0.2210
44930W        W53530  11.319   3.725   9.331 -0.1787  0.1444 -0.0511
44931W        W53531   2.186   2.147  28.397 -0.1753  0.0160  0.0832
44932W        W53532   8.574   2.160   3.520 -0.1634  0.0720 -0.0177
44933W        W53533   7.519   4.038  43.117 -0.0275  0.1380 -0.1115
44934W        W53534  15.139   3.026  23.181  0.2342 -0.0545  0.1848
44935W        W53535   7.745   5.424  37.163  0.0983  0.1464 -0.0123
44936W        W53536   7.758   3.488  39.114 -0.1662  0.0686  0.0344
44937W        W53537  18.887   5.852  37.626 -0.2684  0.0215  0.0134
44938W        W53538  11.954   2.576   2.375  0.0173  0.0945  0.0406
44939W        W53539   6.353   3.165   1.006 -0.0774 -0.0989 -0.0755
44940W        W53540   6.327   5.324   3.292 -0.3543  0.1819 -0.0274
44941W        W53541  20.651   1.286  40.019  0.0416  0.2157  0.0090
44942W        W53542  17.106   6.333   7.096  0.2583  0.1315  0.0083
44943W        W53543   0.988   4.552   4.269 -0.1334 -0.0389  0.3579
44944W        W53544  14.991   6.417  29.809  0.5058  0.1146 -0.0625
44945W        W53545  15.403   1.694   6.228  0.1058  0.0133  0.1316
44946W        W53546   7.142   4.809  31.013  0.2823  0.0465 -0.1256
44947W        W53547  14.117   4.944   4.018  0.0596 -0.2379  0.1758
44948W        W53548   3.786   0.022  21.650 -0.0447 -0.4308 -0.0880
44949W        W53549  17.066   4.166  12.080 -0.1071  0.2257 -0.0023
44950W        W53550   0.766   2.164  37.752 -0.2444 -0.0472 -0.1333
44951W        W53551  19.017   5.565  31.344  0.1180  0.4305  0.1640
44952W        W53552   9.326   4.297  25.923 -0.0013  0.0796  0.1184
44953W        W53553  19.125   6.047  32.402 -0.1073 -0.0090  0.0648
44954W        W53554  12.791   3.042  31.179  0.0184 -0.1507  0.2272
44955W        W53555   1.617   4.712  15.312 -0.1705  0.1297  0.2197
44956W        W53556  19.378   6.402  33.604  0.1122  0.2315  0.2066
44957W        W53557   7.759   4.097  23.086  0.0914  0.0199  0.1655
44958W        W53558   9.445   2.511   6.433  0.0462  0.1131  0.1302
44959W        W53559   9.922   5.615   1.304  0.2810 -0.2141  0.0009
44960W        W53560   3.907   4.393  22.294  0.0023 -0.2942  0.0268
44961W        W53561   8.164   5.720   0.597  0.3083 -0.0418 -0.0413
44962W        W53562  11.114   0.321  28.416 -0.0884 -0.0180 -0.0173
44963W        W53563  14.909   2.472   5.112  0.0332  0.0577  0.1509
44964W        W53564  16.037   1.879  29.422 -0.3410 -0.2490 -0.0355
44965W        W53565  10.725   5.452  12.260 -0.2386  0.3085  0.0575
44966W        W53566   1.537   5.807  40.393  0.3855  0.2316 -0.3809
44967W        W53567   0.972   1.492   1.441  0.1485 -0.2116 -0.1254
44968W        W53568  13.513   0.934  20.442  0.2581  0.1376  0.2665
44969W        W53569   7.812   6.513  26.844 -0.1053 -0.0345 -0.0774
44970W        W53570  15.722   0.536   7.691 -0.1455 -0.0688 -0.2436
44971W        W53571   8.481   6.063  25.760 -0.0106  0.1447  0.2745
44972W        W53572   6.941   1.342  10.355 -0.1513 -0.0511 -0.1691
44973W        W53573  20.107   5.817   3.582 -0.3415  0.3929  0.1757
44974W        W53574  14.168   2.192  44.591 -0.0455 -0.1506 -0.3181
44975W        W53575  16.944   4.169  39.208  0.0198  0.1618  0.3774
44976W        W53576  10.705   4.306  38.765 -0.0039 -0.0034 -0.1140
44977W        W53577  16.310   5.827  15.023 -0.3356  0.0563 -0.0580
44978W        W53578  17.332   5.264   1.466 -0.2597 -0.2370 -0.0889
44979W        W53579   3.200   2.716  27.970 -0.0569 -0.0760 -0.1609
44980W        W53580   5.450   1.811  38.293 -0.0919  0.3091  0.0178
44981W        W53581   9.922   2.306  15.138 -0.1619  0.0540 -0.2453
44982W        W53582  17.367   3.966  40.250 -0.1109 -0.1162  0.1199
44983W        W53583   0.962   6.322  38.919  0.1250  0.0521  0.0099
44984W        W53584   2.144   4.346   8.603  0.0194  0.1759  0.0184
44985W        W53585   2.973   2.296  33.915  0.0561  0.3018  0.0944
44986W        W53586  10.092   2.713  35.736  0.0984  0.3116  0.2563
44987W        W53587   9.458   4.494  43.906 -0.0395  0.0612 -0.1963
44988W        W53588   0.961   0.249  12.181  0.3632 -0.0983  0.1154
44989W        W53589  17.298   0.067  38.514  0.0674  0.0375 -0.0767
44990W        W53590  19.533   3.801   7.710  0.0140  0.1590 -0.2178
44991W        W53591   6.381   5.316  34.021  0.2885 -0.1445  0.1558
44992W        W53592  14.175   0.821   1.217  0.1179  0.0334 -0.0557
44993W        W53593   1.226   3.209  25.802 -0.0239 -0.2917  0.2317
44994W        W53594   5.952   2.007   2.621  0.0204 -0.2651  0.0658
44995W        W53595   7.856   3.539   8.764 -0.1650  0.1760 -0.1946
44996W        W53596  17.915   6.331  13.927  0.0144 -0.1457  0.0947
44997W        W53597   8.328   1.879   5.393  0.0309 -0.1102  0.1138
44998W        W53598  15.013   3.748  31.187  0.1603 -0.0668 -0.2342
44999W        W53599  15.184   6.374  19.908 -0.0148  0.0087  0.3026
45000W        W53600  12.092   4.227   0.104 -0.0674 -0.0294 -0.0952
45001W        W53601   8.827   4.163  24.698 -0.0852  0.0466 -0.0243
45002W        W53602   3.128   4.474   2.607 -0.2607  0.1274  0.3562
45003W        W53603  18.340   6.229  11.525  0.1739  0.2292 -0.0401
45004W        W53604   0.622   4.873  27.968 -0.1755 -0.0897 -0.0533
45005W        W53605  12.765   2.100  20.902 -0.2492  0.0063  0.0836
45006W        W53606   7.727   6.528  10.309 -0.1001  0.1893 -0.1877
45007W        W53607   4.059   4.135  24.452 -0.0991 -0.1815 -0.0397
45008W        W53608   8.954   1.615  15.376  0.1191 -0.1672  0.0968
45009W        W53609   9.246   2.735  14.595 -0.1225 -0.0049  0.3644
45010W        W53610  12.389   2.527  10.284  0.1401  0.2458 -0.0233
45011W        W53611   8.315   1.268  15.589  0.3489  0.0405  0.0919
45012W        W53612   9.789   3.510   0.556 -0.0557  0.2222  0.2479
45013W        W53613  10.941   0.183   5.600  0.0862  0.3035  0.1093
45014W        W53614   5.191   2.758   2.400 -0.2230 -0.0767 -0.0150
45015W        W53615   3.385   1.381   7.283 -0.0029  0.4477 -0.0905
45016W        W53616   0.871   6.595   2.883  0.0285 -0.2873 -0.1328
45017W        W53617  19.624   1.901  20.449 -0.0657 -0.0507 -0.1464
45018W        W53618  17.957   2.477  40.099  0.0490  0.2962  0.0999
45019W        W53619  12.692   6.371   5.136 -0.0086  0.4384 -0.4205
45020W        W53620   7.825   5.755  36.558 -0.1715 -0.2439  0.1573
45021W        W53621   6.368   5.445  40.116 -0.1619  0.0528 -0.0715
45022W        W53622  14.995   4.382  33.323 -0.3506 -0.2027 -0.2135
45023W        W53623  12.174   5.209  42.124  0.1501 -0.0769  0.0386
45024W        W53624   4.622   5.690   9.572  0.1702 -0.1806 -0.1087
45025W        W53625  16.882   3.678  39.426  0.2232  0.0588  0.4073
45026W        W53626   1.223   6.528  11.156  0.3131 -0.0007 -0.2908
45027W        W53627  16.128   5.449  15.870 -0.0996  0.4068 -0.0099
45028W        W53628  21.080   2.917  13.666 -0.0573  0.0940  0.2453
45029W        W53629   3.869   2.261  40.077 -0.1343  0.0192  0.0758
45030W        W53630  14.289   5.432   4.019  0.0976  0.1665 -0.2685
45031W        W53631   2.081   1.911  37.358 -0.0482  0.1534 -0.2111
45032W        W53632   7.745   4.270   8.209  0.1926 -0.4005 -0.0599
45033W        W53633  20.252   6.525   7.213 -0.3086 -0.2063 -0.1602
45034W        W53634   4.527   1.916  12.946  0.1743  0.3652  0.0786
45035W        W53635   4.960   6.311   2.192 -0.3198  0.0290 -0.1508
45036W        W53636   4.370   0.645  23.885  0.3805  0.0178 -0.0748
45037W        W53637  16.244   1.427   0.191 -0.2029  0.1221 -0.0709
45038W        W53638  11.696   0.703  20.016  0.2637  0.0100 -0.1108
45039W        W53639  13.491   1.722   0.189  0.0472  0.0557 -0.0591
45040W        W53640  20.866   2.618   7.415 -0.0585 -0.1515  0.0421
45041W        W53641   5.048   3.228   8.443 -0.1148 -0.1482  0.1028
45042W        W53642  14.026   4.825  28.383  0.2387  0.1066  0.1525
45043W        W53643  18.529   0.870  42.800  0.0885  0.3207 -0.2512
45044W        W53644   5.823   0.102   3.696  0.3248  0.3581  0.1524
45045W        W53645   1.197   5.741  32.397 -0.0294  0.1086  0.1167
45046W        W53646  17.234   0.199  44.301  0.2086 -0.1784  0.0575
45047W        W53647   2.012   1.618  27.465  0.2835 -0.1405 -0.0420
45048W        W53648   8.284   2.038  25.230 -0.1578 -0.0477  0.2655
45049W        W53649  20.252   0.809  11.593 -0.0914 -0.1050  0.0291
45050W        W53650   4.354   5.839  35.726  0.0057 -0.5806 -0.1861
45051W        W53651   7.503   4.439   1.073 -0.1445  0.0179  0.0944
45052W        W53652  12.277   4.301  13.897  0.3064  0.0134 -0.0705
45053W        W53653  14.087   3.069  15.409 -0.2770  0.0198  0.2151
45054W        W53654  20.351   0.949   9.901  0.1973  0.1355 -0.0762
45055W        W53655   5.159   2.661  31.319  0.3352 -0.0206 -0.0700
45056W        W53656  11.371   2.186  17.482 -0.1758 -0.1467  0.0108
45057W        W53657  18.421   5.984  30.103  0.0963 -0.1517  0.2889
45058W        W53658  19.414   4.489   6.872 -0.0906  0.0153 -0.1274
45059W        W53659   8.130   5.320  41.677 -0.0297  0.0065 -0.1492
45060W        W53660  18.124   4.496  34.734  0.5694 -0.1738  0.2467
45061W        W53661   6.275   4.427  32.102 -0.3437 -0.3338  0.4601
45062W        W53662  17.492   3.474  11.855 -0.3464  0.0728  0.2582
45063W        W53663  12.117   4.477  35.336  0.0904 -0.1438  0.4004
45064W        W53664  19.058   2.222   3.787 -0.3077  0.1216  0.1597
45065W        W53665   7.049   1.204  32.232 -0.3210  0.1016 -0.0016
45066W        W53666  14.468   5.579   7.827  0.0442 -0.3123  0.1210
45067W        W53667   5.543   6.155  28.967 -0.1905  0.1930  0.3589
45068W        W53668   9.032   5.049  12.510  0.3130 -0.2243  0.0568
45069W        W53669   1.507   4.882   2.065  0.0572 -0.1712  0.0184
45070W        W53670  10.800   4.079  15.399 -0.1864 -0.2018 -0.1444
45071W        W53671  13.022   0.606  37.608  0.1666  0.0088 -0.0633
45072W        W53672   9.093   4.447   9.227  0.2396  0.0277  0.0459
45073W        W53673  16.114   3.082  42.845  0.1119  0.2681  0.1153
45074W        W53674   8.388   3.040  36.100  0.1957 -0.1203  0.0980
45075W        W53675  11.407   2.375  38.718 -0.0133 -0.1692  0.1417
45076W        W53676   8.601   0.681  37.637 -0.0932  0.0438 -0.1662
45077W        W53677  18.081   0.460  15.287  0.1323 -0.0813  0.1046
45078W        W53678   2.803   5.041  43.073 -0.1371  0.3027 -0.0605
45079W        W53679  10.267   2.897  31.725 -0.0255 -0.2231 -0.0936
45080W        W53680   3.525   4.046  13.793 -0.0878 -0.0378  0.2559
45081W        W53681   2.555   4.149  12.241 -0.0891 -0.1242 -0.3283
45082W        W53682   5.458   4.888   9.475 -0.2731 -0.1524 -0.0251
45083W        W53683   9.823   1.609  34.003  0.0157  0.0799 -0.4200
45084W        W53684  17.268   5.529  15.191 -0.1063 -0.1250 -0.0503
45085W        W53685   5.275   5.837  29.309 -0.1742  0.2090  0.1318
45086W        W53686  11.210   3.429   0.939  0.2894  0.1708  0.0678
45087W        W53687   3.261   5.380   2.875  0.3110 -0.1614 -0.1470
45088W        W53688  16.279   5.347  39.491 -0.2313  0.2210 -0.0202
45089W        W53689   0.737   6.397   3.354  0.1017 -0.2398  0.1348
45090W        W53690   7.325   5.420  15.954 -0.0690 -0.0528 -0.1841
45091W        W53691  20.847   0.797  17.623 -0.0325 -0.2467  0.0253
45092W        W53692  14.559   4.130  33.423  0.1899 -0.4200 -0.1296
45093W        W53693  13.901   0.461  34.762 -0.1667  0.1172  0.0593
45094W        W53694   7.532   5.093  44.723 -0.4557  0.2479  0.0391
45095W        W53695   3.444   4.569  42.619  0.1524  0.0254  0.3173
45096W        W53696   1.926   6.461  37.164  0.0881 -0.1183 -0.1052
45097W        W53697  10.418   2.071  38.478  0.1170 -0.0405 -0.1113
45098W        W53698   5.290   5.692   0.260  0.4284  0.1239  0.0762
45099W        W53699  14.133   5.303  31.178  0.2790 -0.2099 -0.1808
45100W        W53700   0.748   0.636  18.757  0.0329 -0.3251 -0.2064
45101W        W53701  13.585   3.157   4.031 -0.2294 -0.3300 -0.0838
45102W        W53702   1.077   0.532  29.998  0.3044  0.2364  0.4257
45103W        W53703  10.972   1.554  39.761 -0.1097 -0.2283 -0.0585
45104W        W53704   8.412   4.107   1.014  0.1827  0.0609  0.1599
45105W        W53705  15.331   6.252  12.059 -0.2815  0.1013 -0.2191
45106W        W53706   8.311   3.174   9.304  0.0257 -0.3249  0.0150
45107W        W53707  17.636   5.069  29.330 -0.0684 -0.2693 -0.1579
45108W        W53708   4.633   4.936  38.012  0.2469  0.0874 -0.2889
45109W        W53709   9.984   1.027  14.854  0.0003  0.2602  0.0393
45110W        W53710   7.850   2.334   8.064  0.1442 -0.1554  0.1328
45111W        W53711  11.777   5.821   0.090  0.3626  0.0813  0.0507
45112W        W53712   6.974   4.506   1.878 -0.1977 -0.1301 -0.0610
45113W        W53713  18.091   5.907  21.532 -0.0062  0.0771 -0.1487
45114W        W53714  14.047   2.704  32.582 -0.1143  0.3879 -0.0957
45115W        W53715   2.816   5.698  27.754 -0.0315  0.3410 -0.0592
45116W        W53716  17.983   0.661  40.581  0.0927 -0.6275 -0.0426
45117W        W53717   5.450   5.659  24.403 -0.0657 -0.2340  0.1649
45118W        W53718  14.826   4.929  33.632 -0.0431 -0.0159  0.5409
45119W        W53719   5.431   0.429  29.924  0.0228  0.0886 -0.0790
45120W        W53720  16.437   0.252  22.988 -0.2046 -0.0488  0.2134
45121W        W53721   4.206   0.527  44.958 -0.1855  0.3336 -0.2371
45122W        W53722  15.132   1.585  20.337  0.0234 -0.0120  0.0334
45123W        W53723   3.598   0.206  34.630 -0.0999 -0.1813  0.1172
45124W        W53724   2.375   3.090  32.474 -0.3663 -0.1437 -0.0873
45125W        W53725   4.226   4.874   9.241  0.1517  0.0548 -0.1980
45126W        W53726   8.282   4.755  36.421  0.2672  0.1080  0.1410
45127W        W53727   1.253   3.969   6.331  0.0711 -0.0105  0.0554
45128W        W53728   2.496   6.475  23.172 -0.0553 -0.0314 -0.3564
45129W        W53729   4.566   6.148  26.952 -0.0323  0.1349  0.0948
45130W        W53730   6.949   2.251   4.724 -0.0094  0.2749  0.0400
45131W        W53731  18.465   5.245  29.623  0.1034 -0.0078 -0.2904
45132W        W53732  19.005   4.755  31.980 -0.0855 -0.2435  0.0936
45133W        W53733   9.412   5.144   9.076  0.0477  0.1742  0.1694
45134W        W53734   6.279   2.172  13.085  0.2328 -0.0939  0.2756
45135W        W53735  15.507   2.772  37.847  0.0233  0.1554  0.0456
45136W        W53736  13.659   3.489  15.447  0.1148  0.2304 -0.3810
45137W        W53737   9.370   2.623  14.067  0.1114 -0.3845  0.0570
45138W        W53738   3.980   1.862  37.040 -0.1711 -0.0148  0.2551
45139W        W53739  19.133   2.190  34.262 -0.0385 -0.0906 -0.0381
45140W        W53740   1.236   2.342  15.308 -0.0473 -0.3208 -0.0104
45141W        W53741  14.653   4.220  41.842 -0.2872  0.0017  0.3719
45142W        W53742   0.806   3.823  31.749  0.2938  0.1801 -0.0891
45143W        W53743  13.320   5.571   2.314 -0.1448  0.1640 -0.0050
45144W        W53744   0.582   5.694   1.619 -0.2122 -0.1450  0.1514
45145W        W53745   9.675   0.865  41.896 -0.2060  0.2660 -0.3809
45146W        W53746   8.514   4.715   8.889 -0.0372  0.0385  0.1760
45147W        W53747   4.895   3.387  27.283  0.2829  0.3126 -0.1236
45148W        W53748  11.288   5.208  13.453 -0.0561 -0.2192 -0.3967
45149W        W53749   0.031   3.410  28.743  0.0689  0.0071 -0.2763
45150W        W53750   6.539   0.262  20.361  0.3542 -0.0832  0.4494
45151W        W53751  15.641   4.041  19.151  0.1839 -0.0451 -0.0154
45152W        W53752  12.724   4.200  37.332 -0.1554  0.0511  0.1478
45153W        W53753  16.914   6.423  36.306  0.0520 -0.3125 -0.0250
45154W        W53754   5.010   4.860   3.856 -0.0840 -0.1063 -0.2081
45155W        W53755  13.562   6.575   9.427 -0.4405 -0.0041  0.2471
45156W        W53756  10.369   2.821  31.203 -0.3182 -0.1504 -0.1705
45157W        W53757   2.119   5.335   8.252 -0.2765  0.3148  0.1665
45158W        W53758  20.298   5.846  29.235  0.1554 -0.2324 -0.1689
45159W        W53759  13.249   2.360   8.211  0.1923 -0.2248 -0.2789
45160W        W53760  18.388   0.210  17.504 -0.0177 -0.1390  0.2426
45161W        W53761   3.017   6.177  30.932  0.0029  0.0487 -0.0359
45162W        W53762   9.375   4.936  43.689 -0.0453 -0.1186 -0.1040
45163W        W53763   3.775   1.460   3.389 -0.1745  0.0235 -0.2833
45164W        W53764   4.020   1.173  32.468 -0.2470 -0.0563 -0.1328
45165W        W53765   3.047   5.567  29.481 -0.1590 -0.0003 -0.3882
45166W        W53766  17.742   4.227  20.452 -0.1937  0.0495  0.2988
45167W        W53767  20.475   3.075   8.271 -0.1415  0.1336 -0.0864
45168W        W53768   0.328   5.020   0.939  0.0007 -0.1089  0.1681
45169W        W53769   0.082   0.415  41.080  0.2480  0.0841  0.0039
45170W        W53770   4.107   5.947  10.213 -0.0100  0.0095 -0.1613
45171W        W53771   0.581   4.944   9.468 -0.0274  0.0353 -0.1504
45172W        W53772   7.881   2.705  31.916 -0.1345 -0.1872  0.0003
45173W        W53773   1.207   5.118  39.059 -0.0092  0.0265 -0.1634
45174W        W53774   1.316   4.812  35.386  0.0954 -0.1535  0.0069
45175W        W53775   5.836   2.621  33.567 -0.1168 -0.0962 -0.0512
45176W        W53776  17.618   1.399  12.456  0.4801 -0.1479 -0.0948
45177W        W53777  17.635   2.583  17.328  0.0501  0.3808  0.0460
45178W        W53778  14.848   4.821  13.437  0.2290 -0.2408 -0.0897
45179W        W53779   0.447   5.440   1.178 -0.0290  0.1821  0.0623
45180W        W53780   5.546   1.973  35.977  0.1439 -0.0700 -0.0402
45181W        W53781  13.632   3.796  35.381  0.0979 -0.1764 -0.0148
45182W        W53782  17.976   5.722  41.558  0.1938 -0.5840 -0.2407
45183W        W53783  16.368   0.194  16.973  0.1770  0.0908  0.0554
45184W        W53784  18.938   4.994   9.226  0.1166  0.1333  0.0950
45185W        W53785  10.969   5.462   0.349 -0.0340  0.1121 -0.0098
45186W        W53786  17.394   2.340  32.690 -0.0477  0.2988  0.1415
45187W        W53787  11.743   4.881   0.385  0.0727  0.2689  0.0666
45188W        W53788  12.589   0.096  40.502  0.0991 -0.0341 -0.0050
45189W        W53789  10.527   0.514  33.341  0.1659 -0.1663  0.0794
45190W        W53790  15.376   2.899   1.902  0.0267  0.3629  0.0799
45191W        W53791   5.330   3.753  23.498 -0.2089  0.1101 -0.0195
45192W        W53792  14.619   4.380   2.436  0.1109  0.3038 -0.0838
45193W        W53793   3.854   0.097  30.871  0.0295  0.1057 -0.1166
45194W        W53794  17.715   1.271   6.403 -0.0145  0.1011 -0.0128
45195W        W53795   3.444   4.195   9.218 -0.1126 -0.2616  0.0240
45196W        W53796   0.205   1.732  31.606 -0.0603 -0.2557 -0.0902
45197W        W53797   9.215   4.345  38.927  0.1536  0.0965 -0.1613
45198W        W53798  17.184   2.189  13.546  0.1829  0.1753 -0.0688
45199W        W53799   8.190   4.311  11.896  0.0033 -0.0153  0.0448
45200W        W53800  20.293   0.405  11.922  0.1876  0.0216 -0.1705
45201W        W53801   7.637   3.106   4.457  0.2385  0.2951 -0.2024
45202W        W53802  20.906   0.616  42.527 -0.1261 -0.0202 -0.3572
45203W        W53803   9.490   1.691   9.661  0.0106  0.0979  0.0071
45204W        W53804  13.747   5.961  43.928 -0.2652  0.0152  0.1969
45205W        W53805  11.847   1.128  11.648  0.0844 -0.2308  0.0209
45206W        W53806  11.067   4.486  43.382 -0.1260  0.3461 -0.1236
45207W        W53807  13.428   2.778   1.837 -0.2871  0.0518 -0.1238
45208W        W53808  13.092   3.356   7.109 -0.0420  0.2301 -0.0694
45209W        W53809  10.838   3.799  31.691  0.0940 -0.2055 -0.0838
45210W        W53810   0.692   4.326  32.849  0.0130  0.0256 -0.2299
45211W        W53811  15.033   1.662  30.906 -0.0307 -0.3941 -0.0231
45212W        W53812   6.151   5.177   2.402 -0.0027  0.2502  0.0607
45213W        W53813   7.103   6.181  23.383 -0.2782 -0.0668 -0.0417
45214W        W53814  14.436   1.420  21.375 -0.1547  0.0568 -0.1988
45215W        W53815   7.184   2.480  14.889 -0.2388 -0.0694 -0.3610
45216W        W53816  14.651   5.896  44.728  0.2453  0.3462  0.0709
45217W        W53817   5.620   0.965   0.713  0.3077  0.1109 -0.1119
45218W        W53818   1.608   2.988  15.091  0.2563 -0.3081 -0.0385
45219W        W53819   4.951   3.429  33.176  0.0088  0.1545 -0.0641
45220W        W53820  18.927   0.640  12.035 -0.0593 -0.0753  0.0368
45221W        W53821  14.716   3.308  32.510 -0.1298 -0.1419 -0.1215
45222W        W53822   9.002   3.257   6.730 -0.2047  0.1893 -0.2110
45223W        W53823   9.493   4.753  12.641 -0.1914 -0.3282 -0.2106
45224W        W53824   1.026   2.427  33.842  0.1778 -0.0737  0.1768
45225W        W53825   2.727   1.484  13.466 -0.1286  0.0554 -0.4241
45226W        W53826  16.400   5.761  24.317  0.3780  0.2963 -0.1597
45227W        W53827   3.052   6.103  44.743 -0.2169 -0.0911 -0.2291
45228W        W53828   0.692   1.719  11.055 -0.1574  0.1517  0.0124
45229W        W53829   2.461   3.172  15.465  0.0519  0.1558  0.0876
45230W        W53830  11.086   2.041  38.806  0.0194 -0.0353  0.3155
45231W        W53831  10.141   5.527  27.915  0.1782  0.3360  0.1132
45232W        W53832  12.781   5.710  40.064 -0.3229 -0.1072 -0.0146
45233W        W53833   3.424   2.434  24.893 -0.0972 -0.0622 -0.2373
45234W        W53834  16.729   4.135  30.401  0.0942 -0.1027  0.1179
45235W        W53835   0.529   2.091   5.915 -0.1335  0.1296  0.1240
45236W        W53836   0.913   1.830   0.379  0.1734  0.1985  0.1381
45237W        W53837  18.309   0.166   1.494  0.0932  0.0555 -0.0301
45238W        W53838  15.025   5.125  21.187  0.1076  0.1029  0.0213
45239W        W53839   2.124   2.096  26.209 -0.2108 -0.2314 -0.0500
45240W        W53840   3.045   4.300  40.486  0.0732  0.1063  0.0786
45241W        W53841  11.783   3.389  30.248 -0.0851  0.0999 -0.1342
45242W        W53842  15.293   0.352  18.614  0.2292 -0.0837 -0.0710
45243W        W53843   0.525   1.272  37.797 -0.0326  0.0475 -0.1784
45244W        W53844  12.195   3.628   1.982  0.1144 -0.3562  0.0865
45245W        W53845  12.219   1.335   7.875 -0.2116  0.0729 -0.2645
45246W        W53846  17.010   5.542  38.288 -0.0940 -0.2547  0.2176
45247W        W53847  11.196   4.034   5.230 -0.0161 -0.1238 -0.1755
45248W        W53848   4.498   4.397  37.449 -0.3131  0.2716  0.1329
45249W        W53849   1.239   5.595  11.563  0.1626  0.0742 -0.0031
45250W        W53850  12.451   0.373   0.835  0.1923  0.0180  0.0994
45251W        W53851   9.197   1.952  36.676 -0.1603 -0.1602 -0.3912
45252W        W53852  14.269   1.570   3.698 -0.0727 -0.0191  0.1083
45253W        W53853   8.096   2.078  16.570 -0.0381  0.3949  0.0478
45254W        W53854  18.923   2.075   2.914 -0.0502  0.1800 -0.0554
45255W        W53855  14.009   4.222  29.724  0.0388 -0.1044  0.2381
45256W        W53856  19.255   3.278  20.677  0.1183 -0.2586  0.4090
45257W        W53857   4.056   0.870  35.155  0.1928 -0.0929  0.1318
45258W        W53858   3.185   3.089   7.781 -0.2890 -0.0137  0.0141
45259W        W53859   7.727   0.180  15.562  0.0731  0.1816 -0.2963
45260W        W53860  15.166   0.160  44.951  0.0583  0.0994 -0.0249
45261W        W53861   4.758   3.413  33.849  0.4133  0.1451 -0.0510
45262W        W53862   0.399   2.474  30.977  0.0084  0.0357 -0.1536
45263W        W53863   0.084   3.100   2.911 -0.0744 -0.2663  0.0509
45264W        W53864  15.771   0.897  35.840 -0.2029  0.1026  0.0405
45265W        W53865  13.399   4.564   2.425  0.2304  0.0429 -0.1820
45266W        W53866  16.440   6.408   3.390 -0.0354  0.2149  0.0712
45267W        W53867   8.846   1.292  43.856 -0.3464  0.3313 -0.0089
45268W        W53868  12.072   6.420   1.211  0.0906  0.2362  0.0985
45269W        W53869  19.237   1.360  30.741 -0.1743  0.2803  0.1487
45270W        W53870  13.528   4.881   1.999 -0.2335 -0.3994  0.0193
45271W        W53871  14.581   4.908  15.294  0.3357 -0.1772  0.0298
45272W        W53872  13.756   0.380   4.663 -0.2892 -0.2352  0.0838
45273W        W53873   7.118   0.977   5.543  0.0682  0.1403 -0.0583
45274W        W53874  18.385   3.986   2.871  0.2874  0.2707 -0.0243
45275W        W53875  13.622   1.357   2.691  0.1792  0.1601  0.0966
45276W        W53876   8.841   6.256  17.252 -0.0351  0.1025 -0.1064
45277W        W53877  14.740   4.203  23.153 -0.0937  0.1770  0.0787
45278W        W53878  12.257   6.222  35.428  0.2956  0.1973  0.1625
45279W        W53879  11.586   5.487   1.692  0.0603 -0.2441 -0.1036
45280W        W53880   6.879   1.723   3.512  0.3030 -0.0505  0.0398
45281W        W53881   8.142   1.000  15.981  0.0442  0.0188  0.0761
45282W        W53882   8.920   5.136  43.934 -0.1359  0.1755  0.1791
45283W        W53883   4.189   1.196  26.181 -0.0485  0.1765 -0.0205
45284W        W53884  17.131   1.462  21.310 -0.0185  0.1970 -0.4155
45285W        W53885   5.326   2.208  40.592  0.0368 -0.2309 -0.4315
45286W        W53886  17.701   4.060  31.922  0.2412 -0.1510  0.1679
45287W        W53887   1.798   1.694  38.403 -0.3960 -0.2321  0.1725
45288W        W53888   9.736   6.382   1.810  0.1777  0.2118 -0.0462
45289W        W53889  18.789   2.790   8.059  0.0673  0.0429 -0.0450
45290W        W53890  12.084   2.511  32.794 -0.3079  0.2711  0.0094
45291W        W53891  10.370   4.717  28.451  0.2703 -0.2163 -0.5732
45292W        W53892  15.228   3.914  20.387  0.0883  0.0782  0.2114
45293W        W53893   6.181   5.538  27.442 -0.0873 -0.2920 -0.1748
45294W        W53894  12.610   1.599   1.317  0.2120  0.0147 -0.3267
45295W        W53895  18.710   0.951  41.685  0.0666 -0.2126  0.2962
45296W        W53896   2.449   2.739  30.092 -0.1275 -0.3081  0.0699
45297W        W53897   8.052   0.915  35.865  0.1146 -0.1940  0.0584
45298W        W53898  15.520   3.341  17.795 -0.0833 -0.0967 -0.1216
45299W        W53899  11.832   2.385   6.421 -0.3633 -0.0667 -0.4033
45300W        W53900   3.400   5.489   8.257  0.3126 -0.0399  0.1908
45301W        W53901  13.224   1.912  35.901 -0.1996 -0.2106  0.2243
45302W        W53902  16.140   4.258  21.657 -0.1652 -0.0366  0.0325
45303W        W53903  17.802   1.221  19.229  0.0129 -0.1885  0.1953
45304W        W53904   1.422   0.029  41.169 -0.2088  0.0335 -0.2495
45305W        W53905   2.276   6.079   7.568  0.1301 -0.0537 -0.0530
45306W        W53906  15.884   3.516  22.757  0.0678 -0.3388  0.0179
45307W        W53907   2.130   3.723  27.808 -0.0835 -0.3835 -0.0105
45308W        W53908  18.853   4.484  17.583 -0.0885  0.0590 -0.0551
45309W        W53909   0.540   4.581  40.765 -0.0675 -0.0013 -0.3332
45310W        W53910   8.787   1.800  30.371  0.0834 -0.0472  0.2114
45311W        W53911  20.129   2.473  42.358  0.1723  0.0664 -0.0824
45312W        W53912  13.921   0.181  38.478 -0.0440 -0.1577 -0.0236
45313W        W53913  19.867   0.611  29.161 -0.1330 -0.0628 -0.0516
45314W        W53914  10.038   3.785   2.693  0.1866 -0.0309  0.0710
45315W        W53915   8.167   4.394  44.493  0.2684  0.2691 -0.0880
45316W        W53916  16.001   0.116  24.046 -0.1071  0.0509  0.0766
45317W        W53917   3.829   2.697  42.009 -0.0173 -0.3093  0.0718
45318W        W53918  10.327   6.091   3.862  0.2716  0.0099  0.0313
45319W        W53919   4.705   6.421  43.339 -0.1203 -0.0490  0.2039
45320W        W53920  15.175   1.408  36.607 -0.3260 -0.0626 -0.0679
45321W        W53921  20.788   4.089   6.013  0.0425 -0.1023  0.0083
45322W        W53922  10.621   3.069  42.841  0.1901 -0.4636 -0.1839
45323W        W53923   8.109   3.680  33.454 -0.4841  0.0702 -0.4261
45324W        W53924   7.620   4.186  32.618 -0.1215  0.2288  0.1093
45325W        W53925  17.254   3.653  11.121  0.1694 -0.0168 -0.0406
45326W        W53926  15.048   2.857  43.414 -0.0573 -0.3784 -0.0845
45327W        W53927   9.747   1.874  34.490 -0.1715  0.2705 -0.1358
45328W        W53928  18.449   2.000   9.923 -0.0607 -0.1633 -0.2110
45329W        W53929   2.905   4.287  39.839  0.1990  0.0144  0.1298
45330W        W53930  20.604   4.866  33.556  0.3395  0.2455  0.0475
45331W        W53931   7.227   5.133   9.009  0.0488 -0.0620  0.0389
45332W        W53932  16.534   6.524   1.983 -0.0451  0.0838  0.2433
45333W        W53933  14.548   0.062  11.982 -0.1231  0.3350  0.3508
45334W        W53934  11.328   2.583  39.443  0.0021  0.0408 -0.2190
45335W        W53935  20.183   1.989  35.541  0.1449  0.0868 -0.1280
45336W        W53936  13.577   1.866  34.882  0.2686  0.0222 -0.0405
45337W        W53937  16.811   3.895   6.438 -0.2402  0.0780 -0.1979
45338W        W53938   2.112   3.019  29.418  0.3215 -0.1250 -0.0518
45339W        W53939  13.174   6.596  43.825 -0.0097 -0.3477 -0.2986
45340W        W53940  17.527   1.688  36.788 -0.0626  0.1307 -0.0133
45341W        W53941  20.176   1.478  33.552 -0.2070 -0.3860  0.2707
45342W        W53942   9.829   3.002   2.960 -0.1152 -0.1904  0.0852
45343W        W53943   2.499   3.989  27.613  0.0966 -0.2912 -0.0650
45344W        W53944  16.119   1.715  37.852  0.0832 -0.1380 -0.1274
45345W        W53945  19.474   2.041   1.730 -0.0564 -0.0045 -0.1681
45346W        W53946  14.564   4.742   6.139 -0.0547  0.0327  0.0831
45347W        W53947  14.745   4.747  23.964 -0.0689 -0.0140 -0.2081
45348W        W53948   0.696   3.597  44.830  0.0541 -0.0631 -0.1967
45349W        W53949  16.586   6.097   9.057 -0.0785 -0.0012 -0.5664
45350W        W53950  15.341   0.188   3.647  0.0048  0.0824 -0.2345
45351W        W53951   3.319   2.561  36.192  0.4030 -0.2294 -0.1062
45352W        W53952   5.035   1.034  45.113 -0.2123  0.1039  0.0937
45353W        W53953  20.592   3.005  11.039  0.2343  0.0236  0.0516
45354W        W53954  10.835   1.400  14.020  0.0399  0.1353 -0.1970
45355W        W53955  11.048   1.527  32.376  0.0702  0.0873  0.0358
45356W        W53956  17.890   5.039  44.766  0.2980  0.4077  0.1606
45357W        W53957   3.934   4.852  21.713 -0.0077  0.0752  0.2851
45358W        W53958   1.925   0.306   1.388  0.0347 -0.2001 -0.0415
45359W        W53959   5.902   5.970  21.942  0.0199  0.1598 -0.1037
45360W        W53960  16.008   1.474  40.385  0.5452  0.1974 -0.2261
45361W        W53961   1.951   0.745  38.115  0.0814 -0.1039  0.2487
45362W        W53962   4.924   2.225  15.603  0.0654  0.0648 -0.0966
45363W        W53963   8.980   0.882  40.211  0.0595 -0.1031 -0.4012
45364W        W53964  19.954   1.074  35.808  0.0448  0.0159 -0.0266
45365W        W53965  19.732   2.638  30.951 -0.2717  0.1345  0.0215
45366W        W53966  12.186   6.174   5.460 -0.0808  0.1038 -0.3222
45367W        W53967  17.803   1.886  42.002  0.1883  0.1174  0.0258
45368W        W53968   4.670   5.650  31.477  0.0566 -0.1840  0.1521
45369W        W53969   4.661   3.293   9.487 -0.0282  0.1227  0.1940
45370W        W53970   2.493   2.667  35.068 -0.0046 -0.1962 -0.0134
45371W        W53971   9.811   4.797   2.363  0.1856 -0.1452  0.0591
45372W        W53972   7.797   3.837  29.122 -0.0939 -0.0354  0.0216
45373W        W53973  16.349   2.750  41.758  0.0228 -0.0678 -0.1361
45374W        W53974   2.931   2.653  23.942  0.1166  0.2952 -0.1430
45375W        W53975   3.314   2.519   8.882  0.3528 -0.0657  0.1394
45376W        W53976  19.090   3.112   1.284 -0.1328 -0.1363 -0.0054
45377W        W53977   5.778   1.883   6.179 -0.1250 -0.0200  0.0107
45378W        W53978   7.848   1.652   6.155  0.0366 -0.2532  0.0897
45379W        W53979  16.987   0.681   1.948  0.1946 -0.2945 -0.0731
45380W        W53980  10.310   2.433  18.469 -0.1746 -0.1640 -0.0560
45381W        W53981   5.163   1.438  37.681  0.4316 -0.0919  0.0086
45382W        W53982  14.028   3.517   7.670 -0.2456  0.0839 -0.0871
45383W        W53983  17.969   4.185   3.498 -0.0389 -0.2275  0.1463
45384W        W53984  16.992   5.640  18.043  0.1884 -0.0400 -0.0902
45385W        W53985   9.675   0.304  39.137 -0.4019 -0.1238  0.2106
45386W        W53986   9.032   6.026  26.811 -0.1182 -0.3653  0.0365
45387W        W53987   3.189   2.089   6.671  0.0586 -0.2258  0.1318
45388W        W53988  18.458   5.062  16.989  0.1335 -0.0015  0.0837
45389W        W53989   3.901   3.083   2.096  0.3192  0.0227 -0.0233
45390W        W53990  18.526   0.621  19.395  0.1426 -0.3665  0.1341
45391W        W53991  17.756   2.419   9.746 -0.0668 -0.1145 -0.3076
45392W        W53992  20.805   1.397  11.066  0.0068 -0.1582 -0.1726
45393W        W53993   2.947   0.679  41.891 -0.1236 -0.1559 -0.0539
45394W        W53994  20.964   1.460   8.940  0.0082 -0.1756 -0.0215
45395W        W53995   5.859   5.230  21.314 -0.0721 -0.1859  0.2679
45396W        W53996  17.907   3.150  15.634  0.1183  0.1600  0.1626
45397W        W53997   7.746   5.892  24.876 -0.2943  0.1807  0.1476
45398W        W53998   9.926   5.897  39.743  0.0314 -0.0084  0.1223
45399W        W53999  17.323   4.923   6.417  0.1274  0.0306 -0.3663
45400W        W54000  12.437   6.569  35.108 -0.1200  0.0128 -0.2117
45401W        W54001  14.674   3.740  32.198  0.4967  0.2779  0.0736
45402W        W54002   2.981   1.839  14.718  0.1546 -0.1024 -0.1465
45403W        W54003   7.285   4.616  26.943 -0.4188 -0.1977  0.2616
45404W        W54004  18.169   5.583  11.154 -0.0040 -0.0178  0.1310
45405W        W54005  11.567   5.460  10.363 -0.0541 -0.1600  0.0972
45406W        W54006  19.293   3.727  43.487  0.0600 -0.0585 -0.1720
45407W        W54007  11.221   6.316  26.050 -0.0408 -0.2726  0.0675
45408W        W54008  12.884   2.428   7.559 -0.1628  0.1803  0.1477
45409W        W54009  10.513   1.716  42.134  0.0534  0.0048 -0.1018
45410W        W54010  18.373   2.168   4.974  0.1336  0.1702  0.1795
45411W        W54011  20.791   1.571  30.234 -0.1180  0.1521 -0.2945
45412W        W54012   8.355   3.925  37.834  0.2320 -0.1435 -0.1588
45413W        W54013   9.680   3.338  36.921  0.1545 -0.0195  0.0651
45414W        W54014  20.128   5.468  14.742  0.0441 -0.0491  0.0773
45415W        W54015   5.060   4.020  14.581 -0.1320  0.2209 -0.2560
45416W        W54016   9.355   0.870  14.834 -0.0016 -0.0337  0.0315
45417W        W54017  15.297   3.613  16.651 -0.0556 -0.0989  0.0549
45418W        W54018  13.302   3.422  38.397  0.3506  0.0631  0.0113
45419W        W54019  14.543   4.986  17.622  0.0753 -0.1432 -0.1564
45420W        W54020  14.149   3.133  39.304  0.0441 -0.3444  0.0635
45421W        W54021   5.858   1.326  15.536 -0.0186  0.1468  0.0578
45422W        W54022   4.597   4.154  25.963 -0.0275 -0.1554  0.0310
45423W        W54023   7.409   3.103  33.359 -0.1986  0.3088  0.1985
45424W        W54024  14.671   5.434  13.861  0.0010  0.0542 -0.0387
45425W        W54025  12.768   3.627  29.737  0.2552 -0.1887 -0.0578
45426W        W54026  16.071   1.742  20.661 -0.1756  0.2219  0.0385
45427W        W54027  18.939   0.940  35.660  0.1406 -0.0678 -0.1887
45428W        W54028  13.498   2.724  37.659 -0.0484  0.1357  0.0640
45429W        W54029   3.469   1.375  35.293 -0.0029 -0.1643 -0.1086
45430W        W54030  12.033   2.638  45.124  0.0436  0.2089  0.0763
45431W        W54031   2.491   2.679  41.096 -0.1537  0.0342 -0.0234
45432W        W54032   9.758   3.025  12.234 -0.2434  0.1152  0.0067
45433W        W54033   3.465   5.357  11.433 -0.1295  0.0544 -0.1157
45434W        W54034   2.750   2.138  42.390  0.0291  0.2334 -0.1009
45435W        W54035  10.713   0.206   7.576 -0.0714  0.1713 -0.0864
45436W        W54036   4.984   3.176   4.948  0.1581  0.0530  0.0028
45437W        W54037   4.616   3.614  16.300  0.2187 -0.4416 -0.1015
45438W        W54038  19.422   3.246   6.815 -0.0607 -0.0189 -0.0679
45439W        W54039  12.483   0.435  28.303  0.0595  0.1511 -0.2647
45440W        W54040  14.348   2.234   4.832 -0.2444 -0.2245  0.0415
45441W        W54041   5.448   3.774  29.803  0.1273 -0.0075  0.1964
45442W        W54042   5.987   6.065   4.954  0.2640  0.0758  0.3027
45443W        W54043  16.380   2.493  34.035  0.0653 -0.0350 -0.1805
45444W        W54044   3.576   3.401  39.000  0.0251  0.2517  0.3948
45445W        W54045  16.233   5.540  38.503 -0.3845 -0.0516 -0.1693
45446W        W54046  10.821   0.355  14.003  0.1243  0.1315 -0.0364
45447W        W54047   4.116   4.484   1.379 -0.0185  0.1689  0.0687
45448W        W54048  12.381   5.463   5.978 -0.0422  0.0038 -0.0150
45449W        W54049   8.264   5.821  15.279 -0.0071  0.0777  0.3950
45450W        W54050   9.593   1.436  33.630 -0.1986 -0.1271  0.0600
45451W        W54051  16.784   2.347  40.184 -0.1490  0.0506 -0.0992
45452W        W54052  11.076   6.531  44.405 -0.3099  0.1562  0.1798
45453W        W54053  10.520   3.970  26.692 -0.0591  0.2951  0.4304
45454W        W54054   4.923   4.043   5.565 -0.1598 -0.1117 -0.0223
45455W        W54055   7.409   5.352  43.577 -0.0717  0.0006 -0.1607
45456W        W54056  16.654   3.868  25.739  0.0167  0.0871 -0.1947
45457W        W54057   4.385   6.468  22.697 -0.1603  0.1903 -0.0509
45458W        W54058   1.759   4.967  10.087  0.1497 -0.0507  0.0188
45459W        W54059   8.355   2.617   8.059  0.1879 -0.4731  0.0508
45460W        W54060  20.728   4.965  11.577  0.2221 -0.0702  0.0588
45461W        W54061   3.911   2.034   8.267  0.2438 -0.1168 -0.1859
45462W        W54062  19.903   4.749  44.990 -0.2900  0.1254 -0.0310
45463W        W54063  18.068   0.528  19.761 -0.1331 -0.1132 -0.0868
45464W        W54064   0.104   4.761  13.557 -0.0882  0.0677  0.0765
45465W        W54065   4.637   0.223  23.685  0.2096  0.3435  0.2312
45466W        W54066  17.927   4.475   9.203 -0.0629 -0.2694 -0.0123
45467W        W54067  20.372   0.785  35.760  0.0918 -0.3079 -0.3182
45468W        W54068   8.876   0.487   6.982  0.1666 -0.0011  0.0533
45469W        W54069   6.568   1.787  40.063  0.0936  0.0984 -0.0567
45470W        W54070  16.513   4.575  41.641 -0.0627  0.3192 -0.1169
45471W        W54071   9.959   0.597  41.536 -0.0043 -0.3699  0.0005
45472W        W54072   1.914   3.036  42.339 -0.3127 -0.2863 -0.1241
45473W        W54073   5.315   5.584  13.405 -0.1343  0.0932 -0.0945
45474W        W54074  13.117   0.170   8.766 -0.0372  0.1806  0.2501
45475W        W54075   1.486   5.015  32.956 -0.0537 -0.2629  0.0329
45476W        W54076  13.597   1.916  42.867  0.1200  0.1085 -0.2740
45477W        W54077  15.250   4.535  43.004 -0.1285 -0.0335 -0.0783
45478W        W54078   1.183   2.689   1.606  0.1472  0.0843  0.0473
45479W        W54079  16.166   0.713  12.643  0.0015 -0.2546  0.2157
45480W        W54080  12.347   3.982  42.747 -0.2925 -0.1282  0.0626
45481W        W54081   8.269   0.771   6.038 -0.0113 -0.2279 -0.1089
45482W        W54082   1.792   4.334  10.322 -0.1154 -0.1328 -0.0822
45483W        W54083  13.890   1.731  43.839  0.0512 -0.1517  0.0243
45484W        W54084  18.359   2.407  22.179  0.0515 -0.0901  0.0419
45485W        W54085  20.231   3.132  43.322  0.3109  0.3040  0.1204
45486W        W54086   4.736   3.431  39.995  0.2756  0.1711  0.0081
45487W        W54087  20.078   2.326  16.371  0.1978  0.3033 -0.0931
45488W        W54088  18.551   4.775   0.201 -0.2495 -0.0572  0.0425
45489W        W54089   1.875   0.425   4.838 -0.0326  0.2031  0.0160
45490W        W54090  14.670   5.819  18.698  0.2289 -0.1510  0.1048
45491W        W54091   0.109   4.309  38.236  0.0219  0.2129 -0.2113
45492W        W54092   6.007   2.627  20.103  0.0124  0.4091  0.1402
45493W        W54093  13.859   5.710  41.879  0.1808  0.1160 -0.3047
45494W        W54094   1.145   5.154  42.587 -0.0986  0.0668  0.2602
45495W        W54095  12.174   6.564  40.169  0.0175 -0.0198 -0.2398
45496W        W54096  10.228   5.796  14.042 -0.2221 -0.0127  0.4018
45497W        W54097   5.422   1.363  38.835  0.3946  0.1977 -0.1122
45498W        W54098  17.103   2.817  38.657 -0.3512 -0.1977  0.2674
45499W        W54099   7.265   2.008  17.306  0.1191 -0.1320 -0.1340
45500W        W54100   5.262   0.188  27.257 -0.0911  0.0064  0.1530
45501W        W54101  15.305   6.546   8.540 -0.0489  0.1236 -0.1985
45502W        W54102   3.004   3.143  26.590  0.0593  0.1163  0.1560
45503W        W54103   2.887   5.541  32.581 -0.1563 -0.0884 -0.0635
45504W        W54104   1.108   6.184  41.099  0.1080  0.1883 -0.1123
45505W        W54105   5.181   4.308  12.616  0.1815  0.0692  0.1326
45506W        W54106   0.173   0.876  12.575 -0.1059  0.3788  0.0213
45507W        W54107  13.067   5.743   4.244  0.1869  0.0699 -0.0652
45508W        W54108   8.363   1.511  28.374 -0.0581  0.1685  0.0103
45509W        W54109  14.045   0.045  20.455 -0.5459  0.1163  0.1717
45510W        W54110  16.797   0.336   9.228  0.0926  0.0801 -0.1607
45511W        W54111   0.007   5.618   8.616 -0.3308  0.1592 -0.0951
45512W        W54112   6.051   1.318  29.090 -0.2851  0.3320 -0.3264
45513W        W54113   3.278   1.741  10.512 -0.1117  0.2798  0.3206
45514W        W54114   1.344   6.434  15.858  0.0143 -0.1571 -0.4212
45515W        W54115  19.016   0.831  32.940 -0.0225 -0.1186  0.2319
45516W        W54116   3.776   2.082  13.347  0.0097 -0.1482  0.0212
45517W        W54117   0.937   6.407   7.532 -0.1492  0.0444  0.0801
45518W        W54118  11.887   1.565  11.034  0.0594  0.0146  0.1471
45519W        W54119  15.253   5.611  23.171  0.0532  0.2195  0.3402
45520W        W54120  17.532   0.158  13.208 -0.1672 -0.1257  0.0034
45521W        W54121   8.160   4.412  28.869 -0.1464 -0.1134  0.2967
45522W        W54122  12.327   0.827  31.268 -0.1386 -0.0674 -0.2179
45523W        W54123   4.750   5.822  31.964 -0.4197  0.1593  0.2547
45524W        W54124   9.423   5.059  27.219  0.1138 -0.1722 -0.1003
45525W        W54125  20.707   1.934  42.951  0.0417 -0.4105 -0.2310
45526W        W54126   2.721   4.299  13.619  0.1298  0.3257  0.0415
45527W        W54127   7.446   0.046  30.846 -0.0796  0.1391  0.1483
45528W        W54128  14.118   5.490  33.040 -0.0487  0.1574  0.1401
45529W        W54129  12.344   1.528  12.258 -0.1780 -0.0917  0.1675
45530W        W54130  10.870   3.261  34.004 -0.1820 -0.0300  0.0069
45531W        W54131   2.459   2.773  32.821  0.0461  0.1141 -0.2658
45532W        W54132   9.886   1.517  28.424 -0.0891  0.3060 -0.1366
45533W        W54133   7.084   2.784  32.320 -0.1286 -0.0911  0.0557
45534W        W54134   4.586   5.029  10.311 -0.3697  0.0036 -0.1281
45535W        W54135   3.514   0.184   8.576 -0.0770  0.1197  0.0880
45536W        W54136  16.527   4.018   3.697 -0.1102  0.2367  0.1193
45537W        W54137  13.625   5.116   0.415  0.0090  0.0337  0.0856
45538W        W54138   0.460   0.696   2.231  0.0153  0.2561 -0.0943
45539W        W54139  15.979   6.193  34.704 -0.0155 -0.2746  0.2066
45540W        W54140   2.687   5.497  28.557  0.0643  0.0294  0.0726
45541W        W54141  15.408   2.892  22.030 -0.0840 -0.0376 -0.2024
45542W        W54142  14.754   0.980  23.701 -0.0107 -0.3779 -0.0442
45543W        W54143  18.389   1.116  37.595 -0.0197  0.0834 -0.2295
45544W        W54144  10.048   0.786  41.000  0.1224  0.0813 -0.1107
45545W        W54145   9.528   4.822  39.767  0.1618  0.1670 -0.2436
45546W        W54146  16.786   3.122  15.952 -0.3662  0.0991  0.1692
45547W        W54147  10.162   4.723  43.295  0.0173 -0.4539  0.2052
45548W        W54148  18.826   0.330  28.859 -0.2882  0.1536 -0.0209
45549W        W54149   6.053   6.510  39.376 -0.1732 -0.2107 -0.0510
45550W        W54150   5.411   4.370  35.494 -0.1629 -0.0874  0.1219
45551W        W54151   9.026   1.841  29.498 -0.1983 -0.0145  0.0021
45552W        W54152  11.298   3.328  29.330  0.0890  0.2163 -0.0592
45553W        W54153  12.323   0.978  30.808 -0.0070  0.0917 -0.0858
45554W        W54154  14.825   3.750   6.847  0.0847 -0.0887  0.0323
45555W        W54155   2.029   4.114  32.653  0.0217 -0.2792  0.3240
45556W        W54156  12.941   1.803   0.403 -0.0521 -0.0728  0.3197
45557W        W54157  16.461   0.323  35.051  0.0169 -0.0240 -0.2955
45558W        W54158   0.613   2.629  36.953 -0.0390  0.1521 -0.1841
45559W        W54159   0.902   2.226  29.509 -0.4550  0.2636  0.3563
45560W        W54160   3.502   1.935  30.115 -0.2704  0.0136  0.1809
45561W        W54161  20.611   3.246  32.908 -0.0027 -0.2591  0.2201
45562W        W54162   0.304   5.303  33.462  0.1077  0.3851  0.0858
45563W        W54163   2.965   1.546  31.078  0.1251  0.0478  0.0373
45564W        W54164  13.608   0.984  32.078  0.0774 -0.2355  0.0283
45565W        W54165  10.468   1.883  17.555  0.1458 -0.1259 -0.0546
45566W        W54166  11.950   1.703   8.168 -0.3692 -0.0508 -0.1736
45567W        W54167   2.023   5.632   0.694 -0.0105 -0.1315 -0.3544
45568W        W54168   8.276   1.546   7.056  0.0945  0.2568 -0.1025
45569W        W54169  12.124   5.569  17.796 -0.0852  0.0207  0.2311
45570W        W54170  13.355   2.828  42.331  0.0503 -0.2382  0.0795
45571W        W54171   5.242   1.736  21.403 -0.1094  0.1614  0.2783
45572W        W54172  19.829   2.182   7.773 -0.1723 -0.2223  0.0311
45573W        W54173  19.825   4.535  40.311 -0.4290 -0.0913  0.0099
45574W        W54174  15.976   3.093  16.527 -0.0170  0.1442  0.0332
45575W        W54175   5.143   5.691   3.836  0.2587  0.3641 -0.0740
45576W        W54176   1.462   2.837  41.144  0.1206  0.0321 -0.0934
45577W        W54177  17.825   6.559  33.242 -0.3000 -0.0184 -0.0185
45578W        W54178  19.230   6.144  30.814  0.2189  0.1739  0.2457
45579W        W54179  15.225   6.330   2.485  0.0484 -0.1882 -0.2269
45580W        W54180   5.002   1.950   6.640  0.0133  0.0694 -0.0651
45581W        W54181   6.522   0.801  35.307 -0.1139  0.0346 -0.3240
45582W        W54182   1.104   3.068  28.500 -0.1782  0.1417 -0.2586
45583W        W54183  19.016   0.748   7.874 -0.1358 -0.0463 -0.1283
45584W        W54184  14.419   3.568  20.970  0.0412 -0.0543  0.0674
45585W        W54185  16.913   5.230  21.863  0.1098  0.0078 -0.0564
45586W        W54186   2.947   6.212  34.846 -0.0221  0.1553  0.0112
45587W        W54187  13.364   4.913  35.935 -0.1737 -0.0469 -0.0295
45588W        W54188  19.428   5.546  19.907  0.3464  0.1113  0.3877
45589W        W54189  10.207   6.513  37.114 -0.0445  0.0463 -0.2247
45590W        W54190  16.017   3.192   9.972  0.2016  0.0888  0.1288
45591W        W54191   5.399   0.321  44.869  0.1181 -0.1910 -0.1952
45592W        W54192   2.233   4.734   9.423  0.0649  0.2253  0.3147
45593W        W54193  14.268   4.203   9.056  0.6206 -0.0814 -0.3846
45594W        W54194   9.560   2.417  39.594  0.2100  0.3227  0.3628
45595W        W54195  18.539   6.391   5.076 -0.2264  0.0664 -0.1734
45596W        W54196  13.648   3.984  32.308  0.3143 -0.4918 -0.3337
45597W        W54197   5.635   3.116   3.030  0.0311 -0.3399  0.2758
45598W        W54198   5.408   6.381   6.767 -0.2231 -0.0049  0.0419
45599W        W54199  17.682   2.952  30.734  0.3483  0.0745  0.1219
45600W        W54200  17.112   4.932  40.519 -0.4367  0.1260  0.0240
45601W        W54201  15.538   1.644  31.265  0.1631 -0.0744  0.3184
45602W        W54202  15.850   0.443   2.266 -0.0222  0.0585 -0.0026
45603W        W54203   7.881   3.755  37.770  0.0258  0.0508 -0.0779
45604W        W54204  18.662   2.958  37.947 -0.3776 -0.0559  0.0778
45605W        W54205   6.498   2.440   7.212  0.2233  0.1203 -0.3382
45606W        W54206  18.159   2.456  44.529  0.0341 -0.0625 -0.1552
45607W        W54207   7.412   3.122  29.003  0.0997 -0.1705  0.3939
45608W        W54208  16.947   6.442  32.046 -0.1371  0.0674  0.0684
45609W        W54209   9.393   3.042  34.570 -0.4904 -0.1244 -0.0138
45610W        W54210  20.771   2.311   0.829 -0.0193 -0.0700 -0.1618
45611W        W54211   4.141   3.571  32.971 -0.0722 -0.0170 -0.1430
45612W        W54212  20.561   5.116   9.132 -0.1243  0.0986  0.2351
45613W        W54213  11.373   2.058  35.259  0.1344 -0.0257 -0.0605
45614W        W54214   8.974   3.685  25.184  0.1066 -0.2688  0.1852
45615W        W54215  12.771   2.893   3.226 -0.1848 -0.2177 -0.1197
45616W        W54216   9.062   5.959   3.869 -0.0811  0.1916 -0.1996
45617W        W54217   7.456   1.429  22.788 -0.0868  0.1963 -0.1899
45618W        W54218  15.741   5.969  20.684 -0.2652 -0.0442 -0.0203
45619W        W54219   9.281   2.595  38.718 -0.0756  0.2080  0.1410
45620W        W54220   0.932   4.433   6.234 -0.0456  0.0584 -0.1835
45621W        W54221  12.557   2.011   0.078 -0.3183  0.0102 -0.0174
45622W        W54222  12.300   1.024  38.309  0.0097  0.2289  0.1859
45623W        W54223   0.344   5.317  15.330 -0.2858  0.0105  0.0188
45624W        W54224  14.921   0.267   3.425  0.0556  0.1757 -0.0379
45625W        W54225   5.239   0.186  41.483  0.3074  0.0228 -0.1170
45626W        W54226   1.923   6.576  26.775 -0.0957  0.1929 -0.2178
45627W        W54227   5.194   5.941  25.934 -0.0729 -0.1188  0.0510
45628W        W54228  19.880   5.815  17.254  0.4681 -0.2576  0.0463
45629W        W54229   9.741   3.097  35.452  0.0841  0.0906 -0.0178
45630W        W54230  12.508   4.372  17.578 -0.0483  0.5321  0.1059
45631W        W54231   7.635   0.351  23.210  0.1163 -0.1859  0.0753
45632W        W54232   2.255   3.937   5.122  0.0040 -0.1890 -0.1923
45633W        W54233  20.188   4.033  36.124 -0.1044  0.2105 -0.0519
45634W        W54234   1.294   1.840   3.884 -0.2469  0.1613  0.0138
45635W        W54235   8.578   4.172   3.673  0.0361 -0.2369  0.0663
45636W        W54236  18.537   4.967  15.691  0.1352 -0.0665 -0.2123
45637W        W54237   8.759   2.965  40.487 -0.2527 -0.0941  0.2663
45638W        W54238  15.237   1.340  11.868  0.3636 -0.0580 -0.1580
45639W        W54239  12.067   0.870  40.336  0.0996 -0.0805  0.3352
45640W        W54240  19.671   0.744   4.213  0.1607  0.1889 -0.1561
45641W        W54241   3.368   1.465  10.113  0.2792  0.1238  0.1594
45642W        W54242   2.141   5.668  33.521 -0.1188 -0.2569 -0.0169
45643W        W54243  10.423   0.057   8.783  0.2502 -0.1931 -0.2259
45644W        W54244   6.281   3.771  33.145 -0.0972  0.0739  0.0179
45645W        W54245  12.582   4.370  40.463  0.2049 -0.0553 -0.0957
45646W        W54246   3.858   2.418  34.457  0.1074  0.1956  0.2504
45647W        W54247   7.768   5.924  37.020 -0.1527  0.0059 -0.0214
45648W        W54248   7.639   3.165  16.304  0.2159  0.1043 -0.1763
45649W        W54249   7.175   1.017  44.461 -0.0380 -0.0047  0.1393
45650W        W54250   9.461   3.605  24.413 -0.0936 -0.2224 -0.1435
45651W        W54251   6.558   4.524  44.877  0.4229 -0.1821  0.2358
45652W        W54252   9.000   4.624  42.775  0.1168 -0.1183  0.1522
45653W        W54253   0.212   1.670   5.044  0.1797  0.1774 -0.1104
45654W        W54254   7.373   0.658   5.267 -0.1467 -0.0077 -0.1876
45655W        W54255  13.214   6.310   9.109  0.3109  0.0217 -0.2326
45656W        W54256   8.729   6.407  44.113 -0.0270  0.3677 -0.0938
45657W        W54257  20.459   5.070  12.142  0.0520 -0.0838  0.1367
45658W        W54258  19.674   4.235  20.044 -0.2258 -0.0534 -0.3930
45659W        W54259   2.241   3.305  10.718  0.1716  0.1001 -0.1829
45660W        W54260  17.213   0.323  40.358  0.1353 -0.4273 -0.0866
45661W        W54261   8.900   0.502   8.207 -0.0197 -0.2345  0.2363
45662W        W54262   8.243   5.342  34.220  0.0738 -0.0189  0.2616
45663W        W54263   3.675   1.195  26.152 -0.0656  0.1989  0.2107
45664W        W54264  20.785   4.885  40.204  0.3432  0.1471 -0.0510
45665W        W54265  11.944   5.104  11.963  0.1170  0.0332  0.0364
45666W        W54266  11.559   2.303   2.212  0.1393 -0.0966  0.0085
45667W        W54267  16.435   3.002  35.421  0.2374  0.0044  0.2023
45668W        W54268  18.205   6.068  36.117 -0.1589 -0.0581  0.2889
45669W        W54269  19.987   2.488   6.855 -0.3445  0.1225 -0.2390
45670W        W54270  20.930   4.633  18.676 -0.0511 -0.2133  0.0472
45671W        W54271   3.589   6.395  44.889 -0.0827 -0.1462 -0.1087
45672W        W54272  17.078   2.161  39.818  0.0282  0.2087 -0.1029
45673W        W54273  14.467   2.351   5.291 -0.2505 -0.1987 -0.2191
45674W        W54274   9.244   2.084  39.079 -0.0304  0.1602 -0.0071
45675W        W54275   1.072   3.028  12.268  0.2053  0.1280  0.0207
45676W        W54276  13.445   1.534  38.871 -0.0566  0.2371  0.0237
45677W        W54277  13.135   1.037  38.836  0.0558  0.0968 -0.1815
45678W        W54278  17.243   5.810  20.708  0.0797  0.0377 -0.0595
45679W        W54279   5.964   1.645  13.058  0.0974  0.1120 -0.2377
45680W        W54280   2.573   1.911  31.852 -0.5164  0.0512  0.1776
45681W        W54281  21.123   2.725  33.663  0.1281 -0.1797  0.0773
45682W        W54282  18.959   2.188   9.611  0.3331 -0.1185  0.0776
45683W        W54283   5.403   0.401  13.041 -0.1750  0.1772 -0.1215
45684W        W54284  19.122   1.317  29.174  0.0241 -0.0190  0.0755
45685W        W54285  16.975   6.586  19.723 -0.3699 -0.0762  0.1222
45686W        W54286  11.182   3.285   7.689  0.1051 -0.1080  0.1071
45687W        W54287   1.814   4.266  26.266 -0.0472  0.1810 -0.2328
45688W        W54288   5.480   5.051   1.849  0.2173  0.1905  0.1533
45689W        W54289  20.117   5.875  29.706  0.1716 -0.0408 -0.1577
45690W        W54290  17.259   4.439  31.749  0.2725 -0.0277  0.0342
45691W        W54291   4.938   2.105  42.415  0.0666 -0.0606  0.2533
45692W        W54292   4.071   5.812   4.018  0.1470 -0.0235 -0.2460
45693W        W54293   8.610   4.347   9.316  0.0274  0.2951 -0.1141
45694W        W54294   7.721   0.138  35.320 -0.1454  0.0095 -0.1852
45695W        W54295  15.619   1.639  11.844 -0.4025  0.1125  0.1044
45696W        W54296   8.707   0.764  37.165  0.0969  0.1722  0.2459
45697W        W54297  12.692   3.386  10.671 -0.1804 -0.1600  0.2763
45698W        W54298  11.300   4.199  18.296 -0.2768 -0.0931  0.2116
45699W        W54299  13.242   5.272  32.050  0.0723  0.0127  0.1886
45700W        W54300   2.301   4.779   2.637 -0.0922  0.0248 -0.0142
45701W        W54301   0.066   6.101  43.690  0.0782  0.0347 -0.0648
45702W        W54302   0.746   0.978  10.140  0.0767 -0.0943  0.3045
45703W        W54303  15.060   5.728  44.899  0.1068 -0.0927 -0.2097
45704W        W54304  17.166   1.938   5.164 -0.1511 -0.1542  0.2639
45705W        W54305   5.324   0.760  21.568  0.1085  0.0222 -0.3020
45706W        W54306   1.691   0.528  40.995  0.0425 -0.1637  0.0775
45707W        W54307  16.832   2.475  18.932 -0.1170 -0.2856  0.1210
45708W        W54308   8.358   4.962   0.762 -0.0834  0.1842  0.3553
45709W        W54309  14.320   5.636   6.839 -0.0414  0.1411  0.0205
45710W        W54310  12.424   0.610  36.964  0.1688  0.0004  0.1637
45711W        W54311  16.185   3.673  17.087 -0.0588 -0.0642 -0.2227
45712W        W54312  16.212   1.696   7.251  0.0566  0.0981  0.2412
45713W        W54313  10.666   4.259  31.967  0.0739  0.1978  0.0098
45714W        W54314   8.878   4.411  12.476  0.0234 -0.0814  0.1483
45715W        W54315   6.596   4.546   7.237  0.1926  0.2119 -0.0099
45716W        W54316   5.777   4.044   4.096 -0.3224 -0.0735  0.4069
45717W        W54317  19.219   3.729  36.580 -0.2527 -0.1075 -0.1677
45718W        W54318   6.841   2.806   7.942 -0.0846 -0.0778  0.1390
45719W        W54319   6.458   4.482   0.434  0.2808  0.4162 -0.0092
45720W        W54320   5.465   4.868   3.222 -0.1353  0.1138  0.1108
45721W        W54321  14.073   0.047  36.632  0.0606 -0.0214 -0.0258
45722W        W54322   5.322   3.823  38.186 -0.2375 -0.0466  0.1177
45723W        W54323  19.971   3.573  31.227  0.2536  0.0090 -0.1536
45724W        W54324   8.375   1.333   8.744  0.1583 -0.2913 -0.1268
45725W        W54325  14.697   2.318  37.160 -0.0784 -0.0300 -0.0304
45726W        W54326  12.583   1.252   8.223 -0.3098 -0.0378 -0.1169
45727W        W54327  19.233   3.188  35.450  0.3004  0.0977  0.0874
45728W        W54328   2.921   1.209  32.413 -0.3077 -0.0884  0.1399
45729W        W54329  14.758   2.436   3.976 -0.1655 -0.0456  0.1533
45730W        W54330  10.338   2.508  42.957  0.0476  0.0763  0.0542
45731W        W54331   9.492   5.422  14.994 -0.1528  0.1678 -0.0348
45732W        W54332  12.162   0.320  32.155 -0.1594 -0.0498  0.0493
45733W        W54333   4.976   4.994  26.038  0.2046 -0.2225  0.1398
45734W        W54334   8.928   3.663   0.085  0.1613 -0.2947 -0.0446
45735W        W54335  12.865   1.439  12.461  0.0062  0.0713 -0.1388
45736W        W54336  17.442   3.528   8.492  0.2264 -0.1624  0.0654
45737W        W54337   3.398   5.196  27.175  0.0248 -0.0632  0.2740
45738W        W54338  15.921   4.537  38.670  0.2096  0.2311 -0.0868
45739W        W54339  18.261   2.690  15.729 -0.0810 -0.0138 -0.0459
45740W        W54340  16.092   3.150  33.071  0.1653  0.0337 -0.0766
45741W        W54341   0.384   6.542  14.179 -0.1528  0.1614 -0.1251
45742W        W54342   8.157   2.666  43.342  0.1270 -0.2556 -0.0537
45743W        W54343  11.246   1.981  27.195 -0.1967 -0.0045  0.1686
45744W        W54344   5.938   4.592  24.125 -0.1500 -0.0936 -0.1954
45745W        W54345   4.793   2.611   4.185 -0.0378  0.0680 -0.1884
45746W        W54346   8.053   2.867  25.737 -0.1590 -0.0876  0.0624
45747W        W54347  14.383   1.751   8.528  0.0829 -0.0497 -0.0298
45748W        W54348   5.320   3.173   0.991  0.0993  0.2466  0.0718
45749W        W54349  13.985   5.731  21.393 -0.1066 -0.0174  0.0340
45750W        W54350   0.049   1.481  13.636 -0.1730 -0.2321 -0.3056
45751W        W54351  19.405   5.970   1.070 -0.1764 -0.0719  0.0936
45752W        W54352   5.353   3.698  15.411 -0.2668  0.2138 -0.1567
45753W        W54353   7.901   5.433  44.823  0.3799 -0.0897 -0.0405
45754W        W54354   2.734   2.303  31.602 -0.1647  0.0415 -0.4951
45755W        W54355   1.890   0.762  32.089  0.1844  0.1538 -0.1718
45756W        W54356  13.977   4.219   1.593 -0.2754  0.3786 -0.1221
45757W        W54357  20.805   5.914  17.445  0.5051  0.1339 -0.0754
45758W        W54358   1.916   4.869  35.230  0.1609 -0.2062  0.2115
45759W        W54359   9.276   5.857  32.328 -0.0071  0.0787  0.2903
45760W        W54360   3.039   5.569  35.417  0.0480 -0.0218  0.4359
45761W        W54361   8.725   4.724  26.260 -0.0620  0.1109  0.1942
45762W        W54362  12.144   1.262  28.880 -0.0807  0.1659 -0.1456
45763W        W54363  13.226   6.293  20.299  0.2678 -0.0669  0.2535
45764W        W54364  18.022   3.940  14.670  0.0601 -0.1086  0.0080
45765W        W54365  16.968   1.736  34.960  0.0953  0.2040 -0.0179
45766W        W54366  18.921   1.998  19.275 -0.0289 -0.1942 -0.0763
45767W        W54367  16.070   2.862   4.528  0.3131 -0.0795  0.1673
45768W        W54368  11.734   4.734  35.469  0.1779 -0.2871  0.3507
45769W        W54369   3.945   5.355  22.544  0.2686 -0.0410  0.0374
45770W        W54370   3.785   5.256  10.592  0.1002 -0.1735 -0.0097
45771W        W54371   5.109   2.032   4.851 -0.0186 -0.0011 -0.2948
45772W        W54372  19.318   6.370   1.403  0.3272  0.0777  0.1722
45773W        W54373  18.719   0.221  40.657  0.2586 -0.3593 -0.0665
45774W        W54374   6.273   1.798  28.998  0.0039 -0.1047 -0.3069
45775W        W54375  13.045   3.363  33.221  0.0423 -0.1341  0.2713
45776W        W54376   2.215   4.655  33.883  0.1804  0.0483  0.1079
45777W        W54377   1.309   5.599  40.835  0.0930  0.1787  0.1766
45778W        W54378  12.489   6.571  16.575  0.1308  0.2366  0.2202
45779W        W54379   2.502   4.463  36.213 -0.1067  0.0590  0.0229
45780W        W54380   4.703   5.191   6.133  0.1768  0.0370  0.1139
45781W        W54381   8.001   4.953  16.093 -0.3257 -0.6404  0.2396
45782W        W54382  14.498   0.795   2.432 -0.0655 -0.1347 -0.1153
45783W        W54383  14.094   3.342   6.654  0.1688  0.1462 -0.0913
45784W        W54384   6.542   3.642  30.798  0.1730 -0.2739  0.1540
45785W        W54385  15.682   1.679  22.301 -0.2856 -0.1577  0.2725
45786W        W54386  18.125   3.687   6.073  0.1558 -0.1370 -0.2362
45787W        W54387  10.632   2.710  17.006  0.1295  0.2400  0.3221
45788W        W54388  19.829   0.180  29.599 -0.1082 -0.1352  0.1774
45789W        W54389  13.554   5.147  38.137 -0.0469 -0.1703  0.1002
45790W        W54390  14.639   4.633  39.678  0.1214  0.2724  0.2082
45791W        W54391   5.664   3.560  11.952  0.1105 -0.0408 -0.0962
45792W        W54392  20.015   5.378  18.837 -0.5014  0.3197 -0.2362
45793W        W54393  14.871   2.908  36.752  0.0166  0.2145  0.1160
45794W        W54394   5.258   0.717  35.701  0.0341  0.0663  0.1777
45795W        W54395   6.814   3.581  22.960  0.1912  0.0618  0.1411
45796W        W54396  16.814   1.475   6.536 -0.1197 -0.2998  0.3497
45797W        W54397   4.232   3.999  37.357 -0.0770  0.1484 -0.0426
45798W        W54398  14.928   0.441   5.046 -0.1466 -0.0269 -0.1305
45799W        W54399   3.200   0.740  28.558  0.1708  0.2108  0.2562
45800W        W54400  13.157   3.044  39.404  0.1602 -0.2805 -0.0478
45801W        W54401   3.266   5.598  39.948  0.2482  0.0920  0.1075
45802W        W54402   9.536   5.507  16.803  0.5383 -0.0431 -0.0092
45803W        W54403  10.736   2.207  41.919 -0.1013  0.1539  0.1886
45804W        W54404   2.899   6.452  24.191  0.4917  0.0924  0.1282
45805W        W54405  19.062   5.812  16.914 -0.1009  0.1843  0.0485
45806W        W54406   5.116   2.969  32.107  0.1762  0.2218  0.2550
45807W        W54407  13.966   2.933  29.846  0.2306 -0.1111 -0.1306
45808W        W54408   7.111   1.286   3.314  0.4286 -0.1208  0.1280
45809W        W54409   6.693   3.650  33.622  0.1075  0.0665  0.0593
45810W        W54410  14.550   0.257  30.521  0.1311  0.3197  0.0986
45811W        W54411  17.280   5.852  29.806  0.1533 -0.0738 -0.0890
45812W        W54412  17.906   2.219  29.108 -0.1159 -0.1921  0.0089
45813W        W54413  19.850   2.716   1.026  0.0195 -0.0034 -0.0274
45814W        W54414  12.793   0.044  32.091 -0.0325  0.4655 -0.0249
45815W        W54415  18.099   2.446  16.399  0.1440  0.0920  0.0206
45816W        W54416   9.521   1.306   1.849  0.0284  0.1956  0.0928
45817W        W54417  12.716   4.231  43.883  0.1615 -0.1762 -0.2491
45818W        W54418   3.579   5.800  28.266  0.1400  0.1928  0.3893
45819W        W54419  19.094   2.306   3.328  0.0484  0.1783  0.2656
45820W        W54420  16.106   2.316  25.387 -0.2803 -0.0898 -0.0694
45821W        W54421  17.112   0.397  15.441 -0.1120  0.1503 -0.1374
45822W        W54422   6.417   5.274  32.796  0.2708 -0.1773 -0.1892
45823W        W54423  17.572   4.868  32.948 -0.0389 -0.0998 -0.2321
45824W        W54424   7.259   3.953   8.105  0.3670 -0.0393  0.1858
45825W        W54425  18.092   6.012  29.371 -0.3349 -0.0890  0.0300
45826W        W54426   9.253   5.092  38.923  0.0712 -0.1863 -0.1595
45827W        W54427  10.371   0.769  11.521  0.1720  0.3397 -0.0991
45828W        W54428  21.147   3.773  39.339  0.0877  0.1462  0.2087
45829W        W54429   8.431   2.775  11.219 -0.0995  0.0322  0.1376
45830W        W54430  16.774   0.766  10.642 -0.1432 -0.0214 -0.0850
45831W        W54431   9.484   5.658  27.691  0.1498 -0.1605 -0.1788
45832W        W54432   4.142   3.779   4.504 -0.0385  0.1594 -0.0236
45833W        W54433   6.294   0.472  33.777  0.0741 -0.0133  0.1207
45834W        W54434  14.075   0.417  19.772  0.2021 -0.1375 -0.1366
45835W        W54435  12.863   5.255  41.485  0.1180  0.0003 -0.0947
45836W        W54436  14.727   1.385  44.657 -0.0088  0.1043 -0.1533
45837W        W54437   7.561   3.624   5.308 -0.1029 -0.0130 -0.0592
45838W        W54438   8.341   5.546   7.061 -0.1581 -0.0081 -0.2302
45839W        W54439  18.586   1.652  38.741 -0.1208 -0.0316 -0.2105
45840W        W54440   0.318   0.021   3.721 -0.3156  0.2711  0.0306
45841W        W54441  13.488   1.423  21.751  0.0806 -0.1072  0.2394
45842W        W54442  13.727   2.719   3.900  0.1718 -0.1427  0.0177
45843W        W54443  13.497   2.172  34.341  0.0909 -0.0509 -0.0614
45844W        W54444   5.963   2.626  15.784  0.0741 -0.2745  0.0923
45845W        W54445   3.219   1.604   6.723 -0.0452 -0.1189  0.1183
45846W        W54446  20.671   2.929   9.143 -0.0137  0.0504 -0.2109
45847W        W54447  16.460   1.007  18.024  0.1968 -0.0319 -0.0252
45848W        W54448  13.644   4.607  37.428 -0.0735  0.1456  0.0768
45849W        W54449  13.066   5.348   4.573  0.5817  0.2298  0.0416
45850W        W54450   2.780   1.373   4.506 -0.5353 -0.0665  0.0913
45851W        W54451   8.647   0.500   4.761  0.2183  0.1155  0.0911
45852W        W54452  12.473   6.062   5.918 -0.0749 -0.1642  0.0588
45853W        W54453  14.820   3.272  18.078  0.1840 -0.4250  0.1876
45854W        W54454  12.289   1.110  13.085 -0.2207 -0.3671  0.1870
45855W        W54455  15.631   0.575  11.335  0.4268  0.2541 -0.2104
45856W        W54456  14.390   0.210   1.139 -0.0512 -0.0423 -0.0048
45857W        W54457   3.693   1.333  12.612  0.1946 -0.3396 -0.2367
45858W        W54458  19.636   3.130  40.491  0.0612 -0.0199 -0.0470
45859W        W54459   1.670   4.964   1.079  0.0845  0.2165  0.1530
45860W        W54460  15.211   3.668  13.783 -0.0121 -0.2195  0.4116
45861W        W54461  20.546   4.177   9.180 -0.0732 -0.2274  0.0820
45862W        W54462   5.991   0.254   6.318  0.1394  0.1664  0.0796
45863W        W54463   0.956   2.964   7.400 -0.0859 -0.1055  0.1305
45864W        W54464  18.503   3.826  42.830 -0.0158 -0.0299  0.2784
45865W        W54465   6.452   3.334  33.935  0.1908 -0.2970  0.2545
45866W        W54466  18.727   0.533   5.263 -0.4828 -0.1926 -0.1529
45867W        W54467  10.953   4.608  15.320 -0.4016 -0.0027  0.3115
45868W        W54468  11.843   0.690   4.557  0.3553  0.2492 -0.0977
45869W        W54469  19.619   0.955  30.657  0.1722 -0.0850 -0.0331
45870W        W54470  15.012   0.069  37.673  0.2778 -0.0352 -0.2149
45871W        W54471  18.515   3.141  15.047  0.0035 -0.1851  0.0843
45872W        W54472   9.068   3.256  31.764  0.1048  0.0967  0.3001
45873W        W54473  13.789   4.312  38.207  0.0204 -0.3723 -0.2343
45874W        W54474   5.119   2.376  35.980  0.2309  0.1549 -0.3211
45875W        W54475   3.296   5.336   5.595 -0.0644  0.1253  0.1096
45876W        W54476   5.148   5.885   2.085 -0.0276  0.0517  0.1391
45877W        W54477  14.646   0.954  32.815  0.2919  0.0049  0.0460
45878W        W54478   6.113   5.588  39.706 -0.2204  0.0191  0.0724
45879W        W54479  11.247   3.905   0.800  0.2004 -0.1734 -0.1653
45880W        W54480  20.502   3.219  18.194  0.1958 -0.1312 -0.0825
45881W        W54481  14.690   6.010  32.135 -0.1294 -0.1673 -0.2143
45882W        W54482  19.105   6.440  19.459 -0.1128 -0.3196  0.1615
45883W        W54483   0.972   3.410  42.348 -0.3958 -0.0187 -0.0010
45884W        W54484   9.141   0.644  35.009  0.0456 -0.4587 -0.2978
45885W        W54485   5.919   0.051  38.822 -0.2870 -0.0909 -0.0336
45886W        W54486  19.391   3.112  10.998 -0.2250  0.0475 -0.1622
45887W        W54487   1.604   2.909  25.996 -0.0743 -0.0184 -0.1408
45888W        W54488  12.921   2.467   2.320  0.0329  0.2879  0.1595
45889W        W54489   1.173   0.536  37.268  0.2273 -0.0408 -0.0361
45890W        W54490   5.626   3.537  28.486 -0.2068  0.4015  0.0243
45891W        W54491  13.455   0.453  44.770  0.0572  0.1095 -0.1314
45892W        W54492   0.669   2.464  10.405  0.2411 -0.3306  0.0153
45893W        W54493   5.047   1.917  36.861  0.1624  0.1563  0.0023
45894W        W54494  18.230   4.856  32.117  0.0552 -0.1947  0.0245
45895W        W54495   7.399   2.734   5.762 -0.2800  0.0910  0.2064
45896W        W54496   5.392   5.927   8.391  0.4070  0.2349 -0.0982
45897W        W54497  16.411   1.389  31.347  0.1008  0.2260 -0.1224
45898W        W54498  19.486   2.528  36.806 -0.0628  0.1987 -0.2679
45899W        W54499  15.537   0.472  13.517 -0.0750  0.0209 -0.0268
45900W        W54500  15.335   6.529   7.135  0.0447  0.0550  0.1595
45901W        W54501   4.492   2.078  44.560 -0.0433  0.1046  0.0038
45902W        W54502  18.686   3.196  39.038 -0.1299 -0.0109  0.0682
45903W        W54503   1.752   6.205   1.959  0.2273 -0.0800  0.1518
45904W        W54504   6.200   4.014  44.740 -0.0363  0.0581  0.0207
45905W        W54505  11.120   4.561  17.078  0.0359  0.1058  0.0609
45906W        W54506   4.984   0.787   8.086  0.2410  0.1241 -0.3145
45907W        W54507   1.911   5.603   6.740  0.0208 -0.1637 -0.0566
45908W        W54508   9.119   3.426  32.329  0.0243  0.0065 -0.0626
45909W        W54509  11.965   5.627  31.419 -0.0486  0.1505 -0.0149
45910W        W54510  11.142   4.203   7.310 -0.1408  0.6560  0.1332
45911W        W54511   2.995   0.640  26.365 -0.1690  0.0992 -0.2727
45912W        W54512  19.292   2.890  16.585 -0.0975 -0.0846 -0.1553
45913W        W54513   3.747   1.892  11.214  0.0804  0.0690 -0.3188
45914W        W54514  12.578   5.754   1.555  0.2755  0.1324  0.0395
45915W        W54515   9.547   1.844   4.349  0.2283  0.1414  0.1365
45916W        W54516  14.638   1.719  21.055  0.0525 -0.0582 -0.2127
45917W        W54517  14.462   0.462   3.317 -0.1116 -0.0197 -0.1282
45918W        W54518   0.475   5.265  14.820 -0.3857 -0.0972 -0.2139
45919W        W54519   1.820   3.705  38.934  0.0346  0.2155 -0.1215
45920W        W54520   7.680   5.907   0.586 -0.0469 -0.0230 -0.0455
45921W        W54521  11.132   0.417  32.347  0.1582  0.0973 -0.2275
45922W        W54522  20.331   0.373  43.917  0.1154 -0.1789 -0.0003
45923W        W54523   1.683   4.737  32.424 -0.0376 -0.0748  0.1012
45924W        W54524   7.311   0.248  43.108 -0.0157  0.1865  0.0807
45925W        W54525   6.152   2.112   4.530  0.1836  0.0374 -0.0870
45926W        W54526   8.333   4.979  41.005  0.3633 -0.0592  0.0282
45927W        W54527  12.452   6.504   4.680  0.1692 -0.1311 -0.1685
45928W        W54528   5.819   1.255  23.588 -0.0953 -0.2258 -0.0024
45929W        W54529  10.845   3.747  14.964  0.0963 -0.1652  0.3069
45930W        W54530  11.131   1.682  14.807 -0.4207 -0.1235  0.1851
45931W        W54531   5.341   0.872  38.642  0.1150 -0.2144 -0.1088
45932W        W54532  13.037   2.603  42.684 -0.3258  0.0199 -0.1591
45933W        W54533  17.455   0.901  18.423 -0.0480 -0.1407  0.1233
45934W        W54534  18.137   0.899   0.312 -0.0410 -0.3197  0.2163
45935W        W54535  16.124   1.351   7.659 -0.3584  0.1057  0.0399
45936W        W54536  18.112   1.995  32.274  0.1733  0.1145  0.2672
45937W        W54537   0.756   2.873  17.639  0.1528  0.2451  0.1869
45938W        W54538   6.258   3.083   3.353 -0.3891  0.2329  0.0172
45939W        W54539  19.856   1.575  41.846 -0.2714  0.2157 -0.1223
45940W        W54540   5.432   3.754   6.301 -0.1251 -0.0058  0.2589
45941W        W54541   7.853   5.788  10.960 -0.1852 -0.1706 -0.1386
45942W        W54542  19.900   2.667   2.812 -0.1769 -0.0866 -0.0019
45943W        W54543  16.524   4.897  18.271 -0.2722  0.0937 -0.0144
45944W        W54544   2.888   1.027   7.347  0.2052 -0.0886 -0.1579
45945W        W54545  14.710   2.564  29.503  0.2015 -0.2409  0.0436
45946W        W54546  18.803   2.112  39.489 -0.2353 -0.0633 -0.1256
45947W        W54547  15.582   1.025  12.117  0.4571 -0.1561 -0.3069
45948W        W54548   7.238   3.168  15.630 -0.0600  0.2735  0.3823
45949W        W54549   2.679   3.550  43.543 -0.2444 -0.1247  0.1224
45950W        W54550  13.254   1.838  30.024 -0.2680 -0.0486  0.0005
45951W        W54551   8.943   2.756   4.191 -0.0662 -0.0894 -0.1485
45952W        W54552  18.440   4.334  11.220 -0.2850  0.0756 -0.2060
45953W        W54553   8.378   4.893  25.823 -0.0197 -0.1168 -0.0450
45954W        W54554   4.133   3.553  40.742  0.1073 -0.0524 -0.1451
45955W        W54555  13.662   3.093  15.750  0.1161  0.0535 -0.0355
45956W        W54556   0.837   5.888  36.723 -0.0180  0.1590  0.0876
45957W        W54557   3.266   3.143  22.835  0.3514 -0.4798  0.1478
45958W        W54558   1.782   0.076  43.387  0.4297  0.1501 -0.1025
45959W        W54559  12.262   2.099   3.132 -0.0636  0.1767 -0.0102
45960W        W54560   6.710   2.439  32.290  0.2213 -0.0215 -0.1321
45961W        W54561  12.358   2.673  18.708  0.1238 -0.1756 -0.0411
45962W        W54562  17.064   5.766  43.669 -0.0441 -0.0067  0.0774
45963W        W54563   2.792   5.609  44.651  0.0599 -0.1697 -0.1600
45964W        W54564  16.462   6.248   4.872 -0.1312 -0.0584 -0.0765
45965W        W54565  14.647   2.681  37.945 -0.0669 -0.0036  0.1999
45966W        W54566  11.536   4.738  13.571 -0.0691 -0.0015 -0.0488
45967W        W54567  19.745   1.789  10.490 -0.2283  0.0127 -0.0273
45968W        W54568   1.560   5.992   9.703 -0.0167 -0.0949 -0.0324
45969W        W54569  13.411   2.713  20.587 -0.1738 -0.2114  0.0083
45970W        W54570   5.315   0.648  14.385  0.0651 -0.2152  0.1155
45971W        W54571   4.067   5.429  30.128  0.0313 -0.3346 -0.0081
45972W        W54572   4.227   2.077  11.156 -0.1753  0.2016 -0.0295
45973W        W54573   5.733   0.736  13.350  0.1266  0.1420  0.1793
45974W        W54574   2.946   0.300  40.587  0.1885 -0.0936 -0.1879
45975W        W54575   9.966   3.601  10.027 -0.3239 -0.1354 -0.1213
45976W        W54576   5.795   1.639  31.786 -0.2686 -0.1819  0.1060
45977W        W54577   5.941   0.283  23.687  0.4630  0.0094 -0.1508
45978W        W54578   4.778   1.699  32.363  0.1986 -0.2158  0.0409
45979W        W54579   1.845   5.043   2.535 -0.1699 -0.3337 -0.0294
45980W        W54580   8.595   6.377  30.231 -0.2379  0.1720 -0.2008
45981W        W54581   8.769   1.013   4.720  0.1113  0.3779  0.2897
45982W        W54582   1.480   5.859   0.661  0.1381 -0.0247  0.0089
45983W        W54583   7.212   5.437  16.645 -0.0131 -0.2050  0.1769
45984W        W54584   7.524   3.311  43.503 -0.1719 -0.0166 -0.0326
45985W        W54585   6.651   4.048  45.125 -0.3054  0.1740  0.1614
45986W        W54586  11.752   3.074  37.266 -0.1787 -0.0064 -0.1681
45987W        W54587   6.861   1.341  16.262 -0.0177  0.1744  0.0755
45988W        W54588  13.969   0.016  21.684 -0.2279 -0.2193 -0.1297
45989W        W54589  15.628   0.365   8.705  0.1426 -0.1795 -0.0409
45990W        W54590   1.661   0.939   0.932 -0.1207  0.2135  0.0689
45991W        W54591  16.179   5.368  42.345  0.1323 -0.0999  0.2947
45992W        W54592   1.241   2.782  45.120  0.0656 -0.1273 -0.0859
45993W        W54593   6.194   1.273   2.697 -0.1269  0.0443  0.1438
45994W        W54594  17.839   1.255  15.347 -0.1835 -0.0562 -0.0559
45995W        W54595  17.917   1.682  43.334  0.0470 -0.0878  0.3914
45996W        W54596  19.973   4.838  17.903  0.2068  0.1868 -0.5609
45997W        W54597  20.383   2.087   2.092  0.0393 -0.3387 -0.1319
45998W        W54598  14.738   1.269  15.904  0.1277 -0.0603  0.1011
45999W        W54599  20.686   4.541   6.392 -0.2312 -0.3701  0.1999
46000W        W54600   9.464   2.720  28.209 -0.0709 -0.1398 -0.1684
46001W        W54601  17.432   5.728   0.135  0.0501  0.0192  0.1482
46002W        W54602   6.935   3.062  44.074  0.0198  0.0258 -0.0186
46003W        W54603   6.554   5.487  22.759 -0.1750 -0.0700  0.1449
46004W        W54604   0.902   5.313  11.861 -0.3272  0.1727 -0.1200
46005W        W54605  17.759   3.144   7.563 -0.1544  0.0268  0.0448
46006W        W54606  20.245   5.653  28.689 -0.0686 -0.0602  0.2970
46007W        W54607  11.015   1.986  28.018 -0.1134  0.3237 -0.0396
46008W        W54608   7.659   4.051   2.182  0.1141  0.1316 -0.1936
46009W        W54609  11.277   3.112   2.309  0.0590  0.1287 -0.0588
46010W        W54610  14.367   3.874  40.218 -0.2780 -0.1339 -0.1181
46011W        W54611   2.789   0.836  31.581 -0.1376 -0.2347  0.2759
46012W        W54612  12.319   5.674  13.835  0.0413  0.3880  0.0123
46013W        W54613   1.654   0.058   3.731 -0.1603  0.2018  0.3256
46014W        W54614  14.750   2.807  20.562 -0.2752 -0.0711 -0.0656
46015W        W54615  13.082   5.185   0.226 -0.1001 -0.1486 -0.0442
46016W        W54616   6.874   3.215  16.023  0.1463 -0.0645  0.1977
46017W        W54617   1.540   3.473  37.780  0.0126  0.1817  0.0013
46018W        W54618  10.477   3.576  34.007  0.0141  0.2509 -0.2501
46019W        W54619   5.227   0.731  13.355 -0.0281 -0.3169 -0.1937
46020W        W54620   9.692   0.690   9.494 -0.2157  0.0138  0.0134
46021W        W54621   0.012   5.850  34.566  0.0579 -0.3182  0.0954
46022W        W54622  16.722   1.119  39.397  0.4030  0.1281  0.1195
46023W        W54623   4.132   4.321   0.366  0.0355  0.0757 -0.2162
46024W        W54624   3.964   6.428  14.677 -0.1383  0.1923 -0.1204
46025W        W54625   0.900   1.548  30.643  0.0413  0.1587 -0.0481
46026W        W54626  11.567   0.427   5.519  0.0280  0.1789 -0.0273
46027W        W54627  18.406   0.264   0.965 -0.2966 -0.0063 -0.0034
46028W        W54628  20.720   0.394  13.629  0.2363  0.0266 -0.1535
46029W        W54629   5.013   4.934  13.885  0.0797 -0.1851  0.0992
46030W        W54630  17.612   1.066  44.815 -0.0055  0.2837  0.0794
46031W        W54631   5.118   3.472   7.619 -0.0424 -0.0091  0.0740
46032W        W54632   3.740   1.062  39.226  0.4105 -0.0999  0.0019
46033W        W54633   0.020   1.622  15.143  0.0128 -0.5044 -0.2005
46034W        W54634  15.710   0.318   9.640 -0.4266 -0.1072  0.1882
46035W        W54635  16.952   3.686  20.179 -0.3478  0.1286 -0.0731
46036W        W54636   0.389   2.539  17.397 -0.1369 -0.1223  0.0018
46037W        W54637   4.806   5.081   2.441  0.2925 -0.2060  0.1608
46038W        W54638   5.061   5.281   0.074 -0.0778  0.3145 -0.2397
46039W        W54639  17.826   1.829  16.531 -0.0421 -0.1182 -0.3066
46040W        W54640  18.079   4.395   2.589 -0.0862  0.4347 -0.2299
46041W        W54641   1.975   5.432  24.042 -0.1252  0.0828 -0.3731
46042W        W54642  17.799   5.630   7.067  0.0168  0.1609 -0.1122
46043W        W54643  14.159   1.218   7.736  0.0887 -0.1506 -0.0404
46044W        W54644   2.355   4.423  28.917  0.1150 -0.0417 -0.1698
46045W        W54645  17.685   2.795   7.906  0.0416  0.0063 -0.1289
46046W        W54646   5.923   4.220  24.438 -0.1682  0.0530 -0.2337
46047W        W54647   5.532   2.556  13.597  0.1670 -0.0304  0.1896
46048W        W54648  16.237   5.282  40.995  0.1438  0.1194 -0.2075
46049W        W54649  17.879   4.155  19.949 -0.1547 -0.1071  0.2095
46050W        W54650  11.581   0.667   2.191 -0.0645  0.1601  0.3678
46051W        W54651  21.099   6.050  27.937 -0.1414 -0.3031 -0.0216
46052W        W54652  10.012   0.014  30.846  0.1898 -0.0982  0.1743
46053W        W54653   1.743   5.293  10.527  0.0204 -0.0924 -0.2260
46054W        W54654   0.546   4.845  41.912  0.0005  0.0671 -0.0544
46055W        W54655   4.466   1.996  36.951  0.0341  0.0675  0.2998
46056W        W54656   4.582   3.328  21.561 -0.4197 -0.0486  0.2816
46057W        W54657  11.355   3.807   2.560  0.1316  0.3447 -0.2746
46058W        W54658  12.669   4.769   5.112  0.1822  0.1411 -0.1390
46059W        W54659   7.918   5.856  12.699 -0.1898  0.2049  0.0572
46060W        W54660  11.610   4.293  31.125  0.0562  0.1317 -0.2649
46061W        W54661  14.171   1.135  38.609  0.3766 -0.0174 -0.1268
46062W        W54662   9.647   3.491  11.250  0.0858  0.1069 -0.0512
46063W        W54663   0.715   4.834   2.062  0.1761  0.0548  0.1795
46064W        W54664   3.961   0.277  31.631  0.1239  0.1002  0.0447
46065W        W54665   4.188   1.887   7.638 -0.1491  0.0546 -0.7057
46066W        W54666  17.598   5.303  37.115  0.1575  0.1855  0.1588
46067W        W54667   2.854   1.191  28.687 -0.0036  0.3769 -0.0014
46068W        W54668  16.686   5.050  23.353 -0.1130  0.4748 -0.3629
46069W        W54669   3.593   6.239  32.358  0.5419 -0.0901 -0.1025
46070W        W54670  14.420   3.490  18.321 -0.1170 -0.2316  0.3512
46071W        W54671  21.095   2.788  39.799 -0.1697  0.1275 -0.1621
46072W        W54672   2.093   1.872  12.016 -0.2830  0.0570  0.0341
46073W        W54673   7.727   0.134  37.566 -0.0914 -0.0154 -0.0258
46074W        W54674  17.743   5.614  19.326 -0.1661 -0.2990 -0.4480
46075W        W54675  13.846   4.970  21.835 -0.0462 -0.1637  0.1840
46076W        W54676  15.035   5.888  33.908  0.0359 -0.0397 -0.0450
46077W        W54677   6.244   2.995  40.504 -0.3100 -0.0995 -0.0251
46078W        W54678   8.031   4.434  15.047  0.0341 -0.1833  0.0034
46079W        W54679   3.592   2.264  34.888 -0.3022 -0.0377 -0.0159
46080W        W54680   8.077   5.141  28.756  0.2025 -0.1441  0.0563
46081W        W54681  17.804   5.448  22.418 -0.2684  0.3276  0.1553
46082W        W54682  10.797   5.042  40.613  0.1302 -0.1017  0.1474
46083W        W54683  13.501   3.282  27.966 -0.0540 -0.0173 -0.0063
46084W        W54684   0.636   1.835  28.080 -0.0781 -0.2891  0.2441
46085W        W54685  15.584   0.485  23.894 -0.0084  0.2856 -0.0404
46086W        W54686   6.728   2.788  26.998  0.1416  0.2697 -0.2886
46087W        W54687   4.217   1.290  21.874  0.0261  0.0147  0.0573
46088W        W54688   7.832   3.171  14.496 -0.3219 -0.0620 -0.0255
46089W        W54689   4.083   0.756  33.406  0.0045 -0.1916  0.1638
46090W        W54690   8.369   4.715  11.148  0.4070 -0.0481  0.0381
46091W        W54691   6.604   3.047  13.103  0.0256  0.0178  0.0224
46092W        W54692  10.534   4.137  13.861 -0.2605 -0.0989 -0.0249
46093W        W54693  17.865   6.024  16.538 -0.0404  0.1322  0.2731
46094W        W54694   3.083   5.231  36.688  0.1931 -0.2658  0.0511
46095W        W54695  12.544   5.608   1.995  0.0291  0.2184 -0.1604
46096W        W54696   8.771   2.767  25.072 -0.1228  0.1400  0.1552
46097W        W54697  16.665   0.424  29.523 -0.0883 -0.0310  0.0444
46098W        W54698   3.645   5.558   4.699  0.0025 -0.0189 -0.0063
46099W        W54699  18.934   1.648  39.385  0.1544  0.0213 -0.2133
46100W        W54700   3.099   3.254  10.852 -0.0910  0.1547 -0.0105
46101W        W54701   9.153   2.729  37.816 -0.1394  0.0912  0.2311
46102W        W54702  10.081   4.136  25.756 -0.1105  0.1114 -0.1843
46103W        W54703   6.613   4.449  30.795  0.0530  0.0745 -0.1319
46104W        W54704   6.517   3.984  39.979  0.1789 -0.1524 -0.1543
46105W        W54705   7.816   5.755  13.202 -0.0090 -0.0832  0.2430
46106W        W54706   0.588   0.846  12.248 -0.1698 -0.0570 -0.2564
46107W        W54707   1.890   0.625   2.275 -0.0715  0.0632 -0.1064
46108W        W54708  19.672   0.420   6.914  0.2227  0.0211 -0.0001
46109W        W54709  17.735   3.200   3.501 -0.0399 -0.0020 -0.3244
46110W        W54710  14.648   6.042  22.637  0.0938  0.2705  0.1370
46111W        W54711   6.357   2.079  35.353 -0.1351  0.0798  0.1379
46112W        W54712   9.199   0.587   1.992  0.0591  0.2984 -0.0093
46113W        W54713   3.981   0.613   5.207 -0.0146 -0.0465  0.1063
46114W        W54714  11.604   2.771   1.955 -0.0783  0.0386  0.1148
46115W        W54715  20.448   5.094  28.722  0.0938  0.2833 -0.2757
46116W        W54716  18.123   2.402   7.890  0.5356  0.0064 -0.0411
46117W        W54717   8.538   0.683  13.721  0.1777 -0.1131  0.1001
46118W        W54718   0.486   1.932   1.573  0.2258  0.1252 -0.1692
46119W        W54719  15.472   3.108  40.603  0.2921  0.2218 -0.0706
46120W        W54720  14.136   2.459  18.907 -0.0605  0.1775  0.1792
46121W        W54721  17.667   5.788  18.753 -0.1527  0.0552 -0.0488
46122W        W54722  19.009   0.120  17.036 -0.0324  0.0810 -0.0392
46123W        W54723   0.621   4.021  34.546  0.1309  0.0784 -0.0844
46124W        W54724   8.320   3.536  43.085  0.0959 -0.2295 -0.1186
46125W        W54725   8.193   0.781  17.253 -0.0273  0.0313  0.2580
46126W        W54726  20.394   3.327  42.126 -0.1356  0.2826  0.1146
46127W        W54727   2.061   5.687  13.037  0.3092  0.0410  0.2965
46128W        W54728  11.326   5.530  28.375 -0.2781  0.1687  0.0035
46129W        W54729   1.179   2.207   3.111  0.0083  0.3158  0.2215
46130W        W54730  16.131   3.493  22.339 -0.3058 -0.0371 -0.1924
46131W        W54731   6.061   4.244  21.581 -0.1276  0.2236  0.0970
46132W        W54732  19.362   5.879  17.284 -0.1478 -0.1738 -0.1580
46133W        W54733   6.930   6.436   0.782 -0.0725  0.1555  0.2218
46134W        W54734  18.402   1.492  19.879 -0.0306 -0.1472  0.1536
46135W        W54735   5.606   3.140  16.523 -0.1244  0.0841 -0.2039
46136W        W54736  14.421   1.267  39.402  0.2773 -0.3782  0.1317
46137W        W54737   6.873   2.378   9.558  0.0541 -0.0832  0.1679
46138W        W54738   1.329   3.834  35.730  0.1594  0.2332 -0.0387
46139W        W54739  12.637   1.016   3.345  0.3052  0.1620 -0.1944
46140W        W54740  19.605   0.158  34.519 -0.1740 -0.2362  0.2090
46141W        W54741  11.846   5.823  40.464 -0.1554  0.0667  0.1640
46142W        W54742  11.889   5.251   0.837  0.1767  0.1547  0.3554
46143W        W54743   6.383   1.373   1.630 -0.2806 -0.0204  0.2559
46144W        W54744   5.885   0.883  30.622 -0.1847  0.0658  0.0433
46145W        W54745  12.145   1.882  41.354 -0.2177 -0.1125  0.0331
46146W        W54746  16.807   5.586  31.576 -0.0279  0.1177  0.2113
46147W        W54747  18.017   0.469  35.958 -0.0310 -0.2434  0.1819
46148W        W54748   7.170   4.833  32.839  0.1137 -0.2324 -0.1927
46149W        W54749  14.308   5.478  18.752  0.0439  0.1281 -0.2777
46150W        W54750   0.089   0.364  37.978 -0.1039  0.1990 -0.0194
46151W        W54751   4.866   4.582   5.984 -0.2752 -0.1579  0.2019
46152W        W54752  18.398   5.082  39.655  0.0241  0.2205 -0.3913
46153W        W54753  10.766   3.398  39.335  0.0340  0.1530  0.1067
46154W        W54754  11.787   3.833  15.998 -0.0836 -0.0249 -0.4876
46155W        W54755  11.527   4.307  30.531 -0.2702  0.0252 -0.0589
46156W        W54756  15.581   6.568   9.032  0.2496  0.1875 -0.2096
46157W        W54757  20.743   5.031   0.003 -0.2186  0.0349 -0.1567
46158W        W54758  20.372   6.157  39.000 -0.0075  0.1212 -0.0749
46159W        W54759   3.685   5.882  37.013  0.0685 -0.0899  0.0244
46160W        W54760  18.199   3.880  39.403  0.2408 -0.1541 -0.1788
46161W        W54761  19.111   5.041  34.274 -0.2240 -0.0274 -0.0736
46162W        W54762   3.820   1.289   9.898  0.3983 -0.0859  0.1401
46163W        W54763  20.903   3.594   8.043  0.0560  0.2596  0.0509
46164W        W54764  11.364   4.738  18.489  0.1988 -0.0593 -0.1622
46165W        W54765  15.750   6.299  44.147  0.1866  0.1753  0.1401
46166W        W54766  11.817   1.807  27.950  0.3770 -0.1897  0.0199
46167W        W54767   7.016   4.785  22.354  0.0255 -0.1074  0.2686
46168W        W54768   6.095   0.998   8.257 -0.1619  0.1120 -0.1069
46169W        W54769   3.789   3.319  15.979  0.0279 -0.1252 -0.1808
46170W        W54770   1.060   1.257   4.490  0.0104  0.2335  0.2482
46171W        W54771   8.630   2.390  43.924  0.0533  0.0869 -0.1776
46172W        W54772   4.870   3.699  43.741 -0.1421  0.0330 -0.2050
46173W        W54773   6.857   2.296   1.650  0.1136 -0.1881 -0.1803
46174W        W54774  11.720   4.625  44.583  0.3541 -0.1584 -0.0760
46175W        W54775  10.163   1.939  12.925  0.0085 -0.1237  0.0228
46176W        W54776   1.990   0.926  36.303 -0.0439  0.0966 -0.2895
46177W        W54777   3.090   3.798  37.261 -0.1373  0.1471 -0.0640
46178W        W54778  20.858   0.193  30.701  0.0973 -0.0216 -0.2638
46179W        W54779   1.276   4.149   4.386  0.2553 -0.0589  0.2267
46180W        W54780   2.277   6.391  45.037  0.1844  0.0656 -0.4000
46181W        W54781   8.806   3.301  44.780  0.1696 -0.0882 -0.0448
46182W        W54782   8.591   2.965  11.982 -0.0867 -0.2763  0.0004
46183W        W54783  19.566   1.527  28.802  0.2696 -0.0674 -0.0373
46184W        W54784   3.237   4.293  38.037 -0.3679 -0.1298 -0.1226
46185W        W54785   3.794   1.314  43.772  0.2462 -0.1422 -0.0668
46186W        W54786   8.972   1.041  40.740  0.2494  0.1317  0.0717
46187W        W54787   6.326   5.770  43.039 -0.0812 -0.0932 -0.0022
46188W        W54788  20.554   3.177   1.887  0.0928  0.2917  0.0619
46189W        W54789   4.576   5.745  23.459 -0.4589  0.2690  0.1567
46190W        W54790  16.162   0.893  43.253 -0.2546 -0.2999  0.1116
46191W        W54791  11.883   1.888  18.630  0.3092  0.1016  0.3807
46192W        W54792  10.391   5.670  42.423 -0.0323 -0.1149 -0.0005
46193W        W54793  14.482   2.310   8.162  0.0796 -0.0601 -0.0720
46194W        W54794   8.797   5.432   7.296  0.0175 -0.1791  0.0338
46195W        W54795   3.781   5.803  32.162  0.1022  0.1755 -0.1900
46196W        W54796  18.205   3.428   5.117 -0.5356  0.1123 -0.0972
46197W        W54797  20.283   2.842   6.496  0.0500  0.0628 -0.3816
46198W        W54798   8.530   0.180  26.319  0.1087  0.2245  0.0514
46199W        W54799   2.293   6.181   8.505  0.1464  0.1104  0.0226
46200W        W54800  21.093   6.156  41.566  0.3093  0.2377  0.2290
46201W        W54801  16.988   0.242  37.048  0.0448  0.0979 -0.0805
46202W        W54802  19.665   5.829  11.991  0.0212 -0.1410 -0.0245
46203W        W54803  11.311   4.692   9.665 -0.2479  0.1894 -0.0390
46204W        W54804  20.848   0.308   8.425 -0.0122  0.1167  0.2479
46205W        W54805  10.943   4.246  30.980  0.0437 -0.0137 -0.0728
46206W        W54806  14.499   2.778   1.102 -0.0340  0.2774  0.2111
46207W        W54807  15.706   1.738  33.259 -0.5720  0.3274  0.1857
46208W        W54808  10.809   4.404  32.691  0.1400 -0.1098 -0.0887
46209W        W54809   0.850   0.945  36.506  0.1417 -0.0985 -0.2251
46210W        W54810   4.312   1.559   9.032  0.2134  0.0969 -0.1465
46211W        W54811  16.670   1.096  11.078 -0.0191  0.1820  0.1344
46212W        W54812   3.442   3.899  36.266  0.0211  0.2194 -0.0347
46213W        W54813  11.663   6.530  30.292 -0.1190  0.3461 -0.0662
46214W        W54814   6.504   6.552   3.001  0.0091 -0.4940 -0.2302
46215W        W54815  12.833   6.295  12.904  0.0253  0.1568  0.1742
46216W        W54816  11.579   3.103  39.927  0.3228 -0.1793 -0.2302
46217W        W54817  10.453   0.500  37.501 -0.3823 -0.0875  0.0525
46218W        W54818   9.404   1.254   3.078  0.2607  0.1188  0.1681
46219W        W54819   9.154   2.437   1.031 -0.2470  0.0789  0.0091
46220W        W54820   5.903   0.746  33.568 -0.2937  0.0866  0.0080
46221W        W54821  11.706   0.292  11.730  0.0345 -0.0732  0.1632
46222W        W54822   7.998   3.022  43.667 -0.1160  0.1954  0.1342
46223W        W54823  17.122   3.463  36.650 -0.1239  0.0764 -0.2589
46224W        W54824   6.253   0.831  28.064 -0.0353 -0.1018  0.0208
46225W        W54825   7.261   3.911  21.396 -0.1454 -0.0077 -0.0562
46226W        W54826   8.943   0.446  36.873  0.0763 -0.0915 -0.1483
46227W        W54827   4.539   5.040  25.294  0.1766  0.0729  0.0190
46228W        W54828   4.294   3.561   1.809 -0.1470  0.1929 -0.1260
46229W        W54829  16.127   1.606  21.642  0.0536  0.2691  0.0419
46230W        W54830   1.996   1.544  29.058 -0.1649  0.0096 -0.1505
46231W        W54831  12.677   1.861   7.355 -0.1432 -0.0139  0.0762
46232W        W54832  17.712   0.851  18.890 -0.0938  0.1448  0.0752
46233W        W54833   4.716   2.595  42.257 -0.0783  0.0360 -0.2254
46234W        W54834   0.805   2.909  42.422  0.1813 -0.0537 -0.0911
46235W        W54835   6.869   1.847  23.143 -0.1816 -0.1306  0.0342
46236W        W54836  12.786   1.037  44.279  0.2126  0.5226 -0.0287
46237W        W54837  10.146   3.766  13.289 -0.0548 -0.2607 -0.1117
46238W        W54838  18.334   0.713  14.066 -0.2494 -0.0553  0.1316
46239W        W54839  13.306   4.480  15.435 -0.2100  0.2164 -0.0333
46240W        W54840  16.679   6.370  12.706  0.3382  0.0401 -0.2086
46241W        W54841  20.689   5.470  41.061 -0.0667  0.1338 -0.4136
46242W        W54842  20.440   1.339   0.710 -0.1881  0.0864  0.2548
46243W        W54843  18.677   5.750  21.493 -0.0761 -0.0770 -0.1919
46244W        W54844  12.912   4.169  13.994 -0.0585 -0.0414  0.2047
46245W        W54845  15.587   0.782  22.058 -0.2070  0.2593 -0.0564
46246W        W54846  14.707   1.748  13.575 -0.0249 -0.2611  0.3649
46247W        W54847  14.956   4.351  20.560 -0.1618  0.0596  0.0889
46248W        W54848   5.589   2.280  31.360 -0.0676  0.4387  0.0914
46249W        W54849  20.795   2.898  35.249 -0.0593 -0.3179  0.2608
46250W        W54850  17.650   4.355  36.881 -0.0970  0.1547  0.2642
46251W        W54851  16.732   2.003   3.738  0.1644 -0.1411  0.1620
46252W        W54852   3.662   1.088  42.311  0.2252  0.0470 -0.1069
46253W        W54853   1.588   2.747  15.909  0.1353  0.0862  0.2711
46254W        W54854  13.470   6.182   7.987 -0.1266 -0.0275 -0.1405
46255W        W54855   0.399   2.824   8.152  0.0709  0.0414  0.0476
46256W        W54856  20.014   1.469   5.432 -0.2107 -0.3174  0.3211
46257W        W54857   1.518   1.512   7.006  0.2788 -0.0040  0.1649
46258W        W54858  16.766   5.792   4.959  0.0266  0.1258  0.0860
46259W        W54859   7.565   5.548  22.745  0.1536 -0.2920  0.1553
46260W        W54860  12.895   6.348  34.335 -0.0789  0.2424  0.1945
46261W        W54861   2.791   4.153  14.955  0.1169 -0.2144 -0.0693
46262W        W54862   8.946   2.469   6.251  0.4088  0.0367  0.1388
46263W        W54863   7.596   6.113  34.766 -0.2997  0.1308  0.0889
46264W        W54864  18.351   4.852  16.159 -0.1863 -0.0431 -0.1283
46265W        W54865  12.439   3.550  42.967  0.1814 -0.1565 -0.0298
46266W        W54866   2.192   4.491  30.585 -0.0376 -0.0020  0.0831
46267W        W54867  19.808   0.333  10.467  0.1119 -0.0240 -0.0689
46268W        W54868   6.047   4.698  39.108  0.1836 -0.0346  0.0227
46269W        W54869  21.093   1.773  40.938  0.1258 -0.1572 -0.0902
46270W        W54870  20.137   6.571  12.256  0.3547  0.3294 -0.3202
46271W        W54871   5.631   5.169  33.926 -0.0264  0.1683  0.0429
46272W        W54872  13.471   2.239  36.221 -0.3882  0.1662  0.2334
46273W        W54873  19.064   3.852  12.804 -0.2817 -0.0443 -0.1919
46274W        W54874  14.907   2.831  16.169  0.1902 -0.1053 -0.1023
46275W        W54875  12.719   6.425  31.561  0.2446 -0.0691 -0.4510
46276W        W54876  20.829   2.329  44.701 -0.1768 -0.1878  0.1220
46277W        W54877  20.438   3.144  29.589 -0.4587  0.1571 -0.2633
46278W        W54878  19.962   4.038   4.874  0.0281 -0.3054  0.1493
46279W        W54879  19.529   4.230   1.453 -0.0758  0.0856  0.1259
46280W        W54880  15.608   2.241  33.479  0.0701  0.0146  0.0124
46281W        W54881   1.510   1.561  14.527 -0.1565  0.0857  0.1901
46282W        W54882   0.280   1.044  38.706 -0.0599  0.0844  0.1798
46283W        W54883  11.138   6.210  40.109  0.1665  0.0409  0.0403
46284W        W54884   1.609   5.773  35.540  0.0065  0.0371 -0.0115
46285W        W54885  18.675   4.732  23.062  0.2018  0.0685  0.0706
46286W        W54886  20.577   0.885  44.824  0.1679 -0.1066 -0.1154
46287W        W54887   8.691   1.161   7.837  0.1430  0.0007 -0.1552
46288W        W54888  18.350   0.892  18.062 -0.3147  0.3112  0.2193
46289W        W54889  15.676   5.141  33.230 -0.3887  0.0991 -0.2664
46290W        W54890  18.489   0.103   3.843 -0.0651  0.1278 -0.2114
46291W        W54891  17.314   5.977  21.859  0.1371 -0.1127  0.1966
46292W        W54892  19.434   1.192   9.624  0.0314  0.4392  0.0535
46293W        W54893   6.923   2.010  41.687  0.0921 -0.0127 -0.1099
46294W        W54894   4.388   0.296  33.408 -0.1267  0.3134  0.2648
46295W        W54895  20.637   1.776  28.858 -0.0658  0.1406  0.1022
46296W        W54896   3.646   0.799   1.349  0.2732  0.1533 -0.0549
46297W        W54897   4.098   0.312   9.796 -0.0355 -0.0367 -0.2299
46298W        W54898  20.103   0.772  38.907  0.2194  0.0160 -0.1596
46299W        W54899  13.176   3.412  13.100  0.1878  0.0274  0.0075
46300W        W54900   2.715   0.046   2.015 -0.1783 -0.1355  0.1813
46301W        W54901   5.838   3.594   3.886 -0.0585  0.4227  0.1187
46302W        W54902   7.958   2.836   0.829  0.1466 -0.0764 -0.1329
46303W        W54903   6.728   4.846   6.804  0.1371 -0.2548 -0.0900
46304W        W54904   1.808   6.591  10.856 -0.0483 -0.0911 -0.0616
46305W        W54905  14.269   1.546  11.637 -0.1117  0.1583 -0.2182
46306W        W54906  21.126   1.410  37.852  0.2054  0.1649 -0.0075
46307W        W54907   3.398   1.041  40.037 -0.2543 -0.0140  0.0911
46308W        W54908  17.028   6.216  13.770 -0.1846 -0.0410 -0.2213
46309W        W54909  18.564   2.405  42.475  0.1088 -0.0336  0.0230
46310W        W54910  15.175   5.012   5.236  0.1333 -0.0376  0.0595
46311W        W54911  13.407   1.137  30.835 -0.0140 -0.0741  0.3805
46312W        W54912  18.838   3.397  33.442 -0.0967  0.0282 -0.3114
46313W        W54913   9.912   6.274  25.935 -0.2393 -0.1452  0.0582
46314W        W54914  18.502   2.992  33.306  0.1049 -0.3461 -0.0755
46315W        W54915   8.702   5.573   0.431 -0.0964  0.2144  0.0211
46316W        W54916  17.864   6.514   8.987 -0.2289 -0.0792 -0.1283
46317W        W54917  11.194   6.202   6.918 -0.0513  0.0596  0.1545
46318W        W54918   0.887   0.051  13.557  0.1810 -0.1021 -0.0809
46319W        W54919   2.494   2.959   1.473  0.0508  0.0279 -0.0283
46320W        W54920  17.599   2.192  39.894  0.2448  0.2085  0.1288
46321W        W54921  17.873   5.547  29.350 -0.1273  0.1958 -0.1005
46322W        W54922   2.751   4.198  24.471  0.0611 -0.1433 -0.1264
46323W        W54923  11.093   2.728  32.038  0.1429 -0.3740 -0.2987
46324W        W54924  13.294   0.079  43.305 -0.0793  0.1664 -0.0352
46325W        W54925   3.272   0.588  38.647 -0.1984  0.1629 -0.0663
46326W        W54926   4.051   0.898  13.392 -0.1581 -0.4213  0.2459
46327W        W54927   6.590   6.286  36.841  0.0062 -0.0118  0.1422
46328W        W54928  13.686   1.299  45.088  0.0587  0.1601 -0.1423
46329W        W54929   2.572   5.527  24.783 -0.1135 -0.0206  0.0010
46330W        W54930   5.612   3.447  36.366  0.1370  0.1261  0.1292
46331W        W54931   3.470   0.872  10.717 -0.0208  0.1325  0.0601
46332W        W54932   4.676   3.968  37.655  0.2298  0.0015 -0.1737
46333W        W54933  17.877   6.051  42.029  0.0641 -0.0607  0.1828
46334W        W54934  19.729   1.246  42.308  0.1463  0.0773 -0.0017
46335W        W54935  19.596   6.158  13.577 -0.0862  0.1585  0.1679
46336W        W54936  21.012   4.168   9.463 -0.1718 -0.2066  0.0387
46337W        W54937   8.086   2.800  27.863  0.0515 -0.4496  0.1842
46338W        W54938   4.817   0.572  26.585  0.0278  0.1341  0.1200
46339W        W54939  13.558   1.982  40.964  0.1760  0.2785 -0.1360
46340W        W54940   5.512   6.358  21.164  0.1714  0.2021 -0.2985
46341W        W54941  10.425   2.083  30.689 -0.0267 -0.1297  0.2349
46342W        W54942   5.121   6.105  22.161  0.0673 -0.1742  0.0393
46343W        W54943   9.921   2.727  39.390  0.0755  0.0480 -0.2802
46344W        W54944  11.944   1.322  42.016 -0.0003  0.0849 -0.1650
46345W        W54945  19.945   0.781  31.072  0.0552 -0.0193 -0.0218
46346W        W54946  10.150   3.008  33.164  0.3116 -0.0188  0.0552
46347W        W54947  17.604   4.486  16.685 -0.2614  0.2462 -0.1346
46348W        W54948   6.206   4.151  30.892  0.3255 -0.3095 -0.0471
46349W        W54949  16.259   6.419  20.077  0.0529 -0.0617 -0.2527
46350W        W54950   4.202   2.920  12.497 -0.0223 -0.1523  0.1472
46351W        W54951   5.229   3.809  42.977 -0.3750 -0.0728  0.4170
46352W        W54952   2.791   1.403  43.668  0.2131 -0.1778 -0.0440
46353W        W54953  17.783   6.189  37.286  0.2265  0.1823 -0.1000
46354W        W54954  13.307   1.546   8.914 -0.1639 -0.0314 -0.0216
46355W        W54955   7.325   0.289  44.989 -0.1000 -0.0673 -0.0713
46356W        W54956  14.877   5.767  38.013  0.0590 -0.0617 -0.0918
46357W        W54957  18.988   4.147  32.344 -0.0273  0.0104  0.0976
46358W        W54958   5.944   0.213   0.087  0.1383  0.1630  0.2871
46359W        W54959  11.427   4.555  40.386  0.2689  0.0265 -0.0265
46360W        W54960  13.805   4.949  19.247  0.0661  0.3104 -0.1604
46361W        W54961   1.312   1.413  29.862 -0.1753 -0.1745  0.0290
46362W        W54962   3.220   4.999  42.806  0.0365  0.2517 -0.1242
46363W        W54963   7.063   2.951  39.281 -0.0982  0.1692  0.0400
46364W        W54964  18.335   3.473  32.429 -0.0905 -0.0736 -0.0064
46365W        W54965  15.036   4.031   9.366 -0.4011  0.0915 -0.1505
46366W        W54966   5.192   1.757   4.328 -0.0365 -0.2303  0.0964
46367W        W54967   6.165   6.132  13.346  0.0196 -0.3868  0.0667
46368W        W54968  18.908   2.244  10.961 -0.3839  0.1077 -0.0865
46369W        W54969  14.081   5.468  38.969  0.1961 -0.0182  0.1178
46370W        W54970   5.147   5.019  22.572  0.1838  0.4103  0.0080
46371W        W54971  15.309   3.876  36.971 -0.2842 -0.1779  0.0300
46372W        W54972  13.703   2.397  38.909 -0.0346 -0.1547 -0.2475
46373W        W54973   5.082   1.754   2.905  0.0934  0.1536 -0.1112
46374W        W54974   2.242   0.895  15.978  0.0193  0.0869  0.0106
46375W        W54975   4.851   0.619  15.014  0.1512  0.2560  0.3463
46376W        W54976  13.572   3.046  17.074 -0.3923  0.4133 -0.0501
46377W        W54977  10.466   3.050  10.069 -0.1987  0.1116  0.1048
46378W        W54978   5.270   5.755  12.889  0.2365  0.0836  0.1733
46379W        W54979  12.158   3.062  41.690  0.0727  0.1467 -0.2275
46380W        W54980  12.669   0.687  14.918  0.1949  0.1117 -0.0209
46381W        W54981   8.054   2.319  42.190  0.0979 -0.0845 -0.0907
46382W        W54982  10.851   4.789  30.302  0.2930 -0.2865 -0.0833
46383W        W54983  13.258   0.102  10.971  0.0442 -0.0552 -0.1772
46384W        W54984  13.566   2.182  44.147  0.0622 -0.1145  0.1432
46385W        W54985  11.384   3.802  33.100 -0.0412 -0.1436 -0.1038
46386W        W54986   7.635   1.737  27.423  0.1438  0.0980  0.2082
46387W        W54987   5.439   6.370   4.916  0.0499 -0.3245  0.1330
46388W        W54988  10.653   4.580   6.135  0.1653 -0.0962 -0.0476
46389W        W54989  17.862   5.634  23.708  0.1071 -0.1056  0.0659
46390W        W54990  10.893   6.140   6.464 -0.1458 -0.2022 -0.1424
46391W        W54991   5.302   0.193   1.916 -0.1435 -0.2170 -0.0821
46392W        W54992   1.622   4.507  31.229  0.0554  0.2775 -0.0944
46393W        W54993   7.794   0.358   4.066 -0.0555  0.1289  0.1389
46394W        W54994  18.996   5.918  41.850  0.2558 -0.1631 -0.1247
46395W        W54995  13.042   2.868  28.719  0.2327  0.4000  0.0101
46396W        W54996  15.849   4.732   7.256 -0.1836 -0.4439 -0.1573
46397W        W54997   4.764   5.490   1.336 -0.1796 -0.2939 -0.0437
46398W        W54998   1.305   3.893   0.378 -0.0543 -0.2651  0.0217
46399W        W54999  19.726   0.718  14.157 -0.3036 -0.0984 -0.1585
46400W        W55000   5.107   4.017  28.968 -0.0316 -0.2286  0.0037
46401W        W55001  15.989   0.630  28.861 -0.0033  0.0524 -0.1276
46402W        W55002   9.638   4.135  30.697  0.2103  0.0247 -0.3135
46403W        W55003  10.801   3.469   8.379 -0.1196  0.0149 -0.1070
46404W        W55004  11.488   0.033  13.185  0.0643  0.1851  0.1059
46405W        W55005   4.075   1.926  27.890 -0.1565  0.0825  0.0329
46406W        W55006   9.897   3.267  34.818 -0.0256  0.1631  0.0584
46407W        W55007   3.671   3.647  33.120  0.0171  0.0160 -0.1202
46408W        W55008  20.964   6.529  36.798  0.0261 -0.2776  0.0598
46409W        W55009  11.064   6.190  32.733 -0.0167  0.0213  0.0140
46410W        W55010  12.390   3.909  37.513  0.2650 -0.2541 -0.1724
46411W        W55011   1.487   4.872  36.035 -0.0935  0.0867  0.2407
46412W        W55012   2.450   3.657  29.680 -0.3839 -0.2390 -0.3408
46413W        W55013   6.629   1.477  15.299 -0.1325  0.1604  0.1067
46414W        W55014   9.731   4.521  12.235  0.1244  0.1729  0.3105
46415W        W55015   9.197   1.076   2.118  0.0537  0.0321 -0.1391
46416W        W55016  15.721   3.921  10.047  0.2613  0.0380 -0.2054
46417W        W55017   7.485   3.836  11.774 -0.1632  0.0887  0.2594
46418W        W55018  12.939   0.339  30.602 -0.2608 -0.0951 -0.5820
46419W        W55019   3.930   1.549  23.923 -0.1652  0.0952 -0.2663
46420W        W55020   8.437   4.634   6.448  0.0481  0.2022  0.1969
46421W        W55021  11.200   0.431   4.119  0.2527 -0.0444  0.0895
46422W        W55022  16.487   2.227   1.821 -0.0798  0.0236  0.0244
46423W        W55023  10.658   5.332  29.677 -0.0982 -0.2124  0.1807
46424W        W55024  11.009   2.152  12.577 -0.2254  0.4259 -0.0671
46425W        W55025   5.004   6.233  33.845  0.1605  0.0346 -0.0408
46426W        W55026  16.671   1.892  37.575  0.0947  0.1264 -0.1240
46427W        W55027   3.546   2.456  27.410  0.2006  0.1263  0.0630
46428W        W55028  20.927   1.787   7.626  0.0654  0.2300  0.0041
46429W        W55029   2.301   1.504  27.915 -0.0649 -0.3811  0.0930
46430W        W55030  14.046   1.827  39.600 -0.0499 -0.0415  0.0733
46431W        W55031   3.394   6.319  27.596 -0.2543 -0.2161  0.0753
46432W        W55032  17.534   0.269   8.717 -0.1633  0.3636  0.3485
46433W        W55033  17.837   4.637  11.032 -0.0156 -0.0784 -0.0396
46434W        W55034   9.700   5.610   5.385  0.3350  0.2610  0.1590
46435W        W55035  12.001   2.912   4.694 -0.0980 -0.0525 -0.0612
46436W        W55036   8.259   1.374  17.329 -0.0900 -0.4802  0.4025
46437W        W55037   2.452   2.361   1.605 -0.0247 -0.2374  0.0841
46438W        W55038  15.831   3.135   1.812 -0.2903 -0.2138 -0.2107
46439W        W55039   7.326   1.955  33.916 -0.0673  0.1260  0.2263
46440W        W55040   9.614   2.428  41.667 -0.0028 -0.2442 -0.1432
46441W        W55041   4.387   1.478   3.587  0.0305  0.0061  0.1704
46442W        W55042  20.485   4.828  34.482 -0.0753  0.2154  0.1109
46443W        W55043  17.902   0.938   5.947  0.1954 -0.1558 -0.3046
46444W        W55044   0.851   1.770  28.570 -0.3449  0.0175  0.1672
46445W        W55045   2.150   0.824   0.616  0.0455 -0.1550  0.1815
46446W        W55046  21.114   5.892   4.977  0.1318  0.1229 -0.0804
46447W        W55047  10.567   2.613   4.438  0.1746 -0.1575 -0.1683
46448W        W55048   8.941   4.651  43.629 -0.1040 -0.0454  0.1486
46449W        W55049  15.833   4.777   4.577  0.0667  0.1506 -0.0226
46450W        W55050  17.265   1.869  15.883 -0.1525 -0.4419 -0.1193
46451W        W55051   4.160   0.358  25.128 -0.0387  0.2849 -0.2470
46452W        W55052   0.998   5.458  10.476 -0.0785 -0.0629  0.0739
46453W        W55053   7.397   0.804  24.517  0.0715 -0.1585  0.1885
46454W        W55054  18.816   0.560  42.053 -0.1030 -0.1941 -0.0566
46455W        W55055   6.642   1.352  31.928 -0.1263 -0.0465 -0.1509
46456W        W55056  13.750   3.784  20.130  0.3245 -0.1707 -0.1853
46457W        W55057   2.825   2.178  44.375  0.0819  0.2969  0.0372
46458W        W55058   4.873   0.926  30.622  0.2128 -0.1446  0.1971
46459W        W55059   7.958   3.856  40.225  0.1499 -0.1888 -0.2343
46460W        W55060  20.895   5.794   3.299 -0.0334 -0.1635 -0.1898
46461W        W55061  16.767   4.802  40.149 -0.1259 -0.2156 -0.0901
46462W        W55062   5.186   5.333   8.760  0.1023  0.0224 -0.5697
46463W        W55063  17.411   6.231  29.072  0.2421  0.0817 -0.0698
46464W        W55064   1.945   3.559  24.554 -0.2174 -0.0442  0.1657
46465W        W55065  15.515   5.676   2.181 -0.1619 -0.2079  0.0295
46466W        W55066  13.061   1.517  42.516  0.0539 -0.0308 -0.2068
46467W        W55067  19.780   5.165  34.869  0.4207  0.0131 -0.0748
46468W        W55068  16.800   2.348  23.152  0.0584  0.0653  0.0187
46469W        W55069   1.955   4.605  32.896  0.2124 -0.2654  0.1426
46470W        W55070  13.885   4.495   0.340  0.1627 -0.1101  0.0689
46471W        W55071   5.326   1.076   8.772 -0.1522  0.1632  0.2223
46472W        W55072  16.376   3.962  20.869 -0.3413  0.0477  0.0802
46473W        W55073  18.372   0.934  30.985  0.0049 -0.3224 -0.0746
46474W        W55074  12.835   4.502  12.903  0.0805  0.1046  0.0834
46475W        W55075  17.455   2.703  40.939 -0.0718  0.0136  0.1731
46476W        W55076  15.670   4.239  10.426  0.2470  0.0767  0.1121
46477W        W55077   1.541   0.628  44.875  0.1163 -0.1485 -0.2632
46478W        W55078   6.112   2.193  37.561 -0.0074  0.1516  0.0191
46479W        W55079  17.022   5.346  42.845 -0.0715  0.1087  0.1684
46480W        W55080  12.484   0.594  34.987  0.0683  0.0162  0.0201
46481W        W55081  16.310   1.394  40.873 -0.2273 -0.2534  0.0653
46482W        W55082  14.432   2.475  32.931  0.0547 -0.0193  0.1205
46483W        W55083   7.162   0.242   0.601 -0.1440  0.1038  0.1891
46484W        W55084  20.485   0.005  28.682  0.0800  0.1223  0.2792
46485W        W55085  17.456   6.445  33.600 -0.1729  0.3017  0.0195
46486W        W55086  12.921   1.303  10.145  0.2260  0.1521 -0.3688
46487W        W55087  18.424   5.688  30.471 -0.2627 -0.3557 -0.2728
46488W        W55088   7.182   5.262  23.491  0.0209  0.1070 -0.0605
46489W        W55089  20.377   3.388  37.816 -0.3433  0.1290 -0.0208
46490W        W55090   8.172   4.049  40.628  0.1506 -0.2148 -0.1229
46491W        W55091  15.081   3.687  13.210 -0.1308  0.0770 -0.2595
46492W        W55092  17.111   5.655  13.901  0.1093  0.2857 -0.0935
46493W        W55093   9.024   0.139   0.613 -0.1053  0.1051  0.0836
46494W        W55094  13.026   2.214  11.944 -0.1282  0.0351  0.0962
46495W        W55095  20.090   3.416  21.230 -0.0695  0.1887 -0.3718
46496W        W55096   7.074   4.141  13.006  0.4684  0.0219  0.0573
46497W        W55097   7.443   3.435  36.821  0.0510  0.0525  0.6670
46498W        W55098   5.397   4.697  23.285 -0.4459 -0.1114 -0.2396
46499W        W55099   6.399   5.894  35.450  0.0432 -0.1349  0.1509
46500W        W55100   5.085   1.389  35.976 -0.2313  0.1868  0.0505
46501W        W55101   7.543   5.070  13.117  0.0148  0.2726  0.1869
46502W        W55102   8.382   2.261  27.764  0.1080 -0.0652  0.1636
46503W        W55103   5.374   4.038  37.770  0.1257 -0.0340 -0.2364
46504W        W55104  13.415   6.196   6.424 -0.2385 -0.0431  0.3131
46505W        W55105   0.509   0.949   3.653  0.2755  0.3117  0.0778
46506W        W55106  13.636   1.257  34.803  0.0797  0.1797  0.1623
46507W        W55107   6.885   2.445  19.709  0.1274  0.0930  0.1802
46508W        W55108  16.083   4.421  45.124 -0.1232 -0.0870 -0.2842
46509W        W55109   2.030   6.548   1.060 -0.2091  0.0332  0.0667
46510W        W55110  10.531   3.614  17.527 -0.1929 -0.0433  0.0345
46511W        W55111  19.833   4.479  17.150 -0.1863  0.2409 -0.0120
46512W        W55112   5.220   2.777  10.198  0.0858 -0.2739  0.0192
46513W        W55113   2.102   6.066  36.937  0.1397 -0.0553  0.1360
46514W        W55114   0.087   1.766   0.830 -0.0436 -0.1289  0.5039
46515W        W55115   2.043   1.946  24.865 -0.1869  0.1146 -0.0820
46516W        W55116   6.963   0.923  41.841 -0.0017 -0.0593  0.2043
46517W        W55117  18.537   3.751  29.560  0.0346  0.2906 -0.0196
46518W        W55118  18.294   0.800  40.966  0.2200  0.0929  0.1462
46519W        W55119  20.034   4.422   1.241  0.1539  0.0848  0.0428
46520W        W55120  21.000   1.185  32.044  0.1733 -0.0308  0.0943
46521W        W55121  15.348   2.928  42.088  0.0003  0.1081  0.0411
46522W        W55122  14.856   4.764  38.739  0.0683 -0.0174  0.2495
46523W        W55123  20.424   3.205  30.442  0.1280  0.0207  0.3700
46524W        W55124  20.983   3.156  18.547  0.0447 -0.0415  0.0004
46525W        W55125   7.374   0.677  32.769 -0.0969  0.1078 -0.1152
46526W        W55126   0.844   5.136  33.450  0.0060 -0.1272 -0.1705
46527W        W55127   9.622   4.124  33.727 -0.0119  0.1433 -0.0149
46528W        W55128   5.344   5.081  10.822 -0.0075 -0.2429  0.1295
46529W        W55129  16.901   4.757   2.313  0.1881  0.0817  0.1571
46530W        W55130  13.957   6.099   8.191  0.1960  0.0570  0.0573
46531W        W55131   1.947   4.632  31.640  0.3715  0.0236  0.1857
46532W        W55132  11.699   4.788   6.344 -0.1328 -0.2219  0.1694
46533W        W55133  15.818   6.114   2.073  0.0592  0.0538 -0.1164
46534W        W55134   0.247   5.430  13.617 -0.1580  0.0490  0.0075
46535W        W55135  20.393   5.974   3.171 -0.2118 -0.2447  0.2829
46536W        W55136   8.233   5.384  34.667 -0.0876  0.0465  0.1376
46537W        W55137   1.050   0.307   0.902  0.2474  0.1977  0.0309
46538W        W55138   1.942   5.557   4.465 -0.1865  0.1091  0.0331
46539W        W55139  17.528   4.641  11.427  0.3052  0.0572 -0.3289
46540W        W55140  16.662   3.178   5.996  0.1300  0.1131 -0.2084
46541W        W55141  10.679   0.512  31.606 -0.2014 -0.0031  0.1114
46542W        W55142   6.464   4.186   5.915  0.1250  0.1022  0.0272
46543W        W55143  13.839   1.281   6.364 -0.2552  0.0786  0.0444
46544W        W55144  20.031   6.069  28.728 -0.2740  0.1141 -0.1181
46545W        W55145  11.801   1.516   7.745 -0.1265 -0.2325  0.0278
46546W        W55146  15.639   1.685  14.033  0.1125  0.1073 -0.0925
46547W        W55147   5.741   1.858  42.867 -0.2768 -0.1461 -0.2998
46548W        W55148  17.556   0.525  43.584 -0.0211 -0.2544 -0.1506
46549W        W55149  17.347   1.560  21.752 -0.2426 -0.1159 -0.1047
46550W        W55150   0.606   0.339  40.187 -0.1041 -0.2451  0.0443
46551W        W55151  19.361   2.342  32.086 -0.1640  0.0207 -0.0669
46552W        W55152   2.782   3.935  29.874 -0.1094 -0.0734 -0.1982
46553W        W55153  17.323   5.775   7.084  0.3414  0.0172  0.0378
46554W        W55154  13.382   4.323  16.038  0.0867  0.0961 -0.0460
46555W        W55155  11.549   1.492  41.052  0.4740 -0.4480 -0.0093
46556W        W55156   9.366   5.843  37.611 -0.2797  0.0712 -0.2008
46557W        W55157  11.002   4.288   6.004  0.0493  0.0575  0.1651
46558W        W55158  20.089   6.118  16.321  0.0641 -0.2470 -0.0848
46559W        W55159  16.362   0.985  41.251 -0.0000  0.0180 -0.0705
46560W        W55160   6.006   3.923  31.365  0.2349 -0.1137 -0.3314
46561W        W55161  13.951   2.175  39.259  0.0151  0.1837  0.0792
46562W        W55162   3.754   5.378   9.291  0.0522  0.1517 -0.0618
46563W        W55163   4.360   5.737  37.722 -0.2539  0.1421 -0.3489
46564W        W55164  13.991   4.689   9.760 -0.5829  0.1363 -0.1002
46565W        W55165   4.464   1.280  34.610 -0.2087  0.0068  0.1537
46566W        W55166  14.560   6.603   3.079  0.0178 -0.0213 -0.2332
46567W        W55167   2.449   0.783  36.122 -0.0608 -0.0091 -0.3288
46568W        W55168  14.442   4.254   5.878  0.1877 -0.2152 -0.3948
46569W        W55169   7.662   3.109  40.564  0.0464  0.1253 -0.0117
46570W        W55170  19.263   3.067   8.123 -0.1358 -0.3626 -0.0240
46571W        W55171  16.103   0.732   5.208 -0.0126  0.1402  0.0820
46572W        W55172  11.787   0.500   3.010 -0.3120 -0.1433  0.2308
46573W        W55173  13.953   0.449  44.546  0.0158  0.2086  0.0658
46574W        W55174   3.969   5.033  35.492  0.1820 -0.0962  0.1977
46575W        W55175   9.371   0.402   7.827  0.0574  0.1399  0.2085
46576W        W55176  19.603   0.936  20.008  0.0851 -0.1447 -0.2936
46577W        W55177  15.325   5.109  17.975 -0.1528  0.5302  0.0328
46578W        W55178  17.531   2.993  39.080  0.1043  0.0553  0.0063
46579W        W55179   8.961   3.154   0.166  0.1553 -0.0399 -0.0407
46580W        W55180  11.912   4.915   7.156 -0.2479  0.1308  0.3565
46581W        W55181  12.696   0.993  36.709 -0.0887 -0.0566 -0.0177
46582W        W55182  15.967   3.887   4.053  0.1215 -0.0792  0.0261
46583W        W55183   7.975   2.644   3.157 -0.3161 -0.0812 -0.1145
46584W        W55184  10.392   2.257   2.830  0.0486  0.0022  0.0157
46585W        W55185  18.691   0.379  21.758 -0.0556 -0.1873  0.0364
46586W        W55186   1.993   1.430   1.923  0.4734  0.1324 -0.0407
46587W        W55187   3.662   6.368  36.831 -0.3315  0.2262  0.1508
46588W        W55188   4.640   4.620  26.170 -0.0347  0.0619  0.0656
46589W        W55189   6.225   3.729  41.627 -0.3762  0.2123 -0.3515
46590W        W55190  20.050   6.068  34.521  0.0190  0.0344  0.2207
46591W        W55191  18.578   3.454  14.071 -0.1411 -0.2392  0.1378
46592W        W55192   9.891   2.888  31.399  0.0655  0.2323  0.1332
46593W        W55193  14.571   4.437  43.850  0.2894  0.1481  0.0863
46594W        W55194  13.529   3.363  34.880 -0.0764  0.0114  0.4666
46595W        W55195   4.026   3.784  42.524  0.2529  0.2361 -0.1569
46596W        W55196  19.410   4.984  16.228 -0.1149  0.0805 -0.0988
46597W        W55197  19.618   1.776  44.520  0.1435  0.1478  0.1725
46598W        W55198  18.944   6.537  34.641 -0.0121 -0.0193  0.0238
46599W        W55199  12.245   1.219   0.621  0.1516 -0.1690  0.2382
46600W        W55200   9.760   5.132  38.673  0.1264 -0.1085  0.2221
46601W        W55201  12.375   2.417  12.294 -0.0173 -0.1554 -0.0571
46602W        W55202  10.905   4.710  36.749  0.1348  0.1617 -0.1483
46603W        W55203   1.479   1.648  17.010 -0.1507  0.0135 -0.2517
46604W        W55204  11.581   6.179  40.668 -0.1619  0.0784  0.0610
46605W        W55205   1.255   5.507  34.212 -0.3779  0.0612  0.0560
46606W        W55206  17.375   4.095  20.047  0.0132  0.0957 -0.2085
46607W        W55207  20.080   6.310   2.364 -0.0016 -0.0436  0.0906
46608W        W55208  19.162   5.938  13.444  0.0123 -0.2410  0.2753
46609W        W55209   0.166   2.760  15.927 -0.1654  0.2748  0.0208
46610W        W55210  13.448   0.296  13.272  0.1551  0.1300  0.1386
46611W        W55211   6.016   2.022  19.572 -0.0178  0.2979  0.1337
46612W        W55212  18.544   4.991  33.509 -0.0401  0.0032  0.1250
46613W        W55213  21.120   3.958  11.889  0.1233  0.2296  0.0994
46614W        W55214   5.354   2.489  15.749 -0.0667 -0.2158 -0.0733
46615W        W55215   9.965   5.438  27.502  0.4011 -0.0829  0.0824
46616W        W55216   4.018   2.159  28.771 -0.0112  0.0976 -0.1124
46617W        W55217   4.999   6.012  24.366  0.1788 -0.0771  0.1340
46618W        W55218   8.664   2.266   0.991  0.1359 -0.1398 -0.0189
46619W        W55219   1.214   3.198  16.790 -0.2012 -0.2140  0.0425
46620W        W55220  17.797   1.961  35.303  0.0840 -0.0874  0.0264
46621W        W55221   9.928   1.319   7.821  0.1405  0.2607 -0.5079
46622W        W55222   5.483   0.254  25.773  0.1493  0.2682 -0.0405
46623W        W55223  20.965   1.339   4.360  0.1048  0.0947 -0.2237
46624W        W55224  18.235   2.840   4.285 -0.3804  0.2453 -0.2423
46625W        W55225   1.888   5.162  32.715 -0.1463  0.3205 -0.1146
46626W        W55226   3.015   3.363  10.087 -0.0476 -0.4740 -0.0819
46627W        W55227  13.085   6.123  38.423  0.3574  0.2307 -0.1951
46628W        W55228   4.282   1.315  14.486  0.0609  0.0315 -0.2179
46629W        W55229   4.070   1.858  11.609  0.0298 -0.0871 -0.0351
46630W        W55230  15.372   1.582   2.107 -0.2413 -0.2073  0.0588
46631W        W55231  18.342   5.398  21.313  0.2449 -0.1510  0.0876
46632W        W55232   7.595   2.577  27.750  0.1135  0.3450 -0.0387
46633W        W55233   1.422   4.029  41.500  0.1833 -0.1133 -0.1613
46634W        W55234  19.568   3.744  29.433  0.0153  0.3161 -0.1278
46635W        W55235   0.988   0.189  13.110  0.0694 -0.0776 -0.3190
46636W        W55236  21.053   4.441  34.248  0.0115 -0.3158 -0.0056
46637W        W55237   2.256   6.409  40.511 -0.0598  0.0530  0.3404
46638W        W55238   3.384   2.093  30.638  0.3893 -0.0571 -0.4075
46639W        W55239   4.722   3.114  30.643  0.0616 -0.0150 -0.1822
46640W        W55240  15.581   0.403  36.938  0.4584  0.0382  0.2057
46641W        W55241   7.063   6.041  22.299 -0.0853  0.0199  0.2790
46642W        W55242  11.311   2.793  44.189 -0.0789  0.1700 -0.2493
46643W        W55243  10.269   2.975  44.195  0.7309 -0.0607 -0.0372
46644W        W55244   3.521   0.867  37.629 -0.0196  0.0395 -0.1097
46645W        W55245  16.236   4.535  33.132 -0.1060  0.0419  0.0909
46646W        W55246   8.854   4.327   1.064  0.0326  0.1099  0.1274
46647W        W55247  16.556   4.549  21.586  0.3230  0.2189  0.4258
46648W        W55248  20.999   0.605  40.478 -0.0891 -0.2812 -0.1339
46649W        W55249   0.532   1.961  10.139 -0.0764 -0.1655  0.1334
46650W        W55250  11.230   5.362  12.031  0.0283 -0.1088  0.0564
46651W        W55251   7.574   0.969  25.756 -0.3112 -0.1788  0.2996
46652W        W55252   4.024   4.488   6.556  0.0876 -0.0159 -0.0527
46653W        W55253  13.841   2.399  10.260  0.0038  0.1242 -0.1553
46654W        W55254  18.518   6.082   7.733 -0.0534 -0.1958 -0.0209
46655W        W55255  13.737   0.351  22.509  0.1612 -0.1706 -0.0615
46656W        W55256  17.455   5.681  42.784  0.3170  0.1528  0.0575
46657W        W55257   3.572   4.772   2.146  0.2221 -0.1896  0.2857
46658W        W55258  11.232   5.406  31.477 -0.0066 -0.1316 -0.0777
46659W        W55259   1.573   4.712  13.454 -0.0617 -0.1089 -0.0101
46660W        W55260   8.837   4.838   1.077 -0.1693 -0.0912  0.0880
46661W        W55261  10.168   4.904   5.666  0.1602  0.2807  0.2129
46662W        W55262  18.424   4.537  17.810  0.1593  0.2636  0.2449
46663W        W55263  18.876   3.392   8.885 -0.3056 -0.2134 -0.0350
46664W        W55264   8.916   4.369   6.616  0.3477  0.1836 -0.1375
46665W        W55265   6.493   4.844   2.546  0.0627  0.1182  0.1253
46666W        W55266   0.124   0.271  30.020  0.2986 -0.3177  0.1227
46667W        W55267  10.904   4.997  31.430  0.0699 -0.4336  0.1640
46668W        W55268   3.093   3.325  13.419  0.2484 -0.0892  0.0399
46669W        W55269   4.012   0.632   4.733  0.0011 -0.0591  0.1631
46670W        W55270  15.246   5.301  20.732 -0.0221 -0.0327 -0.1373
46671W        W55271   6.406   3.967  12.042 -0.3258 -0.1360 -0.0820
46672W        W55272   9.318   1.463   5.347 -0.1690  0.0875 -0.1963
46673W        W55273   0.132   2.392  34.542 -0.0028  0.0371 -0.1878
46674W        W55274  17.130   4.170   9.115  0.1562 -0.0623 -0.2857
46675W        W55275  17.306   2.710  14.414 -0.0420  0.1249 -0.1823
46676W        W55276  15.493   4.738   6.401 -0.5664  0.2515 -0.2422
46677W        W55277  20.392   2.381   3.660  0.0836  0.1319 -0.0408
46678W        W55278  11.948   2.545   7.002 -0.1849 -0.1328 -0.0956
46679W        W55279  16.858   4.925  30.979  0.0823  0.1073  0.0715
46680W        W55280  13.078   1.897   4.010  0.0201 -0.1399  0.2083
46681W        W55281  16.550   3.227  31.225  0.1306  0.0847 -0.1975
46682W        W55282  12.982   3.421  35.640  0.0073 -0.1801 -0.2971
46683W        W55283  19.605   3.463  35.047 -0.1457 -0.1074 -0.2515
46684W        W55284  13.779   2.224  18.695 -0.0059 -0.1389 -0.2097
46685W        W55285   3.930   0.065  11.024 -0.0477 -0.2449  0.1733
46686W        W55286   6.915   5.642  15.586  0.0047  0.1817  0.1612
46687W        W55287   1.037   2.309  36.954 -0.1418  0.4927  0.0175
46688W        W55288   2.701   2.211   7.895 -0.0593 -0.2689  0.2324
46689W        W55289   9.278   4.366  38.235  0.0850 -0.1347 -0.2930
46690W        W55290  10.662   4.116  14.361  0.0153 -0.3506 -0.3746
46691W        W55291   7.521   3.356  13.084  0.1382 -0.1289 -0.2436
46692W        W55292  13.979   5.600  22.705 -0.1031  0.1315 -0.0882
46693W        W55293   2.243   1.990  41.430 -0.1422  0.0680 -0.1071
46694W        W55294   9.352   2.434   4.998 -0.0388  0.1574  0.2491
46695W        W55295  14.292   5.202   5.878  0.1182  0.3807 -0.1337
46696W        W55296  10.718   5.194  37.917 -0.0874  0.1091  0.1846
46697W        W55297   3.223   3.529  30.702  0.0686 -0.0863 -0.0454
46698W        W55298  10.754   6.425  42.989 -0.1590 -0.0667 -0.3361
46699W        W55299  19.476   2.111  44.165  0.0094 -0.3853 -0.0264
46700W        W55300   1.543   3.333  33.759  0.3264  0.1723 -0.1302
46701W        W55301  16.857   3.043  13.030  0.2429 -0.0192  0.2055
46702W        W55302  12.410   3.388   8.738  0.1479 -0.2175 -0.1118
46703W        W55303   3.521   4.467  43.629 -0.2214 -0.0122  0.1395
46704W        W55304   4.629   3.382  36.356 -0.3004  0.0560  0.0573
46705W        W55305  10.402   0.165  13.847  0.2274 -0.3358  0.0044
46706W        W55306  17.307   2.758  12.156  0.2997  0.1190 -0.0570
46707W        W55307   1.656   0.312  32.804 -0.0986 -0.1443 -0.0365
46708W        W55308   2.754   3.252  10.511  0.0951 -0.1235  0.1382
46709W        W55309   5.557   6.252  42.141 -0.3722  0.0689 -0.0244
46710W        W55310  16.045   3.539  32.054  0.2434 -0.1537  0.0569
46711W        W55311   4.709   4.291  33.285 -0.1757  0.1893 -0.3498
46712W        W55312   7.116   1.124   3.853  0.0632  0.0432 -0.1067
46713W        W55313  10.414   3.567   2.408  0.2505 -0.0255  0.4353
46714W        W55314   0.460   1.382   7.289  0.4616  0.0038  0.0069
46715W        W55315  12.136   3.446  38.134  0.1262 -0.0924 -0.1102
46716W        W55316   5.792   5.168  36.508 -0.0629 -0.0598 -0.1187
46717W        W55317  14.634   2.555  31.950  0.1173 -0.0925 -0.2913
46718W        W55318   0.543   2.322  32.611  0.0524  0.1070 -0.2657
46719W        W55319  17.936   5.273  41.326  0.2521  0.1244 -0.1194
46720W        W55320  11.797   4.744  36.008  0.1344 -0.1676  0.0952
46721W        W55321  10.245   0.323  41.117  0.0483 -0.3262 -0.2538
46722W        W55322   8.650   2.732  38.288  0.0036  0.3154 -0.2422
46723W        W55323  18.088   6.123  32.366 -0.0226  0.0346 -0.1055
46724W        W55324   2.905   0.656   7.711 -0.2108 -0.0192  0.3881
46725W        W55325  16.664   1.741  41.432  0.1538 -0.3435  0.1985
46726W        W55326  10.468   1.599  38.275  0.0091 -0.0531 -0.4256
46727W        W55327  14.091   0.316  43.430 -0.0692 -0.2475  0.2180
46728W        W55328  10.102   1.309  33.661  0.0079  0.0994  0.1058
46729W        W55329  20.147   4.255  43.871  0.1016 -0.0769 -0.0393
46730W        W55330  11.990   6.035  37.563  0.3570  0.2124 -0.2119
46731W        W55331  19.490   2.896  29.247  0.1334  0.0404 -0.0619
46732W        W55332   4.642   3.627   0.307  0.2341  0.1750  0.4672
46733W        W55333  19.713   0.357  44.651  0.0065 -0.0029 -0.0570
46734W        W55334  15.736   6.378   4.370  0.3084  0.2452 -0.1969
46735W        W55335  15.615   1.868  32.425  0.4133  0.2808 -0.0489
46736W        W55336   3.820   3.494  34.643  0.2060  0.2382  0.2048
46737W        W55337   3.450   0.551  27.706 -0.2354  0.1188  0.2363
46738W        W55338  19.178   4.119  14.069 -0.0030 -0.3311  0.3344
46739W        W55339  12.555   2.473  45.123  0.0872 -0.2556  0.0978
46740W        W55340   7.758   1.155   1.273 -0.1068 -0.2036 -0.0161
46741W        W55341  13.368   1.987  19.323  0.0277 -0.1672  0.0685
46742W        W55342   0.182   3.287  36.431 -0.2060 -0.0698 -0.0304
46743W        W55343   7.811   3.024  23.980  0.2291 -0.0448  0.1070
46744W        W55344  12.699   4.422  20.472 -0.1580  0.3435 -0.1609
46745W        W55345   1.472   0.807   5.745  0.2880 -0.0784  0.1655
46746W        W55346  15.589   4.845  30.342  0.0983  0.0835  0.0260
46747W        W55347   7.680   1.565  17.259 -0.1353  0.1161 -0.3718
46748W        W55348   0.474   0.934  11.265  0.0011  0.0652 -0.3761
46749W        W55349  12.842   3.829   5.217 -0.1195 -0.1172 -0.1367
46750W        W55350  20.117   5.869  18.807 -0.1640  0.2029  0.4794
46751W        W55351  18.576   0.980  18.475 -0.0257  0.2015 -0.2075
46752W        W55352   7.189   0.160   3.552 -0.1177  0.1271  0.1569
46753W        W55353   3.100   2.974  39.872 -0.0656 -0.0583 -0.0283
46754W        W55354   7.721   1.979  15.396  0.2139  0.3325 -0.1854
46755W        W55355  15.021   5.521  41.181 -0.2573 -0.0024 -0.2068
46756W        W55356  12.669   0.394   2.203  0.1501  0.0455 -0.1247
46757W        W55357   9.671   1.507  37.305 -0.0123  0.1076 -0.1854
46758W        W55358   8.167   2.142  35.677  0.3101 -0.0520  0.0735
46759W        W55359  13.721   2.469  20.999 -0.1900 -0.2303  0.2659
46760W        W55360   3.476   2.529   2.754 -0.1519  0.2806  0.0125
46761W        W55361  14.739   5.352   0.690 -0.1741  0.0675 -0.0254
46762W        W55362   8.247   5.525   1.455  0.0959  0.2948 -0.2374
46763W        W55363  13.745   3.242  17.547  0.0937  0.0660 -0.0063
46764W        W55364  19.787   5.104  43.406 -0.0419  0.1067 -0.0168
46765W        W55365  11.665   1.045  10.030 -0.1610 -0.2240  0.0964
46766W        W55366  14.876   5.600  36.665 -0.1801 -0.4826  0.0188
46767W        W55367  11.446   2.424  34.871  0.1454 -0.0707  0.1657
46768W        W55368   7.438   2.215  11.625  0.1978  0.0774 -0.3108
46769W        W55369   4.935   3.978  38.912  0.0822  0.0940 -0.1386
46770W        W55370   2.816   4.918  41.595 -0.1403 -0.1009 -0.0443
46771W        W55371   9.352   6.034  29.568 -0.3351  0.1743  0.0804
46772W        W55372  17.408   0.039  41.051  0.0113 -0.1066 -0.0869
46773W        W55373  18.309   1.589   8.496  0.1382  0.0223  0.0149
46774W        W55374  16.249   1.348  14.890  0.2161  0.3986  0.4101
46775W        W55375   0.800   3.166  40.868  0.1628 -0.1420  0.3564
46776W        W55376   2.355   3.383  36.597 -0.1178 -0.1601  0.0800
46777W        W55377   4.254   2.066  25.184 -0.0317 -0.2942  0.0448
46778W        W55378   5.771   4.391  15.451  0.1232 -0.0751 -0.3158
46779W        W55379   1.173   5.705  38.965 -0.1310  0.1878 -0.0065
46780W        W55380  14.280   4.306  18.104 -0.1853 -0.0522 -0.2627
46781W        W55381   3.080   3.369  40.631  0.0825 -0.0408  0.0101
46782W        W55382   0.280   2.373  37.713  0.0118 -0.0204  0.0754
46783W        W55383  20.311   4.660   1.783 -0.2691 -0.2607 -0.0608
46784W        W55384  15.348   5.326  13.400 -0.3790  0.1357  0.0780
46785W        W55385  15.369   6.099  13.808  0.0256 -0.1728 -0.2707
46786W        W55386   3.457   5.709  25.532  0.0569 -0.6030 -0.1459
46787W        W55387   0.435   2.702  38.120 -0.0603 -0.1129  0.1014
46788W        W55388   7.491   5.294  27.247  0.0220 -0.1729  0.1007
46789W        W55389  18.379   2.316  12.565  0.0212  0.1518 -0.1510
46790W        W55390   2.196   1.008  12.285  0.0997  0.3243  0.0384
46791W        W55391  17.293   0.044   6.133  0.1426 -0.0523  0.0994
46792W        W55392   3.907   6.414  25.829  0.0198 -0.1229  0.0104
46793W        W55393  16.906   2.048   5.586  0.0054 -0.0035 -0.0881
46794W        W55394  20.541   0.657  33.483  0.1624 -0.0707  0.1098
46795W        W55395   8.713   0.715  38.150  0.0600 -0.1911  0.2175
46796W        W55396   2.060   6.131   9.187 -0.3758 -0.4432 -0.2795
46797W        W55397   1.815   4.265  27.111  0.0007 -0.1857 -0.0029
46798W        W55398   6.884   3.761  30.268  0.0467 -0.0578  0.0607
46799W        W55399   9.312   3.761  42.585 -0.0238  0.3363 -0.3277
46800W        W55400   4.943   5.892  39.311 -0.1881 -0.0773  0.0028
46801W        W55401  11.198   3.785  11.670 -0.2213  0.2921 -0.0121
46802W        W55402  15.876   3.842  30.874 -0.1349  0.0735  0.0002
46803W        W55403  20.024   1.218  10.702 -0.2394  0.1779  0.3931
46804W        W55404   7.245   1.020  40.026 -0.3362 -0.0233  0.2499
46805W        W55405  10.113   6.376  29.711 -0.0857 -0.0678  0.2142
46806W        W55406  15.268   1.422   0.630 -0.0268 -0.0768  0.1751
46807W        W55407   9.406   1.388  38.262 -0.1271  0.0020  0.2633
46808W        W55408  17.621   6.366  21.993 -0.1710 -0.2606  0.2333
46809W        W55409   6.258   1.539  23.689  0.0042  0.0077 -0.0196
46810W        W55410   5.090   0.353  35.322 -0.1201 -0.0256 -0.1216
46811W        W55411   7.305   6.214  33.285  0.0639 -0.0855 -0.3184
46812W        W55412  10.209   3.564  41.898  0.0643 -0.2369  0.1463
46813W        W55413  14.633   3.105  21.272  0.0304  0.3489  0.1804
46814W        W55414   8.316   1.607  40.416 -0.1533 -0.0691 -0.0292
46815W        W55415  13.335   2.283  40.097  0.3445 -0.0380  0.0555
46816W        W55416   2.207   6.076  36.075 -0.0990  0.2611 -0.1806
46817W        W55417  17.140   2.329   1.369  0.1073 -0.1449  0.0031
46818W        W55418  10.516   0.771   4.289  0.0998  0.2061  0.0233
46819W        W55419   4.060   1.679   5.097 -0.1861 -0.0675  0.1216
46820W        W55420  15.556   0.083  16.279 -0.1802 -0.0677 -0.0556
46821W        W55421   3.015   2.695  37.931 -0.2803 -0.0605 -0.0893
46822W        W55422  18.155   5.993  15.194 -0.2404  0.2230 -0.0111
46823W        W55423   7.969   0.290  16.563 -0.0392  0.1301  0.0724
46824W        W55424  20.987   5.503  27.985 -0.1941  0.0176  0.3950
46825W        W55425  12.781   5.640  43.987  0.0153  0.1653 -0.2780
46826W        W55426  13.920   4.185  20.353 -0.0959 -0.0175 -0.0902
46827W        W55427   3.146   1.379   9.419 -0.0354 -0.2189 -0.3075
46828W        W55428   8.285   4.865  29.105  0.1430  0.1588 -0.1888
46829W        W55429   0.193   3.280   5.328  0.1692  0.1218  0.0042
46830W        W55430  15.357   5.983  38.518  0.1166  0.2415 -0.1150
46831W        W55431   8.561   5.382  25.787  0.3116  0.0569  0.2346
46832W        W55432  10.930   3.637  38.748 -0.0478 -0.1320  0.0237
46833W        W55433  20.076   2.209  19.628 -0.1010  0.1080  0.1267
46834W        W55434  13.451   5.014  11.014  0.0971 -0.0940  0.0350
46835W        W55435  10.118   1.307   3.219 -0.1185 -0.0111 -0.1011
46836W        W55436   8.495   5.374  31.893  0.3185  0.2821 -0.1113
46837W        W55437   1.647   3.485  31.566  0.2119  0.0030  0.4290
46838W        W55438  18.711   2.860   1.057  0.2944 -0.0270 -0.0319
46839W        W55439   5.369   4.888  29.937 -0.0906  0.0278 -0.1442
46840W        W55440  17.324   4.604  30.233  0.1305 -0.2282 -0.0604
46841W        W55441   0.535   2.892   4.211  0.1445 -0.1411 -0.2309
46842W        W55442  16.587   4.520  41.073  0.3172 -0.0299 -0.0516
46843W        W55443   0.732   2.892  19.122 -0.1600  0.0523  0.1273
46844W        W55444  15.329   2.652  13.331  0.1810 -0.0294  0.0314
46845W        W55445   3.882   5.574   8.372 -0.2211  0.0108  0.0986
46846W        W55446  19.315   3.844   1.789  0.1924 -0.1715  0.0579
46847W        W55447  19.160   4.261   0.689  0.1160  0.1928  0.0323
46848W        W55448   5.825   5.972  12.077  0.1627  0.0669  0.0443
46849W        W55449  15.304   4.068  18.182  0.1110 -0.0050 -0.2274
46850W        W55450   6.034   3.473   0.365 -0.0963 -0.0377  0.1730
46851W        W55451  13.739   4.849   6.572 -0.2650 -0.0803 -0.0423
46852W        W55452   1.239   3.429  39.621  0.2444 -0.0133  0.2882
46853W        W55453   1.186   5.601   9.307  0.0952 -0.1445  0.2430
46854W        W55454  11.734   0.381  36.490  0.1367  0.0167 -0.1380
46855W        W55455   3.707   4.734  40.914  0.2274 -0.1343  0.2209
46856W        W55456  17.056   6.285  20.489 -0.0506  0.1194  0.2460
46857W        W55457  12.804   0.298  11.955  0.3756 -0.1367 -0.1017
46858W        W55458  10.729   2.682  28.173  0.3021 -0.0288  0.0642
46859W        W55459   5.295   1.976  37.722 -0.0846 -0.2834 -0.0503
46860W        W55460   6.118   3.158  37.637 -0.1629  0.0589 -0.1719
46861W        W55461   5.183   2.736  34.038 -0.1194 -0.0530 -0.0158
46862W        W55462   9.849   5.881   8.717 -0.0359 -0.0114  0.5124
46863W        W55463  12.834   4.336  30.409 -0.0654 -0.3366  0.0091
46864W        W55464  11.164   3.219   2.805 -0.1842 -0.0548 -0.0071
46865W        W55465  11.001   6.218  26.491  0.0000 -0.0926  0.1003
46866W        W55466   3.946   2.927  37.068  0.2642 -0.0068  0.1390
46867W        W55467   3.591   5.186  44.566 -0.0332  0.0223 -0.1280
46868W        W55468  19.096   6.211  29.723 -0.2116 -0.0691 -0.1757
46869W        W55469  11.645   6.104  12.636 -0.1320 -0.1191  0.0668
46870W        W55470  15.274   1.100  40.937  0.0655 -0.1821  0.1366
46871W        W55471   0.612   1.293  15.893  0.1681 -0.1259 -0.0049
46872W        W55472   9.718   0.775  38.894 -0.3880 -0.5380  0.1098
46873W        W55473  12.710   6.499   7.355  0.0972  0.0115  0.1928
46874W        W55474   4.146   4.967   1.516 -0.0210  0.4256  0.0971
46875W        W55475  15.919   3.306  40.976 -0.0556  0.0260 -0.3047
46876W        W55476  10.313   1.490  40.391 -0.1574 -0.2912  0.1357
46877W        W55477  19.722   4.539  31.200  0.0449 -0.2430 -0.3658
46878W        W55478  18.248   2.041  41.746  0.0604 -0.1127 -0.0721
46879W        W55479  14.595   4.493  38.354 -0.0982 -0.3032  0.1593
46880W        W55480  16.574   3.778  19.512  0.0832  0.0581 -0.2157
46881W        W55481  10.551   3.397   8.787 -0.0306  0.1351 -0.0523
46882W        W55482  12.938   3.916  32.382  0.0369  0.1313 -0.2172
46883W        W55483  11.845   6.195  31.138 -0.1773  0.1640 -0.0653
46884W        W55484   2.230   2.476  14.625  0.0139 -0.1348  0.0892
46885W        W55485  20.901   6.516  27.836 -0.1840 -0.0070 -0.1514
46886W        W55486  10.605   0.331  44.176 -0.1170  0.1646 -0.1473
46887W        W55487   7.335   0.509  26.079  0.0225 -0.0909  0.0308
46888W        W55488   1.192   1.090  13.617  0.1736  0.0388  0.1337
46889W        W55489   8.964   5.582  37.741 -0.3469  0.0415  0.2072
46890W        W55490  20.381   1.844   6.306 -0.2697  0.1390 -0.2568
46891W        W55491   2.409   4.845  30.233  0.3715 -0.0622 -0.0444
46892W        W55492  12.773   6.328  16.958 -0.0811 -0.1980 -0.0113
46893W        W55493   9.629   6.439  36.149  0.2547 -0.3023 -0.3162
46894W        W55494   6.328   2.000  22.965 -0.3622  0.2000 -0.1016
46895W        W55495   7.604   1.777  11.449  0.2748 -0.3946  0.1733
46896W        W55496   2.397   3.952  15.258  0.0544 -0.0932  0.2054
46897W        W55497   6.967   3.790  35.099  0.2425  0.0202 -0.0119
46898W        W55498   5.067   0.783   6.429 -0.3013  0.3479  0.2577
46899W        W55499   0.346   5.454   2.571 -0.0900 -0.0575  0.1115
46900W        W55500  20.458   5.458  28.318  0.1183  0.0890  0.1542
46901W        W55501   2.085   2.197  36.264 -0.2199  0.0541 -0.2281
46902W        W55502  21.002   1.721  32.013  0.0736  0.0680  0.1071
46903W        W55503  17.968   5.278  16.113 -0.0732 -0.1402  0.2074
46904W        W55504  15.258   1.704  33.616  0.0233 -0.0015  0.0866
46905W        W55505  10.009   3.144   9.858 -0.4160  0.4637 -0.1689
46906W        W55506   4.405   6.590   4.040 -0.0625  0.1389  0.1401
46907W        W55507   6.514   1.607  21.624  0.0477 -0.1018  0.0198
46908W        W55508  11.253   4.613  12.500 -0.0637  0.0180  0.0855
46909W        W55509   6.124   1.737  41.653  0.1531  0.1349 -0.0256
46910W        W55510  20.904   6.367  28.967 -0.0667 -0.1624  0.2431
46911W        W55511   8.767   3.108  41.601 -0.1232  0.1197 -0.2463
46912W        W55512  19.082   1.762   1.890  0.1674 -0.1018  0.2427
46913W        W55513   0.589   5.134  40.504 -0.3334  0.1224 -0.0450
46914W        W55514   6.286   0.384   8.176  0.1662  0.2838  0.1533
46915W        W55515   5.167   4.106   9.408 -0.2181 -0.0434 -0.1587
46916W        W55516   3.684   0.319  32.724 -0.1123 -0.0916 -0.0505
46917W        W55517   9.953   6.142   7.923  0.1762  0.1567  0.0233
46918W        W55518  20.092   0.359  31.399  0.1347 -0.2022  0.2187
46919W        W55519   4.399   2.599   2.987  0.2728  0.1737 -0.0017
46920W        W55520  15.390   1.599   9.939 -0.2228 -0.1754 -0.1183
46921W        W55521   5.679   1.809  44.925 -0.1586  0.1146 -0.0748
46922W        W55522   8.499   2.030  14.230 -0.0478  0.4119  0.1917
46923W        W55523   7.704   5.458  35.009 -0.1131  0.0176  0.0666
46924W        W55524  15.261   1.301  13.194 -0.1427  0.1087  0.1490
46925W        W55525   3.593   3.340  35.963  0.0900 -0.1605  0.3824
46926W        W55526  20.767   2.071   6.686  0.2208  0.0589 -0.0921
46927W        W55527  12.680   5.805   2.890 -0.2377  0.0794 -0.2915
46928W        W55528   7.303   0.921  23.051 -0.1338  0.1616  0.0836
46929W        W55529  17.006   4.537   7.898 -0.0059 -0.0268 -0.0307
46930W        W55530   9.724   3.331   1.195  0.2706  0.2223  0.0516
46931W        W55531  17.423   4.936  44.546 -0.1083 -0.1084 -0.1715
46932W        W55532  13.315   2.261  31.502  0.2040  0.0413  0.1051
46933W        W55533   6.519   0.124   7.288  0.0602 -0.1087  0.0180
46934W        W55534   1.805   1.423  43.212  0.0132 -0.0692 -0.1793
46935W        W55535   6.950   2.369  40.095 -0.1265  0.3353 -0.1596
46936W        W55536   8.033   3.068  30.056 -0.1787 -0.2825 -0.1885
46937W        W55537   0.951   4.395  32.431 -0.1444  0.0006  0.3344
46938W        W55538  18.061   6.330  20.349  0.0860 -0.3793  0.2340
46939W        W55539  20.463   0.688   8.648 -0.0767  0.1748  0.0691
46940W        W55540   5.139   3.375   0.122 -0.3543  0.0174  0.1348
46941W        W55541   0.317   4.396  27.153  0.0053  0.1624  0.0131
46942W        W55542  20.517   2.213  35.137 -0.1649  0.0271 -0.0666
46943W        W55543  13.910   4.590  17.112 -0.1612  0.1925 -0.0095
46944W        W55544   6.654   3.298   5.366 -0.0045  0.0856  0.1877
46945W        W55545   2.879   1.832  33.735 -0.1895  0.0095  0.1994
46946W        W55546   0.398   1.663   9.700  0.0307 -0.0456  0.1687
46947W        W55547   6.119   5.137  37.977 -0.1211 -0.1160 -0.1582
46948W        W55548   1.678   1.259   3.035 -0.0153 -0.2675  0.1290
46949W        W55549   4.123   0.540  29.517  0.1717  0.0063 -0.3384
46950W        W55550   0.582   5.373  28.747  0.2412 -0.2139 -0.0971
46951W        W55551   9.395   4.890  30.982  0.1058  0.0843 -0.1756
46952W        W55552   6.006   2.252   9.633 -0.2086  0.1122  0.1482
46953W        W55553   4.352   5.363  12.698  0.1586 -0.0131 -0.0008
46954W        W55554  14.668   6.002  41.645 -0.2522  0.1887 -0.1023
46955W        W55555  10.653   1.267  37.204 -0.1592  0.1826 -0.0801
46956W        W55556  19.745   6.354  41.376  0.1836  0.0531  0.0272
46957W        W55557   5.127   4.354  36.314 -0.1326 -0.2218 -0.3102
46958W        W55558   1.552   0.031  40.221  0.2143  0.0816 -0.0857
46959W        W55559  13.437   6.162  40.666 -0.2218 -0.1159  0.0768
46960W        W55560  15.008   3.041  39.086  0.0169 -0.0316  0.1706
46961W        W55561   0.824   0.948  34.106  0.1944 -0.0274  0.1055
46962W        W55562  12.108   5.905  35.793  0.4224 -0.0318 -0.1989
46963W        W55563  15.739   5.072  23.566  0.1991  0.2274  0.2119
46964W        W55564  19.563   5.319  22.120  0.0763  0.2679 -0.1501
46965W        W55565  16.118   1.546  42.926  0.1364 -0.1072 -0.0797
46966W        W55566   8.495   6.196   4.007 -0.0248  0.3597  0.0529
46967W        W55567   4.168   6.320   9.474 -0.0681 -0.2534 -0.0434
46968W        W55568  16.196   3.169  11.370  0.0947  0.4347  0.3448
46969W        W55569  12.215   4.697  17.236  0.2114  0.2487  0.3691
46970W        W55570  13.370   4.093  30.388 -0.3281 -0.0437 -0.1642
46971W        W55571   3.826   6.592   3.723  0.2126 -0.1359  0.0212
46972W        W55572   7.081   4.935  34.017  0.1627 -0.0818 -0.0530
46973W        W55573  14.829   0.381  10.399 -0.0685  0.0051  0.4195
46974W        W55574   3.536   1.091  41.804  0.0064  0.0808 -0.0487
46975W        W55575   0.042   4.299  28.651 -0.1954 -0.0755  0.2530
46976W        W55576  16.383   2.296   5.220  0.2773  0.0942  0.2440
46977W        W55577  13.696   1.962  36.646  0.1648 -0.3743 -0.2244
46978W        W55578  19.197   3.721  15.571  0.0657 -0.0348 -0.1447
46979W        W55579   8.447   1.308  13.134  0.1734  0.0807 -0.0420
46980W        W55580  14.545   5.938  33.524 -0.1142  0.1654 -0.2467
46981W        W55581   5.340   3.880  12.362 -0.0126 -0.4043 -0.0331
46982W        W55582   2.920   2.829   8.679 -0.0621  0.2178  0.1707
46983W        W55583  19.280   3.847  39.302  0.0898  0.0416  0.0432
46984W        W55584   9.436   4.089   8.888  0.0171 -0.2946  0.0761
46985W        W55585  17.806   0.083   1.599  0.2254 -0.0664  0.1172
46986W        W55586  10.113   3.743   5.118  0.1159  0.2413  0.2236
46987W        W55587   8.700   5.784  27.163 -0.2382 -0.1524  0.0429
46988W        W55588  16.127   1.869  35.169 -0.3156 -0.1938 -0.1364
46989W        W55589   3.938   0.531  34.701 -0.2272 -0.0999 -0.3344
46990W        W55590  15.126   1.638  18.846  0.2184 -0.3306 -0.2677
46991W        W55591   1.345   3.517   6.435  0.1544  0.5728 -0.0234
46992W        W55592  19.602   2.506  16.279  0.0380 -0.1439  0.1283
46993W        W55593  16.334   3.756  32.394 -0.0223 -0.3778  0.2266
46994W        W55594  17.753   3.190  35.083  0.2475  0.1926 -0.1978
46995W        W55595  14.959   5.891   4.507  0.1289  0.0318  0.0320
46996W        W55596  15.669   2.088   6.425 -0.2466 -0.1910 -0.3691
46997W        W55597  19.484   2.185   6.130 -0.1424  0.0050  0.1410
46998W        W55598   3.277   2.019  26.771  0.1016  0.0050  0.0352
46999W        W55599   1.222   4.738   9.558  0.2533 -0.2048 -0.1477
47000W        W55600  21.020   5.051  39.281 -0.1266  0.0976 -0.2220
47001W        W55601  14.543   3.325  36.802 -0.4285 -0.1611 -0.0356
47002W        W55602  19.962   6.299   6.553  0.4171  0.2443  0.0108
47003W        W55603   9.125   5.705  11.798 -0.1313 -0.2426 -0.0409
47004W        W55604   4.555   0.636  13.415 -0.0888  0.1530 -0.2972
47005W        W55605  11.984   3.588  29.221  0.3410 -0.0705 -0.1656
47006W        W55606   4.776   2.943   0.113 -0.0902 -0.0914  0.1192
47007W        W55607  20.854   1.689  15.998  0.0101  0.1925 -0.0781
47008W        W55608   9.679   2.930  24.994  0.3144  0.2110  0.1150
47009W        W55609   8.376   4.929   9.817 -0.1391 -0.1416  0.1287
47010W        W55610  19.739   0.953   1.762 -0.3278 -0.3528  0.1626
47011W        W55611  10.855   2.590  15.374 -0.0268  0.2048  0.0314
47012W        W55612  20.065   0.383   8.429  0.2677 -0.2715  0.3059
47013W        W55613  13.901   5.461   9.503  0.1109 -0.0134  0.0885
47014W        W55614  11.455   6.125  15.866  0.1987  0.1663  0.2387
47015W        W55615   8.993   3.131  12.898  0.1612 -0.1409 -0.0822
47016W        W55616  15.174   3.915  23.216 -0.0278 -0.0373 -0.0393
47017W        W55617  12.845   3.403  17.296  0.0389 -0.1895  0.3775
47018W        W55618  10.268   5.033  11.196 -0.1689 -0.1767  0.0754
47019W        W55619  17.803   4.978  38.596  0.2563 -0.0120 -0.0802
47020W        W55620  10.241   5.825  38.066 -0.0605 -0.0915 -0.0668
47021W        W55621  17.939   2.912  22.973 -0.4580  0.0289  0.0921
47022W        W55622  12.341   1.181  10.633 -0.1306 -0.2137  0.3318
47023W        W55623   3.275   1.060   6.782 -0.4127 -0.2253  0.1885
47024W        W55624  13.675   0.932   4.720 -0.0497  0.0330  0.1519
47025W        W55625  11.206   2.608  18.239 -0.0457  0.1775 -0.2146
47026W        W55626  12.734   0.178   9.797 -0.1834  0.1147  0.1751
47027W        W55627   1.426   4.425   8.367  0.0415 -0.0502  0.1112
47028W        W55628   0.489   5.649  29.188 -0.3013  0.1134  0.2964
47029W        W55629   8.170   3.450  15.368  0.1371 -0.2369  0.0257
47030W        W55630   0.802   6.415  39.826 -0.0038  0.0300  0.2730
47031W        W55631  14.220   5.331   0.766  0.2753  0.2390  0.0426
47032W        W55632   0.261   0.769  27.180  0.0731  0.1158 -0.3570
47033W        W55633  13.296   5.921  14.931 -0.1928 -0.1412 -0.0996
47034W        W55634   1.916   0.863  42.108 -0.1211  0.1163  0.2653
47035W        W55635   2.381   0.551  39.909 -0.0777 -0.1027  0.2588
47036W        W55636   5.028   0.468  37.230 -0.1615 -0.1131 -0.1365
47037W        W55637   9.459   5.030  10.423 -0.1735  0.0431  0.0872
47038W        W55638   0.390   4.560  31.615  0.2827  0.2337  0.1863
47039W        W55639   9.911   5.033  43.820  0.1737  0.1616  0.4013
47040W        W55640   8.325   3.975  13.640  0.1844 -0.2080 -0.1922
47041W        W55641  20.458   6.517  19.834  0.0008  0.0800 -0.0806
47042W        W55642   0.918   0.116  26.745  0.1329  0.2636  0.2116
47043W        W55643   6.423   2.335  29.067 -0.0358 -0.1971 -0.0207
47044W        W55644  16.669   5.342  30.190  0.2574  0.2691  0.0826
47045W        W55645  15.386   4.801  16.770  0.0614  0.0392  0.1946
47046W        W55646  12.494   3.278  34.822 -0.1617  0.0477  0.2229
47047W        W55647  14.434   1.515   4.179  0.1643 -0.2042  0.2750
47048W        W55648   1.637   0.549   7.199 -0.3265  0.0179 -0.0811
47049W        W55649  10.672   2.374  16.691  0.2502  0.0514 -0.4220
47050W        W55650   2.155   1.789   5.918 -0.0435  0.1091  0.2344
47051W        W55651  17.582   2.615   0.284  0.2221  0.3557 -0.0715
47052W        W55652   9.057   4.229  34.077 -0.0612  0.1209 -0.2330
47053W        W55653   8.260   2.741  44.079 -0.1173  0.3985  0.1610
47054W        W55654  11.118   0.039   7.170 -0.1427  0.2500 -0.4772
47055W        W55655   4.165   2.518  13.486  0.2699 -0.1139 -0.0012
47056W        W55656  13.726   0.965  10.937 -0.2819 -0.0047 -0.2896
47057W        W55657   4.515   3.184   3.774  0.3964 -0.1988  0.1344
47058W        W55658  17.305   1.260  38.642 -0.0179 -0.0176  0.0829
47059W        W55659   7.651   4.512  43.197 -0.3009 -0.0563  0.4265
47060W        W55660  15.544   2.252  31.527  0.0344 -0.1748  0.0898
47061W        W55661  17.581   1.074  35.290  0.1822  0.4469 -0.0778
47062W        W55662  15.059   5.689   8.794 -0.3070  0.0597 -0.0228
47063W        W55663   2.308   1.432  33.561  0.3448  0.0375  0.1217
47064W        W55664   9.558   6.478  10.724  0.3445 -0.0565  0.0317
47065W        W55665  10.019   5.985  32.997 -0.2351  0.3856 -0.1035
47066W        W55666   9.246   0.460  34.544 -0.0726 -0.1677  0.0381
47067W        W55667  16.706   5.484  22.558  0.3065 -0.1519 -0.1749
47068W        W55668   0.720   3.817  36.966  0.0741 -0.1127  0.1330
47069W        W55669   2.594   1.511  26.685  0.1252  0.4550 -0.0418
47070W        W55670   5.143   3.071   1.919  0.1348  0.1046 -0.0587
47071W        W55671   5.603   6.544  31.734  0.0822  0.0450 -0.0655
47072W        W55672   3.639   6.267   7.757  0.0280  0.1303 -0.0372
47073W        W55673  10.526   2.220   0.418 -0.0411 -0.3417  0.3083
47074W        W55674   4.196   0.657  13.799 -0.0800 -0.0159  0.0772
47075W        W55675   3.748   3.386  14.664  0.0421  0.0568 -0.1548
47076W        W55676  13.493   0.785   8.834 -0.0118  0.0722  0.3091
47077W        W55677  14.225   3.052   8.700 -0.1978 -0.3097  0.2244
47078W        W55678  18.576   0.465  42.493  0.2633  0.2937  0.1100
47079W        W55679  17.085   1.075  23.059  0.2124 -0.0076 -0.1578
47080W        W55680   3.109   2.796  28.457  0.1619 -0.2490 -0.1830
47081W        W55681  12.336   4.692  18.770  0.1389 -0.0313  0.1853
47082W        W55682  16.506   3.456  39.569 -0.1173 -0.0599 -0.0866
47083W        W55683  13.947   1.935  42.466 -0.1928 -0.2772  0.2875
47084W        W55684  17.773   5.648  29.835  0.0905 -0.0321 -0.1850
47085W        W55685   7.130   1.725  27.402 -0.1333 -0.1428 -0.1180
47086W        W55686   5.593   4.897   2.300  0.2980  0.1312 -0.0718
47087W        W55687  15.122   6.230  13.187 -0.0161 -0.1307 -0.0977
47088W        W55688   8.422   6.495  34.759 -0.1618 -0.3013 -0.1286
47089W        W55689  19.182   5.905  42.368 -0.2300  0.1316 -0.2648
47090W        W55690   5.477   5.431  37.119  0.0996 -0.0857  0.2264
47091W        W55691   9.770   1.461   2.807  0.3045 -0.1860 -0.1986
47092W        W55692   6.603   6.248  24.144 -0.1842  0.2781 -0.0309
47093W        W55693  10.906   3.484  12.408 -0.0937  0.0358  0.2504
47094W        W55694   4.334   4.213  43.082  0.3840 -0.1298  0.0116
47095W        W55695  19.679   2.940  39.259 -0.3296  0.3120 -0.2295
47096W        W55696  13.057   5.387  20.312  0.0224 -0.1108 -0.0453
47097W        W55697  15.905   6.437   5.239  0.2530  0.1612  0.1576
47098W        W55698  13.427   5.810  31.244  0.2123 -0.2519 -0.1793
47099W        W55699   0.949   4.207  28.537  0.3345  0.0180 -0.1467
47100W        W55700   3.913   1.002  35.885  0.1272 -0.0847  0.2278
47101W        W55701  17.869   6.447  39.848  0.0450  0.2101 -0.1214
47102W        W55702  15.969   1.255  11.882  0.0351 -0.2941  0.0037
47103W        W55703   1.227   6.287  14.738  0.0139  0.0676  0.0311
47104W        W55704  13.821   1.859  32.443  0.1145 -0.1071  0.1029
47105W        W55705   1.539   0.114   0.795  0.4399 -0.0072  0.0563
47106W        W55706   5.349   1.041  11.751  0.2490 -0.1325 -0.0051
47107W        W55707  20.120   3.177   8.632  0.1392  0.0997 -0.2826
47108W        W55708  14.249   5.118  14.093  0.1121  0.1780 -0.1188
47109W        W55709   0.001   5.395  40.867 -0.0787 -0.0034 -0.1081
47110W        W55710   5.334   2.109  40.048 -0.0997 -0.0191  0.2461
47111W        W55711  15.373   6.558  39.802 -0.2947  0.2850  0.1114
47112W        W55712  14.973   1.592   5.284  0.3158 -0.0499 -0.0083
47113W        W55713  10.172   0.603  35.131 -0.0076 -0.2541 -0.1456
47114W        W55714   0.350   3.544  32.467  0.0451  0.1452 -0.3890
47115W        W55715  18.358   1.693   9.067 -0.3910  0.1514  0.1135
47116W        W55716   8.129   4.109  42.475  0.1364 -0.0996  0.1599
47117W        W55717  14.327   1.050  21.974  0.1400 -0.0228 -0.1670
47118W        W55718   4.123   3.598   0.348 -0.0904  0.2426  0.0557
47119W        W55719  17.813   4.185  44.934  0.2142  0.1831 -0.1315
47120W        W55720   8.879   3.645   6.199 -0.0898 -0.0021 -0.0193
47121W        W55721  14.882   3.712  20.088  0.2422  0.3902 -0.0843
47122W        W55722  17.189   5.971  44.484 -0.3413 -0.1259 -0.0057
47123W        W55723  14.417   3.538  11.149 -0.2069  0.1255 -0.1633
47124W        W55724   8.078   5.353  37.632 -0.1738 -0.2564  0.0603
47125W        W55725  13.915   3.784  34.937  0.3069  0.0606  0.1490
47126W        W55726  15.881   3.923   5.897  0.0401  0.0283 -0.1654
47127W        W55727  19.556   6.170   0.509  0.0067  0.0083 -0.2083
47128W        W55728  20.592   5.963   3.670  0.3067 -0.0617 -0.4834
47129W        W55729  12.473   1.847  32.098  0.0065 -0.0646  0.0422
47130W        W55730   5.445   6.585  36.169 -0.0272 -0.0195 -0.1481
47131W        W55731   4.033   0.884   3.087  0.1376  0.2766  0.1258
47132W        W55732  11.551   5.117  41.973  0.1954 -0.0382  0.0280
47133W        W55733  19.192   5.028  19.342 -0.0116  0.1594 -0.0144
47134W        W55734   6.190   4.786  16.216 -0.1621  0.0433  0.0321
47135W        W55735  12.305   0.732  15.288  0.5088  0.0358 -0.0577
47136W        W55736   6.646   5.417  13.087  0.2454 -0.1745 -0.1332
47137W        W55737  20.730   2.949  34.774  0.2928 -0.2273  0.2211
47138W        W55738  19.079   1.672  42.518  0.1097 -0.0457 -0.1907
47139W        W55739  18.714   0.854   3.345  0.0425  0.4408 -0.1435
47140W        W55740   2.854   2.464  11.836 -0.4207 -0.2032 -0.3793
47141W        W55741   0.736   4.298   1.870  0.0115  0.0688 -0.2217
47142W        W55742   7.649   3.077  27.990 -0.0576 -0.2634  0.4269
47143W        W55743  20.880   2.548   6.516 -0.2111  0.0519  0.0099
47144W        W55744   6.366   2.829  30.960  0.0338  0.0295 -0.0859
47145W        W55745   9.450   5.541  13.493 -0.0880 -0.1179  0.1343
47146W        W55746   4.572   2.433  35.894 -0.2240  0.1130 -0.0646
47147W        W55747  12.532   2.357   3.481  0.0765  0.0490 -0.2474
47148W        W55748   3.814   1.299   4.248  0.0997  0.0947  0.1049
47149W        W55749   8.120   2.268   9.547 -0.0025  0.4160  0.0544
47150W        W55750   0.347   5.824  44.938 -0.0782  0.2225 -0.1948
47151W        W55751  17.307   1.337  44.609  0.1126 -0.2500  0.0071
47152W        W55752  12.951   2.053  18.427  0.1116  0.0136  0.1433
47153W        W55753  20.609   6.461   3.164  0.3040  0.0837  0.1407
47154W        W55754  13.703   0.913  12.840  0.0544  0.0608 -0.1580
47155W        W55755   4.759   3.343  24.544  0.1381 -0.2432  0.1569
47156W        W55756   9.415   0.069  25.433 -0.1835 -0.0852 -0.1310
47157W        W55757  15.886   4.494  24.102 -0.1014  0.0147 -0.1104
47158W        W55758  13.571   1.517  39.722 -0.1318  0.3825 -0.0083
47159W        W55759   2.783   5.057  37.585  0.0903 -0.2247 -0.1355
47160W        W55760   8.603   0.885  43.014  0.2443  0.0842 -0.0049
47161W        W55761  12.709   0.902  13.373 -0.0099  0.0514  0.0754
47162W        W55762   1.443   0.212  28.206  0.1385 -0.3882  0.2340
47163W        W55763   1.185   6.163  38.044 -0.1849 -0.0705 -0.0856
47164W        W55764   1.237   0.569   6.650  0.3128 -0.1292 -0.1048
47165W        W55765   2.249   5.642  31.084  0.1790  0.3355  0.0544
47166W        W55766   1.369   0.941   8.795 -0.1097 -0.0751 -0.0928
47167W        W55767  18.966   1.279  35.038  0.0020  0.1137 -0.0495
47168W        W55768  16.402   4.757  36.069  0.0474  0.1392  0.1976
47169W        W55769   7.244   3.380  39.141  0.1593  0.1804 -0.0858
47170W        W55770   5.505   6.444  32.384 -0.0535  0.1290  0.1975
47171W        W55771  10.547   2.587  29.955 -0.3861  0.1123 -0.0937
47172W        W55772  20.782   2.915   3.075  0.1677 -0.1101  0.1068
47173W        W55773  15.439   1.383  15.426 -0.2349 -0.1721  0.0518
47174W        W55774  16.443   0.371  14.803 -0.0719  0.0885  0.1222
47175W        W55775   7.015   3.544  42.726  0.0055  0.0178  0.0203
47176W        W55776  19.019   1.910  13.404 -0.0214  0.0847  0.1281
47177W        W55777  14.367   3.724   7.239  0.0981 -0.2011 -0.0439
47178W        W55778  17.005   5.639  38.803 -0.2628 -0.0410  0.3165
47179W        W55779   6.209   5.119  21.712 -0.3151 -0.0147 -0.2170
47180W        W55780   7.905   0.664   2.440  0.1967 -0.1406  0.1520
47181W        W55781  17.761   1.281  21.478  0.1790  0.1288 -0.0793
47182W        W55782   0.911   5.984  11.622 -0.0660 -0.1846  0.0349
47183W        W55783   4.355   0.500  37.654 -0.0340  0.0301 -0.0979
47184W        W55784   1.017   5.293  32.696  0.2075 -0.2720  0.2111
47185W        W55785  16.630   5.463  29.260  0.5273 -0.0626  0.1276
47186W        W55786  16.916   4.897  30.425 -0.3016 -0.0224  0.1144
47187W        W55787  14.703   6.171  35.095 -0.1236 -0.0284  0.0161
47188W        W55788   7.554   2.558   2.917  0.0164 -0.4163 -0.0828
47189W        W55789  13.895   4.973   9.402  0.0920 -0.0392 -0.1919
47190W        W55790  15.154   0.440  31.611  0.1326 -0.2689 -0.2380
47191W        W55791  11.089   6.171  27.154  0.2816 -0.1504  0.3907
47192W        W55792  19.436   3.264  39.972 -0.2279 -0.0675 -0.0847
47193W        W55793   1.821   0.360   8.127 -0.2595  0.0251 -0.0533
47194W        W55794  12.623   3.682  14.593  0.0347  0.1433 -0.0112
47195W        W55795  16.517   1.824  32.891 -0.1671  0.0273 -0.1349
47196W        W55796   5.837   4.384  35.686  0.1059  0.0696 -0.2203
47197W        W55797   8.713   3.575   4.673  0.4531 -0.1813  0.1336
47198W        W55798  17.456   6.137  43.236  0.3107 -0.2477 -0.2938
47199W        W55799  16.087   6.177  36.095  0.0171 -0.0324  0.1581
47200W        W55800   4.569   0.536  41.440 -0.2130 -0.2161 -0.2579
47201W        W55801   0.579   2.321  17.879  0.1130 -0.1019  0.2053
47202W        W55802  19.540   5.214  18.644  0.2474  0.1473 -0.1655
47203W        W55803  11.806   3.898  10.799 -0.0822 -0.1762 -0.2962
47204W        W55804  14.671   3.341  43.722  0.0853 -0.1930 -0.1779
47205W        W55805  12.775   2.849  42.294  0.0982  0.0098  0.3071
47206W        W55806  18.665   0.473  41.555 -0.0389 -0.0529 -0.0835
47207W        W55807  18.098   5.700  39.756 -0.4448 -0.2738  0.0419
47208W        W55808  12.830   2.137   4.325  0.1113  0.2774 -0.0235
47209W        W55809  15.024   1.684  18.306  0.0722  0.1243 -0.0355
47210W        W55810  16.200   4.634  38.234 -0.2418 -0.1974  0.1669
47211W        W55811   0.437   4.800  33.350 -0.0343  0.0042  0.0940
47212W        W55812  15.523   4.709  19.157 -0.2489  0.4098 -0.0576
47213W        W55813   6.648   3.768  40.413  0.1295 -0.0890 -0.4273
47214W        W55814   7.118   2.482  28.115 -0.1586  0.0886  0.0738
47215W        W55815   1.693   1.975   4.284  0.2241  0.1590  0.0706
47216W        W55816   4.482   2.188  34.107  0.0776  0.1280  0.0932
47217W        W55817  15.292   0.911  17.317 -0.0791  0.0100  0.0107
47218W        W55818   1.639   1.046   3.803 -0.1051  0.2589 -0.1253
47219W        W55819  16.805   5.880  31.153  0.3260 -0.2935  0.0633
47220W        W55820  20.354   6.086  31.195 -0.1278  0.2826 -0.0797
47221W        W55821  10.518   2.495  35.447 -0.1013 -0.0785 -0.0709
47222W        W55822  18.622   1.871  40.287  0.0971 -0.0029  0.3075
47223W        W55823   9.062   6.513  23.902 -0.0456 -0.1253  0.1015
47224W        W55824  20.448   0.773  43.505 -0.2591  0.0898 -0.3201
47225W        W55825   1.111   4.420  38.167 -0.2129 -0.1011 -0.0297
47226W        W55826   8.824   0.695  11.900 -0.2272  0.3216  0.0923
47227W        W55827   0.480   6.111  31.802 -0.1440  0.1383  0.3886
47228W        W55828   2.595   1.560   9.291  0.2013 -0.1555 -0.2649
47229W        W55829   2.069   1.322   5.221  0.2221 -0.0999 -0.1007
47230W        W55830  12.629   1.084   9.224 -0.0808 -0.0039 -0.0644
47231W        W55831  12.180   1.586   4.358 -0.0144 -0.1828 -0.2200
47232W        W55832  18.580   4.133   5.414 -0.3693  0.1683 -0.2186
47233W        W55833   9.289   1.123  42.180 -0.0402 -0.1862  0.3978
47234W        W55834  17.789   6.483   6.727  0.1860 -0.0337 -0.1129
47235W        W55835  19.527   4.588  21.076 -0.0645 -0.2299  0.1206
47236W        W55836  12.818   5.557  19.027  0.0898 -0.3974 -0.1931
47237W        W55837  19.290   6.319  42.594 -0.0414  0.0036 -0.2116
47238W        W55838   5.347   5.703  38.103  0.2208  0.0451 -0.2006
47239W        W55839   5.968   1.827  39.407  0.3097  0.1804 -0.1196
47240W        W55840   3.014   1.419  36.984  0.3139  0.2506  0.0258
47241W        W55841  10.931   5.177  40.114  0.0299  0.1961 -0.1053
47242W        W55842   2.364   1.494  12.418 -0.3908 -0.0068 -0.0462
47243W        W55843   8.982   6.239  10.039 -0.0139  0.1376  0.0012
47244W        W55844   5.161   0.033  38.620 -0.1116 -0.1853  0.1677
47245W        W55845  13.724   3.022  12.629 -0.3055 -0.2047 -0.1563
47246W        W55846  15.553   2.447  29.897  0.2430  0.4091  0.1915
47247W        W55847  10.112   6.211   6.979  0.3110  0.0462  0.2832
47248W        W55848   5.764   6.526  23.964 -0.1282  0.2097  0.0736
47249W        W55849  17.377   5.292  38.663  0.3798  0.4093 -0.1387
47250W        W55850  16.475   0.418  23.456  0.0519 -0.2505  0.2032
47251W        W55851   6.029   6.144  27.755  0.2594 -0.0945  0.2235
47252W        W55852   3.431   6.189  30.131 -0.1996 -0.0428  0.0631
47253W        W55853   6.938   5.909   1.763  0.0770 -0.0556  0.0484
47254W        W55854   0.820   4.732   5.577 -0.1829 -0.0492  0.0163
47255W        W55855  19.322   5.852  20.308 -0.0108  0.2206 -0.0824
47256W        W55856   3.160   0.379  25.381 -0.0536  0.1796  0.1888
47257W        W55857  15.261   1.641  39.601  0.1702 -0.2997  0.2592
47258W        W55858  11.229   1.392   0.524  0.2777 -0.1891  0.2272
47259W        W55859  20.376   3.427   2.393  0.2987 -0.0942  0.2260
47260W        W55860  20.993   3.346  32.556  0.1723  0.2490  0.1856
47261W        W55861   5.619   2.602  44.238 -0.2199  0.1000  0.0524
47262W        W55862  11.180   2.169  39.805 -0.0972  0.2859 -0.0360
47263W        W55863   1.554   4.485  28.462 -0.0870 -0.3553 -0.2302
47264W        W55864  12.639   5.475  39.647  0.2075 -0.1869  0.1259
47265W        W55865  17.037   2.020  30.014 -0.2370 -0.1832  0.1943
47266W        W55866  19.256   6.602   1.886  0.3133 -0.0514  0.0734
47267W        W55867  12.556   3.199  37.039  0.0950 -0.2265 -0.0158
47268W        W55868   8.173   2.491  38.011  0.0518 -0.4172 -0.0498
47269W        W55869  15.170   1.074  22.085  0.0389 -0.1213 -0.0287
47270W        W55870  15.966   4.305  30.652 -0.0261 -0.2696 -0.1189
47271W        W55871  20.003   2.541  36.584 -0.2594 -0.3416 -0.0237
47272W        W55872  16.134   2.158   6.122  0.0609  0.0308 -0.0087
47273W        W55873   1.754   1.385   8.768 -0.1466 -0.3239 -0.1145
47274W        W55874  14.803   3.680  37.025  0.2004  0.0152  0.0779
47275W        W55875   5.276   4.284  40.512 -0.0933  0.1072 -0.2327
47276W        W55876   9.322   3.961  34.471 -0.1589  0.1827  0.1311
47277W        W55877   0.863   3.903  35.825  0.1313 -0.1817  0.1335
47278W        W55878  16.946   4.554  34.500  0.0741 -0.0639 -0.2842
47279W        W55879   4.001   6.485   2.517  0.2698  0.3796 -0.4577
47280W        W55880   1.396   1.337   8.352 -0.2023 -0.0604  0.0151
47281W        W55881  19.197   0.462  29.705  0.1151 -0.1565  0.1717
47282W        W55882  10.850   5.962  38.275 -0.1390  0.2161 -0.0474
47283W        W55883  18.314   4.257  42.565  0.2816  0.1565  0.0393
47284W        W55884  19.459   3.088  14.520 -0.0797  0.2129  0.1142
47285W        W55885  10.878   0.999   1.820 -0.2005  0.0960 -0.0597
47286W        W55886   7.849   1.331  22.444 -0.0886  0.3213 -0.1726
47287W        W55887   0.234   5.081  14.007 -0.1535  0.3705  0.0658
47288W        W55888  11.749   0.156  41.330  0.1471  0.2642  0.0970
47289W        W55889  11.795   2.667  15.231 -0.3608 -0.2052 -0.0862
47290W        W55890  20.715   1.802   8.258  0.0108 -0.2847 -0.0344
47291W        W55891  13.476   0.682   4.250 -0.0330 -0.1519  0.0199
47292W        W55892  14.139   4.569  20.138 -0.0986  0.1607 -0.0804
47293W        W55893  12.182   3.444   8.230 -0.3043  0.1693  0.4306
47294W        W55894   5.501   2.504  23.916 -0.0326 -0.1497  0.0114
47295W        W55895   4.581   4.822  40.878 -0.1659  0.2550  0.1341
47296W        W55896  12.497   2.905   4.334 -0.2036  0.2532  0.1497
47297W        W55897  17.999   2.597  13.741 -0.1108 -0.0264  0.2933
47298W        W55898   3.504   6.317  37.783 -0.1786 -0.0459  0.0679
47299W        W55899   4.800   6.514  44.607  0.2111  0.1828 -0.0558
47300W        W55900   5.579   6.024  41.181 -0.3294 -0.4113  0.3875
47301W        W55901   0.922   5.820  38.508  0.2782 -0.2101 -0.0246
47302W        W55902  11.144   1.327  36.443  0.1600  0.0589 -0.0725
47303W        W55903   4.234   6.340  29.879 -0.1508  0.0147  0.0340
47304W        W55904  18.876   2.818  18.400 -0.0440 -0.1554  0.0823
47305W        W55905   9.221   2.504  27.128  0.0281 -0.2132 -0.1604
47306W        W55906   8.624   4.968   5.541 -0.0253 -0.0208  0.1024
47307W        W55907  14.112   3.391  20.168  0.1994  0.1039  0.0066
47308W        W55908  15.840   2.458   3.572  0.0306 -0.2927 -0.0592
47309W        W55909  17.205   2.513   4.880 -0.2071 -0.2739  0.1112
47310W        W55910   8.184   2.162   3.174  0.1703  0.1229 -0.1350
47311W        W55911  20.493   3.280  40.965  0.3689  0.0426  0.3257
47312W        W55912   7.332   5.539  37.403  0.3395  0.0028 -0.1749
47313W        W55913   4.137   4.496  14.321  0.2685 -0.1913  0.1772
47314W        W55914  14.141   0.754   2.778 -0.2822 -0.1835  0.3356
47315W        W55915   2.552   5.737   2.663 -0.1049 -0.1594  0.0875
47316W        W55916   4.991   2.457  10.523 -0.2816  0.2086 -0.0112
47317W        W55917  13.720   4.881   4.326  0.2777  0.2413  0.1728
47318W        W55918  14.055   5.167  21.303  0.0231 -0.1752 -0.0080
47319W        W55919  20.413   4.360   4.677 -0.0489  0.0239  0.3483
47320W        W55920  14.192   6.249  44.058  0.1372  0.1397  0.1254
47321W        W55921  12.732   5.645  13.551 -0.1012 -0.1498 -0.0160
47322W        W55922   3.383   4.786   1.267  0.2342 -0.0718  0.2246
47323W        W55923   7.724   5.406  30.651  0.4362 -0.0451 -0.0692
47324W        W55924   9.103   0.222   2.875  0.1626  0.0625  0.1523
47325W        W55925  10.401   3.797  32.055  0.0290 -0.0799  0.0243
47326W        W55926  16.414   5.017  21.701 -0.1470 -0.0607 -0.0584
47327W        W55927   5.623   5.551  28.545  0.1214 -0.0266  0.0238
47328W        W55928   3.770   4.493  11.199 -0.0864  0.0894 -0.0326
47329W        W55929   5.663   0.691  14.766  0.0622  0.0866 -0.0838
47330W        W55930   1.795   1.871  28.551 -0.0519  0.1191  0.0806
47331W        W55931  20.338   6.323  44.524 -0.0779 -0.3175  0.1746
47332W        W55932   6.742   2.854  15.357  0.1054 -0.2714  0.2162
47333W        W55933  17.216   2.467  37.249  0.0150 -0.1448 -0.2450
47334W        W55934   9.841   3.082   0.317  0.0288 -0.0631 -0.2421
47335W        W55935  10.226   2.090   9.014  0.1906  0.1659 -0.0928
47336W        W55936   0.586   5.417   5.970 -0.0410  0.0671 -0.0544
47337W        W55937   0.719   5.217  27.234 -0.4965  0.0546 -0.1933
47338W        W55938   8.403   3.428  31.338  0.2776  0.2399 -0.1764
47339W        W55939   4.020   1.045  29.328 -0.1066  0.1838 -0.0028
47340W        W55940   2.881   5.442  37.956  0.2186 -0.0177  0.2983
47341W        W55941  14.406   1.116  38.147 -0.1991 -0.0697 -0.0336
47342W        W55942  11.999   4.330  15.706 -0.1036 -0.0647 -0.1155
47343W        W55943  15.744   1.949  41.929 -0.1731  0.1202  0.0026
47344W        W55944   7.211   6.488  39.709  0.0277 -0.1893  0.0427
47345W        W55945  14.031   1.481  15.636  0.1973  0.0689  0.3529
47346W        W55946  14.854   6.390  17.863  0.0699 -0.1070  0.3766
47347W        W55947  19.946   3.432  38.155 -0.3137  0.1092 -0.0152
47348W        W55948   4.289   3.300  35.458 -0.0914  0.0735  0.0167
47349W        W55949  16.220   4.160   7.572 -0.2861  0.2421 -0.0582
47350W        W55950   4.228   5.245   3.054 -0.0312  0.1792 -0.0888
47351W        W55951   4.274   1.381  24.322  0.0684 -0.2677 -0.0582
47352W        W55952  15.138   5.134   3.684 -0.2047 -0.0914  0.0735
47353W        W55953   7.997   2.299   1.707 -0.3489  0.0911 -0.1782
47354W        W55954  16.616   5.858  18.410 -0.2139 -0.2088 -0.3767
47355W        W55955   3.076   4.381  31.472  0.2733  0.0806  0.0408
47356W        W55956  12.804   4.119  40.051 -0.0222 -0.2236 -0.0501
47357W        W55957  20.857   5.615   5.301 -0.0085  0.1761 -0.1390
47358W        W55958  20.141   2.557  20.821 -0.0115 -0.1829  0.1017
47359W        W55959   5.183   0.454   8.828 -0.0621 -0.1842 -0.1262
47360W        W55960  19.912   3.453   1.828 -0.0746  0.1318 -0.0619
47361W        W55961  16.473   4.517  44.881 -0.1506 -0.1178 -0.0534
47362W        W55962  16.053   3.540  13.250 -0.1471 -0.0028 -0.0725
47363W        W55963   3.883   4.422   9.396 -0.3000 -0.1231 -0.2688
47364W        W55964   4.047   0.922  27.913  0.2526 -0.0984 -0.0160
47365W        W55965   8.618   6.295  26.201 -0.1836 -0.2087 -0.1359
47366W        W55966  20.290   6.388  43.158 -0.0249 -0.0049  0.1322
47367W        W55967   8.906   1.643  27.042  0.1956 -0.4899  0.0371
47368W        W55968  17.723   5.008  18.112 -0.2506  0.0104  0.2624
47369W        W55969  12.720   1.551  34.086 -0.2127 -0.2878  0.2275
47370W        W55970  12.831   6.108  39.758 -0.0119 -0.1799  0.0076
47371W        W55971  11.791   3.718  36.816  0.2192  0.1726 -0.0950
47372W        W55972  14.808   3.288  40.886  0.0177 -0.1482  0.0227
47373W        W55973  18.227   2.689   2.836  0.0141 -0.3772  0.1123
47374W        W55974  14.616   3.426  15.444 -0.0160  0.1967  0.1026
47375W        W55975  13.178   2.715  17.073 -0.2063  0.1486  0.0983
47376W        W55976  16.181   3.240  42.389 -0.0807 -0.0291  0.2736
47377W        W55977  16.109   1.337  42.328  0.0518  0.0885 -0.0419
47378W        W55978  18.979   0.027  14.294 -0.0453  0.0417  0.0107
47379W        W55979   3.075   5.536  13.206  0.2108  0.0949  0.0241
47380W        W55980  12.525   1.293  29.591 -0.2697  0.2329  0.0710
47381W        W55981  11.716   6.242  15.306 -0.3027 -0.0823  0.1031
47382W        W55982  17.560   2.455  31.017  0.1423 -0.1674 -0.0293
47383W        W55983   4.107   5.089  26.087  0.0328 -0.2136 -0.0751
47384W        W55984  11.643   2.799  43.703 -0.1380  0.3498 -0.1609
47385W        W55985   9.716   2.877  44.927  0.1024  0.0432 -0.0394
47386W        W55986  20.751   1.058  16.536  0.2216  0.4024 -0.0872
47387W        W55987  13.846   1.320  17.499 -0.1029  0.0542  0.1466
47388W        W55988  16.628   2.424  17.529  0.2733 -0.1359  0.1463
47389W        W55989   4.883   2.011  14.682  0.2389  0.1444 -0.2057
47390W        W55990   2.727   6.484  40.385 -0.0264 -0.0283 -0.3267
47391W        W55991   8.691   4.177  25.262 -0.0837 -0.1289 -0.1290
47392W        W55992  20.252   6.326   1.573  0.0836 -0.0125 -0.2819
47393W        W55993  10.494   2.731  40.336  0.0635  0.2175  0.0762
47394W        W55994  20.069   3.225  16.001 -0.2132  0.2113 -0.2897
47395W        W55995  20.021   2.079  41.993 -0.1848  0.0980 -0.0073
47396W        W55996  14.868   4.828  29.666 -0.0137  0.0998 -0.2082
47397W        W55997  12.150   2.058   6.219 -0.0536 -0.1516 -0.1137
47398W        W55998  11.164   6.046  37.827  0.2351 -0.0036  0.0719
47399W        W55999  10.968   2.642  33.344  0.1674 -0.2130 -0.0004
47400W        W56000   1.249   5.706  14.658 -0.0506  0.0677 -0.1699
47401W        W56001   7.388   5.188  44.067  0.1852  0.2721  0.0421
47402W        W56002   9.883   1.271  35.733  0.1627  0.2447 -0.1174
47403W        W56003  15.206   2.597  10.020  0.1891 -0.0206  0.0641
47404W        W56004  18.911   5.122  20.145 -0.0428 -0.0599  0.0883
47405W        W56005   9.907   0.008   7.669  0.1433 -0.0935 -0.1241
47406W        W56006   3.438   0.170  27.291 -0.3423 -0.1981 -0.1789
47407W        W56007  15.053   6.139   1.115 -0.2010 -0.0826  0.0592
47408W        W56008   9.429   0.780  10.355 -0.3456  0.1423  0.0254
47409W        W56009   6.861   6.379  26.014 -0.2149 -0.1198  0.0805
47410W        W56010   7.091   5.128  14.107 -0.0573 -0.0273 -0.1497
47411W        W56011  16.488   6.206  41.096 -0.0317 -0.1399 -0.1202
47412W        W56012  15.109   3.588  15.571 -0.1277  0.0316  0.2217
47413W        W56013   7.402   4.727  12.252  0.1949 -0.0133 -0.0847
47414W        W56014  12.230   3.432   7.300  0.0430  0.4183  0.1625
47415W        W56015   6.213   5.455   4.857 -0.0180  0.0498 -0.0529
47416W        W56016   9.557   3.366  36.437  0.2723  0.0838 -0.2052
47417W        W56017  13.797   2.327   0.436 -0.1363 -0.0541 -0.1241
47418W        W56018   0.253   6.102  41.138  0.0248 -0.3665 -0.2764
47419W        W56019   4.669   1.061  10.506  0.2662  0.1173  0.2124
47420W        W56020   9.975   6.552  43.362 -0.2794 -0.0223  0.1592
47421W        W56021  16.634   0.042  36.672  0.0067  0.0378  0.1029
47422W        W56022  13.769   2.152  45.035 -0.1288 -0.0525 -0.0958
47423W        W56023   9.972   0.444   6.877 -0.1606 -0.3164 -0.3415
47424W        W56024  12.201   5.750   2.995 -0.2088 -0.0273 -0.1288
47425W        W56025  19.640   0.620  28.748 -0.2177  0.1117  0.0267
47426W        W56026  13.379   4.113  35.006 -0.2584  0.1369 -0.2594
47427W        W56027  14.725   4.680  36.954  0.1452  0.0624  0.0424
47428W        W56028   2.942   0.818   2.493  0.2503 -0.0485 -0.0745
47429W        W56029   4.002   6.384  29.336  0.1427 -0.2146  0.0420
47430W        W56030  15.475   5.527   3.105  0.2932 -0.0458  0.0751
47431W        W56031  17.877   2.770  32.105 -0.1723  0.2820 -0.0984
47432W        W56032  17.851   4.277  40.957 -0.2650  0.0478 -0.0139
47433W        W56033   3.229   6.149   5.963  0.1007 -0.1439 -0.1569
47434W        W56034  14.051   4.898   5.458  0.1722 -0.1004  0.1231
47435W        W56035   5.706   5.071   7.201  0.1046  0.0137  0.0792
47436W        W56036   6.195   1.191   4.161  0.0937  0.2344 -0.1523
47437W        W56037  16.831   4.730  13.420 -0.0177  0.0884  0.1063
47438W        W56038  19.279   4.634  30.492 -0.1735  0.0026 -0.1548
47439W        W56039   5.532   6.049  31.997  0.2954  0.1182 -0.5247
47440W        W56040   5.853   4.457  29.102  0.0495 -0.0544  0.0790
47441W        W56041  20.868   2.932  29.341 -0.0954  0.0661  0.0587
47442W        W56042  16.544   3.321  13.415  0.1521 -0.1995 -0.1477
47443W        W56043   6.487   0.665  22.503 -0.1385 -0.1603 -0.3302
47444W        W56044  14.724   4.086  40.490 -0.1281  0.2404  0.0352
47445W        W56045   8.505   0.322  12.789 -0.0392 -0.1057  0.1001
47446W        W56046  20.117   2.469  39.827 -0.1202  0.0939  0.2110
47447W        W56047   3.362   2.406  28.328  0.0249 -0.0820 -0.2993
47448W        W56048  10.780   3.022  29.798 -0.0695  0.4931  0.0867
47449W        W56049  15.772   4.096  11.275 -0.0533  0.1829  0.0727
47450W        W56050   8.015   6.378  33.114  0.3293  0.2652  0.2959
47451W        W56051  17.972   6.197  18.906 -0.2380  0.0833 -0.0408
47452W        W56052   7.556   3.184  23.378 -0.1756 -0.1445  0.0444
47453W        W56053  18.173   4.951   1.119 -0.0833  0.3064 -0.0338
47454W        W56054  16.729   0.610  20.345 -0.2444 -0.0948  0.0766
47455W        W56055  16.456   5.240  29.659  0.1620 -0.5031  0.3213
47456W        W56056   0.799   5.689   3.867  0.1948  0.0446  0.2169
47457W        W56057   8.565   4.653  33.506  0.0086  0.1086 -0.1622
47458W        W56058   1.613   2.360  35.068 -0.1406  0.2793  0.0586
47459W        W56059   9.341   5.261  34.201 -0.2647 -0.2655  0.1112
47460W        W56060   5.419   5.212   9.941 -0.2115  0.0752 -0.0793
47461W        W56061   2.121   0.247  30.163  0.4473 -0.0661 -0.1949
47462W        W56062  17.637   3.773  29.466 -0.1524 -0.0099 -0.0721
47463W        W56063   7.942   0.529  11.511  0.0655 -0.0835  0.0728
47464W        W56064   9.637   5.708  39.308 -0.0295  0.0184  0.1303
47465W        W56065  13.377   0.783  40.052  0.1245  0.0222 -0.1440
47466W        W56066   5.728   4.972  15.568 -0.0980  0.1625  0.0644
47467W        W56067  19.939   3.732  13.974  0.0821 -0.1510  0.2226
47468W        W56068   5.094   5.512  33.170 -0.2590 -0.0258  0.2997
47469W        W56069   6.558   1.449  43.900  0.1605 -0.0427 -0.2467
47470W        W56070  19.638   5.524  42.160  0.0053  0.0106 -0.0266
47471W        W56071  14.451   1.530   8.096  0.1049  0.1430  0.1175
47472W        W56072   9.299   4.543   8.755 -0.1547  0.0864  0.4495
47473W        W56073   4.818   3.363  44.405  0.2304  0.0900  0.0390
47474W        W56074  18.244   1.326  13.137  0.0131 -0.0389  0.2354
47475W        W56075  11.364   0.877  43.982  0.2960 -0.0527  0.1053
47476W        W56076  18.990   0.243  15.689 -0.1300  0.0180  0.1846
47477W        W56077   8.984   2.286   1.532 -0.1328 -0.1369  0.0849
47478W        W56078   9.659   6.576  38.279  0.0341  0.0067  0.3683
47479W        W56079   5.549   4.613  31.667  0.3563 -0.4403  0.1490
47480W        W56080  12.930   4.056   7.489 -0.2618 -0.0348 -0.4912
47481W        W56081   8.082   1.509  35.583 -0.1623 -0.0749 -0.0778
47482W        W56082  17.764   2.848  37.395  0.4454 -0.2628  0.0129
47483W        W56083   8.949   4.109   7.415  0.1614 -0.0433  0.0627
47484W        W56084   9.197   0.878  23.866 -0.3445  0.2650 -0.1483
47485W        W56085   0.706   0.799   9.173 -0.2516  0.1461 -0.0911
47486W        W56086   0.274   6.187  12.377 -0.3714 -0.2963 -0.2871
47487W        W56087  20.630   3.189  14.354 -0.0015 -0.1248  0.0295
47488W        W56088   9.661   1.212  36.225  0.1984  0.4019 -0.1426
47489W        W56089  12.698   0.167  18.458 -0.1603  0.0161 -0.2835
47490W        W56090   6.669   1.877  15.028  0.0153  0.2390  0.1177
47491W        W56091   0.298   4.297   2.063 -0.0254  0.1440 -0.0986
47492W        W56092  16.167   6.042  31.635  0.0339 -0.1255  0.1031
47493W        W56093   9.186   6.502  14.328  0.0984 -0.1439  0.0231
47494W        W56094   8.582   4.592  28.092  0.1692 -0.0826  0.3035
47495W        W56095   6.379   3.511  20.059  0.1232 -0.0798  0.3990
47496W        W56096   2.426   3.371  28.875 -0.0809 -0.0071  0.0927
47497W        W56097   8.707   4.555  26.745  0.0144  0.1754  0.1091
47498W        W56098  14.566   4.821  30.116  0.0168  0.2993 -0.2317
47499W        W56099   1.587   2.889  40.518 -0.1187 -0.1863 -0.1327
47500W        W56100  10.995   5.676   4.113  0.0259  0.2636  0.2873
47501W        W56101   1.427   3.023  10.173 -0.3980  0.0350  0.0039
47502W        W56102  15.242   3.173  38.046 -0.1672 -0.1763 -0.0464
47503W        W56103   8.594   3.379  15.046  0.0392 -0.0251  0.2568
47504W        W56104  15.680   1.893   4.899 -0.0864  0.2877  0.1284
47505W        W56105  13.858   1.053  14.997 -0.0016  0.0184 -0.0477
47506W        W56106   2.162   1.686  25.738 -0.0134  0.0062 -0.1886
47507W        W56107   4.579   4.615   3.592 -0.0447  0.2652  0.4117
47508W        W56108   3.183   1.996  42.705  0.1387 -0.1269 -0.4329
47509W        W56109   7.276   0.012  25.160 -0.0124 -0.2106  0.0230
47510W        W56110   9.469   6.435  32.752 -0.2336 -0.0945 -0.0841
47511W        W56111  10.166   0.371  44.693 -0.2585  0.3005  0.0304
47512W        W56112   6.064   5.373  33.611 -0.1519 -0.0493 -0.1074
47513W        W56113   0.564   2.008  36.101 -0.0758  0.1810  0.1217
47514W        W56114  18.870   3.375  35.070  0.1323 -0.0323  0.1464
47515W        W56115  18.885   3.618  37.369 -0.0348 -0.1374  0.2413
47516W        W56116   4.837   0.356  41.810  0.0788  0.1000  0.0894
47517W        W56117  13.179   3.746   6.488  0.0924 -0.0878 -0.3297
47518W        W56118   2.328   4.031   7.603 -0.3740 -0.0069 -0.1155
47519W        W56119  19.762   5.741  39.496  0.0697  0.1978 -0.3066
47520W        W56120  19.368   3.092   9.405  0.2313 -0.2136 -0.1711
47521W        W56121   9.794   1.027  32.439 -0.2087  0.0258 -0.0988
47522W        W56122  12.852   3.461   0.948  0.0835  0.2223  0.1043
47523W        W56123  10.928   2.297  35.688  0.0865  0.0219 -0.0101
47524W        W56124   0.914   2.210   0.807 -0.0753  0.0464  0.0123
47525W        W56125   4.836   5.462   8.281 -0.1825  0.0984 -0.2832
47526W        W56126  12.785   1.074  41.824 -0.0401 -0.0823  0.1176
47527W        W56127   2.426   5.099  24.660  0.2109  0.0365 -0.0184
47528W        W56128   3.926   4.505  37.504 -0.2424  0.0460 -0.1529
47529W        W56129  17.777   5.305   2.696  0.3468 -0.4551 -0.0480
47530W        W56130   1.110   5.799  42.874  0.1832 -0.1406 -0.1886
47531W        W56131  13.860   5.416  10.111 -0.2503  0.2332 -0.1262
47532W        W56132  14.833   1.630   6.240 -0.0557 -0.1286  0.0631
47533W        W56133   9.809   1.899  29.490 -0.0332 -0.1113  0.0988
47534W        W56134  12.305   5.700  36.695 -0.0913  0.2155  0.2847
47535W        W56135   9.351   2.982  43.587  0.0387  0.1431  0.0967
47536W        W56136  14.730   3.330  33.001  0.1695 -0.2863 -0.0220
47537W        W56137   8.587   5.705   4.074  0.0698  0.0374  0.1251
47538W        W56138   8.783   1.218  26.852  0.1059  0.0496  0.3157
47539W        W56139  21.130   0.600  35.169  0.3284  0.0660 -0.0348
47540W        W56140  16.458   3.942   4.700  0.1844 -0.1403 -0.0044
47541W        W56141   4.681   4.999  28.404  0.0505 -0.0786 -0.0547
47542W        W56142   7.496   2.821   2.415  0.1952  0.3651  0.0168
47543W        W56143  11.950   2.559  26.836 -0.1690 -0.0510 -0.0207
47544W        W56144   2.571   0.719  27.457  0.2446 -0.1123 -0.0165
47545W        W56145   1.025   0.455   8.345  0.2095 -0.1063 -0.0723
47546W        W56146  15.216   5.506  38.344 -0.0683 -0.2517 -0.0002
47547W        W56147   6.805   2.927  21.726 -0.0041  0.1751 -0.0145
47548W        W56148   6.374   6.445  24.634  0.1251 -0.0775 -0.0356
47549W        W56149   9.141   3.916   1.836 -0.0523  0.1564 -0.0983
47550W        W56150   6.548   1.902  13.819  0.3042  0.1953 -0.1403
47551W        W56151   8.573   5.936  38.581 -0.0430 -0.0379  0.0244
47552W        W56152   2.298   5.332  14.389  0.1485  0.0079  0.3058
47553W        W56153  13.564   6.090  38.626  0.1179 -0.3422 -0.0498
47554W        W56154  16.589   5.136   2.150 -0.0561  0.3719  0.1133
47555W        W56155  20.365   2.652  11.391  0.1282  0.0268  0.2265
47556W        W56156  12.327   4.964  43.530  0.1878 -0.3747 -0.0641
47557W        W56157  12.573   1.095   7.208 -0.0168  0.1145  0.0630
47558W        W56158   2.810   0.560  32.037  0.3320 -0.3093 -0.0375
47559W        W56159   6.978   5.798  33.756  0.1413 -0.3916 -0.0664
47560W        W56160  18.088   1.324  39.869  0.1709  0.0456  0.1417
47561W        W56161  14.771   6.452   8.600 -0.0588 -0.0355 -0.2053
47562W        W56162  17.675   4.843  14.100 -0.2391  0.0376  0.2132
47563W        W56163   8.109   2.453   3.631 -0.3377 -0.0139  0.0856
47564W        W56164  15.253   2.968  12.297  0.0808  0.0673 -0.1294
47565W        W56165  16.194   1.556  24.526  0.0890 -0.1123 -0.0202
47566W        W56166  10.170   1.933  43.940 -0.0390  0.0125 -0.2923
47567W        W56167   0.824   0.899   6.604  0.1206 -0.1122 -0.1014
47568W        W56168  18.972   4.021  44.924 -0.0134  0.0322 -0.3417
47569W        W56169   0.578   4.425  33.673 -0.0321 -0.0247  0.0337
47570W        W56170   2.535   4.768   0.659 -0.1865 -0.2322 -0.1261
47571W        W56171  17.068   0.629  32.598 -0.1476  0.1054 -0.4426
47572W        W56172  17.750   1.410  11.926  0.0107 -0.2384 -0.1522
47573W        W56173  10.833   1.263  27.376  0.2770 -0.2199 -0.0801
47574W        W56174   6.352   3.041  43.222 -0.0070  0.0795  0.2245
47575W        W56175   6.056   3.859  21.844  0.1706  0.0324  0.0118
47576W        W56176   2.588   4.195   0.464  0.3351  0.2419  0.3372
47577W        W56177   5.521   5.652  32.923  0.2038  0.2488 -0.2869
47578W        W56178  20.192   5.275  36.209  0.0292  0.0601  0.1332
47579W        W56179  15.371   1.808  17.026  0.2275  0.0432 -0.0748
47580W        W56180  16.833   0.434   3.683  0.2301 -0.4154  0.1959
47581W        W56181   7.695   5.293  23.569 -0.2214 -0.0443 -0.1706
47582W        W56182  10.471   2.106  26.720  0.1199  0.0452  0.2201
47583W        W56183   7.086   0.688  25.657  0.3504  0.0529 -0.0140
47584W        W56184   2.253   2.918   0.134  0.2520 -0.0472  0.1250
47585W        W56185  12.196   5.179  10.564 -0.1292  0.1909 -0.1685
47586W        W56186   2.611   3.301   9.186  0.0080  0.2400  0.1017
47587W        W56187   2.253   3.151  31.718 -0.0608  0.0383  0.2136
47588W        W56188  17.331   1.848   2.113  0.0732  0.2745 -0.0612
47589W        W56189   4.380   2.184  30.848 -0.0662  0.0974  0.6534
47590W        W56190   3.661   0.862  25.794  0.0124 -0.1880 -0.0059
47591W        W56191  20.323   2.926  39.655  0.0963 -0.1454  0.2428
47592W        W56192   5.017   6.532  40.069  0.0753 -0.0039  0.0723
47593W        W56193  17.696   2.276   3.338 -0.1164 -0.0561 -0.0722
47594W        W56194  20.977   5.007  37.889 -0.2730  0.0315 -0.1360
47595W        W56195  17.551   5.909  32.821  0.1386  0.1770  0.0904
47596W        W56196   0.462   3.815  25.837 -0.2440 -0.0008  0.0216
47597W        W56197  19.758   2.537  35.864  0.1843 -0.2015 -0.2977
47598W        W56198   8.008   2.341  31.442 -0.0300 -0.0051  0.0709
47599W        W56199   1.544   2.916  14.054  0.1279 -0.0123 -0.0737
47600W        W56200  17.069   0.176  42.933 -0.1428 -0.2172 -0.2819
47601W        W56201  10.250   5.577   2.421  0.1186 -0.1734  0.0498
47602W        W56202  13.835   4.849  31.920  0.2641 -0.0292  0.0027
47603W        W56203   6.625   5.311  11.382 -0.0420  0.1599 -0.0457
47604W        W56204  15.240   4.394  21.986  0.1477  0.1433 -0.0916
47605W        W56205  12.801   6.537  14.693 -0.0263  0.0181 -0.1043
47606W        W56206  18.845   4.859  39.541 -0.1477 -0.1901 -0.0559
47607W        W56207   6.827   5.922  43.896  0.1154  0.1320  0.1787
47608W        W56208  17.109   1.860  19.657 -0.0043  0.3654 -0.2164
47609W        W56209  15.977   6.346  12.705  0.2286 -0.0760  0.0753
47610W        W56210   1.785   1.447   1.110  0.1180  0.0798 -0.0209
47611W        W56211  18.259   3.159  22.674  0.0062  0.1006  0.0612
47612W        W56212   5.674   4.194   1.010 -0.1268  0.1015 -0.3714
47613W        W56213  11.222   3.753  39.709  0.2391  0.1367 -0.1874
47614W        W56214   4.293   5.324  37.412  0.0508 -0.1996 -0.0442
47615W        W56215  16.448   2.368  19.497  0.2966 -0.3625  0.0566
47616W        W56216   5.640   3.766   3.128 -0.0214 -0.1375  0.1512
47617W        W56217   6.427   4.098  14.658 -0.0203 -0.1662 -0.1208
47618W        W56218  13.239   6.406  39.832  0.0085 -0.1802 -0.0940
47619W        W56219   0.889   6.458  35.489  0.0146  0.0927  0.0210
47620W        W56220  13.832   2.573  38.469 -0.0675  0.0538  0.0174
47621W        W56221   2.846   0.588  33.218 -0.2195  0.0218 -0.1211
47622W        W56222  10.931   5.776   9.675 -0.2058  0.0034  0.3070
47623W        W56223  12.428   6.179   3.179  0.0003 -0.0482  0.2437
47624W        W56224  11.386   1.414  10.835 -0.2475  0.2637  0.0673
47625W        W56225   9.126   1.875  37.199  0.2521  0.1583 -0.0316
47626W        W56226   4.939   5.737   7.891 -0.2345 -0.0432  0.1652
47627W        W56227   1.577   0.455  40.505 -0.1742 -0.1739 -0.3856
47628W        W56228  20.786   4.441  40.689  0.1676 -0.2144 -0.0513
47629W        W56229  16.246   6.341  14.162  0.1587 -0.2504  0.1033
47630W        W56230  19.069   3.358  31.217  0.0259  0.0413  0.1181
47631W        W56231  18.630   2.762  37.368  0.0509  0.3523 -0.0583
47632W        W56232   3.624   1.189  34.306 -0.1954  0.1882  0.2190
47633W        W56233   3.772   6.482  35.116 -0.0315  0.3119  0.0086
47634W        W56234   2.701   0.297  37.996 -0.1333 -0.1202 -0.0855
47635W        W56235   8.357   4.791  15.783  0.0874  0.0084  0.0084
47636W        W56236  15.578   3.425  10.058  0.0285 -0.1244 -0.5106
47637W        W56237   2.006   2.632   2.252 -0.0057 -0.1253 -0.2649
47638W        W56238  16.275   3.296   1.875 -0.0145 -0.0962 -0.0427
47639W        W56239   0.587   0.108  30.638 -0.0950 -0.0477  0.1455
47640W        W56240  11.175   2.360  36.640  0.2220 -0.0403  0.0308
47641W        W56241   9.223   0.975  31.662 -0.1238 -0.1357  0.0208
47642W        W56242  11.551   1.599  26.267  0.1251 -0.0072  0.1343
47643W        W56243  15.507   3.529  44.825  0.1296  0.2515 -0.2308
47644W        W56244   4.270   5.363  39.613  0.2003  0.0190  0.2102
47645W        W56245  14.001   1.992  37.771  0.0861 -0.1009 -0.4062
47646W        W56246   2.849   2.711  44.192 -0.0023 -0.0061 -0.3569
47647W        W56247   8.546   1.816  43.322  0.0286  0.0974 -0.1716
47648W        W56248   7.014   4.336  26.225  0.0951 -0.4239 -0.0674
47649W        W56249   5.778   6.167  37.961 -0.0633 -0.1561 -0.1905
47650W        W56250   6.932   3.777   9.949  0.1921 -0.0155  0.2578
47651W        W56251   4.111   5.348  29.552 -0.0441 -0.1573  0.2980
47652W        W56252  19.500   6.174  31.307  0.0194  0.2890  0.0021
47653W        W56253   2.259   0.781  30.408 -0.2937 -0.2086  0.1943
47654W        W56254   0.303   2.770  10.506  0.1807  0.0832  0.0136
47655W        W56255   8.045   5.952  43.736 -0.1072 -0.0587  0.0744
47656W        W56256  15.053   5.913  29.536 -0.1436  0.3760  0.0105
47657W        W56257  11.196   5.438  36.633 -0.1338  0.0864  0.1586
47658W        W56258  18.854   2.887  10.182 -0.2019 -0.1018  0.0943
47659W        W56259   6.587   0.826   6.763 -0.3709  0.1189  0.0589
47660W        W56260   5.610   0.987  24.058  0.0927  0.0082  0.0005
47661W        W56261   2.349   6.526  33.499 -0.2480 -0.0399 -0.0286
47662W        W56262   6.955   3.326   9.718 -0.0553  0.0495 -0.0366
47663W        W56263  20.050   2.374  14.181 -0.0094 -0.1742 -0.1223
47664W        W56264  20.881   6.053  13.514 -0.1019  0.1188  0.1556
47665W        W56265  19.043   6.384  18.827  0.1328  0.1144 -0.1778
47666W        W56266  18.559   6.487  22.088 -0.2996 -0.0604 -0.0214
47667W        W56267  17.039   4.749  32.715  0.0578 -0.1352 -0.0337
47668W        W56268   5.030   1.490  39.200 -0.3858 -0.0667 -0.2217
47669W        W56269  20.979   1.480  34.918 -0.1067  0.1914  0.3448
47670W        W56270   8.118   5.550  42.672 -0.2791  0.4668  0.1350
47671W        W56271  12.385   2.095   4.516  0.0404 -0.0114 -0.1651
47672W        W56272   2.003   5.777   2.091  0.0931 -0.0466  0.1311
47673W        W56273   0.724   2.932  30.361  0.2073 -0.2921  0.0014
47674W        W56274  11.461   6.196  16.378 -0.0482  0.0028  0.0297
47675W        W56275  20.497   5.447  45.123 -0.1743 -0.0544  0.1625
47676W        W56276  14.711   3.565  17.657  0.2432 -0.1136  0.0473
47677W        W56277  16.074   5.106   3.406 -0.0582 -0.0671 -0.0099
47678W        W56278   3.659   1.559  15.639 -0.2290 -0.0200  0.0575
47679W        W56279  10.204   0.370  32.952  0.0990 -0.2693 -0.1502
47680W        W56280   0.750   1.137   0.442  0.0258 -0.3212  0.2538
47681W        W56281  15.730   3.437  16.751  0.3940  0.3223 -0.2138
47682W        W56282  10.454   2.044   4.327 -0.0772  0.1781  0.1156
47683W        W56283   8.686   1.366   3.959 -0.3257  0.1253 -0.1454
47684W        W56284   5.323   1.745  13.015  0.0913 -0.0817 -0.0838
47685W        W56285  13.871   3.084   9.811  0.2585  0.1665  0.1439
47686W        W56286   1.040   3.643  14.210  0.2294  0.2696  0.1048
47687W        W56287   2.041   1.947  27.951 -0.2723  0.1868  0.2262
47688W        W56288   0.315   0.297  29.557 -0.0518 -0.1739  0.2860
47689W        W56289   2.671   4.665  15.083  0.1636  0.0100 -0.0165
47690W        W56290  16.254   5.955  12.354 -0.1396 -0.0706  0.4673
47691W        W56291  14.346   6.335  31.801 -0.1615  0.0057  0.4854
47692W        W56292   6.976   2.926   0.386 -0.1162 -0.0487 -0.0456
47693W        W56293  10.478   5.331  41.975  0.1415  0.1339  0.1702
47694W        W56294  16.094   2.990  21.123  0.2927  0.1903 -0.0944
47695W        W56295   6.666   5.812  15.106  0.2148 -0.2108  0.0372
47696W        W56296  13.837   0.960   0.769 -0.0851 -0.2696  0.2074
47697W        W56297   0.070   2.246  41.721 -0.1659 -0.3311 -0.2459
47698W        W56298  18.338   0.708  14.693  0.0146 -0.0740 -0.3279
47699W        W56299  17.633   6.363  16.906 -0.1681 -0.0019 -0.2235
47700W        W56300   5.362   1.260   1.678 -0.0321  0.1351 -0.0050
47701W        W56301   2.151   6.116  10.975  0.0783 -0.0617 -0.1180
47702W        W56302  17.887   1.068   1.919  0.3647  0.1948 -0.0861
47703W        W56303  19.269   4.494  41.663  0.0180 -0.0696 -0.2276
47704W        W56304   2.869   2.803  23.490  0.3190 -0.1366 -0.0469
47705W        W56305   4.066   1.741   2.713 -0.0672 -0.0419 -0.2385
47706W        W56306  17.835   6.577  12.852 -0.0907 -0.2425  0.1728
47707W        W56307  20.147   1.509  40.917 -0.2609 -0.1222 -0.1168
47708W        W56308   5.033   5.452  44.652  0.0689 -0.3315 -0.1510
47709W        W56309  19.586   4.864  36.704 -0.0553  0.0860 -0.0323
47710W        W56310   3.297   1.759  36.558 -0.1061  0.0753  0.0498
47711W        W56311  16.182   1.046  25.458  0.0420  0.0978 -0.1466
47712W        W56312  17.560   2.851   6.638  0.0534 -0.0339  0.3373
47713W        W56313   9.062   5.210   2.412  0.0878 -0.0669 -0.1047
47714W        W56314  15.147   1.789  32.811  0.1272  0.0247  0.0880
47715W        W56315   9.337   2.769  42.548  0.4173 -0.3202  0.4084
47716W        W56316  18.544   2.338   1.247  0.0236  0.2684 -0.2352
47717W        W56317   8.372   3.881  10.556  0.0328  0.1178  0.1581
47718W        W56318  19.334   1.320   1.874  0.1466  0.3716  0.0645
47719W        W56319   7.231   2.087  21.678 -0.2353 -0.4970 -0.1761
47720W        W56320  10.827   2.047   9.180 -0.0941  0.0516 -0.2083
47721W        W56321  20.840   2.419   3.461 -0.0224  0.0453 -0.0706
47722W        W56322  20.804   4.043  38.358  0.0347 -0.1110 -0.0092
47723W        W56323   5.116   4.104  27.721 -0.0205  0.1973  0.2272
47724W        W56324  13.690   3.754  36.422 -0.0130  0.0824 -0.0798
47725W        W56325  13.944   4.968  36.532 -0.3493  0.2208  0.0141
47726W        W56326  14.801   5.299   5.866 -0.5278  0.1828 -0.1062
47727W        W56327  20.869   0.383  37.658  0.2247  0.0437 -0.4431
47728W        W56328   1.968   1.072  28.830  0.1400  0.4470  0.2085
47729W        W56329  14.193   0.486   5.384 -0.0712 -0.0762  0.0636
47730W        W56330  17.993   5.746   1.551  0.1035 -0.2406 -0.0924
47731W        W56331   0.045   4.863  43.884 -0.3869  0.2327  0.0904
47732W        W56332  20.620   1.917  19.307 -0.2943 -0.1732 -0.1356
47733W        W56333   5.642   3.097  12.348  0.0414 -0.1789  0.0975
47734W        W56334  20.870   3.360   2.433  0.3557  0.1294  0.1728
47735W        W56335   0.097   2.617   8.595 -0.0909  0.0677 -0.2140
47736W        W56336  15.908   6.527  31.453  0.3163  0.1407  0.0697
47737W        W56337  11.613   2.101  30.143 -0.1437  0.1800 -0.1091
47738W        W56338   1.940   5.488  37.297  0.0136 -0.2084  0.3620
47739W        W56339  20.185   3.620  14.350 -0.0711  0.0649  0.0559
47740W        W56340  12.102   6.483  11.647  0.0666  0.0720 -0.1290
47741W        W56341  11.378   6.457  34.360  0.0382  0.1031  0.0790
47742W        W56342  17.792   0.492   4.072  0.0408 -0.0125 -0.3428
47743W        W56343   5.653   0.637  43.198 -0.1571 -0.0260 -0.0168
47744W        W56344   7.448   5.304   2.269  0.2294 -0.0730 -0.0635
47745W        W56345  17.586   5.063  30.098  0.0924 -0.1045 -0.1117
47746W        W56346  13.526   1.966  11.055 -0.0030 -0.0055  0.2413
47747W        W56347  13.836   2.708  21.878 -0.3062  0.0031  0.3391
47748W        W56348   7.402   1.901  23.060  0.2322  0.0198 -0.1982
47749W        W56349  17.020   6.309   0.531  0.0710  0.0420  0.1510
47750W        W56350   7.760   4.056  39.112  0.1530  0.0289 -0.0545
47751W        W56351  13.239   2.241  12.417 -0.0757 -0.0493 -0.0675
47752W        W56352   9.001   0.930   8.724  0.0666  0.2077  0.0575
47753W        W56353  18.712   5.474  44.273  0.0223 -0.1818 -0.0913
47754W        W56354  16.144   3.615  16.388 -0.0175  0.0029  0.0932
47755W        W56355  16.078   3.742  31.591  0.0141  0.0382  0.0736
47756W        W56356   6.244   0.323  14.765 -0.3443 -0.0013  0.0350
47757W        W56357  12.185   5.836   0.527  0.1819  0.2456  0.0178
47758W        W56358  10.307   3.360  29.552  0.3035  0.0766 -0.1871
47759W        W56359  14.879   2.488   8.446 -0.2868  0.2571 -0.1167
47760W        W56360  10.975   6.503   2.260  0.2730 -0.1296 -0.0086
47761W        W56361   4.583   0.909   5.300 -0.3541  0.1049  0.1179
47762W        W56362  14.044   0.526  31.858  0.0226 -0.2690 -0.1467
47763W        W56363  15.290   4.712  15.747  0.1509 -0.0263 -0.1684
47764W        W56364  18.211   0.610   7.540 -0.1224  0.2464  0.0450
47765W        W56365  14.507   3.090  16.386 -0.0395  0.2011  0.1129
47766W        W56366   7.359   3.167  25.304  0.1936 -0.2367  0.0076
47767W        W56367  11.899   4.744   5.705  0.0122  0.0237  0.1629
47768W        W56368   7.564   5.669   7.432  0.0460 -0.0619  0.2979
47769W        W56369  10.534   0.218   6.416 -0.1494  0.2631  0.2927
47770W        W56370   7.931   3.804  41.165 -0.1151  0.0702 -0.0712
47771W        W56371  15.554   4.869  16.132 -0.0299  0.2775 -0.0621
47772W        W56372  16.963   2.143  41.714  0.1856  0.1656  0.2403
47773W        W56373  17.223   0.371  34.257 -0.0569 -0.1080  0.1146
47774W        W56374   0.882   3.701  13.044  0.0877 -0.2520  0.0038
47775W        W56375  15.283   5.059  36.119 -0.0920 -0.0491  0.0111
47776W        W56376   5.757   6.185   8.605  0.1499 -0.0220  0.2057
47777W        W56377   2.890   6.232  43.449 -0.0640  0.2762 -0.2550
47778W        W56378  14.587   5.419  40.282 -0.1278 -0.2581 -0.1091
47779W        W56379  12.467   5.365   0.798 -0.1928  0.0940 -0.1363
47780W        W56380   1.918   5.435  40.397  0.0863  0.0053 -0.2952
47781W        W56381  16.165   5.018  15.584  0.1464 -0.0598  0.1144
47782W        W56382   2.550   0.920  26.563 -0.0360 -0.0535  0.3755
47783W        W56383   8.381   3.575  13.344  0.0090 -0.1071 -0.0804
47784W        W56384  14.543   0.083   5.040 -0.2980 -0.0494 -0.0687
47785W        W56385  13.877   3.910  11.752 -0.2625  0.2554 -0.1437
47786W        W56386   1.080   2.989  36.261  0.0574  0.1281 -0.0013
47787W        W56387   5.671   2.984  20.895 -0.2221 -0.2647 -0.1267
47788W        W56388   7.248   3.001   7.194  0.2493  0.2468 -0.1317
47789W        W56389   6.636   2.661  28.141  0.2208  0.0011 -0.1304
47790W        W56390  20.296   3.214  31.130 -0.0163 -0.0825 -0.2603
47791W        W56391   3.181   0.304  13.441  0.2007  0.0320 -0.0900
47792W        W56392  11.312   1.859  40.730 -0.1698 -0.0563 -0.3535
47793W        W56393  12.223   2.534   8.335 -0.1082  0.0435  0.1693
47794W        W56394   5.315   5.951  33.293  0.0394 -0.0427 -0.1857
47795W        W56395  10.870   5.055  13.157  0.0584  0.3017 -0.0011
47796W        W56396  11.243   3.965  27.478 -0.2892 -0.0490  0.1228
47797W        W56397   9.777   2.732  29.640 -0.3592  0.0399 -0.0567
47798W        W56398   7.560   0.315   9.887 -0.2367 -0.1391  0.0886
47799W        W56399   7.249   0.863  34.031  0.1552  0.2410  0.1813
47800W        W56400   8.025   6.236  27.745 -0.2096 -0.0065 -0.2359
47801W        W56401  19.926   3.217   9.456  0.1506 -0.0551 -0.2253
47802W        W56402  17.053   5.524   7.712  0.1700 -0.0917  0.2389
47803W        W56403   3.190   2.961  43.349 -0.1631 -0.1123  0.0980
47804W        W56404   7.065   3.612   0.536  0.0457  0.0363 -0.2329
47805W        W56405   5.144   3.063  35.073 -0.1608  0.0527 -0.1114
47806W        W56406   9.511   3.321  32.584  0.1253  0.0424 -0.1730
47807W        W56407  15.210   1.009   3.932  0.1034  0.1986  0.1053
47808W        W56408   1.306   5.034   7.268 -0.0544  0.3100 -0.0984
47809W        W56409  12.051   1.785  38.802 -0.1360  0.3998  0.0731
47810W        W56410   4.877   2.000  29.451 -0.0038  0.1339 -0.0746
47811W        W56411  11.365   0.300  30.105 -0.0130  0.0349 -0.2276
47812W        W56412   9.277   4.276  37.688  0.1267  0.2101  0.2399
47813W        W56413   3.403   6.196  35.120  0.0785 -0.0317 -0.1049
47814W        W56414   8.623   6.488  32.602 -0.0620  0.0988 -0.2968
47815W        W56415  10.640   2.074   5.305  0.2516 -0.1976 -0.1237
47816W        W56416  13.871   4.850  11.702 -0.1390  0.0136 -0.0392
47817W        W56417  18.198   3.854  36.616 -0.2518  0.1889 -0.0581
47818W        W56418   7.130   4.669  35.324  0.3205 -0.1974  0.2325
47819W        W56419   4.298   5.198  43.970  0.2537 -0.0681  0.1688
47820W        W56420  10.515   0.242  28.530 -0.0532  0.1353 -0.1618
47821W        W56421  11.572   4.058  36.512 -0.0682  0.1866  0.1519
47822W        W56422  10.903   3.572  26.595 -0.0608  0.0367  0.1667
47823W        W56423  12.958   0.261   4.833  0.1799  0.1195 -0.0426
47824W        W56424   5.918   6.547   5.079  0.1482  0.2129  0.0385
47825W        W56425   3.031   0.783  34.277  0.0273  0.0639 -0.0391
47826W        W56426  19.683   3.234   7.826  0.1733  0.0698  0.0315
47827W        W56427   5.577   5.390  43.181 -0.2460  0.1881  0.0416
47828W        W56428   1.461   2.415  40.400  0.1264 -0.1287  0.1056
47829W        W56429   3.810   1.442  34.766 -0.0723 -0.1014  0.2216
47830W        W56430   4.029   0.169  39.095 -0.0357 -0.1679 -0.0168
47831W        W56431  10.399   5.018  26.296 -0.1139 -0.1606  0.0141
47832W        W56432  12.430   0.582   7.269 -0.0042 -0.0124  0.2788
47833W        W56433   5.862   4.682  36.483  0.0536 -0.4789 -0.0487
47834W        W56434  18.638   2.595  30.302  0.0801 -0.0546  0.0451
47835W        W56435  13.523   5.985   8.474  0.2338  0.0231  0.1536
47836W        W56436  19.921   5.927   4.040  0.2089  0.0962  0.0139
47837W        W56437   2.930   1.326   9.856 -0.1246  0.0543 -0.3159
47838W        W56438  20.850   5.001  40.678  0.1082 -0.1247  0.0790
47839W        W56439  11.946   3.962  43.229  0.1302 -0.0418 -0.0615
47840W        W56440   2.612   6.088  40.699  0.2516  0.0007  0.0326
47841W        W56441   3.133   2.214   5.794  0.2328  0.1735 -0.1931
47842W        W56442   8.173   3.953  24.398 -0.0540  0.0394  0.1750
47843W        W56443   9.067   4.852  12.959 -0.0009 -0.1287 -0.1932
47844W        W56444  17.526   0.189  10.181 -0.0680  0.0890  0.1527
47845W        W56445  16.705   4.347  31.820 -0.0204  0.1153 -0.4803
47846W        W56446  14.813   1.744   2.062  0.0260  0.2287 -0.0872
47847W        W56447   2.443   0.293   8.543 -0.4320  0.0148  0.0482
47848W        W56448  10.359   0.268  32.395 -0.1488 -0.0472 -0.2623
47849W        W56449   5.067   0.809  31.104  0.0029  0.1192  0.0735
47850W        W56450   6.773   2.592   4.375  0.3766 -0.0989 -0.4208
47851W        W56451   0.731   1.339  12.348  0.2493  0.1263  0.0579
47852W        W56452   1.978   0.341   8.787 -0.1434 -0.0362 -0.1883
47853W        W56453   7.238   4.266  42.385  0.1149  0.0967  0.1091
47854W        W56454   7.669   4.815  26.390 -0.0827  0.1306  0.0475
47855W        W56455   3.111   6.230  28.887  0.0248 -0.1555 -0.0009
47856W        W56456  17.396   0.131  32.807  0.1775  0.0172  0.0087
47857W        W56457  13.990   4.660   8.089  0.1015 -0.0456 -0.2178
47858W        W56458   0.168   2.522  31.990 -0.1748 -0.2031 -0.1604
47859W        W56459   5.120   3.640  37.512 -0.2947  0.1157 -0.5064
47860W        W56460  18.592   2.292  34.236  0.1340 -0.1380  0.2833
47861W        W56461  10.616   2.639   9.848 -0.0723  0.5642 -0.2868
47862W        W56462   9.712   1.599  13.704 -0.1169  0.2063  0.0328
47863W        W56463   8.425   0.747  44.403  0.1793  0.0546 -0.1227
47864W        W56464   0.679   5.593  14.505 -0.0889  0.0273  0.2656
47865W        W56465   6.928   4.272  37.452 -0.2980  0.1543  0.0019
47866W        W56466   8.263   1.568  32.649 -0.1767  0.0981  0.0115
47867W        W56467  12.675   1.651  33.025 -0.1085  0.0587 -0.0944
47868W        W56468   8.475   2.627  27.504 -0.0152 -0.0879 -0.0060
47869W        W56469   0.414   0.513   5.587 -0.1492 -0.0286  0.1421
47870W        W56470  12.157   5.543  11.502 -0.0695 -0.0988  0.1326
47871W        W56471  12.793   2.842  44.869 -0.0505  0.0263 -0.0944
47872W        W56472   5.430   0.791   4.133 -0.3336  0.0341  0.1150
47873W        W56473  18.136   4.325   9.652 -0.1774  0.0969  0.1687
47874W        W56474   2.688   4.885  42.058  0.0673  0.0476 -0.3264
47875W        W56475  21.100   5.282   7.793 -0.0955  0.0513  0.1538
47876W        W56476  14.040   6.292  18.951  0.1480  0.0177  0.0772
47877W        W56477   0.268   0.093  36.309 -0.4649  0.2637  0.1892
47878W        W56478  17.919   3.847  43.325  0.1732 -0.1257 -0.0333
47879W        W56479   9.615   3.804  16.018  0.0196  0.2756  0.3328
47880W        W56480   2.312   0.318  30.730 -0.1864 -0.1844  0.1256
47881W        W56481  12.703   0.913   2.864  0.0308  0.2400  0.1040
47882W        W56482   9.860   6.100  36.849 -0.2294  0.2507 -0.2609
47883W        W56483  17.977   1.147  29.651 -0.0189  0.1917 -0.1510
47884W        W56484   0.949   2.015   1.441  0.0442 -0.2606  0.3388
47885W        W56485  12.844   2.600  15.248  0.2006  0.1066  0.1235
47886W        W56486   8.314   0.094  31.496  0.1256 -0.0931  0.0556
47887W        W56487  13.610   2.529   8.672  0.1742  0.1721  0.0915
47888W        W56488   7.853   4.657   4.829 -0.2054 -0.0852  0.0586
47889W        W56489   6.131   2.338  30.429  0.0703 -0.2501  0.0879
47890W        W56490  12.643   3.292  42.520 -0.2142 -0.1984 -0.0925
47891W        W56491   3.205   4.551   8.249 -0.0665  0.0291  0.1798
47892W        W56492  13.937   2.692  36.800 -0.3257  0.0685  0.0863
47893W        W56493   8.903   1.317  26.113 -0.0299  0.2377  0.0958
47894W        W56494   1.548   2.530  30.673  0.0588  0.2464  0.0131
47895W        W56495   9.908   5.460  13.276  0.1139 -0.2044 -0.1285
47896W        W56496   7.060   2.282   0.751  0.0720  0.1102  0.1840
47897W        W56497   8.680   0.105  40.681  0.2176  0.0144 -0.0182
47898W        W56498  12.793   0.759   4.529 -0.2339 -0.2623 -0.0722
47899W        W56499  17.431   2.621  36.318  0.2407 -0.1875 -0.2619
47900W        W56500  14.935   4.144  21.686 -0.2007  0.0595  0.3536
47901W        W56501   7.787   2.598  26.036  0.0007  0.0033 -0.1515
47902W        W56502  13.992   6.248  17.627 -0.0992 -0.4078 -0.1439
47903W        W56503   2.487   2.597   3.834 -0.1886 -0.2326  0.1628
47904W        W56504  18.803   4.638   0.673  0.0192 -0.6740 -0.2661
47905W        W56505   6.411   0.626  43.335  0.0173 -0.0009 -0.0992
47906W        W56506   4.565   0.952  29.583  0.3246 -0.1458 -0.1587
47907W        W56507  12.701   5.146  39.267 -0.2144  0.1470  0.2006
47908W        W56508  16.730   6.345   9.906 -0.0068 -0.2585  0.2440
47909W        W56509  12.751   5.224  40.108  0.2761 -0.2231 -0.0266
47910W        W56510  19.417   1.589  40.289  0.1966  0.2682  0.0844
47911W        W56511   4.495   4.337  22.637  0.0712 -0.2103 -0.0563
47912W        W56512  19.811   3.622  36.776  0.0562  0.1455  0.0512
47913W        W56513   5.405   0.639  15.249 -0.2660  0.0716  0.0628
47914W        W56514   3.495   1.062  38.630 -0.0407  0.3372 -0.0899
47915W        W56515   7.836   6.451  38.147  0.1984  0.2263  0.2796
47916W        W56516   6.061   4.511  20.971  0.1515 -0.2250 -0.1050
47917W        W56517  19.451   3.423  29.028 -0.0873 -0.1565 -0.2424
47918W        W56518  10.555   4.258  37.992 -0.1272  0.2255  0.4162
47919W        W56519  13.760   0.476   9.286  0.0726  0.1682 -0.0681
47920W        W56520   9.052   4.065  28.766 -0.1147 -0.0503 -0.0192
47921W        W56521  12.982   5.352  42.515 -0.3240  0.2361  0.1503
47922W        W56522  10.397   3.247  34.395 -0.0716 -0.1369  0.2323
47923W        W56523   7.777   4.713  26.870  0.4213 -0.1795 -0.1083
47924W        W56524  15.447   4.269  36.556  0.2726  0.0761  0.1935
47925W        W56525  16.754   6.282   2.393 -0.1664 -0.2123  0.1260
47926W        W56526   5.656   3.298  23.488  0.0116  0.0371  0.0762
47927W        W56527  16.122   2.364  13.850 -0.2561 -0.1824 -0.3205
47928W        W56528   3.804   2.387  35.313  0.2731 -0.4833 -0.0635
47929W        W56529   0.659   6.483  28.561  0.3650  0.1547 -0.2750
47930W        W56530   8.153   4.444   9.143 -0.0470  0.1945  0.0506
47931W        W56531   6.970   5.867  32.398 -0.1450  0.1648  0.3977
47932W        W56532  14.148   1.730  32.752  0.3575  0.1130  0.0697
47933W        W56533  10.286   0.281  28.012 -0.0971  0.0381  0.1282
47934W        W56534  12.035   2.450   1.481 -0.1620  0.0586  0.2181
47935W        W56535   0.971   5.574  44.146 -0.1135  0.1387  0.1701
47936W        W56536   9.912   3.886   0.205  0.1829  0.0079 -0.1219
47937W        W56537  10.581   1.293   9.783 -0.0564 -0.0981 -0.2627
47938W        W56538  18.070   2.742  17.411 -0.0518  0.0437 -0.0351
47939W        W56539  19.770   0.237  20.319  0.2392  0.0336 -0.1208
47940W        W56540  18.248   0.504   3.399  0.1538  0.1980  0.1038
47941W        W56541  12.879   6.378  40.773 -0.0149 -0.1761  0.3461
47942W        W56542   9.638   6.328  34.035 -0.0911  0.2871  0.0929
47943W        W56543   6.493   6.473  30.370  0.0720  0.0739  0.0347
47944W        W56544   0.404   3.424  31.024 -0.1564  0.1010 -0.1035
47945W        W56545   0.603   4.491  37.236  0.0644  0.1669  0.0817
47946W        W56546  20.283   6.563  38.761  0.1670  0.2219 -0.0902
47947W        W56547  14.294   2.654  13.276  0.2877 -0.1472 -0.2653
47948W        W56548   7.279   4.553  24.908 -0.2923 -0.2213  0.1205
47949W        W56549   6.949   2.020  12.928  0.0907 -0.0446  0.2331
47950W        W56550  11.257   4.983  42.582  0.0601  0.2823  0.0172
47951W        W56551   6.107   4.619  36.951 -0.0730 -0.2376 -0.2135
47952W        W56552   5.225   5.383  35.381  0.0886 -0.2103  0.0405
47953W        W56553   4.662   0.068  41.365 -0.2701  0.0077 -0.1298
47954W        W56554  16.692   4.547  44.058 -0.1938  0.2407 -0.2559
47955W        W56555  12.520   5.031  29.618  0.1970 -0.0387 -0.0736
47956W        W56556   9.813   0.390   4.956 -0.1158  0.0241 -0.0768
47957W        W56557   2.285   5.087   2.251  0.0359  0.2592 -0.0825
47958W        W56558   2.109   5.237   4.959 -0.0415 -0.0171 -0.0443
47959W        W56559  17.835   0.430  36.463 -0.1915  0.0011  0.1262
47960W        W56560  20.606   6.169  16.978 -0.1624  0.1756 -0.0554
47961W        W56561   7.671   5.890  25.384 -0.1131  0.0500 -0.2049
47962W        W56562   1.954   6.394  34.521  0.0605 -0.0274  0.1688
47963W        W56563   5.051   1.946  20.510  0.1049 -0.1928 -0.2188
47964W        W56564  18.539   1.846   6.408  0.0232 -0.0599 -0.1828
47965W        W56565  12.300   6.329  32.354 -0.0769 -0.1367 -0.0360
47966W        W56566   9.488   2.120  13.773 -0.0036 -0.2578  0.1257
47967W        W56567   0.319   5.298  10.267  0.0684 -0.1276  0.3260
47968W        W56568   8.151   4.949  12.957  0.0479 -0.1031  0.1476
47969W        W56569   6.169   2.055  34.885 -0.2666  0.0717  0.0571
47970W        W56570  19.202   4.168  40.359  0.0275  0.0541  0.0268
47971W        W56571  17.869   1.271  19.781  0.0031  0.0725  0.4612
47972W        W56572   1.111   5.320   4.739  0.0989  0.0903 -0.1414
47973W        W56573   9.545   1.268  14.144 -0.3092  0.0534 -0.0128
47974W        W56574   4.183   4.754  10.420 -0.1449  0.0491  0.2844
47975W        W56575   9.828   1.821   9.285  0.0234 -0.4675  0.1866
47976W        W56576  13.499   4.896  28.300 -0.1678 -0.0666  0.0865
47977W        W56577  12.004   2.100   4.813  0.1209 -0.1437  0.1233
47978W        W56578   0.851   3.421  40.008  0.1383 -0.1796 -0.1314
47979W        W56579   3.482   5.026  14.729 -0.2864 -0.1647 -0.2307
47980W        W56580  15.735   5.907  43.807  0.1868 -0.2307 -0.3604
47981W        W56581   8.367   5.653   2.841  0.1168 -0.0585  0.0137
47982W        W56582   2.297   1.070  42.359 -0.1205 -0.0151 -0.5446
47983W        W56583  14.204   5.245  12.328  0.1411 -0.0895  0.0851
47984W        W56584  18.341   5.350  18.291 -0.1946  0.1707 -0.0630
47985W        W56585  15.932   5.542  14.301  0.2851  0.1795  0.1452
47986W        W56586  17.658   6.198   5.337 -0.0210  0.0276  0.1254
47987W        W56587  18.065   1.560  38.022 -0.2545  0.0555  0.2042
47988W        W56588   4.572   5.164  27.507  0.2563 -0.0294  0.0504
47989W        W56589  16.189   3.731  19.909 -0.0198  0.3508 -0.0470
47990W        W56590  10.027   1.532  39.196 -0.2177 -0.0008  0.2325
47991W        W56591  15.254   4.204   7.503 -0.1448 -0.1428  0.1645
47992W        W56592   9.195   6.281  36.339  0.1843  0.2296  0.1332
47993ION     NA56593   8.166   5.897   9.647  0.3003  0.0174 -0.5934
47994ION     NA56594  12.813   1.678  14.124 -0.0497  0.3769 -0.1832
47995ION     NA56595   1.984   2.287   4.259 -0.0490  0.1077  0.2511
47996ION     NA56596  13.080   2.314  28.138 -0.0280  0.1954  0.4362
47997ION     NA56597   4.627   0.593  28.782  0.3253  0.0827 -0.4455
47998ION     NA56598   9.401   4.799  28.698 -0.3777 -0.1373  0.1837
47999ION     NA56599  16.859   2.283  25.305  0.2595 -0.0667 -0.7009
48000ION     NA56600  17.346   2.714   6.228  0.1523  0.1525 -0.1425
48001ION     NA56601  20.169   0.231   4.843 -0.0618 -0.1319 -0.1388
48002ION     NA56602  16.400   0.226  12.662 -0.7265  0.1282  0.2072
48003ION     NA56603   8.198   2.668   6.789  0.3362 -0.2417 -0.2478
48004ION     NA56604  14.705   2.488  12.091 -0.2810 -0.0406  0.2718
48005ION     NA56605   3.635   5.983  10.929 -0.2726 -0.1291 -0.4479
48006ION     NA56606  17.057   4.404  44.221 -0.0579 -0.2324 -0.3579
48007ION     NA56607  15.477   2.420  11.417 -0.3155  0.1781 -0.3242
48008ION     NA56608  14.187   5.683   4.360 -0.0715 -0.2398 -0.3987
48009ION     NA56609  16.969   5.622   7.305  0.0888 -0.2088  0.3206
48010ION     NA56610   5.461   4.949  39.825 -0.1456 -0.3543  0.3989
48011ION     NA56611   5.935   2.151  21.691  0.0711  0.0404 -0.2922
48012ION     NA56612  18.498   6.498  34.372 -0.2386 -0.0591 -0.2547
48013ION     NA56613  17.801   0.224  32.758  0.2672  0.0846 -0.1933
48014ION     NA56614   9.638   5.716  30.741  0.5576  0.2969  0.2168
48015ION     NA56615  11.975   5.135  16.155  0.0840  0.1185  0.6300
48016ION     NA56616   0.987   0.423  29.210 -0.1368  0.2666  0.2686
48017ION     NA56617   6.654   3.422  25.774  0.0214  0.3888 -0.0079
48018ION     NA56618  19.437   5.795  37.538  0.1388 -0.1150  0.0231
48019ION     NA56619   1.360   3.712  33.529 -0.5448 -0.1151 -0.5318
48020ION     NA56620   3.762   2.884   5.935 -0.0875  0.0892 -0.1664
48021ION     NA56621  12.193   2.165  42.979 -0.2775  0.1746 -0.1807
48022ION     NA56622   9.924   6.562  41.891  0.4837  0.4848 -0.1038
48023ION     NA56623  18.978   6.561   9.553 -0.6401 -0.4413 -0.0457
48024ION     NA56624   9.513   6.131  26.057 -0.3738  0.0809  0.0609
48025ION     NA56625   1.365   3.524   0.079 -0.1949 -0.4509 -0.0370
48026ION     NA56626   1.482   4.027  43.108 -0.0365 -0.2864  0.1655
48027ION     NA56627   6.593   0.152   1.077 -0.0836 -0.0743 -0.1807
48028ION     NA56628  10.487   2.061  18.305 -0.1395  0.1296  0.0839
48029ION     NA56629   7.150   6.306  39.297 -0.2848  0.2918 -0.4977
48030ION     NA56630   0.314   0.772   5.297 -0.0823 -0.2823 -0.3721
48031ION     NA56631   0.486   0.100  28.104 -0.1859  0.0089  0.2556
48032ION     NA56632  18.086   2.943   9.692  0.1127  0.2547 -0.0495
48033ION     NA56633   3.974   1.352   9.227 -0.0714 -0.3767  0.0122
48034ION     NA56634  16.471   4.889  33.842  0.0472  0.6592 -0.4075
48035ION     NA56635   9.097   5.512  12.578  0.0528  0.1531  0.1213
48036ION     NA56636  15.329   4.280  21.576  0.0302  0.1156  0.0616
48037ION     NA56637  18.996   5.267  33.848 -0.3614 -0.2283  0.2038
48038ION     NA56638  17.464   0.082   6.548  0.4401 -0.0685  0.1049
48039ION     NA56639  11.129   2.087  10.035 -0.2842 -0.0272 -0.0326
48040ION     NA56640   8.345   0.590  40.480 -0.3305  0.2298  0.1580
48041ION     NA56641   6.749   3.442  40.700  0.1674  0.8597  0.1875
48042ION     NA56642   1.319   5.361  17.885  0.3033 -0.0506  0.0829
48043ION     NA56643   2.870   6.150   8.856  0.1969  0.0073 -0.2170
48044ION     NA56644   8.400   3.708   4.962 -0.0828 -0.0964  0.4687
48045ION     NA56645   1.887   1.105  10.982 -0.0464  0.2023 -0.3416
48046ION     NA56646   4.835   5.401   2.110  0.0301  0.1123  0.0371
48047ION     NA56647  17.531   5.761  37.125 -0.4096 -0.3081 -0.0980
48048ION     NA56648  13.265   3.786   5.015  0.0757 -0.1779  0.1325
48049ION     NA56649   1.426   1.414   9.058 -0.0815 -0.2620  0.1104
48050ION     NA56650   2.045   2.113   1.651 -0.0505 -0.1220  0.2780
48051ION     NA56651   5.086   4.035   9.833 -0.0511  0.3117 -0.0723
48052ION     NA56652  20.994   0.895  41.858 -0.4444  0.0050 -0.4209
48053ION     NA56653   7.606   2.193   1.520 -0.0626  0.0277  0.2829
48054ION     NA56654   6.104   4.113   9.311  0.0523  0.4919  0.2922
48055ION     NA56655   6.909   2.401  14.233  0.0345 -0.3418 -0.1023
48056ION     NA56656  12.657   3.727  42.542 -0.2723  0.0155 -0.0823
48057ION     NA56657  13.796   3.376   1.415  0.3526  0.2481 -0.0179
48058ION     NA56658   3.552   5.342  15.490 -0.0001  0.1265  0.0104
48059ION     NA56659   7.263   4.893  38.893 -0.3501 -0.3942  0.5655
48060ION     NA56660  19.088   5.633  19.328  0.1125 -0.2547 -0.2335
48061ION     NA56661   8.623   2.616   1.529 -0.3532 -0.1467  0.5184
48062ION     NA56662  18.627   2.925   4.214  0.2091 -0.0523  0.0095
48063ION     NA56663  14.924   0.813   7.908 -0.0353 -0.0063  0.0659
48064ION     NA56664  16.446   5.773  12.669  0.0829  0.0110 -0.1070
48065ION     NA56665  19.162   1.209   8.855  0.1890 -0.1032 -0.4245
48066ION     NA56666  12.100   2.176  28.944  0.0922  0.1290  0.1418
48067ION     NA56667   5.072   2.602  45.002 -0.5744  0.0153 -0.2262
48068ION     NA56668  21.016   3.226  34.589 -0.0755 -0.3420  0.1598
48069ION     NA56669  20.458   4.509  39.418 -0.2220  0.0942 -0.3553
48070ION     NA56670  21.057   0.633  12.793 -0.2009  0.4251  0.3885
48071ION     NA56671  10.228   6.414  31.755 -0.2962 -0.0212 -0.1730
48072ION     NA56672  18.907   0.692   0.420  0.0120  0.1588  0.3448
48073ION     NA56673  11.117   0.610  31.483 -0.0076 -0.1647  0.0046
48074ION     NA56674  10.690   4.983  15.534  0.0918  0.1331  0.0028
48075ION     NA56675  12.229   3.845   7.332 -0.1011 -0.3511 -0.1002
48076ION     NA56676   6.405   5.758  29.023 -0.1746 -0.1430  0.4381
48077ION     NA56677   9.069   4.567   0.783 -0.1158  0.2936  0.3305
48078ION     NA56678   5.698   3.376  26.143  0.4035 -0.0518 -0.1602
48079ION     NA56679  18.139   5.438  19.315  0.3347 -0.1680 -0.4587
48080ION     NA56680  10.556   5.285  27.855 -0.2013  0.0417  0.3495
48081ION     NA56681   8.037   3.247  36.259 -0.5663  0.0581  0.2001
48082ION     NA56682  14.227   6.202  28.561 -0.1314  0.6829  0.5663
48083ION     NA56683   5.924   4.229  32.033  0.1529  0.0519  0.2326
48084ION     NA56684  11.116   6.314  43.655  0.0415  0.5557 -0.0626
48085ION     NA56685  13.067   0.753   4.154 -0.0860 -0.2040  0.2484
48086ION     NA56686  11.197   5.004   3.678 -0.1269  0.0446  0.3719
48087ION     NA56687  11.161   5.901  16.646 -0.3045  0.3810 -0.0003
48088ION     NA56688  13.164   5.566  40.165 -0.1701  0.3560  0.5076
48089ION     NA56689  14.775   4.127  40.027 -0.3697 -0.1961 -0.1303
48090ION     NA56690   0.547   1.799  38.824  0.1214 -0.3177  0.0172
48091ION     NA56691   9.133   2.951  43.948  0.1353  0.0314 -0.2285
48092ION     NA56692   9.107   3.314  36.436  0.2493  0.1097 -0.2168
48093ION     NA56693   6.389   0.330  11.109  0.0898  0.1349  0.1350
48094ION     NA56694   9.843   3.480   9.093  0.0775 -0.3531 -0.2350
48095ION     NA56695  13.639   0.509  19.714 -0.1813 -0.2080 -0.1680
48096ION     NA56696   5.549   1.930   5.442  0.0637 -0.2675  0.2025
48097ION     NA56697   1.555   3.616  41.600  0.0996 -0.5227  0.1788
48098ION     NA56698  17.358   3.826   1.531 -0.7688 -0.1215 -0.0549
48099ION     NA56699   2.022   0.366  16.665  0.1902 -0.2430 -0.4280
48100ION     NA56700  10.702   4.540  28.210 -0.0579 -0.3379 -0.1142
48101ION     NA56701   5.777   3.326  35.247  0.2778 -0.0333 -0.1852
48102ION     NA56702   0.709   1.266  11.132 -0.0307 -0.1099  0.2421
48103ION     NA56703   0.802   4.991  43.328 -0.1001 -0.0321 -0.0372
48104ION     NA56704   4.218   0.097   7.224 -0.1406  0.4566  0.1064
48105ION     NA56705   0.130   5.228  42.243 -0.2239 -0.0111 -0.0251
48106ION     NA56706  11.110   0.855  16.137  0.2350 -0.0845  0.1975
48107ION     NA56707   0.381   1.271  16.257  0.1121  0.0003  0.0910
48108ION     NA56708  16.907   3.126  13.478  0.0128  0.0315  0.1388
48109ION     NA56709  16.830   4.361  32.626  0.2652  0.5557  0.4310
48110ION     NA56710   7.004   0.185  12.986 -0.3579  0.1159 -0.5640
48111ION     NA56711   8.612   4.761  10.525  0.4849 -0.1746 -0.0329
48112ION     NA56712   5.746   0.061  30.641  0.1065  0.6277  0.3449
48113ION     NA56713   0.700   3.494  12.714  0.1626 -0.3007 -0.2660
48114ION     NA56714   8.898   2.910  42.592  0.0792  0.0389  0.0234
48115ION     NA56715   3.819   1.333  21.994 -0.0662  0.3213  0.3760
48116ION     NA56716  20.340   3.787  28.351 -0.0245 -0.0534  0.2936
48117ION     NA56717  15.281   1.592  42.951  0.0926 -0.1295 -0.2052
48118ION     NA56718  14.140   2.146  14.255  0.4062 -0.2523 -0.0119
48119ION     NA56719  18.863   4.944  36.973 -0.1021 -0.4149 -0.1347
48120ION     NA56720   7.279   3.663  39.824  0.1887 -0.3063 -0.0964
48121ION     NA56721   3.184   0.792  36.427  0.0045 -0.0351 -0.2103
48122ION     NA56722  16.098   3.487   4.115 -0.1414  0.7043 -0.0034
48123ION     NA56723   9.674   2.274  15.991  0.3101  0.0662 -0.0367
48124ION     NA56724  11.134   3.386  17.209 -0.4543 -0.4677 -0.6130
48125ION     NA56725   4.987   5.305   3.761 -0.0666  0.1525  0.2891
48126ION     NA56726  20.495   6.124  35.290 -0.1973 -0.1711 -0.3353
48127ION     NA56727  18.663   1.204  17.600 -0.0342 -0.0070 -0.0632
48128ION     NA56728   3.114   4.765  41.291 -0.3308 -0.2541 -0.0626
48129ION     NA56729   1.525   3.509  10.736 -0.2887  0.4578  0.6681
48130ION     NA56730  10.984   4.236  11.798 -0.0208  0.2383  0.0794
48131ION     NA56731  19.734   5.365  44.076  0.2724  0.1792 -0.0213
48132ION     NA56732   1.532   2.858  30.381  0.2769  0.0961 -0.1563
48133ION     NA56733   7.270   1.569  30.094  0.1941 -0.0970 -0.3415
48134ION     NA56734  10.866   0.094  36.709  0.1420  0.2531  0.3291
48135ION     NA56735   8.335   3.369   3.598  0.1893 -0.0470 -0.5392
48136ION     NA56736  20.947   2.500  17.980 -0.1672 -0.2041 -0.5128
48137ION     NA56737   2.463   5.575  30.742 -0.3217 -0.1095 -0.2643
48138ION     NA56738   3.466   2.508  37.941 -0.0648 -0.1615  0.3214
48139ION     NA56739   5.900   5.588  40.072  0.3987 -0.0255 -0.1077
48140ION     NA56740   0.864   5.023  10.729 -0.0007 -0.0225  0.1722
48141ION     NA56741   6.363   2.829  29.726 -0.1680 -0.3757 -0.1045
48142ION     NA56742  10.666   2.683  16.323 -0.1416  0.0750  0.3313
48143ION     NA56743  14.149   2.995  14.882 -0.0401 -0.1693  0.2294
48144ION     NA56744   5.377   2.124  20.299  0.1150 -0.1492  0.1113
48145ION     NA56745  16.005   4.243  10.075 -0.0442 -0.1361  0.0661
48146ION     NA56746  20.438   2.538   9.150 -0.1897  0.1102  0.0995
48147ION     NA56747   4.679   0.286  37.435  0.1156 -0.2963 -0.2263
48148ION     NA56748  19.405   2.577  21.455  0.4025  0.0134  0.0372
48149ION     NA56749  18.084   6.248  30.244 -0.1018 -0.2048 -0.2384
48150ION     NA56750   4.071   0.663  29.128 -0.2295 -0.0482  0.0112
48151ION     NA56751  17.608   1.917  17.853 -0.3298  0.1135  0.2936
48152ION     NA56752  20.179   4.631  30.673  0.1756 -0.1899 -0.3121
48153ION     NA56753   4.489   2.098  11.600  0.1350 -0.0605  0.0590
48154ION     NA56754   3.167   2.944  42.617 -0.7099  0.1948 -0.2625
48155ION     NA56755  17.526   3.506  21.869  0.0194  0.0218  0.1368
48156ION     NA56756  13.873   0.556   8.786 -0.0926 -0.0268  0.4711
48157ION     NA56757   7.689   2.013  21.769  0.0648  0.1176  0.1220
48158ION     NA56758   1.579   6.299  33.347  0.7913 -0.2935  0.1386
48159ION     NA56759  18.341   2.222  18.179  0.1696  0.0454  0.4137
48160ION     NA56760  15.491   6.482  39.415 -0.1005 -0.0186 -0.1110
48161ION     NA56761   1.530   0.177   9.516 -0.2093  0.4088  0.1343
48162ION     NA56762   2.080   1.100  13.888  0.2471  0.3026 -0.0834
48163ION     NA56763  11.360   6.536  41.345  0.3513  0.5260  0.0150
48164ION     NA56764  15.398   5.799  38.955  0.2322  0.1154 -0.0770
48165ION     NA56765  18.568   0.667  16.389 -0.1113  0.2049  0.2363
48166ION     NA56766   0.567   6.074  38.692 -0.0603 -0.0825 -0.4095
48167ION     NA56767   9.558   5.440   2.987  0.3841  0.1188  0.3765
48168ION     NA56768   8.710   2.060  43.620  0.2294  0.5435 -0.0198
48169ION     NA56769   1.243   2.926   5.757 -0.2827 -0.2944  0.1763
48170ION     NA56770   3.426   0.536  25.727  0.0204  0.3362  0.0309
48171ION     NA56771  14.047   2.788  20.869 -0.5102 -0.0087 -0.0969
48172ION     NA56772   0.527   0.819  36.240 -0.3799 -0.4186 -0.2164
48173ION     NA56773   9.804   0.041  37.170 -0.0598  0.0059  0.5587
48174ION     NA56774  17.124   1.029  39.315  0.2307 -0.0914  0.0151
48175ION     NA56775  16.078   5.566  44.585 -0.4971 -0.0631 -0.0020
48176ION     NA56776   2.797   5.608  35.733 -0.4338 -0.3514  0.1223
48177ION     NA56777   4.576   1.468  23.287  0.0224 -0.0016 -0.1092
48178ION     NA56778   8.088   4.778   0.483  0.4793  0.0852 -0.0423
48179ION     NA56779  15.230   2.202   5.638 -0.1542 -0.2419 -0.3254
48180ION     NA56780   6.517   3.083  24.570 -0.1480 -0.3451  0.0926
48181ION     NA56781  14.239   3.574  41.728  0.0802  0.1858 -0.3843
48182ION     NA56782   1.428   3.612  29.559  0.2939 -0.1802 -0.3357
48183ION     NA56783  18.175   4.963  29.909  0.0212 -0.3027  0.3873
48184ION     NA56784  14.870   0.298  18.582  0.5525 -0.2697 -0.4163
48185ION     NA56785  13.928   1.420  17.074 -0.3133  0.0805  0.0088
48186ION     NA56786   8.698   5.477  27.492  0.0358  0.0597  0.0356
48187ION     NA56787  10.270   2.828  34.227  0.6568  0.2106 -0.0604
48188ION     CL56788  17.338   2.067   6.866 -0.1590  0.2886  0.4080
48189ION     CL56789  16.715   4.856  33.028  0.6094 -0.0736  0.0862
48190ION     CL56790   1.920   3.907   5.875  0.0191 -0.4401 -0.4838
48191ION     CL56791  11.173   6.145  31.667  0.3142 -0.4933 -0.1355
48192ION     CL56792   5.919   4.376  32.417 -0.2084 -0.0724  0.4046
48193ION     CL56793  13.198   4.681  38.829 -0.2588  0.1546  0.0776
48194ION     CL56794   4.385   3.142   0.997 -0.1977  0.7630 -0.0430
48195ION     CL56795  19.315   3.638   0.037 -0.2373 -0.0105 -0.0372
48196ION     CL56796  16.166   2.143  43.982 -0.3861 -0.0233 -0.0937
48197ION     CL56797   3.037   5.953  35.272 -0.2855 -0.2208 -0.2465
48198ION     CL56798  14.388   0.980  17.322  0.0810  0.2888  0.1490
48199ION     CL56799   2.113   1.449  29.434 -0.3457 -0.3149 -0.2038
48200ION     CL56800   5.985   6.580  30.405  0.1016 -0.9256 -0.0432
48201ION     CL56801   4.240   4.045  22.890  0.1306 -0.4428  0.6199
48202ION     CL56802  17.919   0.155  19.805 -0.2620 -0.2075  0.0554
48203ION     CL56803  14.642   4.607  37.961 -0.0920 -0.1147  0.3387
48204ION     CL56804  18.315   1.664   3.954 -0.3704 -0.1183 -0.4774
48205ION     CL56805  18.646   5.718  19.726  0.4219 -0.1148 -0.5391
48206ION     CL56806   5.216   5.461  41.072  0.2393  0.2288 -0.2409
48207ION     CL56807  20.137   3.849  36.546  0.2164 -0.2076 -0.2616
48208ION     CL56808   9.896   2.962  44.295  0.2905 -0.5764 -0.1396
48209ION     CL56809   7.213   2.579   7.177  0.5660 -0.1469 -0.0870
48210ION     CL56810  16.552   4.679  31.117 -0.1156 -0.0911 -0.2102
48211ION     CL56811  14.508   0.792   2.974 -0.2839  0.0786  0.5333
48212ION     CL56812   2.690   0.622  40.630  0.3189 -0.1906 -0.3716
48213ION     CL56813   5.621   4.093   4.634  0.1478  0.3238 -0.0272
48214ION     CL56814  20.816   3.601  28.503 -0.5618 -0.2989 -0.2926
48215ION     CL56815   8.707   5.440  39.261 -0.2810  0.2442  0.2314
48216ION     CL56816   5.434   1.575  40.717  0.5036 -0.4556 -0.0030
48217ION     CL56817  16.005   5.871  37.372 -0.4925  0.0319  0.2728
48218ION     CL56818   6.135   3.634   7.936 -0.1473 -0.4864 -0.2229
48219ION     CL56819  17.936   2.385  17.594  0.2672  0.2119  0.0170
48220ION     CL56820   8.190   6.580  38.299 -0.1369 -0.3431 -0.3214
48221ION     CL56821   4.481   0.882  37.431  0.6967 -0.0668  0.3744
48222ION     CL56822  15.069   3.997   7.130  0.2781  0.0571 -0.1740
48223ION     CL56823   4.516   0.251  27.764 -0.4078  0.1233  0.3483
48224ION     CL56824   4.938   3.445  31.866 -0.2235 -0.1084 -0.1333
48225ION     CL56825   6.459   3.519  13.234 -0.2221 -0.3651  0.2418
48226ION     CL56826  19.628   6.064  39.246 -0.0732  0.0333  0.1654
48227ION     CL56827  13.928   5.707   6.668  0.3018 -0.0374 -0.0531
48228ION     CL56828  16.298   1.802  23.575  0.3277 -0.0413 -0.4316
48229ION     CL56829  10.387   4.532  34.393 -0.1730 -0.3878 -0.0308
48230ION     CL56830  16.386   0.419   5.360  0.6111 -0.0857 -0.3874
48231ION     CL56831  18.305   3.859   8.470  0.2951 -0.0602  0.6840
48232ION     CL56832   9.770   5.118  31.076  0.2374  0.1766  0.1995
48233ION     CL56833   9.849   4.342  44.433  0.0945 -0.0589 -0.1600
48234ION     CL56834   6.323   5.209  39.692 -0.0406  0.1865 -0.4760
48235ION     CL56835  17.512   3.790  43.245  0.0319 -0.1682  0.0490
48236ION     CL56836  10.338   6.134  31.582  0.1076  0.6487 -0.1255
48237ION     CL56837  10.890   1.565   1.339  0.4352  0.4210 -0.3005
48238ION     CL56838   8.553   3.230   8.319 -0.0336 -0.0504  0.0300
48239ION     CL56839  10.921   0.690   4.361 -0.3623 -0.2290 -0.1623
48240ION     CL56840  18.868   0.836  16.519 -0.0019 -0.0744  0.1898
48241ION     CL56841  17.354   2.751  43.184 -0.1281  0.2224  0.4296
48242ION     CL56842  17.221   3.138   4.150 -0.1764 -0.0917 -0.2952
48243ION     CL56843  19.543   1.933  14.529 -0.2068  0.4649 -0.0516
48244ION     CL56844  19.550   4.943   7.575  0.0115  0.4644 -0.1590
48245ION     CL56845  12.647   2.714   0.365 -0.1497 -0.3783  0.1770
48246ION     CL56846  18.072   6.079  11.790  0.3084  0.1101 -0.2812
48247ION     CL56847   7.060   0.952   0.150  0.0335  0.1728 -0.0160
48248ION     CL56848  15.026   0.013  30.927 -0.1082  0.0000  0.0392
48249ION     CL56849  10.716   6.281  29.351  0.0139  0.1812  0.2174
48250ION     CL56850  14.064   5.746   0.862 -0.2042  0.2673  0.1931
48251ION     CL56851   8.311   0.621   3.418 -0.0159  0.5630  0.0788
48252ION     CL56852  12.308   2.364  14.509 -0.1218 -0.1535  0.2500
48253ION     CL56853  17.879   4.066   3.923  0.3614 -0.0264 -0.0106
48254ION     CL56854  13.900   4.648   5.161  0.1690  0.2728 -0.1233
48255ION     CL56855   4.582   5.337  23.608  0.0942  0.5361 -0.2892
48256ION     CL56856   0.084   4.842   7.758 -0.4265 -0.2376  0.0580
48257ION     CL56857  13.147   4.867  38.117 -0.4050 -0.2703  0.3261
48258ION     CL56858   5.751   5.342  23.045  0.1470 -0.1933  0.3833
48259ION     CL56859   9.961   2.693  37.379 -0.1943 -0.3031  0.1707
48260ION     CL56860   8.478   3.850  33.330  0.1097 -0.1182  0.0175
48261ION     CL56861   2.626   4.896  35.028  0.2683  0.0151 -0.0584
48262ION     CL56862  19.512   1.107  14.302  0.1598  0.0148 -0.0178
48263ION     CL56863   7.084   4.313  13.951  0.0847  0.4871 -0.1025
48264ION     CL56864   5.656   3.636   8.373  0.1653  0.2783  0.1750
48265ION     CL56865  11.723   1.000  33.269  0.4070  0.1564  0.1072
48266ION     CL56866  19.407   1.370  40.646 -0.1901 -0.1773 -0.5417
48267ION     CL56867   7.481   5.604  12.073  0.3791  0.3662  0.1605
48268ION     CL56868  19.711   4.791   8.213  0.0092 -0.0077 -0.3964
48269ION     CL56869  13.917   6.512  17.146  0.0108  0.2946  0.0611
48270ION     CL56870   9.573   4.579  38.007  0.5412  0.0370  0.7045
48271ION     CL56871  10.280   2.233   5.127  0.0173 -0.0444  0.0807
48272ION     CL56872  16.768   1.981  13.640 -0.3413  0.4074  0.2030
48273ION     CL56873   7.939   2.110  44.992  0.0593  0.0631  0.2827
48274ION     CL56874   4.725   2.244  33.742 -0.0809  0.2683  0.0654
48275ION     CL56875  18.037   2.669  43.095 -0.4220  0.1870 -0.0352
48276ION     CL56876   7.730   0.501  27.794  0.1417 -0.3347 -0.3034
48277ION     CL56877   0.424   3.779  27.588 -0.0952 -0.1361  0.2379
48278ION     CL56878   8.617   3.355  36.273 -0.0101  0.3091 -0.1728
48279ION     CL56879   3.977   5.900  10.920 -0.0157 -0.2614 -0.1381
48280ION     CL56880  17.473   3.641  21.589 -0.3711 -0.2838  0.1503
48281ION     CL56881   7.363   0.611  41.800 -0.2054 -0.1611 -0.3721
48282ION     CL56882   5.741   0.528   5.759 -0.3852  0.0190  0.1871
48283ION     CL56883  15.574   5.514   8.233  0.0512 -0.1119 -0.0705
48284ION     CL56884  17.484   6.529  42.389 -0.0530 -0.0813  0.0437
48285ION     CL56885  14.669   5.780  29.708  0.3927 -0.1928  0.2492
48286ION     CL56886   9.857   1.740  29.888 -0.0520  0.0982  0.1006
48287ION     CL56887  14.849   1.133  31.132  0.1588  0.0627 -0.1744
48288ION     CL56888  14.562   4.516  15.076  0.3485 -0.0232  0.2568
48289ION     CL56889   6.096   4.541  41.872  0.2836  0.3586  0.3349
48290ION     CL56890   6.373   3.754  31.469 -0.0279 -0.1047  0.1749
48291ION     CL56891  12.364   4.492   5.141  0.2767  0.1398 -0.2059
48292ION     CL56892   3.478   4.466   5.984 -0.1303  0.1532  0.0928
48293ION     CL56893   1.965   3.619  10.810  0.1843 -0.2240  0.1557
48294ION     CL56894  12.371   5.941  17.834 -0.2342 -0.1544 -0.0935
48295ION     CL56895  15.927   5.498  39.362 -0.2350  0.2917 -0.0730
48296ION     CL56896   0.190   5.095  43.576  0.3063  0.2962 -0.2384
48297ION     CL56897   5.174   2.686  44.317 -0.0743  0.4127 -0.0839
48298ION     CL56898   7.793   5.506  14.212 -0.2546  0.0696  0.1932
48299ION     CL56899  18.419   6.477   7.875 -0.1607  0.3993 -0.2581
48300ION     CL56900  15.962   3.854  37.847 -0.1269  0.1501 -0.0606
48301ION     CL56901  11.589   1.991   4.023  0.2009 -0.0868 -0.1031
48302ION     CL56902   0.931   0.403   3.918 -0.1431 -0.4547  0.0311
48303ION     CL56903   0.574   5.233  42.523 -0.0505 -0.0101  0.3885
48304ION     CL56904  16.560   0.609  12.701 -0.0981 -0.3370  0.1227
48305ION     CL56905   9.222   1.504  32.127  0.2111  0.0308 -0.2596
48306ION     CL56906  14.768   2.493  13.962 -0.0680  0.2335  0.2018
48307ION     CL56907   1.501   3.888  41.902 -0.0847 -0.1042 -0.4468
48308ION     CL56908   9.726   5.922  25.812 -0.2906  0.1679 -0.2053
48309ION     CL56909   3.459   4.364  11.465 -0.2312  0.2210 -0.1991
48310ION     CL56910  18.734   6.204  36.395 -0.1765 -0.0456 -0.1753
48311ION     CL56911  15.189   4.687  35.836 -0.1727  0.3954  0.1428
48312ION     CL56912  18.843   1.755  14.615  0.1921 -0.2444 -0.0223
48313ION     CL56913   9.093   2.210  40.321 -0.0598 -0.1126  0.0132
48314ION     CL56914   5.451   0.807   1.096  0.3984 -0.1559 -0.0359
48315ION     CL56915  18.128   4.898   3.213 -0.3369  0.0613  0.0724
48316ION     CL56916   1.996   1.871  35.553  0.5038 -0.0516 -0.0235
48317ION     CL56917  14.947   0.621   9.005  0.0078 -0.0221 -0.1207
48318ION     CL56918  16.578   2.685  18.251 -0.0850 -0.0475  0.4173
48319ION     CL56919  20.904   5.395   0.786  0.1685  0.0737 -0.2163
48320ION     CL56920   9.522   5.575  15.796  0.2484  0.2478 -0.2956
48321ION     CL56921   3.026   4.262   8.512 -0.2882 -0.1818  0.0918
48322ION     CL56922   5.288   1.001  41.152  0.2796  0.5563  0.1104
48323ION     CL56923  13.143   0.153  15.230 -0.1514  0.0884 -0.6369
48324ION     CL56924  18.818   6.339  42.799 -0.0678 -0.5149 -0.1343
48325ION     CL56925  10.565   2.062  44.402 -0.2544 -0.0153 -0.2657
48326ION     CL56926   5.181   2.951  15.780  0.0695  0.0079  0.1819
48327ION     CL56927  17.630   2.279  42.721  0.0660 -0.0503  0.2827
48328ION     CL56928   8.430   5.730   4.900 -0.3849  0.0770 -0.2436
48329ION     CL56929  18.530   4.873  38.853  0.3398  0.3750  0.2423
48330ION     CL56930  19.789   0.435  32.906 -0.1481  0.1147 -0.1941
48331ION     CL56931  13.288   1.016   4.028 -0.2053 -0.5750 -0.1409
48332ION     CL56932   9.035   6.598   4.904 -0.5091  0.1159 -0.5049
  21.14753   6.60785  45.12512
