Written by MDAnalysis
 9600
    1DOPC   NC3    1  19.557   5.720  11.400
    1DOPC   PO4    2  19.847   5.740  11.120
    1DOPC   GL1    3  19.757   5.720  10.710
    1DOPC   GL2    4  19.757   5.410  10.630
    1DOPC   C1A    5  19.417   5.910  10.500
    1DOPC   D2A    6  19.027   6.200  10.310
    1DOPC   C3A    7  18.607   6.130  10.080
    1DOPC   C4A    8  18.287   5.780   9.860
    1DOPC   C1B    9  19.477   5.160  10.480
    1DOPC   D2B   10  19.147   4.940  10.240
    1DOPC   C3B   11  19.017   4.670   9.870
    1DOPC   C4B   12  19.167   4.550   9.360
    2DOPC   NC3   13   6.337   0.330  12.620
    2DOPC   PO4   14   6.487   0.700  12.610
    2DOPC   GL1   15   6.707   0.750  12.280
    2DOPC   GL2   16   6.907   0.880  12.410
    2DOPC   C1A   17   6.887   0.530  11.920
    2DOPC   D2A   18   6.827   0.490  11.470
    2DOPC   C3A   19   6.857   0.170  11.170
    2DOPC   C4A   20   7.297   0.020  10.920
    2DOPC   C1B   21   6.937   1.010  11.980
    2DOPC   D2B   22   6.957   0.990  11.510
    2DOPC   C3B   23   6.797   1.260  11.170
    2DOPC   C4B   24   6.687   1.570  10.850
    3DOPC   NC3   25   9.787   6.630  15.020
    3DOPC   PO4   26   9.747   6.550  14.610
    3DOPC   GL1   27  10.207   6.640  14.470
    3DOPC   GL2   28  10.197   6.360  14.560
    3DOPC   C1A   29  10.347   6.530  14.080
    3DOPC   D2A   30  10.617   6.550  13.670
    3DOPC   C3A   31  10.727   6.270  13.300
    3DOPC   C4A   32  10.857   5.930  12.960
    3DOPC   C1B   33  10.307   6.060  14.170
    3DOPC   D2B   34  10.517   5.670  14.000
    3DOPC   C3B   35  10.457   5.300  13.750
    3DOPC   C4B   36  10.457   4.890  13.520
    4DOPC   NC3   37  13.667   6.600  16.120
    4DOPC   PO4   38  13.557   6.850  15.840
    4DOPC   GL1   39  13.447   6.710  15.410
    4DOPC   GL2   40  13.137   6.740  15.470
    4DOPC   C1A   41  13.557   6.430  15.100
    4DOPC   D2A   42  13.437   6.550  14.620
    4DOPC   C3A   43  13.137   6.750  14.400
    4DOPC   C4A   44  12.717   6.870  14.290
    4DOPC   C1B   45  13.047   6.430  15.200
    4DOPC   D2B   46  13.007   6.320  14.700
    4DOPC   C3B   47  12.787   6.380  14.290
    4DOPC   C4B   48  12.917   6.530  13.830
    5DOPC   NC3   49   4.057   7.120   9.170
    5DOPC   PO4   50   4.147   7.390   9.420
    5DOPC   GL1   51   4.407   7.470   9.130
    5DOPC   GL2   52   4.267   7.400   8.880
    5DOPC   C1A   53   4.827   7.600   8.960
    5DOPC   D2A   54   5.167   7.560   8.510
    5DOPC   C3A   55   5.377   0.030   8.280
    5DOPC   C4A   56   5.747   0.330   8.120
    5DOPC   C1B   57   4.407   7.800   8.740
    5DOPC   D2B   58   4.847   0.220   8.650
    5DOPC   C3B   59   5.167   0.480   8.290
    5DOPC   C4B   60   5.367   0.800   8.010
    6DOPC   NC3   61  11.267   2.680  15.320
    6DOPC   PO4   62  11.077   3.040  15.250
    6DOPC   GL1   63  11.397   3.370  15.130
    6DOPC   GL2   64  11.417   3.060  14.990
    6DOPC   C1A   65  11.457   3.620  14.820
    6DOPC   D2A   66  11.537   3.870  14.380
    6DOPC   C3A   67  11.367   4.070  14.040
    6DOPC   C4A   68  10.977   4.210  13.740
    6DOPC   C1B   69  11.397   2.980  14.580
    6DOPC   D2B   70  11.237   3.030  14.090
    6DOPC   C3B   71  11.147   2.770  13.700
    6DOPC   C4B   72  11.097   2.490  13.260
    7DOPC   NC3   73   5.257   0.010  10.970
    7DOPC   PO4   74   5.067   0.170  10.660
    7DOPC   GL1   75   5.347   0.140  10.420
    7DOPC   GL2   76   5.377   0.440  10.460
    7DOPC   C1A   77   5.757   0.180  10.360
    7DOPC   D2A   78   6.247   0.150  10.380
    7DOPC   C3A   79   6.397   0.270   9.970
    7DOPC   C4A   80   6.867   0.220   9.690
    7DOPC   C1B   81   5.657   0.670  10.270
    7DOPC   D2B   82   6.147   0.830  10.160
    7DOPC   C3B   83   6.457   0.790   9.810
    7DOPC   C4B   84   6.887   0.750   9.480
    8DOPC   NC3   85   3.647   1.480   9.730
    8DOPC   PO4   86   3.627   1.570   9.310
    8DOPC   GL1   87   3.877   1.570   8.990
    8DOPC   GL2   88   3.777   1.770   8.880
    8DOPC   C1A   89   3.807   1.320   8.660
    8DOPC   D2A   90   3.637   1.020   8.310
    8DOPC   C3A   91   3.897   0.950   7.920
    8DOPC   C4A   92   4.237   1.020   7.640
    8DOPC   C1B   93   3.967   1.750   8.480
    8DOPC   D2B   94   4.127   1.810   7.990
    8DOPC   C3B   95   4.007   1.470   7.670
    8DOPC   C4B   96   3.857   1.090   7.400
    9DOPC   NC3   97  20.847   1.050   8.970
    9DOPC   PO4   98  20.990   1.300   8.710
    9DOPC   GL1   99  20.890   1.010   8.380
    9DOPC   GL2  100  20.697   1.170   8.250
    9DOPC   C1A  101  20.737   0.660   8.180
    9DOPC   D2A  102  20.387   0.550   7.920
    9DOPC   C3A  103  20.267   0.470   7.440
    9DOPC   C4A  104  20.177   0.330   7.030
    9DOPC   C1B  105  20.687   1.500   7.950
    9DOPC   D2B  106  20.567   1.650   7.510
    9DOPC   C3B  107  20.657   1.740   7.090
    9DOPC   C4B  108  21.010   1.630   6.770
   10DOPC   NC3  109  14.447   0.760  15.400
   10DOPC   PO4  110  14.787   0.740  15.120
   10DOPC   GL1  111  14.747   0.630  14.730
   10DOPC   GL2  112  14.537   0.470  14.830
   10DOPC   C1A  113  14.887   0.460  14.410
   10DOPC   D2A  114  14.727   0.080  14.140
   10DOPC   C3A  115  14.387   0.090  13.870
   10DOPC   C4A  116  14.057   0.050  13.610
   10DOPC   C1B  117  14.097   0.440  14.670
   10DOPC   D2B  118  13.667   0.440  14.400
   10DOPC   C3B  119  13.387   0.210  14.160
   10DOPC   C4B  120  13.157   7.690  13.880
   11DOPC   NC3  121   0.877   2.140   7.070
   11DOPC   PO4  122   0.957   2.520   7.250
   11DOPC   GL1  123   1.137   2.690   6.900
   11DOPC   GL2  124   1.057   2.500   6.780
   11DOPC   C1A  125   1.167   2.890   6.540
   11DOPC   D2A  126   1.277   3.310   6.360
   11DOPC   C3A  127   1.787   3.410   6.310
   11DOPC   C4A  128   2.277   3.420   6.320
   11DOPC   C1B  129   0.867   2.450   6.360
   11DOPC   D2B  130   0.697   2.590   5.950
   11DOPC   C3B  131   0.917   2.860   5.580
   11DOPC   C4B  132   0.957   3.110   5.160
   12DOPC   NC3  133  21.550   4.370   9.160
   12DOPC   PO4  134  21.500   4.460   8.770
   12DOPC   GL1  135  21.160   4.470   8.540
   12DOPC   GL2  136  21.300   4.360   8.340
   12DOPC   C1A  137  20.757   4.480   8.400
   12DOPC   D2A  138  20.307   4.610   8.320
   12DOPC   C3A  139  19.927   4.520   8.080
   12DOPC   C4A  140  19.577   4.380   7.720
   12DOPC   C1B  141  21.300   4.440   7.870
   12DOPC   D2B  142  21.350   4.390   7.400
   12DOPC   C3B  143  21.360   4.650   7.100
   12DOPC   C4B  144  21.610   4.930   6.860
   13DOPC   NC3  145  13.597   2.790  15.770
   13DOPC   PO4  146  13.337   3.110  15.730
   13DOPC   GL1  147  13.377   2.940  15.390
   13DOPC   GL2  148  13.147   2.970  15.260
   13DOPC   C1A  149  13.547   2.690  15.100
   13DOPC   D2A  150  13.467   2.520  14.710
   13DOPC   C3A  151  13.597   2.360  14.300
   13DOPC   C4A  152  13.577   2.130  13.830
   13DOPC   C1B  153  13.057   3.070  14.850
   13DOPC   D2B  154  13.007   3.230  14.390
   13DOPC   C3B  155  13.157   3.510  14.040
   13DOPC   C4B  156  13.327   3.720  13.640
   14DOPC   NC3  157  20.177   1.250  10.170
   14DOPC   PO4  158  20.137   1.630  10.360
   14DOPC   GL1  159  19.687   1.810  10.330
   14DOPC   GL2  160  19.767   1.600  10.110
   14DOPC   C1A  161  19.357   1.990  10.060
   14DOPC   D2A  162  18.957   2.170   9.830
   14DOPC   C3A  163  18.637   2.320   9.500
   14DOPC   C4A  164  18.337   2.620   9.300
   14DOPC   C1B  165  19.767   1.730   9.670
   14DOPC   D2B  166  19.727   1.850   9.190
   14DOPC   C3B  167  19.467   1.540   8.870
   14DOPC   C4B  168  19.427   1.190   8.520
   15DOPC   NC3  169  15.747   7.830  14.890
   15DOPC   PO4  170  15.417   0.150  14.870
   15DOPC   GL1  171  15.267   0.140  14.440
   15DOPC   GL2  172  15.027   7.830  14.570
   15DOPC   C1A  173  15.327   0.280  14.020
   15DOPC   D2A  174  14.997   0.180  13.690
   15DOPC   C3A  175  14.847   7.790  13.270
   15DOPC   C4A  176  14.527   0.010  12.820
   15DOPC   C1B  177  15.097   7.620  14.140
   15DOPC   D2B  178  14.897   7.470  13.700
   15DOPC   C3B  179  14.437   7.450  13.550
   15DOPC   C4B  180  13.917   7.360  13.460
   16DOPC   NC3  181   7.297   1.940  13.410
   16DOPC   PO4  182   7.257   1.890  13.030
   16DOPC   GL1  183   7.567   1.980  12.860
   16DOPC   GL2  184   7.737   2.020  13.070
   16DOPC   C1A  185   7.627   1.860  12.470
   16DOPC   D2A  186   7.717   1.870  11.970
   16DOPC   C3A  187   7.767   1.650  11.520
   16DOPC   C4A  188   7.807   1.300  11.160
   16DOPC   C1B  189   8.177   2.060  13.120
   16DOPC   D2B  190   8.627   2.250  13.060
   16DOPC   C3B  191   9.087   2.300  12.920
   16DOPC   C4B  192   9.317   2.330  12.450
   17DOPC   NC3  193   3.507   2.890   9.180
   17DOPC   PO4  194   3.407   3.260   9.230
   17DOPC   GL1  195   3.787   3.320   9.190
   17DOPC   GL2  196   3.857   3.380   8.870
   17DOPC   C1A  197   4.107   3.500   9.380
   17DOPC   D2A  198   4.507   3.670   9.320
   17DOPC   C3A  199   4.787   3.930   9.660
   17DOPC   C4A  200   5.197   4.130   9.590
   17DOPC   C1B  201   4.287   3.390   8.940
   17DOPC   D2B  202   4.777   3.360   8.910
   17DOPC   C3B  203   5.137   3.110   9.060
   17DOPC   C4B  204   5.427   2.950   9.290
   18DOPC   NC3  205  20.697   7.120   9.060
   18DOPC   PO4  206  20.950   7.420   8.880
   18DOPC   GL1  207  20.657   7.580   8.790
   18DOPC   GL2  208  20.527   7.300   8.630
   18DOPC   C1A  209  20.497   0.090   8.560
   18DOPC   D2A  210  20.137   0.360   8.370
   18DOPC   C3A  211  19.737   0.590   8.440
   18DOPC   C4A  212  19.387   0.700   8.810
   18DOPC   C1B  213  20.627   7.440   8.270
   18DOPC   D2B  214  21.030   7.660   8.040
   18DOPC   C3B  215  21.050   7.830   7.700
   18DOPC   C4B  216  21.130   0.180   7.310
   19DOPC   NC3  217  10.607   5.510  15.080
   19DOPC   PO4  218  10.247   5.370  14.940
   19DOPC   GL1  219  10.437   5.440  14.520
   19DOPC   GL2  220  10.577   5.220  14.570
   19DOPC   C1A  221  10.747   5.720  14.420
   19DOPC   D2A  222  11.127   5.970  14.400
   19DOPC   C3A  223  11.467   6.150  14.330
   19DOPC   C4A  224  11.767   6.510  14.520
   19DOPC   C1B  225  10.697   5.130  14.170
   19DOPC   D2B  226  10.957   4.930  13.790
   19DOPC   C3B  227  10.907   5.030  13.330
   19DOPC   C4B  228  10.847   5.350  12.940
   20DOPC   NC3  229  18.057   7.810  13.690
   20DOPC   PO4  230  17.717   0.070  13.800
   20DOPC   GL1  231  17.617   0.460  13.570
   20DOPC   GL2  232  17.327   0.320  13.550
   20DOPC   C1A  233  17.647   0.770  13.270
   20DOPC   D2A  234  17.647   1.240  12.980
   20DOPC   C3A  235  17.357   1.510  12.760
   20DOPC   C4A  236  16.937   1.720  12.580
   20DOPC   C1B  237  17.327   0.240  13.130
   20DOPC   D2B  238  17.247   7.840  12.700
   20DOPC   C3B  239  17.247   7.390  12.740
   20DOPC   C4B  240  17.267   6.910  12.510
   21DOPC   NC3  241  18.327   2.160  13.900
   21DOPC   PO4  242  18.107   2.250  13.570
   21DOPC   GL1  243  17.887   2.100  13.280
   21DOPC   GL2  244  17.897   2.410  13.060
   21DOPC   C1A  245  17.457   2.170  13.080
   21DOPC   D2A  246  16.987   2.220  12.930
   21DOPC   C3A  247  16.617   2.480  12.900
   21DOPC   C4A  248  16.287   2.740  12.820
   21DOPC   C1B  249  17.567   2.510  12.740
   21DOPC   D2B  250  17.367   2.630  12.270
   21DOPC   C3B  251  16.937   2.600  12.160
   21DOPC   C4B  252  16.457   2.480  11.950
   22DOPC   NC3  253  18.727   3.520  13.460
   22DOPC   PO4  254  18.647   3.650  13.090
   22DOPC   GL1  255  18.477   3.360  12.790
   22DOPC   GL2  256  18.347   3.260  13.010
   22DOPC   C1A  257  18.357   3.270  12.370
   22DOPC   D2A  258  18.087   2.960  12.140
   22DOPC   C3A  259  18.147   2.650  11.790
   22DOPC   C4A  260  17.817   2.260  11.630
   22DOPC   C1B  261  18.087   2.960  13.130
   22DOPC   D2B  262  17.587   2.830  13.090
   22DOPC   C3B  263  17.167   3.080  13.080
   22DOPC   C4B  264  16.707   3.010  13.040
   23DOPC   NC3  265  15.197   1.310  14.880
   23DOPC   PO4  266  15.357   1.680  14.990
   23DOPC   GL1  267  15.047   1.800  14.870
   23DOPC   GL2  268  14.887   1.940  15.030
   23DOPC   C1A  269  14.867   1.540  14.500
   23DOPC   D2A  270  14.847   1.430  14.070
   23DOPC   C3A  271  15.017   1.560  13.660
   23DOPC   C4A  272  15.217   1.550  13.250
   23DOPC   C1B  273  14.557   1.910  14.750
   23DOPC   D2B  274  14.317   1.670  14.350
   23DOPC   C3B  275  14.327   1.380  14.050
   23DOPC   C4B  276  14.617   1.170  13.720
   24DOPC   NC3  277  20.227   3.150   9.560
   24DOPC   PO4  278  20.377   2.920   9.850
   24DOPC   GL1  279  20.237   2.520   9.740
   24DOPC   GL2  280  19.957   2.720   9.700
   24DOPC   C1A  281  20.157   2.430   9.350
   24DOPC   D2A  282  19.847   2.370   9.050
   24DOPC   C3A  283  19.547   2.080   8.790
   24DOPC   C4A  284  19.237   1.800   8.470
   24DOPC   C1B  285  19.697   2.670   9.430
   24DOPC   D2B  286  19.437   2.610   8.980
   24DOPC   C3B  287  19.337   2.930   8.660
   24DOPC   C4B  288  19.387   3.350   8.470
   25DOPC   NC3  289  20.807   6.230   9.610
   25DOPC   PO4  290  21.010   6.520   9.460
   25DOPC   GL1  291  20.777   6.580   9.140
   25DOPC   GL2  292  20.557   6.630   9.270
   25DOPC   C1A  293  20.707   6.430   8.700
   25DOPC   D2A  294  20.207   6.260   8.670
   25DOPC   C3A  295  20.097   6.670   8.460
   25DOPC   C4A  296  20.237   7.140   8.320
   25DOPC   C1B  297  20.287   6.850   8.950
   25DOPC   D2B  298  19.877   7.080   8.820
   25DOPC   C3B  299  19.687   7.370   8.560
   25DOPC   C4B  300  19.757   0.020   8.450
   26DOPC   NC3  301  17.717   1.210  14.010
   26DOPC   PO4  302  17.387   1.330  13.990
   26DOPC   GL1  303  17.177   1.310  13.620
   26DOPC   GL2  304  16.897   1.390  13.660
   26DOPC   C1A  305  17.217   1.160  13.210
   26DOPC   D2A  306  17.257   0.970  12.780
   26DOPC   C3A  307  16.887   0.660  12.660
   26DOPC   C4A  308  16.347   0.580  12.650
   26DOPC   C1B  309  16.627   1.060  13.490
   26DOPC   D2B  310  16.547   0.560  13.540
   26DOPC   C3B  311  16.277   0.460  13.140
   26DOPC   C4B  312  15.917   0.420  12.790
   27DOPC   NC3  313   6.127   5.960  12.030
   27DOPC   PO4  314   6.367   5.630  12.020
   27DOPC   GL1  315   6.737   5.490  11.750
   27DOPC   GL2  316   6.497   5.430  11.570
   27DOPC   C1A  317   6.837   5.710  11.460
   27DOPC   D2A  318   6.917   5.790  11.000
   27DOPC   C3A  319   7.137   5.680  10.590
   27DOPC   C4A  320   7.367   5.550  10.140
   27DOPC   C1B  321   6.627   5.310  11.150
   27DOPC   D2B  322   6.777   5.240  10.690
   27DOPC   C3B  323   7.137   5.180  10.390
   27DOPC   C4B  324   7.627   5.030  10.250
   28DOPC   NC3  325   9.227   0.740  14.790
   28DOPC   PO4  326   9.457   0.420  14.850
   28DOPC   GL1  327   9.697   0.330  14.570
   28DOPC   GL2  328   9.967   0.410  14.570
   28DOPC   C1A  329   9.607   0.420  14.140
   28DOPC   D2A  330   9.637   0.600  13.710
   28DOPC   C3A  331   9.587   0.650  13.200
   28DOPC   C4A  332   9.597   0.620  12.680
   28DOPC   C1B  333  10.087   0.260  14.180
   28DOPC   D2B  334  10.447   0.130  13.820
   28DOPC   C3B  335  10.477   0.160  13.340
   28DOPC   C4B  336  10.307   0.200  12.870
   29DOPC   NC3  337  15.677   1.300  14.820
   29DOPC   PO4  338  15.527   0.980  15.000
   29DOPC   GL1  339  15.107   0.890  14.810
   29DOPC   GL2  340  15.237   0.610  14.730
   29DOPC   C1A  341  14.997   0.990  14.390
   29DOPC   D2A  342  15.297   1.140  13.990
   29DOPC   C3A  343  15.157   1.020  13.580
   29DOPC   C4A  344  14.887   1.160  13.190
   29DOPC   C1B  345  15.327   0.660  14.320
   29DOPC   D2B  346  15.067   0.690  13.900
   29DOPC   C3B  347  14.867   0.580  13.480
   29DOPC   C4B  348  14.957   0.350  12.990
   30DOPC   NC3  349   9.437   0.720  15.250
   30DOPC   PO4  350   9.427   1.060  15.120
   30DOPC   GL1  351   9.627   1.270  14.780
   30DOPC   GL2  352   9.357   1.140  14.620
   30DOPC   C1A  353   9.867   1.250  14.440
   30DOPC   D2A  354  10.307   1.180  14.160
   30DOPC   C3A  355  10.257   1.120  13.740
   30DOPC   C4A  356  10.397   1.190  13.240
   30DOPC   C1B  357   9.487   0.920  14.260
   30DOPC   D2B  358   9.657   1.100  13.820
   30DOPC   C3B  359   9.907   1.390  13.500
   30DOPC   C4B  360  10.117   1.770  13.280
   31DOPC   NC3  361  13.357   5.950  15.560
   31DOPC   PO4  362  13.487   5.600  15.650
   31DOPC   GL1  363  13.547   5.240  15.430
   31DOPC   GL2  364  13.787   5.400  15.360
   31DOPC   C1A  365  13.297   5.090  15.130
   31DOPC   D2A  366  12.907   4.970  14.910
   31DOPC   C3A  367  12.777   5.340  14.550
   31DOPC   C4A  368  12.447   5.650  14.370
   31DOPC   C1B  369  13.537   5.430  14.960
   31DOPC   D2B  370  13.257   5.590  14.560
   31DOPC   C3B  371  12.937   5.920  14.350
   31DOPC   C4B  372  12.597   6.040  14.030
   32DOPC   NC3  373  10.487   2.120  15.020
   32DOPC   PO4  374  10.467   2.460  14.810
   32DOPC   GL1  375  10.517   2.590  14.440
   32DOPC   GL2  376  10.597   2.820  14.520
   32DOPC   C1A  377  10.837   2.590  14.100
   32DOPC   D2A  378  11.337   2.480  14.110
   32DOPC   C3A  379  11.757   2.340  13.940
   32DOPC   C4A  380  12.147   2.200  13.640
   32DOPC   C1B  381  10.807   3.150  14.470
   32DOPC   D2B  382  11.177   3.530  14.410
   32DOPC   C3B  383  11.317   3.570  13.970
   32DOPC   C4B  384  11.677   3.740  13.680
   33DOPC   NC3  385   3.057   4.030   8.400
   33DOPC   PO4  386   3.147   4.390   8.500
   33DOPC   GL1  387   3.457   4.520   8.170
   33DOPC   GL2  388   3.457   4.130   8.180
   33DOPC   C1A  389   3.777   4.680   7.980
   33DOPC   D2A  390   4.097   4.720   7.530
   33DOPC   C3A  391   3.997   4.630   7.050
   33DOPC   C4A  392   3.937   4.710   6.640
   33DOPC   C1B  393   3.737   3.980   7.920
   33DOPC   D2B  394   4.037   3.700   7.700
   33DOPC   C3B  395   4.207   3.580   7.290
   33DOPC   C4B  396   4.427   3.660   6.850
   34DOPC   NC3  397  10.027   2.670  14.790
   34DOPC   PO4  398   9.677   2.720  14.600
   34DOPC   GL1  399   9.827   2.850  14.090
   34DOPC   GL2  400   9.797   2.560  14.180
   34DOPC   C1A  401  10.107   3.060  13.750
   34DOPC   D2A  402  10.367   3.310  13.520
   34DOPC   C3A  403  10.407   3.540  13.170
   34DOPC   C4A  404  10.377   3.940  12.940
   34DOPC   C1B  405   9.797   2.290  13.890
   34DOPC   D2B  406   9.727   1.970  13.570
   34DOPC   C3B  407   9.547   2.120  13.120
   34DOPC   C4B  408   9.747   2.250  12.680
   35DOPC   NC3  409  13.867   1.180  15.910
   35DOPC   PO4  410  13.537   1.110  15.680
   35DOPC   GL1  411  13.767   1.250  15.350
   35DOPC   GL2  412  13.667   1.080  15.170
   35DOPC   C1A  413  13.677   1.620  15.100
   35DOPC   D2A  414  13.537   2.000  14.780
   35DOPC   C3A  415  13.267   2.000  14.420
   35DOPC   C4A  416  13.337   1.770  14.080
   35DOPC   C1B  417  13.617   1.120  14.740
   35DOPC   D2B  418  13.507   0.990  14.250
   35DOPC   C3B  419  13.317   0.900  13.790
   35DOPC   C4B  420  13.097   1.020  13.300
   36DOPC   NC3  421  10.197   7.620  14.940
   36DOPC   PO4  422  10.357   7.250  15.000
   36DOPC   GL1  423  10.357   7.130  14.580
   36DOPC   GL2  424  10.217   7.490  14.510
   36DOPC   C1A  425  10.637   6.880  14.360
   36DOPC   D2A  426  10.927   6.680  14.030
   36DOPC   C3A  427  11.287   6.760  13.720
   36DOPC   C4A  428  11.697   6.670  13.430
   36DOPC   C1B  429  10.127   7.550  14.100
   36DOPC   D2B  430  10.207   7.550  13.600
   36DOPC   C3B  431  10.237   7.530  13.110
   36DOPC   C4B  432  10.197   7.600  12.670
   37DOPC   NC3  433   8.657   6.080  13.960
   37DOPC   PO4  434   8.877   6.000  14.260
   37DOPC   GL1  435   9.207   6.020  14.100
   37DOPC   GL2  436   9.137   6.230  13.880
   37DOPC   C1A  437   9.507   5.750  13.890
   37DOPC   D2A  438   9.567   5.580  13.390
   37DOPC   C3A  439   9.297   5.840  13.190
   37DOPC   C4A  440   8.947   6.110  12.950
   37DOPC   C1B  441   9.487   6.150  13.610
   37DOPC   D2B  442   9.847   6.180  13.300
   37DOPC   C3B  443   9.777   5.930  12.940
   37DOPC   C4B  444   9.427   6.100  12.730
   38DOPC   NC3  445   3.067   3.050   8.320
   38DOPC   PO4  446   2.667   2.980   8.210
   38DOPC   GL1  447   2.807   3.060   7.830
   38DOPC   GL2  448   2.897   3.330   8.040
   38DOPC   C1A  449   3.087   3.100   7.450
   38DOPC   D2A  450   3.367   3.120   7.050
   38DOPC   C3A  451   3.397   3.450   6.670
   38DOPC   C4A  452   3.597   3.570   6.220
   38DOPC   C1B  453   3.317   3.360   7.820
   38DOPC   D2B  454   3.707   3.380   7.530
   38DOPC   C3B  455   3.707   3.540   7.140
   38DOPC   C4B  456   3.787   3.710   6.710
   39DOPC   NC3  457  16.937   5.510  14.490
   39DOPC   PO4  458  17.127   5.160  14.430
   39DOPC   GL1  459  16.917   5.090  14.150
   39DOPC   GL2  460  16.667   5.280  14.190
   39DOPC   C1A  461  16.897   4.780  13.860
   39DOPC   D2A  462  16.647   4.840  13.440
   39DOPC   C3A  463  16.287   5.070  13.300
   39DOPC   C4A  464  15.857   5.150  13.050
   39DOPC   C1B  465  16.387   5.120  13.880
   39DOPC   D2B  466  15.917   4.910  13.800
   39DOPC   C3B  467  15.647   4.910  13.460
   39DOPC   C4B  468  15.357   4.890  13.060
   40DOPC   NC3  469  23.210   6.270   7.420
   40DOPC   PO4  470  23.330   5.870   7.320
   40DOPC   GL1  471  22.900   5.830   7.040
   40DOPC   GL2  472  23.130   6.040   6.970
   40DOPC   C1A  473  22.750   5.750   6.650
   40DOPC   D2A  474  22.410   5.760   6.270
   40DOPC   C3A  475  22.240   6.010   5.890
   40DOPC   C4A  476  22.370   6.410   5.800
   40DOPC   C1B  477  23.090   6.280   6.560
   40DOPC   D2B  478  23.040   6.560   6.140
   40DOPC   C3B  479  22.840   6.510   5.750
   40DOPC   C4B  480  22.740   6.450   5.330
   41DOPC   NC3  481  11.367   2.120  15.330
   41DOPC   PO4  482  10.997   2.270  15.390
   41DOPC   GL1  483  10.937   2.320  15.000
   41DOPC   GL2  484  11.087   2.060  14.910
   41DOPC   C1A  485  10.977   2.340  14.530
   41DOPC   D2A  486  11.077   1.980  14.160
   41DOPC   C3A  487  11.477   1.970  14.140
   41DOPC   C4A  488  11.947   1.850  14.020
   41DOPC   C1B  489  11.457   2.040  14.640
   41DOPC   D2B  490  11.887   1.940  14.580
   41DOPC   C3B  491  11.877   1.600  14.870
   41DOPC   C4B  492  11.967   1.270  15.190
   42DOPC   NC3  493  21.100   4.290   9.600
   42DOPC   PO4  494  21.070   4.420   9.210
   42DOPC   GL1  495  20.737   4.490   9.200
   42DOPC   GL2  496  20.777   4.810   9.180
   42DOPC   C1A  497  20.457   4.570   8.850
   42DOPC   D2A  498  19.997   4.730   8.750
   42DOPC   C3A  499  19.537   4.760   8.620
   42DOPC   C4A  500  19.097   4.860   8.560
   42DOPC   C1B  501  20.797   4.910   8.690
   42DOPC   D2B  502  20.687   5.040   8.200
   42DOPC   C3B  503  20.367   5.170   7.870
   42DOPC   C4B  504  20.327   5.020   7.380
   43DOPC   NC3  505   2.747   1.190   7.840
   43DOPC   PO4  506   2.477   1.010   8.110
   43DOPC   GL1  507   2.677   0.700   7.830
   43DOPC   GL2  508   2.787   0.530   7.910
   43DOPC   C1A  509   2.967   0.830   7.560
   43DOPC   D2A  510   3.267   1.060   7.230
   43DOPC   C3A  511   3.527   0.760   6.950
   43DOPC   C4A  512   3.357   0.490   6.580
   43DOPC   C1B  513   3.077   0.320   7.620
   43DOPC   D2B  514   3.467   0.160   7.380
   43DOPC   C3B  515   3.617   0.280   6.910
   43DOPC   C4B  516   3.827   0.470   6.470
   44DOPC   NC3  517  23.210   0.210   7.760
   44DOPC   PO4  518  23.300   7.770   7.450
   44DOPC   GL1  519  23.430   7.710   7.000
   44DOPC   GL2  520  23.430   0.100   7.020
   44DOPC   C1A  521  23.290   7.500   6.690
   44DOPC   D2A  522  22.930   7.330   6.390
   44DOPC   C3A  523  23.140   7.060   6.130
   44DOPC   C4A  524  23.330   6.740   5.780
   44DOPC   C1B  525  23.340   0.150   6.560
   44DOPC   D2B  526  23.430   0.250   6.090
   44DOPC   C3B  527  23.310   7.810   5.740
   44DOPC   C4B  528  23.230   7.690   5.280
   45DOPC   NC3  529  16.277   6.440  14.670
   45DOPC   PO4  530  16.447   6.800  14.680
   45DOPC   GL1  531  16.107   6.960  14.420
   45DOPC   GL2  532  16.207   7.220  14.500
   45DOPC   C1A  533  15.927   6.800  14.100
   45DOPC   D2A  534  15.797   6.710  13.630
   45DOPC   C3A  535  15.467   6.800  13.300
   45DOPC   C4A  536  15.077   6.830  12.960
   45DOPC   C1B  537  15.937   7.310  14.150
   45DOPC   D2B  538  15.837   7.210  13.690
   45DOPC   C3B  539  15.917   7.030  13.250
   45DOPC   C4B  540  15.877   6.780  12.810
   46DOPC   NC3  541   0.917   6.030   7.460
   46DOPC   PO4  542   1.287   5.940   7.490
   46DOPC   GL1  543   1.377   6.180   7.170
   46DOPC   GL2  544   1.267   6.010   6.910
   46DOPC   C1A  545   1.757   6.370   7.010
   46DOPC   D2A  546   2.177   6.640   6.970
   46DOPC   C3A  547   2.267   6.940   6.620
   46DOPC   C4A  548   2.457   7.020   6.150
   46DOPC   C1B  549   1.417   5.610   6.890
   46DOPC   D2B  550   1.607   5.150   6.790
   46DOPC   C3B  551   1.827   5.230   6.390
   46DOPC   C4B  552   2.047   5.410   6.050
   47DOPC   NC3  553   5.387   2.550  11.380
   47DOPC   PO4  554   5.017   2.650  11.270
   47DOPC   GL1  555   5.037   2.780  10.850
   47DOPC   GL2  556   5.277   2.970  11.030
   47DOPC   C1A  557   5.267   2.650  10.490
   47DOPC   D2A  558   5.657   2.500  10.220
   47DOPC   C3A  559   5.797   2.340   9.770
   47DOPC   C4A  560   6.087   2.390   9.360
   47DOPC   C1B  561   5.677   2.880  11.020
   47DOPC   D2B  562   6.007   2.520  11.130
   47DOPC   C3B  563   6.487   2.530  10.860
   47DOPC   C4B  564   6.827   2.420  10.450
   48DOPC   NC3  565  21.710   5.580   8.190
   48DOPC   PO4  566  21.480   5.540   8.520
   48DOPC   GL1  567  21.080   5.720   8.430
   48DOPC   GL2  568  21.320   5.770   8.200
   48DOPC   C1A  569  20.657   5.660   8.210
   48DOPC   D2A  570  20.177   5.570   8.110
   48DOPC   C3A  571  19.797   5.610   7.920
   48DOPC   C4A  572  19.457   5.880   7.630
   48DOPC   C1B  573  21.220   5.430   7.940
   48DOPC   D2B  574  20.857   5.130   7.690
   48DOPC   C3B  575  20.797   4.770   7.360
   48DOPC   C4B  576  20.417   4.500   7.280
   49DOPC   NC3  577   3.407   5.010   8.840
   49DOPC   PO4  578   3.757   5.140   8.680
   49DOPC   GL1  579   4.107   5.120   8.460
   49DOPC   GL2  580   3.937   5.080   8.200
   49DOPC   C1A  581   4.167   4.710   8.320
   49DOPC   D2A  582   4.547   4.480   8.160
   49DOPC   C3A  583   4.577   4.440   7.700
   49DOPC   C4A  584   4.497   4.460   7.240
   49DOPC   C1B  585   3.977   5.110   7.770
   49DOPC   D2B  586   4.197   5.210   7.360
   49DOPC   C3B  587   4.577   4.940   7.440
   49DOPC   C4B  588   4.947   4.550   7.420
   50DOPC   NC3  589   7.467   0.840  13.240
   50DOPC   PO4  590   7.107   0.940  13.130
   50DOPC   GL1  591   7.267   1.030  12.710
   50DOPC   GL2  592   7.477   1.030  12.860
   50DOPC   C1A  593   7.367   0.950  12.290
   50DOPC   D2A  594   7.377   0.840  11.810
   50DOPC   C3A  595   7.437   0.900  11.340
   50DOPC   C4A  596   7.287   1.080  10.890
   50DOPC   C1B  597   7.747   1.340  12.530
   50DOPC   D2B  598   8.047   1.620  12.300
   50DOPC   C3B  599   8.247   1.750  11.910
   50DOPC   C4B  600   8.197   1.970  11.420
   51DOPC   NC3  601  10.637   3.080  14.930
   51DOPC   PO4  602  10.267   3.100  14.780
   51DOPC   GL1  603  10.137   2.840  14.370
   51DOPC   GL2  604   9.937   3.070  14.450
   51DOPC   C1A  605  10.467   2.970  14.140
   51DOPC   D2A  606  10.777   3.130  13.800
   51DOPC   C3A  607  10.837   3.300  13.380
   51DOPC   C4A  608  10.987   3.590  13.030
   51DOPC   C1B  609   9.997   3.380  14.110
   51DOPC   D2B  610  10.037   3.720  13.750
   51DOPC   C3B  611  10.347   3.930  13.470
   51DOPC   C4B  612  10.787   4.020  13.230
   52DOPC   NC3  613   6.937   0.230  13.410
   52DOPC   PO4  614   7.107   0.460  13.180
   52DOPC   GL1  615   7.487   0.430  13.010
   52DOPC   GL2  616   7.387   0.590  12.860
   52DOPC   C1A  617   7.947   0.510  13.080
   52DOPC   D2A  618   8.347   0.610  12.870
   52DOPC   C3A  619   8.677   0.610  12.560
   52DOPC   C4A  620   8.887   0.450  12.210
   52DOPC   C1B  621   7.727   0.740  12.630
   52DOPC   D2B  622   8.057   0.930  12.330
   52DOPC   C3B  623   8.187   1.210  12.020
   52DOPC   C4B  624   8.467   1.350  11.590
   53DOPC   NC3  625  16.797   1.700  15.010
   53DOPC   PO4  626  16.797   1.660  14.600
   53DOPC   GL1  627  16.697   1.350  14.280
   53DOPC   GL2  628  16.377   1.380  14.310
   53DOPC   C1A  629  16.607   1.550  13.940
   53DOPC   D2A  630  16.447   1.640  13.490
   53DOPC   C3A  631  16.577   1.840  13.030
   53DOPC   C4A  632  16.387   1.940  12.550
   53DOPC   C1B  633  16.137   1.660  14.050
   53DOPC   D2B  634  15.987   1.870  13.650
   53DOPC   C3B  635  16.097   1.900  13.200
   53DOPC   C4B  636  16.037   2.280  12.860
   54DOPC   NC3  637   3.337   4.500   8.970
   54DOPC   PO4  638   3.537   4.280   9.220
   54DOPC   GL1  639   3.867   4.220   8.970
   54DOPC   GL2  640   3.837   3.960   8.930
   54DOPC   C1A  641   4.307   4.090   8.970
   54DOPC   D2A  642   4.757   3.980   8.750
   54DOPC   C3A  643   5.077   4.220   8.860
   54DOPC   C4A  644   5.557   4.210   8.900
   54DOPC   C1B  645   4.067   3.760   8.710
   54DOPC   D2B  646   4.497   3.570   8.550
   54DOPC   C3B  647   4.897   3.530   8.280
   54DOPC   C4B  648   5.337   3.620   8.210
   55DOPC   NC3  649   5.987   6.770  11.390
   55DOPC   PO4  650   5.887   7.040  11.660
   55DOPC   GL1  651   6.207   7.300  11.520
   55DOPC   GL2  652   6.107   7.280  11.290
   55DOPC   C1A  653   6.607   7.340  11.630
   55DOPC   D2A  654   7.007   7.230  11.840
   55DOPC   C3A  655   7.397   7.510  11.680
   55DOPC   C4A  656   7.717   0.000  11.620
   55DOPC   C1B  657   6.527   7.180  11.180
   55DOPC   D2B  658   6.817   7.020  10.830
   55DOPC   C3B  659   7.147   6.790  10.880
   55DOPC   C4B  660   7.527   6.620  10.650
   56DOPC   NC3  661  23.270   1.920   7.340
   56DOPC   PO4  662  23.650   2.010   7.280
   56DOPC   GL1  663  23.500   1.850   6.970
   56DOPC   GL2  664  23.640   1.940   6.710
   56DOPC   C1A  665  23.190   1.700   6.620
   56DOPC   D2A  666  22.750   1.500   6.430
   56DOPC   C3A  667  22.830   1.340   5.990
   56DOPC   C4A  668  22.710   1.140   5.570
   56DOPC   C1B  669  23.520   1.930   6.280
   56DOPC   D2B  670  23.490   2.290   5.890
   56DOPC   C3B  671  23.260   2.600   5.720
   56DOPC   C4B  672  23.050   2.880   5.330
   57DOPC   NC3  673   6.987   1.520  13.150
   57DOPC   PO4  674   7.337   1.410  13.370
   57DOPC   GL1  675   7.647   1.280  13.150
   57DOPC   GL2  676   7.647   1.580  13.090
   57DOPC   C1A  677   8.037   1.170  12.880
   57DOPC   D2A  678   8.317   1.250  12.510
   57DOPC   C3A  679   8.647   1.060  12.270
   57DOPC   C4A  680   8.697   0.850  11.840
   57DOPC   C1B  681   8.007   1.720  12.800
   57DOPC   D2B  682   8.327   1.990  12.570
   57DOPC   C3B  683   8.547   1.670  12.310
   57DOPC   C4B  684   8.847   1.450  11.980
   58DOPC   NC3  685  18.797   1.920  12.530
   58DOPC   PO4  686  18.597   1.820  12.880
   58DOPC   GL1  687  18.267   2.160  13.030
   58DOPC   GL2  688  18.307   2.130  12.690
   58DOPC   C1A  689  17.887   2.020  12.820
   58DOPC   D2A  690  17.447   2.020  12.530
   58DOPC   C3A  691  17.127   2.260  12.470
   58DOPC   C4A  692  16.627   2.330  12.420
   58DOPC   C1B  693  18.217   1.950  12.290
   58DOPC   D2B  694  18.127   1.980  11.850
   58DOPC   C3B  695  17.647   1.840  11.960
   58DOPC   C4B  696  17.187   1.860  12.160
   59DOPC   NC3  697  22.880   5.620   7.600
   59DOPC   PO4  698  22.840   5.970   7.470
   59DOPC   GL1  699  22.640   6.130   7.170
   59DOPC   GL2  700  22.370   5.970   7.230
   59DOPC   C1A  701  22.600   6.250   6.740
   59DOPC   D2A  702  22.540   6.250   6.280
   59DOPC   C3A  703  22.850   6.040   6.160
   59DOPC   C4A  704  23.260   5.890   6.370
   59DOPC   C1B  705  22.250   5.850   6.800
   59DOPC   D2B  706  21.940   5.790   6.420
   59DOPC   C3B  707  22.000   6.270   6.390
   59DOPC   C4B  708  21.760   6.630   6.420
   60DOPC   NC3  709  16.717   4.640  14.350
   60DOPC   PO4  710  16.687   4.260  14.430
   60DOPC   GL1  711  16.307   4.030  14.260
   60DOPC   GL2  712  16.187   4.320  14.310
   60DOPC   C1A  713  16.297   3.930  13.880
   60DOPC   D2A  714  15.987   3.860  13.440
   60DOPC   C3A  715  15.837   4.180  13.170
   60DOPC   C4A  716  15.747   4.640  13.010
   60DOPC   C1B  717  15.847   4.610  14.200
   60DOPC   D2B  718  15.457   4.850  14.060
   60DOPC   C3B  719  15.207   4.660  13.740
   60DOPC   C4B  720  14.877   4.590  13.290
   61DOPC   NC3  721  22.510   3.670   7.590
   61DOPC   PO4  722  22.600   3.290   7.600
   61DOPC   GL1  723  22.630   3.400   7.170
   61DOPC   GL2  724  22.560   3.110   7.070
   61DOPC   C1A  725  22.620   3.430   6.710
   61DOPC   D2A  726  22.420   3.600   6.290
   61DOPC   C3A  727  22.220   3.520   5.860
   61DOPC   C4A  728  22.160   3.270   5.450
   61DOPC   C1B  729  22.150   2.900   7.160
   61DOPC   D2B  730  21.620   2.760   7.100
   61DOPC   C3B  731  21.190   2.870   6.860
   61DOPC   C4B  732  20.677   2.920   6.830
   62DOPC   NC3  733   5.737   4.140  12.100
   62DOPC   PO4  734   5.947   4.390  12.200
   62DOPC   GL1  735   6.287   4.350  11.990
   62DOPC   GL2  736   6.417   4.330  12.220
   62DOPC   C1A  737   6.507   4.550  11.790
   62DOPC   D2A  738   6.987   4.660  11.530
   62DOPC   C3A  739   7.437   4.450  11.470
   62DOPC   C4A  740   7.717   4.020  11.500
   62DOPC   C1B  741   6.757   4.530  12.190
   62DOPC   D2B  742   7.277   4.650  12.130
   62DOPC   C3B  743   7.627   4.750  11.900
   62DOPC   C4B  744   7.957   4.970  11.580
   63DOPC   NC3  745  13.187   0.950  15.220
   63DOPC   PO4  746  12.837   0.810  15.110
   63DOPC   GL1  747  12.587   0.980  14.870
   63DOPC   GL2  748  12.437   1.130  15.040
   63DOPC   C1A  749  12.737   1.270  14.540
   63DOPC   D2A  750  12.867   1.630  14.250
   63DOPC   C3A  751  12.957   2.000  13.950
   63DOPC   C4A  752  12.587   2.230  13.750
   63DOPC   C1B  753  12.297   1.310  14.710
   63DOPC   D2B  754  12.047   1.430  14.290
   63DOPC   C3B  755  11.977   1.150  13.970
   63DOPC   C4B  756  11.797   0.920  13.610
   64DOPC   NC3  757  23.390   5.490   7.040
   64DOPC   PO4  758  23.420   5.080   7.070
   64DOPC   GL1  759  23.010   4.830   6.870
   64DOPC   GL2  760  23.010   5.110   6.780
   64DOPC   C1A  761  22.930   4.500   6.610
   64DOPC   D2A  762  22.720   4.240   6.180
   64DOPC   C3A  763  22.490   4.420   5.810
   64DOPC   C4A  764  22.320   4.650   5.440
   64DOPC   C1B  765  22.840   5.330   6.430
   64DOPC   D2B  766  22.680   5.340   5.950
   64DOPC   C3B  767  22.910   5.440   5.560
   64DOPC   C4B  768  23.270   5.720   5.290
   65DOPC   NC3  769  21.190   0.400   9.680
   65DOPC   PO4  770  20.827   0.260   9.600
   65DOPC   GL1  771  20.467   0.480   9.420
   65DOPC   GL2  772  20.637   0.730   9.480
   65DOPC   C1A  773  20.057   0.460   9.460
   65DOPC   D2A  774  19.627   0.510   9.300
   65DOPC   C3A  775  19.217   0.800   9.270
   65DOPC   C4A  776  18.887   1.200   9.450
   65DOPC   C1B  777  20.327   0.870   9.130
   65DOPC   D2B  778  20.117   1.050   8.730
   65DOPC   C3B  779  19.867   1.040   8.420
   65DOPC   C4B  780  19.557   1.070   8.000
   66DOPC   NC3  781  24.340   3.040   7.110
   66DOPC   PO4  782  24.600   3.370   7.080
   66DOPC   GL1  783  24.770   3.370   6.620
   66DOPC   GL2  784  24.550   3.510   6.550
   66DOPC   C1A  785  24.930   3.300   6.220
   66DOPC   D2A  786   0.067   3.300   5.780
   66DOPC   C3A  787  25.010   3.550   5.430
   66DOPC   C4A  788  24.910   3.600   4.890
   66DOPC   C1B  789  24.340   3.480   6.140
   66DOPC   D2B  790  24.170   3.450   5.680
   66DOPC   C3B  791  23.800   3.460   5.390
   66DOPC   C4B  792  23.330   3.310   5.280
   67DOPC   NC3  793   2.477   0.270   8.750
   67DOPC   PO4  794   2.847   0.250   8.560
   67DOPC   GL1  795   3.067   0.470   8.260
   67DOPC   GL2  796   3.267   0.280   8.230
   67DOPC   C1A  797   3.087   0.890   8.100
   67DOPC   D2A  798   3.207   1.340   7.910
   67DOPC   C3A  799   3.487   1.460   7.570
   67DOPC   C4A  800   3.637   1.520   7.130
   67DOPC   C1B  801   3.477   0.510   7.960
   67DOPC   D2B  802   3.627   0.690   7.530
   67DOPC   C3B  803   4.057   0.560   7.530
   67DOPC   C4B  804   4.427   0.400   7.160
   68DOPC   NC3  805   9.907   7.000  14.590
   68DOPC   PO4  806   9.797   7.360  14.780
   68DOPC   GL1  807   9.557   7.540  14.480
   68DOPC   GL2  808   9.747   7.360  14.300
   68DOPC   C1A  809   9.717   7.820  14.130
   68DOPC   D2A  810   9.947   0.160  13.720
   68DOPC   C3A  811  10.037   0.400  13.270
   68DOPC   C4A  812  10.057   0.640  12.850
   68DOPC   C1B  813   9.807   7.230  13.940
   68DOPC   D2B  814   9.717   7.180  13.460
   68DOPC   C3B  815   9.407   7.050  13.180
   68DOPC   C4B  816   9.257   7.140  12.710
   69DOPC   NC3  817   0.287   7.790   6.800
   69DOPC   PO4  818  25.080   7.720   6.950
   69DOPC   GL1  819  24.850   0.080   6.600
   69DOPC   GL2  820  25.030   7.750   6.490
   69DOPC   C1A  821  24.660   7.770   6.280
   69DOPC   D2A  822  24.720   0.020   5.820
   69DOPC   C3A  823  25.020   7.840   5.470
   69DOPC   C4A  824   0.007   7.410   5.350
   69DOPC   C1B  825   0.017   7.830   6.190
   69DOPC   D2B  826   0.437   7.840   5.930
   69DOPC   C3B  827   0.527   0.030   5.520
   69DOPC   C4B  828   0.467   0.540   5.370
   70DOPC   NC3  829   5.827   0.700  11.950
   70DOPC   PO4  830   5.677   0.540  11.650
   70DOPC   GL1  831   5.767   0.150  11.400
   70DOPC   GL2  832   5.637   0.160  11.210
   70DOPC   C1A  833   6.227   7.810  11.490
   70DOPC   D2A  834   6.607   7.650  11.250
   70DOPC   C3A  835   6.817   7.600  10.840
   70DOPC   C4A  836   7.167   7.570  10.410
   70DOPC   C1B  837   5.897   0.040  10.810
   70DOPC   D2B  838   5.957   7.580  10.410
   70DOPC   C3B  839   6.257   7.470  10.060
   70DOPC   C4B  840   6.297   7.320   9.550
   71DOPC   NC3  841  20.737   6.630   9.990
   71DOPC   PO4  842  20.757   6.280  10.130
   71DOPC   GL1  843  20.447   6.180   9.910
   71DOPC   GL2  844  20.327   5.960  10.060
   71DOPC   C1A  845  20.267   6.290   9.530
   71DOPC   D2A  846  20.007   6.550   9.240
   71DOPC   C3A  847  19.587   6.720   9.160
   71DOPC   C4A  848  19.157   6.820   9.080
   71DOPC   C1B  849  19.977   5.970   9.820
   71DOPC   D2B  850  19.527   5.960   9.960
   71DOPC   C3B  851  19.117   5.820  10.100
   71DOPC   C4B  852  18.647   5.620  10.100
   72DOPC   NC3  853  24.470   2.230   6.890
   72DOPC   PO4  854  24.410   1.870   6.720
   72DOPC   GL1  855  24.310   1.750   6.230
   72DOPC   GL2  856  24.470   1.970   6.200
   72DOPC   C1A  857  24.270   1.600   5.790
   72DOPC   D2A  858  24.620   1.260   5.560
   72DOPC   C3A  859  25.040   1.230   5.730
   72DOPC   C4A  860   0.337   1.280   5.830
   72DOPC   C1B  861  24.360   2.120   5.760
   72DOPC   D2B  862  23.940   2.320   5.640
   72DOPC   C3B  863  23.800   2.730   5.830
   72DOPC   C4B  864  23.810   3.240   5.880
   73DOPC   NC3  865   8.857   4.450  14.450
   73DOPC   PO4  866   9.147   4.580  14.720
   73DOPC   GL1  867   9.347   4.620  14.330
   73DOPC   GL2  868   9.277   4.860  14.320
   73DOPC   C1A  869   9.667   4.500  14.050
   73DOPC   D2A  870  10.097   4.290  13.870
   73DOPC   C3A  871  10.507   4.190  13.910
   73DOPC   C4A  872  10.887   3.890  14.090
   73DOPC   C1B  873   9.607   5.010  14.010
   73DOPC   D2B  874   9.837   5.400  13.780
   73DOPC   C3B  875   9.897   5.240  13.340
   73DOPC   C4B  876   9.967   5.390  12.890
   74DOPC   NC3  877   0.147   2.200   7.200
   74DOPC   PO4  878   0.407   2.230   6.930
   74DOPC   GL1  879   0.267   2.090   6.550
   74DOPC   GL2  880   0.177   2.400   6.590
   74DOPC   C1A  881   0.597   2.080   6.260
   74DOPC   D2A  882   1.057   2.130   6.010
   74DOPC   C3A  883   1.117   1.810   5.760
   74DOPC   C4A  884   1.287   1.880   5.330
   74DOPC   C1B  885   0.397   2.650   6.340
   74DOPC   D2B  886   0.677   3.000   6.480
   74DOPC   C3B  887   0.917   3.010   6.140
   74DOPC   C4B  888   1.227   2.710   5.900
   75DOPC   NC3  889   3.087   5.350   8.530
   75DOPC   PO4  890   3.137   5.720   8.400
   75DOPC   GL1  891   3.457   5.800   8.110
   75DOPC   GL2  892   3.307   5.960   7.900
   75DOPC   C1A  893   3.867   5.720   7.940
   75DOPC   D2A  894   4.357   5.540   7.810
   75DOPC   C3A  895   4.457   5.160   8.000
   75DOPC   C4A  896   4.677   4.890   8.350
   75DOPC   C1B  897   3.617   6.050   7.620
   75DOPC   D2B  898   4.177   6.070   7.570
   75DOPC   C3B  899   4.367   5.700   7.340
   75DOPC   C4B  900   4.517   5.400   7.090
   76DOPC   NC3  901  22.490   6.250   7.620
   76DOPC   PO4  902  22.220   6.400   7.380
   76DOPC   GL1  903  21.880   6.530   7.370
   76DOPC   GL2  904  21.740   6.330   7.390
   76DOPC   C1A  905  21.870   6.850   6.990
   76DOPC   D2A  906  21.900   7.080   6.560
   76DOPC   C3A  907  21.940   7.500   6.350
   76DOPC   C4A  908  21.990   0.080   6.020
   76DOPC   C1B  909  21.440   6.580   7.210
   76DOPC   D2B  910  21.450   7.030   6.930
   76DOPC   C3B  911  21.130   7.330   6.840
   76DOPC   C4B  912  20.667   7.500   6.820
   77DOPC   NC3  913   6.727   3.210  12.360
   77DOPC   PO4  914   6.797   2.820  12.390
   77DOPC   GL1  915   7.117   2.540  12.250
   77DOPC   GL2  916   7.347   2.650  12.350
   77DOPC   C1A  917   7.097   2.350  11.810
   77DOPC   D2A  918   6.947   2.190  11.410
   77DOPC   C3A  919   6.597   2.060  11.200
   77DOPC   C4A  920   6.157   2.050  10.980
   77DOPC   C1B  921   7.387   2.760  11.950
   77DOPC   D2B  922   7.257   3.110  11.560
   77DOPC   C3B  923   7.507   3.120  11.140
   77DOPC   C4B  924   7.557   2.920  10.680
   78DOPC   NC3  925  21.850   1.530   8.260
   78DOPC   PO4  926  21.590   1.820   8.180
   78DOPC   GL1  927  21.390   2.100   7.850
   78DOPC   GL2  928  21.340   1.850   7.770
   78DOPC   C1A  929  21.160   2.430   7.960
   78DOPC   D2A  930  20.697   2.630   7.880
   78DOPC   C3A  931  20.237   2.730   7.660
   78DOPC   C4A  932  20.087   3.070   7.360
   78DOPC   C1B  933  20.910   1.990   7.870
   78DOPC   D2B  934  20.497   2.000   8.080
   78DOPC   C3B  935  20.177   1.740   7.870
   78DOPC   C4B  936  19.697   1.910   7.700
   79DOPC   NC3  937   7.067   2.650  12.740
   79DOPC   PO4  938   7.117   3.060  12.740
   79DOPC   GL1  939   7.387   3.120  12.470
   79DOPC   GL2  940   7.187   3.090  12.280
   79DOPC   C1A  941   7.727   2.960  12.280
   79DOPC   D2A  942   7.907   2.660  12.000
   79DOPC   C3A  943   8.097   2.990  11.860
   79DOPC   C4A  944   8.267   3.220  11.460
   79DOPC   C1B  945   7.087   3.330  11.960
   79DOPC   D2B  946   6.917   3.500  11.540
   79DOPC   C3B  947   6.897   3.430  11.020
   79DOPC   C4B  948   7.047   3.460  10.540
   80DOPC   NC3  949   4.537   6.830  10.760
   80DOPC   PO4  950   4.817   6.550  10.780
   80DOPC   GL1  951   5.027   6.340  10.430
   80DOPC   GL2  952   5.087   6.600  10.310
   80DOPC   C1A  953   5.437   6.230  10.270
   80DOPC   D2A  954   5.897   5.960  10.080
   80DOPC   C3A  955   6.147   6.080   9.730
   80DOPC   C4A  956   6.427   5.920   9.370
   80DOPC   C1B  957   5.127   6.610   9.860
   80DOPC   D2B  958   5.287   6.660   9.380
   80DOPC   C3B  959   5.717   6.730   9.120
   80DOPC   C4B  960   6.177   6.960   9.240
   81DOPC   NC3  961  14.557   5.230  15.870
   81DOPC   PO4  962  14.627   5.530  15.600
   81DOPC   GL1  963  14.667   5.680  15.250
   81DOPC   GL2  964  14.467   5.390  15.110
   81DOPC   C1A  965  14.917   5.730  14.970
   81DOPC   D2A  966  15.327   5.670  14.610
   81DOPC   C3A  967  15.247   5.710  14.190
   81DOPC   C4A  968  15.237   5.670  13.680
   81DOPC   C1B  969  14.117   5.580  14.910
   81DOPC   D2B  970  13.737   5.770  14.650
   81DOPC   C3B  971  13.427   6.070  14.520
   81DOPC   C4B  972  13.327   6.380  14.170
   82DOPC   NC3  973  24.890   0.610   6.580
   82DOPC   PO4  974   0.087   0.360   6.700
   82DOPC   GL1  975   0.497   0.390   6.450
   82DOPC   GL2  976   0.337   0.160   6.360
   82DOPC   C1A  977   0.797   0.560   6.130
   82DOPC   D2A  978   0.857   0.380   5.670
   82DOPC   C3A  979   0.937   0.470   5.240
   82DOPC   C4A  980   0.807   0.390   4.800
   82DOPC   C1B  981   0.237   0.470   6.110
   82DOPC   D2B  982   0.107   0.880   5.940
   82DOPC   C3B  983   0.227   0.970   5.460
   82DOPC   C4B  984  25.050   1.330   5.210
   83DOPC   NC3  985  17.597   2.030  13.890
   83DOPC   PO4  986  17.237   2.200  13.890
   83DOPC   GL1  987  17.127   2.610  13.700
   83DOPC   GL2  988  17.137   2.390  13.480
   83DOPC   C1A  989  16.787   2.910  13.570
   83DOPC   D2A  990  16.347   2.970  13.390
   83DOPC   C3A  991  15.897   2.920  13.240
   83DOPC   C4A  992  15.687   2.670  12.850
   83DOPC   C1B  993  17.087   2.610  13.170
   83DOPC   D2B  994  17.097   2.700  12.680
   83DOPC   C3B  995  16.677   2.900  12.550
   83DOPC   C4B  996  16.277   2.840  12.290
   84DOPC   NC3  997   2.697   3.160   8.680
   84DOPC   PO4  998   2.687   3.480   8.420
   84DOPC   GL1  999   3.047   3.570   8.330
   84DOPC   GL2 1000   3.177   3.580   8.530
   84DOPC   C1A 1001   3.207   3.820   7.950
   84DOPC   D2A 1002   3.537   3.860   7.520
   84DOPC   C3A 1003   3.847   3.980   7.140
   84DOPC   C4A 1004   4.257   4.140   6.930
   84DOPC   C1B 1005   3.477   3.300   8.320
   84DOPC   D2B 1006   3.667   2.900   8.100
   84DOPC   C3B 1007   3.647   2.500   7.890
   84DOPC   C4B 1008   3.567   2.020   7.760
   85DOPC   NC3 1009  22.480   1.720   7.440
   85DOPC   PO4 1010  22.860   1.640   7.280
   85DOPC   GL1 1011  22.840   1.340   6.890
   85DOPC   GL2 1012  22.580   1.310   7.130
   85DOPC   C1A 1013  22.810   1.070   6.590
   85DOPC   D2A 1014  22.860   0.880   6.230
   85DOPC   C3A 1015  23.130   0.680   6.000
   85DOPC   C4A 1016  23.440   0.450   5.670
   85DOPC   C1B 1017  22.170   1.400   7.040
   85DOPC   D2B 1018  21.750   1.450   6.830
   85DOPC   C3B 1019  21.420   1.480   6.490
   85DOPC   C4B 1020  21.000   1.560   6.280
   86DOPC   NC3 1021  18.867   4.170  12.300
   86DOPC   PO4 1022  18.977   4.490  12.500
   86DOPC   GL1 1023  18.737   4.760  12.360
   86DOPC   GL2 1024  18.537   4.590  12.270
   86DOPC   C1A 1025  18.697   4.880  11.930
   86DOPC   D2A 1026  18.417   4.790  11.500
   86DOPC   C3A 1027  18.207   4.380  11.440
   86DOPC   C4A 1028  17.867   4.110  11.290
   86DOPC   C1B 1029  18.137   4.490  12.350
   86DOPC   D2B 1030  17.687   4.250  12.410
   86DOPC   C3B 1031  17.407   4.110  12.050
   86DOPC   C4B 1032  17.007   3.960  11.780
   87DOPC   NC3 1033  20.187   5.440  10.780
   87DOPC   PO4 1034  20.227   5.860  10.780
   87DOPC   GL1 1035  20.007   5.960  10.430
   87DOPC   GL2 1036  19.987   5.690  10.310
   87DOPC   C1A 1037  19.737   6.290  10.330
   87DOPC   D2A 1038  19.387   6.410   9.990
   87DOPC   C3A 1039  18.977   6.280   9.790
   87DOPC   C4A 1040  18.607   6.230   9.500
   87DOPC   C1B 1041  19.587   5.540  10.220
   87DOPC   D2B 1042  19.217   5.350  10.040
   87DOPC   C3B 1043  18.847   5.150   9.920
   87DOPC   C4B 1044  18.427   5.030  10.210
   88DOPC   NC3 1045  11.857   1.050  15.680
   88DOPC   PO4 1046  11.447   1.050  15.550
   88DOPC   GL1 1047  11.467   1.200  15.230
   88DOPC   GL2 1048  11.157   1.210  15.110
   88DOPC   C1A 1049  11.627   1.150  14.840
   88DOPC   D2A 1050  11.787   0.880  14.530
   88DOPC   C3A 1051  11.377   1.050  14.390
   88DOPC   C4A 1052  11.087   1.480  14.320
   88DOPC   C1B 1053  10.977   1.230  14.750
   88DOPC   D2B 1054  10.797   1.110  14.320
   88DOPC   C3B 1055  11.077   1.020  13.980
   88DOPC   C4B 1056  11.287   0.920  13.560
   89DOPC   NC3 1057   7.187   4.430  12.900
   89DOPC   PO4 1058   7.117   4.770  12.760
   89DOPC   GL1 1059   7.037   4.980  12.380
   89DOPC   GL2 1060   7.367   4.990  12.430
   89DOPC   C1A 1061   6.957   4.930  11.940
   89DOPC   D2A 1062   6.937   5.140  11.500
   89DOPC   C3A 1063   6.947   4.910  11.090
   89DOPC   C4A 1064   7.147   4.460  10.920
   89DOPC   C1B 1065   7.537   5.380  12.310
   89DOPC   D2B 1066   7.837   5.570  11.920
   89DOPC   C3B 1067   7.947   6.020  11.870
   89DOPC   C4B 1068   8.217   6.360  11.600
   90DOPC   NC3 1069  18.477   0.340  12.520
   90DOPC   PO4 1070  18.587   0.560  12.810
   90DOPC   GL1 1071  18.227   0.630  12.760
   90DOPC   GL2 1072  18.137   0.370  12.840
   90DOPC   C1A 1073  17.967   0.510  12.400
   90DOPC   D2A 1074  17.887   0.750  11.970
   90DOPC   C3A 1075  17.717   1.140  11.860
   90DOPC   C4A 1076  17.427   1.480  11.620
   90DOPC   C1B 1077  17.757   0.180  12.780
   90DOPC   D2B 1078  17.607   0.000  12.340
   90DOPC   C3B 1079  17.557   0.400  12.080
   90DOPC   C4B 1080  17.527   0.630  11.690
   91DOPC   NC3 1081  14.547   7.460  15.180
   91DOPC   PO4 1082  14.837   7.220  15.300
   91DOPC   GL1 1083  14.927   6.900  14.990
   91DOPC   GL2 1084  14.607   6.970  14.960
   91DOPC   C1A 1085  14.887   6.990  14.580
   91DOPC   D2A 1086  14.987   6.930  14.140
   91DOPC   C3A 1087  14.667   6.980  13.840
   91DOPC   C4A 1088  14.247   6.970  13.540
   91DOPC   C1B 1089  14.387   7.000  14.560
   91DOPC   D2B 1090  14.157   6.930  14.050
   91DOPC   C3B 1091  13.767   7.140  13.810
   91DOPC   C4B 1092  13.347   7.310  13.630
   92DOPC   NC3 1093  16.447   5.070  15.090
   92DOPC   PO4 1094  16.397   5.400  14.860
   92DOPC   GL1 1095  16.277   5.360  14.460
   92DOPC   GL2 1096  16.417   5.610  14.390
   92DOPC   C1A 1097  16.147   4.980  14.280
   92DOPC   D2A 1098  16.287   4.630  13.950
   92DOPC   C3A 1099  15.977   4.340  13.760
   92DOPC   C4A 1100  15.537   4.200  13.640
   92DOPC   C1B 1101  16.457   5.590  13.990
   92DOPC   D2B 1102  16.427   5.510  13.520
   92DOPC   C3B 1103  16.327   5.510  13.080
   92DOPC   C4B 1104  16.177   5.600  12.590
   93DOPC   NC3 1105  18.507   6.330  13.670
   93DOPC   PO4 1106  18.557   6.020  13.410
   93DOPC   GL1 1107  18.367   6.030  12.990
   93DOPC   GL2 1108  18.367   6.310  13.040
   93DOPC   C1A 1109  18.097   5.920  12.730
   93DOPC   D2A 1110  17.897   5.600  12.320
   93DOPC   C3A 1111  17.577   5.490  11.940
   93DOPC   C4A 1112  17.207   5.170  11.970
   93DOPC   C1B 1113  17.987   6.500  12.840
   93DOPC   D2B 1114  17.527   6.560  12.670
   93DOPC   C3B 1115  17.157   6.400  12.420
   93DOPC   C4B 1116  16.757   6.390  12.190
   94DOPC   NC3 1117  17.467   3.650  14.490
   94DOPC   PO4 1118  17.677   3.930  14.360
   94DOPC   GL1 1119  17.467   4.140  14.050
   94DOPC   GL2 1120  17.727   4.170  13.900
   94DOPC   C1A 1121  17.137   4.270  13.780
   94DOPC   D2A 1122  16.977   4.400  13.380
   94DOPC   C3A 1123  16.687   4.400  13.010
   94DOPC   C4A 1124  16.247   4.610  12.900
   94DOPC   C1B 1125  17.577   4.330  13.570
   94DOPC   D2B 1126  17.367   4.170  13.170
   94DOPC   C3B 1127  17.037   3.970  12.860
   94DOPC   C4B 1128  16.967   3.880  12.460
   95DOPC   NC3 1129  20.197   6.790  10.600
   95DOPC   PO4 1130  20.317   6.850  10.230
   95DOPC   GL1 1131  19.957   6.720  10.100
   95DOPC   GL2 1132  19.817   6.730  10.380
   95DOPC   C1A 1133  19.827   6.470   9.760
   95DOPC   D2A 1134  19.657   6.100   9.420
   95DOPC   C3A 1135  19.277   5.870   9.540
   95DOPC   C4A 1136  18.837   5.680   9.550
   95DOPC   C1B 1137  19.357   6.680  10.470
   95DOPC   D2B 1138  18.887   6.780  10.470
   95DOPC   C3B 1139  18.477   6.950  10.520
   95DOPC   C4B 1140  17.937   7.060  10.550
   96DOPC   NC3 1141  24.170   3.590   6.830
   96DOPC   PO4 1142  23.780   3.640   6.760
   96DOPC   GL1 1143  23.480   3.330   6.670
   96DOPC   GL2 1144  23.520   3.570   6.430
   96DOPC   C1A 1145  23.470   2.970   6.410
   96DOPC   D2A 1146  23.180   2.790   6.170
   96DOPC   C3A 1147  23.030   2.290   6.070
   96DOPC   C4A 1148  22.820   1.940   5.980
   96DOPC   C1B 1149  23.360   3.390   6.080
   96DOPC   D2B 1150  23.330   3.070   5.700
   96DOPC   C3B 1151  23.670   2.980   5.410
   96DOPC   C4B 1152  24.150   2.980   5.450
   97DOPC   NC3 1153   3.337   0.600   9.440
   97DOPC   PO4 1154   3.387   0.630   9.060
   97DOPC   GL1 1155   3.497   0.840   8.730
   97DOPC   GL2 1156   3.377   0.640   8.510
   97DOPC   C1A 1157   3.257   1.160   8.540
   97DOPC   D2A 1158   3.047   1.600   8.410
   97DOPC   C3A 1159   2.907   1.720   8.000
   97DOPC   C4A 1160   3.027   1.740   7.520
   97DOPC   C1B 1161   3.717   0.370   8.460
   97DOPC   D2B 1162   4.187   0.210   8.370
   97DOPC   C3B 1163   4.387   7.680   8.200
   97DOPC   C4B 1164   4.677   7.360   8.180
   98DOPC   NC3 1165  15.277   7.180  15.060
   98DOPC   PO4 1166  15.477   6.910  14.910
   98DOPC   GL1 1167  15.557   6.610  14.600
   98DOPC   GL2 1168  15.327   6.810  14.480
   98DOPC   C1A 1169  15.847   6.330  14.430
   98DOPC   D2A 1170  16.157   6.030  14.160
   98DOPC   C3A 1171  16.097   5.850  13.660
   98DOPC   C4A 1172  15.937   5.810  13.160
   98DOPC   C1B 1173  14.987   6.510  14.430
   98DOPC   D2B 1174  14.887   6.110  14.140
   98DOPC   C3B 1175  14.777   5.900  13.710
   98DOPC   C4B 1176  14.327   5.800  13.490
   99DOPC   NC3 1177   3.847   5.090   9.140
   99DOPC   PO4 1178   3.867   4.700   9.080
   99DOPC   GL1 1179   4.147   4.530   8.780
   99DOPC   GL2 1180   4.187   4.860   8.770
   99DOPC   C1A 1181   4.557   4.510   8.780
   99DOPC   D2A 1182   4.957   4.560   8.480
   99DOPC   C3A 1183   5.197   4.880   8.220
   99DOPC   C4A 1184   5.417   5.280   8.050
   99DOPC   C1B 1185   4.497   5.100   8.790
   99DOPC   D2B 1186   4.877   5.350   8.570
   99DOPC   C3B 1187   5.017   5.690   8.720
   99DOPC   C4B 1188   5.047   6.140   9.080
  100DOPC   NC3 1189  11.067   6.900  15.920
  100DOPC   PO4 1190  10.747   6.930  15.710
  100DOPC   GL1 1191  10.687   6.880  15.170
  100DOPC   GL2 1192  10.937   6.850  15.270
  100DOPC   C1A 1193  10.887   7.030  14.800
  100DOPC   D2A 1194  11.127   7.050  14.380
  100DOPC   C3A 1195  11.047   7.180  13.950
  100DOPC   C4A 1196  10.857   6.980  13.530
  100DOPC   C1B 1197  11.027   6.430  15.090
  100DOPC   D2B 1198  10.957   6.010  14.870
  100DOPC   C3B 1199  11.067   5.540  14.770
  100DOPC   C4B 1200  11.197   5.390  14.330
  101DOPC   NC3 1201   7.947   0.940   8.770
  101DOPC   PO4 1202   8.207   0.720   8.560
  101DOPC   GL1 1203   8.267   0.430   8.890
  101DOPC   GL2 1204   8.337   0.720   9.070
  101DOPC   C1A 1205   7.947   0.310   9.280
  101DOPC   D2A 1206   7.827   0.070   9.690
  101DOPC   C3A 1207   8.217   0.250   9.860
  101DOPC   C4A 1208   8.647   0.410  10.070
  101DOPC   C1B 1209   8.017   0.960   9.240
  101DOPC   D2B 1210   7.687   1.160   9.620
  101DOPC   C3B 1211   7.497   0.940   9.980
  101DOPC   C4B 1212   7.407   1.190  10.430
  102DOPC   NC3 1213  12.377   5.920  11.760
  102DOPC   PO4 1214  12.727   6.110  11.700
  102DOPC   GL1 1215  13.007   5.820  12.020
  102DOPC   GL2 1216  12.757   5.970  12.140
  102DOPC   C1A 1217  13.307   5.940  12.330
  102DOPC   D2A 1218  13.407   5.750  12.780
  102DOPC   C3A 1219  13.597   5.930  13.230
  102DOPC   C4A 1220  13.867   6.100  13.660
  102DOPC   C1B 1221  12.797   6.190  12.500
  102DOPC   D2B 1222  13.237   6.230  12.810
  102DOPC   C3B 1223  13.337   6.350  13.230
  102DOPC   C4B 1224  13.407   6.470  13.700
  103DOPC   NC3 1225   3.677   0.150   4.330
  103DOPC   PO4 1226   3.987   0.000   4.490
  103DOPC   GL1 1227   3.977   0.020   4.980
  103DOPC   GL2 1228   4.287   7.840   4.980
  103DOPC   C1A 1229   3.747   7.850   5.320
  103DOPC   D2A 1230   3.427   0.030   5.650
  103DOPC   C3A 1231   3.097   7.590   5.840
  103DOPC   C4A 1232   2.847   7.770   6.250
  103DOPC   C1B 1233   4.287   7.670   5.350
  103DOPC   D2B 1234   4.217   7.580   5.820
  103DOPC   C3B 1235   3.977   7.440   6.240
  103DOPC   C4B 1236   3.677   7.300   6.640
  104DOPC   NC3 1237  24.680   4.440   2.850
  104DOPC   PO4 1238  24.410   4.260   2.950
  104DOPC   GL1 1239  24.380   4.130   3.360
  104DOPC   GL2 1240  24.140   3.920   3.180
  104DOPC   C1A 1241  24.170   4.260   3.730
  104DOPC   D2A 1242  24.210   4.560   4.150
  104DOPC   C3A 1243  23.970   4.720   4.510
  104DOPC   C4A 1244  23.740   5.070   4.740
  104DOPC   C1B 1245  23.800   3.990   3.440
  104DOPC   D2B 1246  23.590   4.430   3.670
  104DOPC   C3B 1247  23.910   4.710   3.750
  104DOPC   C4B 1248  24.210   5.060   3.950
  105DOPC   NC3 1249  15.657   5.090  10.270
  105DOPC   PO4 1250  15.607   4.730  10.310
  105DOPC   GL1 1251  15.927   4.710  10.490
  105DOPC   GL2 1252  15.987   5.020  10.580
  105DOPC   C1A 1253  16.227   4.390  10.550
  105DOPC   D2A 1254  16.567   4.290  10.800
  105DOPC   C3A 1255  16.837   3.920  10.970
  105DOPC   C4A 1256  17.137   3.550  11.200
  105DOPC   C1B 1257  16.397   5.110  10.770
  105DOPC   D2B 1258  16.747   5.060  11.010
  105DOPC   C3B 1259  17.187   5.240  10.880
  105DOPC   C4B 1260  17.627   5.320  10.630
  106DOPC   NC3 1261  15.237   3.010  10.740
  106DOPC   PO4 1262  15.127   2.760  11.030
  106DOPC   GL1 1263  15.387   2.440  11.060
  106DOPC   GL2 1264  15.597   2.640  11.210
  106DOPC   C1A 1265  15.587   2.050  10.950
  106DOPC   D2A 1266  15.887   1.680  10.710
  106DOPC   C3A 1267  16.307   1.440  10.640
  106DOPC   C4A 1268  16.777   1.230  10.660
  106DOPC   C1B 1269  15.957   2.760  11.430
  106DOPC   D2B 1270  16.317   2.950  11.720
  106DOPC   C3B 1271  16.437   3.350  11.660
  106DOPC   C4B 1272  16.697   3.690  11.430
  107DOPC   NC3 1273   7.617   5.410   7.560
  107DOPC   PO4 1274   7.507   5.080   7.640
  107DOPC   GL1 1275   7.077   5.120   7.720
  107DOPC   GL2 1276   7.067   4.800   7.760
  107DOPC   C1A 1277   7.017   5.280   8.120
  107DOPC   D2A 1278   6.987   5.460   8.620
  107DOPC   C3A 1279   6.777   5.860   8.700
  107DOPC   C4A 1280   6.727   6.240   9.000
  107DOPC   C1B 1281   7.067   4.690   8.130
  107DOPC   D2B 1282   6.837   4.490   8.480
  107DOPC   C3B 1283   6.737   4.090   8.620
  107DOPC   C4B 1284   6.467   3.700   8.780
  108DOPC   NC3 1285  21.930   7.700   3.070
  108DOPC   PO4 1286  22.030   0.220   3.140
  108DOPC   GL1 1287  22.200   7.830   3.450
  108DOPC   GL2 1288  22.390   7.740   3.380
  108DOPC   C1A 1289  22.210   0.170   3.800
  108DOPC   D2A 1290  22.080   0.110   4.300
  108DOPC   C3A 1291  21.790   0.330   4.520
  108DOPC   C4A 1292  21.460   0.440   4.860
  108DOPC   C1B 1293  22.370   7.530   3.800
  108DOPC   D2B 1294  22.330   7.470   4.290
  108DOPC   C3B 1295  22.490   7.600   4.650
  108DOPC   C4B 1296  22.720   7.790   5.060
  109DOPC   NC3 1297  12.957   0.990  11.400
  109DOPC   PO4 1298  13.177   1.090  11.670
  109DOPC   GL1 1299  13.357   1.010  12.080
  109DOPC   GL2 1300  13.567   1.080  11.920
  109DOPC   C1A 1301  13.387   1.000  12.500
  109DOPC   D2A 1302  13.567   1.030  13.000
  109DOPC   C3A 1303  13.507   1.340  13.300
  109DOPC   C4A 1304  13.507   1.740  13.550
  109DOPC   C1B 1305  13.897   0.810  12.090
  109DOPC   D2B 1306  13.987   0.670  12.550
  109DOPC   C3B 1307  13.927   0.680  13.030
  109DOPC   C4B 1308  14.037   0.540  13.460
  110DOPC   NC3 1309  17.747   7.260   6.560
  110DOPC   PO4 1310  18.047   7.060   6.680
  110DOPC   GL1 1311  18.437   7.270   6.510
  110DOPC   GL2 1312  18.567   7.020   6.390
  110DOPC   C1A 1313  18.697   7.360   6.880
  110DOPC   D2A 1314  19.047   7.250   7.180
  110DOPC   C3A 1315  19.437   7.280   7.340
  110DOPC   C4A 1316  19.897   7.390   7.480
  110DOPC   C1B 1317  18.937   7.060   6.560
  110DOPC   D2B 1318  19.397   7.240   6.720
  110DOPC   C3B 1319  19.827   7.360   6.880
  110DOPC   C4B 1320  20.237   7.420   7.140
  111DOPC   NC3 1321   9.957   5.720  10.500
  111DOPC   PO4 1322  10.317   5.920  10.500
  111DOPC   GL1 1323  10.237   6.040  10.900
  111DOPC   GL2 1324  10.347   5.760  10.960
  111DOPC   C1A 1325   9.837   6.140  10.970
  111DOPC   D2A 1326   9.377   6.190  11.230
  111DOPC   C3A 1327   9.177   6.120  11.610
  111DOPC   C4A 1328   8.847   6.090  11.930
  111DOPC   C1B 1329   9.967   5.620  11.150
  111DOPC   D2B 1330   9.737   5.390  11.550
  111DOPC   C3B 1331   9.917   5.570  12.000
  111DOPC   C4B 1332  10.087   5.600  12.460
  112DOPC   NC3 1333  17.127   0.080   8.880
  112DOPC   PO4 1334  16.917   7.600   8.880
  112DOPC   GL1 1335  17.007   7.740   9.320
  112DOPC   GL2 1336  16.847   7.480   9.340
  112DOPC   C1A 1337  17.407   7.670   9.350
  112DOPC   D2A 1338  17.917   7.590   9.370
  112DOPC   C3A 1339  18.157   0.050   9.550
  112DOPC   C4A 1340  18.617   0.250   9.490
  112DOPC   C1B 1341  17.017   7.180   9.660
  112DOPC   D2B 1342  17.117   6.990  10.160
  112DOPC   C3B 1343  17.337   6.940  10.560
  112DOPC   C4B 1344  17.487   6.720  10.960
  113DOPC   NC3 1345  13.917   2.170  11.760
  113DOPC   PO4 1346  13.537   2.030  11.770
  113DOPC   GL1 1347  13.577   2.060  12.180
  113DOPC   GL2 1348  13.517   1.760  12.150
  113DOPC   C1A 1349  13.447   2.360  12.470
  113DOPC   D2A 1350  13.237   2.430  12.950
  113DOPC   C3A 1351  12.897   2.580  13.210
  113DOPC   C4A 1352  12.697   2.790  13.630
  113DOPC   C1B 1353  13.707   1.420  12.360
  113DOPC   D2B 1354  13.937   1.130  12.650
  113DOPC   C3B 1355  14.077   1.160  13.100
  113DOPC   C4B 1356  13.957   1.440  13.510
  114DOPC   NC3 1357   2.697   7.520   3.710
  114DOPC   PO4 1358   2.567   0.030   3.630
  114DOPC   GL1 1359   2.277   0.140   3.840
  114DOPC   GL2 1360   2.397   0.370   3.940
  114DOPC   C1A 1361   2.307   7.680   4.160
  114DOPC   D2A 1362   2.317   7.510   4.570
  114DOPC   C3A 1363   1.947   7.470   4.870
  114DOPC   C4A 1364   1.787   7.240   5.290
  114DOPC   C1B 1365   2.157   0.730   4.030
  114DOPC   D2B 1366   1.857   1.140   4.050
  114DOPC   C3B 1367   1.607   1.220   4.420
  114DOPC   C4B 1368   1.157   1.290   4.630
  115DOPC   NC3 1369   1.437   1.250   2.910
  115DOPC   PO4 1370   1.757   1.270   3.190
  115DOPC   GL1 1371   1.497   1.360   3.570
  115DOPC   GL2 1372   1.517   1.010   3.580
  115DOPC   C1A 1373   1.627   1.630   3.910
  115DOPC   D2A 1374   1.777   1.740   4.390
  115DOPC   C3A 1375   1.667   1.590   4.770
  115DOPC   C4A 1376   1.337   1.420   5.140
  115DOPC   C1B 1377   1.557   0.750   3.960
  115DOPC   D2B 1378   1.767   0.710   4.370
  115DOPC   C3B 1379   1.747   0.820   4.700
  115DOPC   C4B 1380   1.607   0.880   5.120
  116DOPC   NC3 1381   4.827   4.790   4.840
  116DOPC   PO4 1382   4.447   4.900   4.820
  116DOPC   GL1 1383   4.127   5.020   5.090
  116DOPC   GL2 1384   4.337   5.050   5.310
  116DOPC   C1A 1385   3.767   4.880   5.180
  116DOPC   D2A 1386   3.377   4.780   5.490
  116DOPC   C3A 1387   3.247   4.840   5.970
  116DOPC   C4A 1388   3.287   5.160   6.380
  116DOPC   C1B 1389   4.287   5.160   5.790
  116DOPC   D2B 1390   3.887   5.270   6.110
  116DOPC   C3B 1391   3.737   5.140   6.500
  116DOPC   C4B 1392   3.417   4.880   6.820
  117DOPC   NC3 1393  15.357   7.140  10.730
  117DOPC   PO4 1394  15.017   7.250  10.850
  117DOPC   GL1 1395  15.067   7.680  11.090
  117DOPC   GL2 1396  15.327   7.580  11.020
  117DOPC   C1A 1397  15.027   7.830  11.540
  117DOPC   D2A 1398  14.877   0.040  11.970
  117DOPC   C3A 1399  15.217   0.100  12.240
  117DOPC   C4A 1400  15.597   0.210  12.520
  117DOPC   C1B 1401  15.627   7.300  11.190
  117DOPC   D2B 1402  15.987   7.270  11.530
  117DOPC   C3B 1403  16.177   7.200  11.920
  117DOPC   C4B 1404  16.047   7.200  12.390
  118DOPC   NC3 1405   3.167   2.900   3.550
  118DOPC   PO4 1406   2.997   2.770   3.890
  118DOPC   GL1 1407   3.107   2.660   4.280
  118DOPC   GL2 1408   3.297   2.840   4.240
  118DOPC   C1A 1409   2.997   2.760   4.690
  118DOPC   D2A 1410   2.737   2.920   5.060
  118DOPC   C3A 1411   2.607   3.360   5.110
  118DOPC   C4A 1412   2.327   3.680   5.340
  118DOPC   C1B 1413   3.127   3.190   4.450
  118DOPC   D2B 1414   3.137   3.360   4.890
  118DOPC   C3B 1415   3.057   3.310   5.350
  118DOPC   C4B 1416   2.617   3.200   5.580
  119DOPC   NC3 1417  16.897   5.230   7.980
  119DOPC   PO4 1418  16.937   5.610   8.040
  119DOPC   GL1 1419  17.307   5.690   8.240
  119DOPC   GL2 1420  17.147   5.770   8.460
  119DOPC   C1A 1421  17.717   5.850   8.110
  119DOPC   D2A 1422  18.197   5.770   8.210
  119DOPC   C3A 1423  18.457   5.790   8.580
  119DOPC   C4A 1424  18.687   5.810   9.000
  119DOPC   C1B 1425  17.327   5.790   8.840
  119DOPC   D2B 1426  17.487   5.990   9.310
  119DOPC   C3B 1427  17.337   5.860   9.690
  119DOPC   C4B 1428  16.897   5.740   9.800
  120DOPC   NC3 1429  15.897   4.400   9.990
  120DOPC   PO4 1430  16.037   4.690   9.710
  120DOPC   GL1 1431  16.437   4.770   9.610
  120DOPC   GL2 1432  16.437   4.910   9.860
  120DOPC   C1A 1433  16.827   4.510   9.800
  120DOPC   D2A 1434  17.207   4.350  10.050
  120DOPC   C3A 1435  17.507   4.600  10.260
  120DOPC   C4A 1436  17.777   4.610  10.630
  120DOPC   C1B 1437  16.867   5.090   9.920
  120DOPC   D2B 1438  17.147   5.460  10.130
  120DOPC   C3B 1439  17.617   5.550  10.160
  120DOPC   C4B 1440  18.137   5.480  10.210
  121DOPC   NC3 1441  11.767   7.800  11.140
  121DOPC   PO4 1442  11.947   7.610  11.500
  121DOPC   GL1 1443  11.787   7.510  11.810
  121DOPC   GL2 1444  12.107   7.490  11.880
  121DOPC   C1A 1445  11.397   7.310  11.990
  121DOPC   D2A 1446  11.027   7.280  12.330
  121DOPC   C3A 1447  10.517   7.280  12.280
  121DOPC   C4A 1448  10.077   7.400  12.210
  121DOPC   C1B 1449  12.207   7.270  12.280
  121DOPC   D2B 1450  12.197   7.250  12.820
  121DOPC   C3B 1451  12.157   7.400  13.240
  121DOPC   C4B 1452  12.077   7.450  13.700
  122DOPC   NC3 1453   9.687   4.960   9.410
  122DOPC   PO4 1454   9.907   4.880   9.730
  122DOPC   GL1 1455   9.667   4.960  10.070
  122DOPC   GL2 1456   9.387   4.880   9.910
  122DOPC   C1A 1457   9.417   4.860  10.400
  122DOPC   D2A 1458   8.967   4.850  10.700
  122DOPC   C3A 1459   8.917   4.780  11.150
  122DOPC   C4A 1460   9.017   4.880  11.700
  122DOPC   C1B 1461   9.027   4.860  10.060
  122DOPC   D2B 1462   8.637   4.910  10.290
  122DOPC   C3B 1463   8.427   4.910  10.710
  122DOPC   C4B 1464   8.047   4.920  11.100
  123DOPC   NC3 1465  20.127   5.130   3.840
  123DOPC   PO4 1466  20.247   5.250   4.190
  123DOPC   GL1 1467  20.547   5.380   4.480
  123DOPC   GL2 1468  20.747   5.100   4.470
  123DOPC   C1A 1469  20.960   5.560   4.560
  123DOPC   D2A 1470  21.480   5.680   4.430
  123DOPC   C3A 1471  21.840   5.840   4.640
  123DOPC   C4A 1472  21.900   6.230   4.940
  123DOPC   C1B 1473  20.960   5.210   4.860
  123DOPC   D2B 1474  21.020   5.650   5.070
  123DOPC   C3B 1475  20.687   5.880   5.300
  123DOPC   C4B 1476  20.427   6.210   5.560
  124DOPC   NC3 1477  11.877   2.170  11.560
  124DOPC   PO4 1478  12.217   2.130  11.730
  124DOPC   GL1 1479  12.177   1.820  12.020
  124DOPC   GL2 1480  12.207   2.030  12.180
  124DOPC   C1A 1481  11.987   1.560  12.320
  124DOPC   D2A 1482  11.857   1.390  12.750
  124DOPC   C3A 1483  11.887   1.570  13.200
  124DOPC   C4A 1484  11.707   1.900  13.640
  124DOPC   C1B 1485  12.097   2.330  12.470
  124DOPC   D2B 1486  12.137   2.540  12.850
  124DOPC   C3B 1487  11.837   2.900  13.040
  124DOPC   C4B 1488  11.437   2.900  13.300
  125DOPC   NC3 1489  12.707   4.430  11.560
  125DOPC   PO4 1490  12.407   4.200  11.420
  125DOPC   GL1 1491  12.137   3.940  11.780
  125DOPC   GL2 1492  11.997   4.220  11.650
  125DOPC   C1A 1493  12.007   3.980  12.240
  125DOPC   D2A 1494  11.687   4.020  12.600
  125DOPC   C3A 1495  11.407   3.870  12.920
  125DOPC   C4A 1496  11.267   3.920  13.450
  125DOPC   C1B 1497  11.777   4.460  11.880
  125DOPC   D2B 1498  11.447   4.590  12.280
  125DOPC   C3B 1499  11.387   4.530  12.670
  125DOPC   C4B 1500  11.407   4.340  13.150
  126DOPC   NC3 1501  24.040   1.450   2.460
  126DOPC   PO4 1502  24.340   1.350   2.720
  126DOPC   GL1 1503  24.310   1.220   3.160
  126DOPC   GL2 1504  24.070   1.370   3.280
  126DOPC   C1A 1505  24.550   0.960   3.480
  126DOPC   D2A 1506  24.960   0.900   3.880
  126DOPC   C3A 1507  24.950   0.960   4.380
  126DOPC   C4A 1508  24.990   1.330   4.710
  126DOPC   C1B 1509  24.340   1.360   3.680
  126DOPC   D2B 1510  24.710   1.320   4.050
  126DOPC   C3B 1511  24.530   1.240   4.480
  126DOPC   C4B 1512  24.650   1.060   4.930
  127DOPC   NC3 1513  16.637   4.380   8.560
  127DOPC   PO4 1514  16.327   4.500   8.790
  127DOPC   GL1 1515  16.547   4.530   9.120
  127DOPC   GL2 1516  16.787   4.700   9.050
  127DOPC   C1A 1517  16.777   4.240   9.330
  127DOPC   D2A 1518  17.167   3.960   9.610
  127DOPC   C3A 1519  17.397   3.870  10.030
  127DOPC   C4A 1520  17.657   3.730  10.400
  127DOPC   C1B 1521  17.207   4.640   9.040
  127DOPC   D2B 1522  17.657   4.560   9.260
  127DOPC   C3B 1523  17.857   4.930   9.510
  127DOPC   C4B 1524  18.087   5.310   9.750
  128DOPC   NC3 1525   7.647   2.380   8.320
  128DOPC   PO4 1526   7.707   2.010   8.260
  128DOPC   GL1 1527   7.317   2.000   8.250
  128DOPC   GL2 1528   7.247   2.100   8.010
  128DOPC   C1A 1529   7.037   1.970   8.620
  128DOPC   D2A 1530   6.577   1.910   8.880
  128DOPC   C3A 1531   6.157   2.150   8.850
  128DOPC   C4A 1532   5.727   2.400   8.700
  128DOPC   C1B 1533   7.047   2.400   8.320
  128DOPC   D2B 1534   6.737   2.770   8.560
  128DOPC   C3B 1535   6.567   2.620   8.950
  128DOPC   C4B 1536   6.627   2.610   9.460
  129DOPC   NC3 1537  18.917   2.390   5.690
  129DOPC   PO4 1538  18.767   2.040   5.820
  129DOPC   GL1 1539  19.107   2.040   5.980
  129DOPC   GL2 1540  19.207   1.820   5.970
  129DOPC   C1A 1541  19.447   2.130   6.170
  129DOPC   D2A 1542  19.917   1.960   6.330
  129DOPC   C3A 1543  20.207   2.020   6.690
  129DOPC   C4A 1544  20.547   2.180   6.930
  129DOPC   C1B 1545  19.497   1.560   6.240
  129DOPC   D2B 1546  19.957   1.490   6.450
  129DOPC   C3B 1547  20.097   1.510   6.890
  129DOPC   C4B 1548  19.747   1.300   7.180
  130DOPC   NC3 1549  10.667   3.690  10.330
  130DOPC   PO4 1550  10.697   4.040  10.130
  130DOPC   GL1 1551  10.607   4.380  10.410
  130DOPC   GL2 1552  10.837   4.180  10.570
  130DOPC   C1A 1553  10.257   4.370  10.740
  130DOPC   D2A 1554  10.187   4.180  11.210
  130DOPC   C3A 1555   9.907   3.790  11.350
  130DOPC   C4A 1556   9.677   3.610  11.670
  130DOPC   C1B 1557  10.607   3.900  10.810
  130DOPC   D2B 1558  10.407   3.670  11.200
  130DOPC   C3B 1559  10.397   3.830  11.650
  130DOPC   C4B 1560  10.547   3.840  12.090
  131DOPC   NC3 1561   9.867   1.180   9.910
  131DOPC   PO4 1562  10.177   1.430   9.980
  131DOPC   GL1 1563  10.007   1.750  10.330
  131DOPC   GL2 1564   9.767   1.570  10.270
  131DOPC   C1A 1565   9.937   1.700  10.780
  131DOPC   D2A 1566   9.817   1.490  11.150
  131DOPC   C3A 1567   9.677   1.450  11.540
  131DOPC   C4A 1568   9.527   1.440  11.990
  131DOPC   C1B 1569   9.377   1.460  10.470
  131DOPC   D2B 1570   9.187   1.030  10.570
  131DOPC   C3B 1571   9.257   0.850  10.960
  131DOPC   C4B 1572   9.377   0.600  11.370
  132DOPC   NC3 1573  17.727   2.210   7.230
  132DOPC   PO4 1574  17.387   2.310   7.400
  132DOPC   GL1 1575  17.657   2.570   7.550
  132DOPC   GL2 1576  17.677   2.590   7.790
  132DOPC   C1A 1577  18.057   2.600   7.320
  132DOPC   D2A 1578  18.517   2.700   7.250
  132DOPC   C3A 1579  18.897   2.960   7.360
  132DOPC   C4A 1580  19.347   3.210   7.370
  132DOPC   C1B 1581  18.097   2.700   7.910
  132DOPC   D2B 1582  18.537   2.530   8.090
  132DOPC   C3B 1583  18.747   2.410   8.500
  132DOPC   C4B 1584  18.597   2.310   8.960
  133DOPC   NC3 1585   3.557   4.610   3.670
  133DOPC   PO4 1586   3.547   4.970   3.820
  133DOPC   GL1 1587   3.327   5.060   4.140
  133DOPC   GL2 1588   3.607   5.200   4.320
  133DOPC   C1A 1589   3.007   5.050   4.370
  133DOPC   D2A 1590   2.707   4.860   4.720
  133DOPC   C3A 1591   2.507   4.650   5.110
  133DOPC   C4A 1592   2.217   4.510   5.450
  133DOPC   C1B 1593   3.347   4.920   4.680
  133DOPC   D2B 1594   3.047   4.730   5.080
  133DOPC   C3B 1595   2.787   4.640   5.520
  133DOPC   C4B 1596   2.537   4.580   5.940
  134DOPC   NC3 1597   8.877   3.400   9.390
  134DOPC   PO4 1598   9.047   3.100   9.520
  134DOPC   GL1 1599   9.007   2.720   9.830
  134DOPC   GL2 1600   8.667   2.770   9.820
  134DOPC   C1A 1601   8.957   2.660  10.260
  134DOPC   D2A 1602   8.957   2.370  10.710
  134DOPC   C3A 1603   8.857   2.140  11.170
  134DOPC   C4A 1604   8.667   1.760  11.450
  134DOPC   C1B 1605   8.457   2.940  10.230
  134DOPC   D2B 1606   8.307   3.220  10.660
  134DOPC   C3B 1607   8.327   3.480  11.070
  134DOPC   C4B 1608   7.867   3.540  11.320
  135DOPC   NC3 1609  23.310   6.700   2.880
  135DOPC   PO4 1610  23.040   6.940   3.050
  135DOPC   GL1 1611  23.080   6.970   3.510
  135DOPC   GL2 1612  23.260   7.260   3.410
  135DOPC   C1A 1613  23.350   6.760   3.690
  135DOPC   D2A 1614  23.500   6.460   4.030
  135DOPC   C3A 1615  23.400   6.640   4.430
  135DOPC   C4A 1616  23.410   6.880   4.820
  135DOPC   C1B 1617  23.250   7.450   3.780
  135DOPC   D2B 1618  23.310   7.760   4.170
  135DOPC   C3B 1619  23.630   0.120   4.440
  135DOPC   C4B 1620  23.990   0.290   4.740
  136DOPC   NC3 1621   1.107   2.430   2.930
  136DOPC   PO4 1622   1.397   2.560   3.160
  136DOPC   GL1 1623   1.527   2.540   3.600
  136DOPC   GL2 1624   1.507   2.220   3.530
  136DOPC   C1A 1625   1.557   2.880   3.940
  136DOPC   D2A 1626   1.647   3.090   4.340
  136DOPC   C3A 1627   2.097   2.980   4.340
  136DOPC   C4A 1628   2.567   2.830   4.510
  136DOPC   C1B 1629   1.417   2.070   3.890
  136DOPC   D2B 1630   1.217   2.200   4.250
  136DOPC   C3B 1631   1.437   2.650   4.390
  136DOPC   C4B 1632   1.787   2.700   4.680
  137DOPC   NC3 1633  21.650   6.240   4.430
  137DOPC   PO4 1634  21.720   6.580   4.250
  137DOPC   GL1 1635  21.920   6.630   4.530
  137DOPC   GL2 1636  22.230   6.700   4.480
  137DOPC   C1A 1637  21.680   6.890   4.790
  137DOPC   D2A 1638  21.360   7.040   5.020
  137DOPC   C3A 1639  21.090   6.690   5.190
  137DOPC   C4A 1640  21.040   6.600   5.660
  137DOPC   C1B 1641  22.260   6.700   4.900
  137DOPC   D2B 1642  22.440   6.870   5.360
  137DOPC   C3B 1643  22.320   7.230   5.630
  137DOPC   C4B 1644  22.240   7.690   5.740
  138DOPC   NC3 1645  14.697   7.680  10.800
  138DOPC   PO4 1646  15.007   0.020  10.680
  138DOPC   GL1 1647  15.347   0.170  10.920
  138DOPC   GL2 1648  15.527   0.070  10.780
  138DOPC   C1A 1649  15.437   0.040  11.270
  138DOPC   D2A 1650  15.577   7.560  11.600
  138DOPC   C3A 1651  15.407   7.530  12.040
  138DOPC   C4A 1652  15.597   7.460  12.440
  138DOPC   C1B 1653  15.817   7.680  10.910
  138DOPC   D2B 1654  16.217   7.570  11.170
  138DOPC   C3B 1655  16.527   7.440  11.490
  138DOPC   C4B 1656  16.707   7.440  11.930
  139DOPC   NC3 1657  18.687   5.780   5.960
  139DOPC   PO4 1658  18.707   6.110   5.730
  139DOPC   GL1 1659  19.107   6.290   5.910
  139DOPC   GL2 1660  18.967   6.240   6.130
  139DOPC   C1A 1661  19.327   6.650   5.980
  139DOPC   D2A 1662  19.757   6.820   6.160
  139DOPC   C3A 1663  20.177   6.980   6.010
  139DOPC   C4A 1664  20.617   7.170   5.960
  139DOPC   C1B 1665  19.037   6.460   6.360
  139DOPC   D2B 1666  19.387   6.730   6.600
  139DOPC   C3B 1667  19.777   6.890   6.770
  139DOPC   C4B 1668  19.997   7.020   7.120
  140DOPC   NC3 1669  23.540   3.030   3.360
  140DOPC   PO4 1670  23.200   3.220   3.230
  140DOPC   GL1 1671  23.260   3.540   3.590
  140DOPC   GL2 1672  23.530   3.590   3.460
  140DOPC   C1A 1673  23.440   3.580   3.980
  140DOPC   D2A 1674  23.250   3.640   4.450
  140DOPC   C3A 1675  23.090   3.780   4.830
  140DOPC   C4A 1676  22.790   3.760   5.170
  140DOPC   C1B 1677  23.950   3.460   3.510
  140DOPC   D2B 1678  24.360   3.270   3.710
  140DOPC   C3B 1679  24.520   3.150   4.180
  140DOPC   C4B 1680  24.430   2.720   4.380
  141DOPC   NC3 1681  13.437   4.400  12.190
  141DOPC   PO4 1682  13.487   4.650  11.920
  141DOPC   GL1 1683  13.807   4.700  12.110
  141DOPC   GL2 1684  13.937   4.460  12.040
  141DOPC   C1A 1685  13.887   4.490  12.520
  141DOPC   D2A 1686  13.807   4.210  13.020
  141DOPC   C3A 1687  13.857   3.960  13.380
  141DOPC   C4A 1688  14.167   3.560  13.540
  141DOPC   C1B 1689  14.307   4.350  12.290
  141DOPC   D2B 1690  14.757   4.440  12.480
  141DOPC   C3B 1691  14.997   4.030  12.440
  141DOPC   C4B 1692  15.167   3.610  12.580
  142DOPC   NC3 1693  21.470   1.060   3.950
  142DOPC   PO4 1694  21.470   1.450   4.060
  142DOPC   GL1 1695  21.540   1.580   4.460
  142DOPC   GL2 1696  21.380   1.760   4.540
  142DOPC   C1A 1697  21.980   1.650   4.540
  142DOPC   D2A 1698  22.380   1.980   4.690
  142DOPC   C3A 1699  22.590   2.200   5.100
  142DOPC   C4A 1700  22.800   2.420   5.490
  142DOPC   C1B 1701  21.610   2.040   4.760
  142DOPC   D2B 1702  21.650   2.050   5.220
  142DOPC   C3B 1703  21.690   2.160   5.640
  142DOPC   C4B 1704  21.620   2.310   6.130
  143DOPC   NC3 1705  14.387   3.660  11.080
  143DOPC   PO4 1706  14.307   3.790  11.460
  143DOPC   GL1 1707  14.447   3.770  11.890
  143DOPC   GL2 1708  14.677   3.670  11.790
  143DOPC   C1A 1709  14.447   3.850  12.310
  143DOPC   D2A 1710  14.677   3.780  12.770
  143DOPC   C3A 1711  14.917   4.160  12.950
  143DOPC   C4A 1712  15.317   4.410  13.210
  143DOPC   C1B 1713  15.047   3.700  12.090
  143DOPC   D2B 1714  15.497   3.730  12.210
  143DOPC   C3B 1715  15.517   4.130  12.480
  143DOPC   C4B 1716  15.207   4.490  12.710
  144DOPC   NC3 1717  19.697   4.140   5.470
  144DOPC   PO4 1718  19.667   3.770   5.250
  144DOPC   GL1 1719  19.777   3.520   5.630
  144DOPC   GL2 1720  19.867   3.760   5.760
  144DOPC   C1A 1721  20.157   3.280   5.640
  144DOPC   D2A 1722  20.517   3.180   5.970
  144DOPC   C3A 1723  20.477   3.310   6.440
  144DOPC   C4A 1724  20.247   3.130   6.850
  144DOPC   C1B 1725  20.177   3.600   6.060
  144DOPC   D2B 1726  20.647   3.680   6.180
  144DOPC   C3B 1727  20.910   3.870   6.570
  144DOPC   C4B 1728  20.837   3.750   7.080
  145DOPC   NC3 1729   4.977   1.510   5.030
  145DOPC   PO4 1730   5.207   1.250   5.160
  145DOPC   GL1 1731   5.167   1.090   5.560
  145DOPC   GL2 1732   5.097   1.350   5.720
  145DOPC   C1A 1733   4.917   0.930   5.860
  145DOPC   D2A 1734   4.787   0.660   6.290
  145DOPC   C3A 1735   4.517   0.790   6.730
  145DOPC   C4A 1736   4.047   0.760   6.920
  145DOPC   C1B 1737   4.697   1.340   5.990
  145DOPC   D2B 1738   4.457   1.090   6.320
  145DOPC   C3B 1739   4.297   1.250   6.860
  145DOPC   C4B 1740   4.357   1.380   7.360
  146DOPC   NC3 1741  10.417   0.580  10.230
  146DOPC   PO4 1742  10.207   0.240  10.210
  146DOPC   GL1 1743   9.897   0.340  10.400
  146DOPC   GL2 1744   9.957   0.650  10.510
  146DOPC   C1A 1745   9.667   0.170  10.740
  146DOPC   D2A 1746   9.707   7.590  11.060
  146DOPC   C3A 1747   9.437   7.300  11.350
  146DOPC   C4A 1748   9.187   7.100  11.750
  146DOPC   C1B 1749   9.727   0.640  10.900
  146DOPC   D2B 1750   9.777   0.940  11.300
  146DOPC   C3B 1751   9.497   1.030  11.680
  146DOPC   C4B 1752   9.127   1.050  12.030
  147DOPC   NC3 1753  13.917   7.000  11.210
  147DOPC   PO4 1754  13.757   7.340  11.410
  147DOPC   GL1 1755  13.707   7.340  11.870
  147DOPC   GL2 1756  13.707   7.570  11.900
  147DOPC   C1A 1757  13.967   7.270  12.190
  147DOPC   D2A 1758  14.187   7.040  12.610
  147DOPC   C3A 1759  14.387   7.150  13.100
  147DOPC   C4A 1760  14.787   7.120  13.350
  147DOPC   C1B 1761  14.067   7.770  12.040
  147DOPC   D2B 1762  14.427   0.050  12.270
  147DOPC   C3B 1763  14.847   7.760  12.480
  147DOPC   C4B 1764  15.247   7.830  12.800
  148DOPC   NC3 1765  16.507   3.760   7.800
  148DOPC   PO4 1766  16.827   3.510   7.820
  148DOPC   GL1 1767  17.017   3.640   8.200
  148DOPC   GL2 1768  16.817   3.930   8.160
  148DOPC   C1A 1769  17.497   3.610   8.210
  148DOPC   D2A 1770  17.937   3.450   8.400
  148DOPC   C3A 1771  18.417   3.520   8.460
  148DOPC   C4A 1772  18.877   3.340   8.610
  148DOPC   C1B 1773  17.137   3.950   8.450
  148DOPC   D2B 1774  17.617   3.910   8.560
  148DOPC   C3B 1775  18.107   3.940   8.580
  148DOPC   C4B 1776  18.607   3.950   8.540
  149DOPC   NC3 1777   2.137   7.600   3.620
  149DOPC   PO4 1778   2.227   7.230   3.530
  149DOPC   GL1 1779   2.137   7.160   3.920
  149DOPC   GL2 1780   2.367   7.180   3.960
  149DOPC   C1A 1781   1.867   6.910   4.120
  149DOPC   D2A 1782   1.397   6.720   4.300
  149DOPC   C3A 1783   0.967   6.580   4.510
  149DOPC   C4A 1784   0.577   6.530   4.760
  149DOPC   C1B 1785   2.367   7.070   4.320
  149DOPC   D2B 1786   2.677   7.150   4.750
  149DOPC   C3B 1787   2.737   7.150   5.250
  149DOPC   C4B 1788   2.667   7.160   5.690
  150DOPC   NC3 1789  15.007   3.400  11.580
  150DOPC   PO4 1790  14.827   3.640  11.350
  150DOPC   GL1 1791  14.897   4.020  11.540
  150DOPC   GL2 1792  15.067   3.860  11.680
  150DOPC   C1A 1793  14.967   4.440  11.560
  150DOPC   D2A 1794  15.217   4.830  11.850
  150DOPC   C3A 1795  15.537   5.070  12.090
  150DOPC   C4A 1796  15.997   5.380  12.140
  150DOPC   C1B 1797  15.497   4.020  11.720
  150DOPC   D2B 1798  15.867   4.100  12.070
  150DOPC   C3B 1799  16.207   4.370  12.240
  150DOPC   C4B 1800  16.367   4.780  12.390
  151DOPC   NC3 1801   4.297   2.670   4.630
  151DOPC   PO4 1802   4.417   2.970   4.850
  151DOPC   GL1 1803   4.347   2.940   5.190
  151DOPC   GL2 1804   4.167   3.180   5.270
  151DOPC   C1A 1805   4.287   2.650   5.490
  151DOPC   D2A 1806   4.067   2.400   5.900
  151DOPC   C3A 1807   4.067   2.410   6.400
  151DOPC   C4A 1808   3.947   2.250   6.820
  151DOPC   C1B 1809   3.897   2.950   5.510
  151DOPC   D2B 1810   3.627   2.610   5.770
  151DOPC   C3B 1811   3.237   2.630   5.930
  151DOPC   C4B 1812   2.787   2.680   6.050
  152DOPC   NC3 1813   6.427   6.640   6.070
  152DOPC   PO4 1814   6.177   6.850   5.960
  152DOPC   GL1 1815   5.897   6.870   6.260
  152DOPC   GL2 1816   6.127   6.950   6.420
  152DOPC   C1A 1817   5.597   7.160   6.340
  152DOPC   D2A 1818   5.207   7.470   6.570
  152DOPC   C3A 1819   4.707   7.420   6.600
  152DOPC   C4A 1820   4.227   7.330   6.690
  152DOPC   C1B 1821   6.027   7.280   6.710
  152DOPC   D2B 1822   6.007   7.590   7.080
  152DOPC   C3B 1823   5.687   7.840   7.290
  152DOPC   C4B 1824   5.557   0.060   7.770
  153DOPC   NC3 1825   3.927   5.870   4.060
  153DOPC   PO4 1826   3.997   6.040   4.420
  153DOPC   GL1 1827   3.917   5.840   4.810
  153DOPC   GL2 1828   4.197   6.030   4.900
  153DOPC   C1A 1829   3.707   5.780   5.220
  153DOPC   D2A 1830   3.797   5.710   5.730
  153DOPC   C3A 1831   3.817   6.070   6.060
  153DOPC   C4A 1832   3.897   6.130   6.550
  153DOPC   C1B 1833   4.217   5.790   5.260
  153DOPC   D2B 1834   4.607   5.930   5.540
  153DOPC   C3B 1835   4.957   6.100   5.790
  153DOPC   C4B 1836   5.387   6.300   5.930
  154DOPC   NC3 1837   4.827   3.070   5.230
  154DOPC   PO4 1838   4.927   3.440   5.410
  154DOPC   GL1 1839   4.657   3.440   5.680
  154DOPC   GL2 1840   4.467   3.200   5.610
  154DOPC   C1A 1841   4.337   3.670   5.890
  154DOPC   D2A 1842   3.927   3.920   5.880
  154DOPC   C3A 1843   3.617   3.930   5.530
  154DOPC   C4A 1844   3.307   3.680   5.220
  154DOPC   C1B 1845   4.237   3.020   5.920
  154DOPC   D2B 1846   3.927   2.830   6.210
  154DOPC   C3B 1847   3.517   2.610   6.330
  154DOPC   C4B 1848   3.087   2.430   6.460
  155DOPC   NC3 1849  12.437   7.340  11.450
  155DOPC   PO4 1850  12.357   6.940  11.560
  155DOPC   GL1 1851  12.377   6.900  12.020
  155DOPC   GL2 1852  12.077   6.880  12.050
  155DOPC   C1A 1853  12.617   7.000  12.400
  155DOPC   D2A 1854  13.017   7.160  12.600
  155DOPC   C3A 1855  13.017   6.900  12.980
  155DOPC   C4A 1856  13.077   6.770  13.450
  155DOPC   C1B 1857  12.067   6.840  12.580
  155DOPC   D2B 1858  11.987   6.870  13.120
  155DOPC   C3B 1859  12.167   6.880  13.590
  155DOPC   C4B 1860  12.117   6.880  14.060
  156DOPC   NC3 1861  10.607   2.150   9.700
  156DOPC   PO4 1862  10.207   2.130   9.630
  156DOPC   GL1 1863   9.927   2.000   9.880
  156DOPC   GL2 1864   9.827   1.720   9.850
  156DOPC   C1A 1865   9.677   2.050  10.290
  156DOPC   D2A 1866   9.507   1.960  10.760
  156DOPC   C3A 1867   9.347   1.870  11.140
  156DOPC   C4A 1868   9.077   1.520  11.500
  156DOPC   C1B 1869   9.397   1.690  10.000
  156DOPC   D2B 1870   8.897   1.490  10.130
  156DOPC   C3B 1871   8.817   1.450  10.590
  156DOPC   C4B 1872   8.867   1.320  11.050
  157DOPC   NC3 1873   0.497   4.590   3.120
  157DOPC   PO4 1874   0.187   4.410   3.110
  157DOPC   GL1 1875   0.047   4.180   3.480
  157DOPC   GL2 1876   0.307   4.010   3.440
  157DOPC   C1A 1877   0.067   4.080   3.890
  157DOPC   D2A 1878   0.247   4.090   4.350
  157DOPC   C3A 1879   0.127   4.290   4.740
  157DOPC   C4A 1880  24.990   4.540   5.000
  157DOPC   C1B 1881   0.317   3.700   3.800
  157DOPC   D2B 1882   0.167   3.630   4.210
  157DOPC   C3B 1883   0.607   3.660   4.360
  157DOPC   C4B 1884   1.117   3.770   4.310
  158DOPC   NC3 1885  14.777   2.590  11.760
  158DOPC   PO4 1886  14.607   2.920  11.690
  158DOPC   GL1 1887  14.767   3.170  11.860
  158DOPC   GL2 1888  15.037   2.940  11.970
  158DOPC   C1A 1889  14.557   3.360  12.270
  158DOPC   D2A 1890  14.227   3.450  12.670
  158DOPC   C3A 1891  14.187   3.730  13.080
  158DOPC   C4A 1892  14.477   3.990  13.380
  158DOPC   C1B 1893  15.037   3.210  12.350
  158DOPC   D2B 1894  14.777   3.300  12.810
  158DOPC   C3B 1895  15.227   3.170  12.860
  158DOPC   C4B 1896  15.717   3.170  12.840
  159DOPC   NC3 1897   9.907   7.620  10.070
  159DOPC   PO4 1898   9.707   0.100  10.000
  159DOPC   GL1 1899   9.327   0.000  10.240
  159DOPC   GL2 1900   9.297   0.200  10.350
  159DOPC   C1A 1901   9.007   7.670  10.080
  159DOPC   D2A 1902   8.827   7.460  10.460
  159DOPC   C3A 1903   8.967   7.260  10.850
  159DOPC   C4A 1904   8.947   7.160  11.320
  159DOPC   C1B 1905   8.837   0.220  10.520
  159DOPC   D2B 1906   8.337   0.050  10.660
  159DOPC   C3B 1907   7.927   7.730  10.850
  159DOPC   C4B 1908   7.587   7.570  11.160
  160DOPC   NC3 1909   8.227   1.200   8.010
  160DOPC   PO4 1910   8.237   1.290   8.400
  160DOPC   GL1 1911   7.917   1.380   8.670
  160DOPC   GL2 1912   8.057   1.660   8.700
  160DOPC   C1A 1913   7.497   1.290   8.580
  160DOPC   D2A 1914   7.057   1.070   8.440
  160DOPC   C3A 1915   6.797   0.640   8.580
  160DOPC   C4A 1916   6.617   0.500   9.010
  160DOPC   C1B 1917   7.627   1.660   8.820
  160DOPC   D2B 1918   7.147   1.570   8.790
  160DOPC   C3B 1919   7.057   1.430   9.180
  160DOPC   C4B 1920   7.237   1.040   9.440
  161DOPC   NC3 1921  19.767   1.000   5.220
  161DOPC   PO4 1922  19.687   1.280   4.960
  161DOPC   GL1 1923  19.947   1.470   5.090
  161DOPC   GL2 1924  19.877   1.430   5.360
  161DOPC   C1A 1925  20.307   1.290   5.160
  161DOPC   D2A 1926  20.667   0.970   5.130
  161DOPC   C3A 1927  20.920   1.270   5.400
  161DOPC   C4A 1928  21.150   1.580   5.710
  161DOPC   C1B 1929  20.087   1.170   5.620
  161DOPC   D2B 1930  20.187   1.180   6.120
  161DOPC   C3B 1931  20.647   1.130   6.330
  161DOPC   C4B 1932  21.120   1.120   6.590
  162DOPC   NC3 1933  16.857   3.250   7.430
  162DOPC   PO4 1934  17.227   3.300   7.470
  162DOPC   GL1 1935  17.637   3.260   7.620
  162DOPC   GL2 1936  17.617   3.060   7.790
  162DOPC   C1A 1937  17.877   3.570   7.820
  162DOPC   D2A 1938  18.177   3.770   8.070
  162DOPC   C3A 1939  18.517   4.020   7.760
  162DOPC   C4A 1940  18.497   4.290   7.270
  162DOPC   C1B 1941  17.677   3.050   8.220
  162DOPC   D2B 1942  17.387   3.200   8.540
  162DOPC   C3B 1943  17.437   3.150   9.010
  162DOPC   C4B 1944  17.497   3.020   9.500
  163DOPC   NC3 1945  15.227   4.600  10.570
  163DOPC   PO4 1946  15.237   4.980  10.530
  163DOPC   GL1 1947  15.567   5.210  10.720
  163DOPC   GL2 1948  15.597   4.900  10.760
  163DOPC   C1A 1949  15.867   5.360  11.020
  163DOPC   D2A 1950  16.317   5.330  11.180
  163DOPC   C3A 1951  16.567   5.590  11.480
  163DOPC   C4A 1952  16.957   5.610  11.760
  163DOPC   C1B 1953  15.927   4.800  11.040
  163DOPC   D2B 1954  16.147   4.810  11.460
  163DOPC   C3B 1955  16.617   4.900  11.540
  163DOPC   C4B 1956  16.987   5.210  11.390
  164DOPC   NC3 1957   2.687   0.870   3.010
  164DOPC   PO4 1958   2.637   1.010   3.380
  164DOPC   GL1 1959   2.697   0.970   3.780
  164DOPC   GL2 1960   2.887   0.730   3.840
  164DOPC   C1A 1961   2.577   0.910   4.150
  164DOPC   D2A 1962   2.407   0.830   4.550
  164DOPC   C3A 1963   2.227   0.560   4.780
  164DOPC   C4A 1964   1.867   0.450   5.030
  164DOPC   C1B 1965   2.807   0.470   4.180
  164DOPC   D2B 1966   2.387   0.310   4.380
  164DOPC   C3B 1967   1.947   0.210   4.470
  164DOPC   C4B 1968   1.467   0.390   4.630
  165DOPC   NC3 1969  13.507   5.110  11.370
  165DOPC   PO4 1970  13.277   5.040  11.670
  165DOPC   GL1 1971  13.227   4.960  12.100
  165DOPC   GL2 1972  13.507   4.980  12.220
  165DOPC   C1A 1973  12.957   4.960  12.420
  165DOPC   D2A 1974  12.937   4.660  12.840
  165DOPC   C3A 1975  12.997   4.950  13.250
  165DOPC   C4A 1976  13.017   5.170  13.720
  165DOPC   C1B 1977  13.497   4.820  12.540
  165DOPC   D2B 1978  13.417   4.730  13.050
  165DOPC   C3B 1979  13.727   4.560  13.360
  165DOPC   C4B 1980  14.197   4.400  13.350
  166DOPC   NC3 1981  10.577   1.080   9.950
  166DOPC   PO4 1982  10.697   0.980  10.320
  166DOPC   GL1 1983  10.437   1.040  10.670
  166DOPC   GL2 1984  10.527   1.240  10.770
  166DOPC   C1A 1985  10.157   0.910  10.950
  166DOPC   D2A 1986  10.217   0.680  11.420
  166DOPC   C3A 1987  10.507   0.740  11.800
  166DOPC   C4A 1988  10.567   0.970  12.280
  166DOPC   C1B 1989  10.287   1.550  11.060
  166DOPC   D2B 1990  10.177   1.720  11.530
  166DOPC   C3B 1991   9.957   1.760  11.930
  166DOPC   C4B 1992   9.707   1.880  12.370
  167DOPC   NC3 1993  25.080   5.270   3.320
  167DOPC   PO4 1994  24.760   5.510   3.310
  167DOPC   GL1 1995  24.710   5.620   3.730
  167DOPC   GL2 1996  24.950   5.530   3.810
  167DOPC   C1A 1997  24.330   5.540   3.940
  167DOPC   D2A 1998  24.280   5.280   4.420
  167DOPC   C3A 1999  24.220   5.070   4.770
  167DOPC   C4A 2000  24.020   4.780   5.080
  167DOPC   C1B 2001  25.130   5.120   3.820
  167DOPC   D2B 2002   0.037   4.620   4.060
  167DOPC   C3B 2003  24.890   4.380   4.330
  167DOPC   C4B 2004  24.750   4.050   4.610
  168DOPC   NC3 2005  22.500   0.300   3.200
  168DOPC   PO4 2006  22.770   0.560   3.260
  168DOPC   GL1 2007  22.550   0.760   3.690
  168DOPC   GL2 2008  22.590   0.490   3.740
  168DOPC   C1A 2009  22.930   0.850   3.950
  168DOPC   D2A 2010  23.110   0.850   4.420
  168DOPC   C3A 2011  23.230   0.810   4.850
  168DOPC   C4A 2012  23.040   0.850   5.330
  168DOPC   C1B 2013  22.560   0.210   4.120
  168DOPC   D2B 2014  22.840   0.060   4.480
  168DOPC   C3B 2015  23.150   7.700   4.670
  168DOPC   C4B 2016  23.370   7.350   4.960
  169DOPC   NC3 2017  16.287   5.890   9.090
  169DOPC   PO4 2018  16.247   6.110   9.460
  169DOPC   GL1 2019  16.597   6.060   9.690
  169DOPC   GL2 2020  16.417   5.900   9.900
  169DOPC   C1A 2021  16.927   6.290   9.940
  169DOPC   D2A 2022  17.257   6.530  10.200
  169DOPC   C3A 2023  17.687   6.580  10.460
  169DOPC   C4A 2024  18.117   6.660  10.790
  169DOPC   C1B 2025  16.727   5.880  10.250
  169DOPC   D2B 2026  17.107   5.690  10.580
  169DOPC   C3B 2027  17.537   5.830  10.560
  169DOPC   C4B 2028  17.947   6.110  10.390
  170DOPC   NC3 2029  19.887   0.970   4.540
  170DOPC   PO4 2030  19.707   0.600   4.650
  170DOPC   GL1 2031  19.937   0.610   4.980
  170DOPC   GL2 2032  19.877   0.310   5.030
  170DOPC   C1A 2033  20.227   0.780   5.200
  170DOPC   D2A 2034  20.557   0.940   5.670
  170DOPC   C3A 2035  21.060   1.120   5.910
  170DOPC   C4A 2036  21.520   1.190   5.950
  170DOPC   C1B 2037  20.187   0.240   5.290
  170DOPC   D2B 2038  20.557   0.480   5.530
  170DOPC   C3B 2039  20.930   0.550   5.640
  170DOPC   C4B 2040  21.270   0.680   5.950
  171DOPC   NC3 2041  19.077   4.710   5.150
  171DOPC   PO4 2042  19.477   4.780   5.160
  171DOPC   GL1 2043  19.677   4.840   5.530
  171DOPC   GL2 2044  19.707   4.580   5.440
  171DOPC   C1A 2045  20.107   4.870   5.470
  171DOPC   D2A 2046  20.567   4.610   5.530
  171DOPC   C3A 2047  20.900   4.460   5.820
  171DOPC   C4A 2048  21.180   4.350   6.210
  171DOPC   C1B 2049  20.067   4.430   5.730
  171DOPC   D2B 2050  20.487   4.130   6.000
  171DOPC   C3B 2051  20.727   4.280   6.400
  171DOPC   C4B 2052  20.767   4.300   6.890
  172DOPC   NC3 2053  18.887   5.640   5.380
  172DOPC   PO4 2054  19.267   5.640   5.270
  172DOPC   GL1 2055  19.697   5.730   5.430
  172DOPC   GL2 2056  19.487   5.970   5.520
  172DOPC   C1A 2057  19.887   5.830   5.770
  172DOPC   D2A 2058  19.797   5.760   6.240
  172DOPC   C3A 2059  20.237   5.740   6.330
  172DOPC   C4A 2060  20.727   5.670   6.410
  172DOPC   C1B 2061  19.637   6.230   5.930
  172DOPC   D2B 2062  19.677   6.380   6.350
  172DOPC   C3B 2063  20.087   6.610   6.440
  172DOPC   C4B 2064  20.557   6.790   6.330
  173DOPC   NC3 2065  10.277   5.070  10.080
  173DOPC   PO4 2066   9.977   5.300  10.090
  173DOPC   GL1 2067   9.817   5.260  10.470
  173DOPC   GL2 2068   9.607   5.490  10.490
  173DOPC   C1A 2069   9.957   5.220  10.860
  173DOPC   D2A 2070  10.287   5.200  11.260
  173DOPC   C3A 2071  10.267   5.520  11.590
  173DOPC   C4A 2072  10.307   5.930  11.870
  173DOPC   C1B 2073   9.417   5.320  10.850
  173DOPC   D2B 2074   9.077   5.250  11.210
  173DOPC   C3B 2075   8.607   5.460  11.290
  173DOPC   C4B 2076   8.097   5.580  11.430
  174DOPC   NC3 2077  10.837   5.090  10.890
  174DOPC   PO4 2078  10.657   5.430  10.940
  174DOPC   GL1 2079  10.697   5.390  11.330
  174DOPC   GL2 2080  10.777   5.680  11.330
  174DOPC   C1A 2081  10.677   5.160  11.730
  174DOPC   D2A 2082  10.567   4.760  12.040
  174DOPC   C3A 2083  10.837   5.130  12.210
  174DOPC   C4A 2084  11.097   5.400  12.550
  174DOPC   C1B 2085  10.737   5.670  11.800
  174DOPC   D2B 2086  10.457   5.510  12.140
  174DOPC   C3B 2087  10.447   5.290  12.560
  174DOPC   C4B 2088  10.547   4.950  12.970
  175DOPC   NC3 2089  15.867   4.000   9.460
  175DOPC   PO4 2090  15.967   3.930   9.870
  175DOPC   GL1 2091  16.287   3.860  10.020
  175DOPC   GL2 2092  16.337   4.110  10.030
  175DOPC   C1A 2093  16.417   3.740  10.380
  175DOPC   D2A 2094  16.677   3.450  10.670
  175DOPC   C3A 2095  17.107   3.320  10.710
  175DOPC   C4A 2096  17.547   3.240  10.950
  175DOPC   C1B 2097  16.727   4.310  10.290
  175DOPC   D2B 2098  17.047   4.310  10.660
  175DOPC   C3B 2099  17.437   4.180  10.500
  175DOPC   C4B 2100  17.867   4.050  10.700
  176DOPC   NC3 2101  13.637   2.910  11.440
  176DOPC   PO4 2102  13.777   2.610  11.680
  176DOPC   GL1 2103  13.887   2.670  12.040
  176DOPC   GL2 2104  13.697   2.740  12.220
  176DOPC   C1A 2105  13.987   2.250  12.270
  176DOPC   D2A 2106  13.987   2.120  12.740
  176DOPC   C3A 2107  13.747   1.780  12.740
  176DOPC   C4A 2108  13.317   1.460  12.890
  176DOPC   C1B 2109  13.977   2.840  12.510
  176DOPC   D2B 2110  14.407   2.890  12.820
  176DOPC   C3B 2111  14.777   2.780  12.550
  176DOPC   C4B 2112  15.227   2.730  12.260
  177DOPC   NC3 2113   6.257   4.580   5.960
  177DOPC   PO4 2114   6.407   4.610   6.340
  177DOPC   GL1 2115   6.357   4.780   6.730
  177DOPC   GL2 2116   5.997   4.650   6.640
  177DOPC   C1A 2117   6.127   4.810   7.150
  177DOPC   D2A 2118   5.777   4.800   7.520
  177DOPC   C3A 2119   5.367   4.610   7.660
  177DOPC   C4A 2120   5.017   4.350   7.890
  177DOPC   C1B 2121   5.607   4.860   6.740
  177DOPC   D2B 2122   5.287   5.260   6.770
  177DOPC   C3B 2123   5.187   5.630   6.540
  177DOPC   C4B 2124   5.077   6.050   6.280
  178DOPC   NC3 2125  22.450   6.800   3.170
  178DOPC   PO4 2126  22.140   6.840   3.390
  178DOPC   GL1 2127  22.240   7.020   3.750
  178DOPC   GL2 2128  22.400   7.150   3.490
  178DOPC   C1A 2129  22.480   7.010   4.150
  178DOPC   D2A 2130  22.560   7.070   4.700
  178DOPC   C3A 2131  22.510   7.320   5.100
  178DOPC   C4A 2132  22.760   7.520   5.510
  178DOPC   C1B 2133  22.780   7.240   3.780
  178DOPC   D2B 2134  23.120   7.010   4.040
  178DOPC   C3B 2135  23.570   7.070   4.160
  178DOPC   C4B 2136  24.050   7.170   4.250
  179DOPC   NC3 2137   3.707   3.020   4.250
  179DOPC   PO4 2138   4.007   3.060   4.540
  179DOPC   GL1 2139   3.937   3.080   4.950
  179DOPC   GL2 2140   3.967   2.790   5.020
  179DOPC   C1A 2141   3.637   3.280   5.230
  179DOPC   D2A 2142   3.397   3.460   5.670
  179DOPC   C3A 2143   2.917   3.540   5.750
  179DOPC   C4A 2144   2.467   3.610   5.850
  179DOPC   C1B 2145   3.687   2.630   5.190
  179DOPC   D2B 2146   3.257   2.500   5.420
  179DOPC   C3B 2147   2.817   2.700   5.520
  179DOPC   C4B 2148   2.367   2.790   5.690
  180DOPC   NC3 2149  19.547   7.270   4.160
  180DOPC   PO4 2150  19.817   6.960   4.290
  180DOPC   GL1 2151  19.917   6.810   4.660
  180DOPC   GL2 2152  20.227   6.760   4.650
  180DOPC   C1A 2153  19.797   6.770   5.070
  180DOPC   D2A 2154  19.847   6.850   5.560
  180DOPC   C3A 2155  20.107   6.540   5.770
  180DOPC   C4A 2156  20.157   6.180   6.030
  180DOPC   C1B 2157  20.347   7.180   4.870
  180DOPC   D2B 2158  20.217   7.600   5.170
  180DOPC   C3B 2159  20.477   7.570   5.610
  180DOPC   C4B 2160  20.890   7.600   5.880
  181DOPC   NC3 2161  10.847   2.900  10.380
  181DOPC   PO4 2162  10.717   3.210  10.560
  181DOPC   GL1 2163  10.687   3.390  11.050
  181DOPC   GL2 2164  10.497   3.430  10.820
  181DOPC   C1A 2165  10.907   3.670  11.220
  181DOPC   D2A 2166  11.107   3.970  11.580
  181DOPC   C3A 2167  11.067   3.800  12.020
  181DOPC   C4A 2168  10.777   3.430  12.290
  181DOPC   C1B 2169  10.077   3.360  10.910
  181DOPC   D2B 2170   9.637   3.550  10.960
  181DOPC   C3B 2171   9.237   3.390  11.190
  181DOPC   C4B 2172   8.767   3.120  11.040
  182DOPC   NC3 2173  11.497   7.320  11.410
  182DOPC   PO4 2174  11.427   6.920  11.470
  182DOPC   GL1 2175  11.457   6.780  11.820
  182DOPC   GL2 2176  11.447   6.460  11.740
  182DOPC   C1A 2177  11.587   6.900  12.210
  182DOPC   D2A 2178  11.637   7.010  12.680
  182DOPC   C3A 2179  11.557   6.610  12.920
  182DOPC   C4A 2180  11.607   6.200  13.190
  182DOPC   C1B 2181  11.437   6.180  12.080
  182DOPC   D2B 2182  11.317   5.970  12.510
  182DOPC   C3B 2183  11.327   5.830  12.940
  182DOPC   C4B 2184  11.127   5.900  13.380
  183DOPC   NC3 2185   6.077   1.700   5.520
  183DOPC   PO4 2186   5.947   1.810   5.890
  183DOPC   GL1 2187   5.837   1.540   6.120
  183DOPC   GL2 2188   5.937   1.260   6.160
  183DOPC   C1A 2189   5.527   1.540   6.420
  183DOPC   D2A 2190   5.317   1.330   6.820
  183DOPC   C3A 2191   5.137   1.380   7.290
  183DOPC   C4A 2192   4.857   1.660   7.570
  183DOPC   C1B 2193   5.687   1.040   6.470
  183DOPC   D2B 2194   5.597   0.740   6.870
  183DOPC   C3B 2195   5.787   0.630   7.240
  183DOPC   C4B 2196   5.987   0.430   7.670
  184DOPC   NC3 2197   8.237   3.760   8.880
  184DOPC   PO4 2198   8.457   4.070   8.780
  184DOPC   GL1 2199   8.377   4.140   9.190
  184DOPC   GL2 2200   8.457   4.450   9.060
  184DOPC   C1A 2201   8.027   4.070   9.360
  184DOPC   D2A 2202   7.747   3.890   9.690
  184DOPC   C3A 2203   7.577   4.200   9.970
  184DOPC   C4A 2204   7.367   4.510  10.190
  184DOPC   C1B 2205   8.097   4.580   9.160
  184DOPC   D2B 2206   7.647   4.770   9.220
  184DOPC   C3B 2207   7.177   4.910   9.350
  184DOPC   C4B 2208   6.747   5.020   9.530
  185DOPC   NC3 2209   4.967   1.930   4.730
  185DOPC   PO4 2210   4.787   2.060   5.060
  185DOPC   GL1 2211   4.797   1.850   5.440
  185DOPC   GL2 2212   4.887   2.160   5.480
  185DOPC   C1A 2213   4.417   1.830   5.660
  185DOPC   D2A 2214   4.047   1.950   6.020
  185DOPC   C3A 2215   3.997   1.880   6.460
  185DOPC   C4A 2216   4.037   1.740   6.900
  185DOPC   C1B 2217   4.917   2.260   5.890
  185DOPC   D2B 2218   4.807   2.260   6.380
  185DOPC   C3B 2219   4.487   2.150   6.760
  185DOPC   C4B 2220   4.317   2.190   7.190
  186DOPC   NC3 2221   8.167   0.750   7.530
  186DOPC   PO4 2222   7.777   0.780   7.700
  186DOPC   GL1 2223   7.577   0.480   8.010
  186DOPC   GL2 2224   7.747   0.590   8.210
  186DOPC   C1A 2225   7.177   0.270   8.190
  186DOPC   D2A 2226   6.667   0.200   8.290
  186DOPC   C3A 2227   6.377   7.720   8.470
  186DOPC   C4A 2228   6.397   7.270   8.660
  186DOPC   C1B 2229   7.477   0.740   8.540
  186DOPC   D2B 2230   7.187   0.720   8.920
  186DOPC   C3B 2231   6.867   1.000   9.020
  186DOPC   C4B 2232   6.597   1.470   9.090
  187DOPC   NC3 2233   9.057   6.210   8.790
  187DOPC   PO4 2234   8.947   6.610   8.720
  187DOPC   GL1 2235   8.587   6.810   8.880
  187DOPC   GL2 2236   8.647   7.080   8.810
  187DOPC   C1A 2237   8.417   6.820   9.270
  187DOPC   D2A 2238   8.037   6.980   9.540
  187DOPC   C3A 2239   7.707   6.840   9.870
  187DOPC   C4A 2240   7.507   6.430  10.150
  187DOPC   C1B 2241   8.297   7.230   8.970
  187DOPC   D2B 2242   7.887   7.320   9.170
  187DOPC   C3B 2243   7.627   7.250   9.500
  187DOPC   C4B 2244   7.267   7.300   9.870
  188DOPC   NC3 2245  18.257   6.900   6.160
  188DOPC   PO4 2246  18.387   6.610   6.430
  188DOPC   GL1 2247  18.467   6.700   6.820
  188DOPC   GL2 2248  18.447   6.950   6.810
  188DOPC   C1A 2249  18.867   6.650   6.880
  188DOPC   D2A 2250  19.297   6.800   7.080
  188DOPC   C3A 2251  19.657   6.740   7.290
  188DOPC   C4A 2252  19.957   6.930   7.620
  188DOPC   C1B 2253  18.637   6.940   7.200
  188DOPC   D2B 2254  19.007   6.890   7.510
  188DOPC   C3B 2255  19.397   6.870   7.700
  188DOPC   C4B 2256  19.637   6.870   8.100
  189DOPC   NC3 2257  10.397   7.130  10.840
  189DOPC   PO4 2258  10.277   6.820  10.680
  189DOPC   GL1 2259  10.127   6.460  10.830
  189DOPC   GL2 2260  10.337   6.580  11.020
  189DOPC   C1A 2261   9.767   6.680  10.940
  189DOPC   D2A 2262   9.587   6.730  11.400
  189DOPC   C3A 2263   9.517   6.530  11.840
  189DOPC   C4A 2264   9.577   6.430  12.290
  189DOPC   C1B 2265  10.207   6.670  11.350
  189DOPC   D2B 2266  10.137   6.920  11.720
  189DOPC   C3B 2267   9.877   6.880  12.090
  189DOPC   C4B 2268   9.727   6.850  12.620
  190DOPC   NC3 2269  23.630   5.880   2.760
  190DOPC   PO4 2270  23.640   6.190   3.030
  190DOPC   GL1 2271  23.590   6.160   3.390
  190DOPC   GL2 2272  23.680   5.990   3.570
  190DOPC   C1A 2273  23.880   6.430   3.700
  190DOPC   D2A 2274  24.280   6.530   3.890
  190DOPC   C3A 2275  24.450   6.580   4.320
  190DOPC   C4A 2276  24.380   6.990   4.630
  190DOPC   C1B 2277  23.410   5.770   3.910
  190DOPC   D2B 2278  23.270   5.610   4.360
  190DOPC   C3B 2279  23.290   5.320   4.740
  190DOPC   C4B 2280  23.080   5.170   5.160
  191DOPC   NC3 2281  12.657   1.840  11.900
  191DOPC   PO4 2282  12.397   1.660  11.610
  191DOPC   GL1 2283  12.087   1.440  11.810
  191DOPC   GL2 2284  12.327   1.430  12.080
  191DOPC   C1A 2285  11.807   1.190  12.020
  191DOPC   D2A 2286  11.607   1.080  12.390
  191DOPC   C3A 2287  11.257   1.310  12.660
  191DOPC   C4A 2288  10.987   1.570  12.920
  191DOPC   C1B 2289  12.187   0.980  12.200
  191DOPC   D2B 2290  12.167   0.820  12.650
  191DOPC   C3B 2291  12.157   0.400  12.720
  191DOPC   C4B 2292  12.227   7.820  12.720
  192DOPC   NC3 2293  12.937   3.150  11.890
  192DOPC   PO4 2294  13.007   3.550  11.950
  192DOPC   GL1 2295  13.227   3.490  12.340
  192DOPC   GL2 2296  12.967   3.520  12.360
  192DOPC   C1A 2297  13.227   3.880  12.670
  192DOPC   D2A 2298  12.857   4.130  12.940
  192DOPC   C3A 2299  13.087   4.400  13.230
  192DOPC   C4A 2300  13.097   4.640  13.660
  192DOPC   C1B 2301  12.727   3.820  12.550
  192DOPC   D2B 2302  12.497   4.240  12.560
  192DOPC   C3B 2303  12.147   4.110  12.800
  192DOPC   C4B 2304  11.797   4.110  13.110
  193DOPC   NC3 2305  16.327   6.660   9.580
  193DOPC   PO4 2306  16.127   6.940   9.700
  193DOPC   GL1 2307  16.387   7.060   9.990
  193DOPC   GL2 2308  16.357   6.720  10.100
  193DOPC   C1A 2309  16.727   7.290  10.020
  193DOPC   D2A 2310  17.097   7.450  10.360
  193DOPC   C3A 2311  17.147   0.020  10.560
  193DOPC   C4A 2312  17.297   0.460  10.480
  193DOPC   C1B 2313  16.667   6.620  10.360
  193DOPC   D2B 2314  16.987   6.580  10.790
  193DOPC   C3B 2315  17.187   6.230  10.950
  193DOPC   C4B 2316  17.557   5.940  11.100
  194DOPC   NC3 2317  17.817   1.900   6.680
  194DOPC   PO4 2318  17.917   2.290   6.760
  194DOPC   GL1 2319  18.197   2.250   7.090
  194DOPC   GL2 2320  18.257   2.460   6.930
  194DOPC   C1A 2321  18.477   2.220   7.420
  194DOPC   D2A 2322  18.837   2.460   7.610
  194DOPC   C3A 2323  19.077   2.540   8.040
  194DOPC   C4A 2324  19.327   2.460   8.460
  194DOPC   C1B 2325  18.697   2.290   6.930
  194DOPC   D2B 2326  19.067   2.080   7.210
  194DOPC   C3B 2327  19.267   2.100   7.650
  194DOPC   C4B 2328  19.347   2.090   8.110
  195DOPC   NC3 2329  13.777   1.740  11.360
  195DOPC   PO4 2330  14.157   1.870  11.450
  195DOPC   GL1 2331  14.557   1.780  11.710
  195DOPC   GL2 2332  14.337   1.690  11.860
  195DOPC   C1A 2333  14.867   1.830  12.050
  195DOPC   D2A 2334  15.317   2.000  12.260
  195DOPC   C3A 2335  15.667   1.710  12.190
  195DOPC   C4A 2336  16.127   1.490  12.110
  195DOPC   C1B 2337  14.497   1.540  12.180
  195DOPC   D2B 2338  14.777   1.280  12.450
  195DOPC   C3B 2339  14.867   0.900  12.570
  195DOPC   C4B 2340  15.257   0.600  12.610
  196DOPC   NC3 2341  16.287   4.900   9.140
  196DOPC   PO4 2342  16.287   5.160   9.450
  196DOPC   GL1 2343  16.727   5.250   9.410
  196DOPC   GL2 2344  16.747   5.060   9.160
  196DOPC   C1A 2345  16.977   4.850   9.460
  196DOPC   D2A 2346  17.217   4.460   9.550
  196DOPC   C3A 2347  17.597   4.360   9.770
  196DOPC   C4A 2348  17.787   4.170  10.180
  196DOPC   C1B 2349  17.137   5.110   9.070
  196DOPC   D2B 2350  17.557   5.350   8.930
  196DOPC   C3B 2351  17.787   5.430   9.330
  196DOPC   C4B 2352  17.827   5.730   9.680
  197DOPC   NC3 2353   6.907   5.530   6.420
  197DOPC   PO4 2354   6.887   5.290   6.730
  197DOPC   GL1 2355   6.497   5.300   6.930
  197DOPC   GL2 2356   6.777   5.290   7.120
  197DOPC   C1A 2357   6.157   5.350   7.230
  197DOPC   D2A 2358   5.757   5.390   7.580
  197DOPC   C3A 2359   5.397   5.110   7.570
  197DOPC   C4A 2360   4.967   4.970   7.800
  197DOPC   C1B 2361   6.647   5.550   7.350
  197DOPC   D2B 2362   6.537   5.820   7.700
  197DOPC   C3B 2363   6.237   6.080   7.830
  197DOPC   C4B 2364   5.877   6.380   7.970
  198DOPC   NC3 2365  17.727   4.440   6.900
  198DOPC   PO4 2366  17.897   4.770   6.920
  198DOPC   GL1 2367  18.297   4.640   7.070
  198DOPC   GL2 2368  18.197   4.660   7.410
  198DOPC   C1A 2369  18.777   4.560   6.980
  198DOPC   D2A 2370  19.187   4.730   6.700
  198DOPC   C3A 2371  19.487   4.970   6.810
  198DOPC   C4A 2372  19.767   5.390   6.880
  198DOPC   C1B 2373  18.497   4.540   7.700
  198DOPC   D2B 2374  18.907   4.410   7.730
  198DOPC   C3B 2375  18.987   3.980   7.600
  198DOPC   C4B 2376  19.017   3.530   7.570
  199DOPC   NC3 2377   9.427   0.570   9.990
  199DOPC   PO4 2378   9.387   0.960   9.930
  199DOPC   GL1 2379   9.057   0.970  10.130
  199DOPC   GL2 2380   8.937   0.730  10.090
  199DOPC   C1A 2381   8.637   1.070  10.300
  199DOPC   D2A 2382   8.347   1.370  10.610
  199DOPC   C3A 2383   7.957   1.220  10.690
  199DOPC   C4A 2384   7.737   0.840  10.900
  199DOPC   C1B 2385   8.867   0.690  10.510
  199DOPC   D2B 2386   8.787   0.430  10.950
  199DOPC   C3B 2387   8.947   0.440  11.410
  199DOPC   C4B 2388   8.627   0.380  11.800
  200DOPC   NC3 2389  24.630   7.380   2.650
  200DOPC   PO4 2390  24.580   7.380   3.060
  200DOPC   GL1 2391  24.850   7.160   3.360
  200DOPC   GL2 2392  24.720   7.350   3.610
  200DOPC   C1A 2393  24.890   6.840   3.720
  200DOPC   D2A 2394  24.860   6.420   4.060
  200DOPC   C3A 2395  24.790   5.930   4.070
  200DOPC   C4A 2396  24.600   5.650   4.430
  200DOPC   C1B 2397  24.900   7.450   4.030
  200DOPC   D2B 2398   0.017   7.460   4.480
  200DOPC   C3B 2399   0.307   7.410   4.790
  200DOPC   C4B 2400   0.677   7.070   4.850
11988DOPC   NC3 2401  20.587   3.800  10.160
11988DOPC   PO4 2402  20.407   3.450  10.190
11988DOPC   GL1 2403  20.067   3.390  10.060
11988DOPC   GL2 2404  20.017   3.150   9.950
11988DOPC   C1A 2405  19.767   3.660   9.820
11988DOPC   D2A 2406  19.427   3.650   9.410
11988DOPC   C3A 2407  19.117   3.950   9.320
11988DOPC   C4A 2408  18.647   3.970   9.270
11988DOPC   C1B 2409  19.647   3.220   9.660
11988DOPC   D2B 2410  19.177   3.040   9.810
11988DOPC   C3B 2411  18.787   3.220   9.840
11988DOPC   C4B 2412  18.387   3.490   9.930
11989DOPC   NC3 2413   6.747   3.680  12.840
11989DOPC   PO4 2414   7.127   3.800  12.900
11989DOPC   GL1 2415   7.437   3.970  12.710
11989DOPC   GL2 2416   7.497   3.830  12.490
11989DOPC   C1A 2417   7.897   4.120  12.740
11989DOPC   D2A 2418   8.267   4.050  12.430
11989DOPC   C3A 2419   8.467   4.330  12.060
11989DOPC   C4A 2420   8.757   4.460  11.670
11989DOPC   C1B 2421   7.627   3.470  12.260
11989DOPC   D2B 2422   7.707   3.350  11.810
11989DOPC   C3B 2423   7.747   2.910  11.580
11989DOPC   C4B 2424   7.447   2.610  11.340
11990DOPC   NC3 2425  11.737   2.000  16.060
11990DOPC   PO4 2426  11.847   2.000  15.700
11990DOPC   GL1 2427  11.797   1.990  15.310
11990DOPC   GL2 2428  12.057   1.710  15.290
11990DOPC   C1A 2429  11.767   2.220  14.940
11990DOPC   D2A 2430  11.737   2.410  14.480
11990DOPC   C3A 2431  12.157   2.620  14.440
11990DOPC   C4A 2432  12.507   2.880  14.230
11990DOPC   C1B 2433  12.307   1.920  15.010
11990DOPC   D2B 2434  12.337   2.170  14.620
11990DOPC   C3B 2435  12.687   2.320  14.370
11990DOPC   C4B 2436  13.067   2.450  14.040
11991DOPC   NC3 2437  22.680   7.570   8.090
11991DOPC   PO4 2438  22.850   7.730   7.780
11991DOPC   GL1 2439  22.720   0.000   7.390
11991DOPC   GL2 2440  22.900   0.190   7.400
11991DOPC   C1A 2441  22.460   0.090   7.070
11991DOPC   D2A 2442  22.080   7.790   6.770
11991DOPC   C3A 2443  21.740   0.070   6.500
11991DOPC   C4A 2444  21.520   0.100   6.040
11991DOPC   C1B 2445  22.960   0.110   6.940
11991DOPC   D2B 2446  22.830   7.820   6.490
11991DOPC   C3B 2447  22.540   7.560   6.780
11991DOPC   C4B 2448  22.240   7.210   6.990
11992DOPC   NC3 2449   9.857   5.400  14.570
11992DOPC   PO4 2450   9.897   5.730  14.800
11992DOPC   GL1 2451   9.957   5.870  14.540
11992DOPC   GL2 2452   9.827   6.100  14.430
11992DOPC   C1A 2453  10.007   5.660  14.160
11992DOPC   D2A 2454   9.947   5.860  13.710
11992DOPC   C3A 2455  10.067   5.740  13.320
11992DOPC   C4A 2456  10.387   5.330  13.240
11992DOPC   C1B 2457   9.877   6.300  14.050
11992DOPC   D2B 2458  10.147   6.390  13.620
11992DOPC   C3B 2459  10.407   6.000  13.580
11992DOPC   C4B 2460  10.677   5.700  13.490
11993DOPC   NC3 2461   1.537   4.230   7.760
11993DOPC   PO4 2462   1.637   4.400   7.420
11993DOPC   GL1 2463   1.507   4.270   7.040
11993DOPC   GL2 2464   1.437   4.540   6.960
11993DOPC   C1A 2465   1.717   4.200   6.740
11993DOPC   D2A 2466   2.077   4.340   6.420
11993DOPC   C3A 2467   2.327   4.640   6.680
11993DOPC   C4A 2468   2.647   4.970   6.930
11993DOPC   C1B 2469   1.787   4.680   6.680
11993DOPC   D2B 2470   1.827   4.780   6.200
11993DOPC   C3B 2471   1.937   4.440   5.920
11993DOPC   C4B 2472   2.257   4.100   5.810
11994DOPC   NC3 2473   4.127   5.860   9.920
11994DOPC   PO4 2474   4.287   5.480  10.030
11994DOPC   GL1 2475   4.577   5.200   9.860
11994DOPC   GL2 2476   4.387   5.060   9.600
11994DOPC   C1A 2477   4.807   5.340   9.510
11994DOPC   D2A 2478   5.167   5.640   9.320
11994DOPC   C3A 2479   5.497   5.670   8.990
11994DOPC   C4A 2480   5.917   5.520   8.870
11994DOPC   C1B 2481   4.327   5.270   9.220
11994DOPC   D2B 2482   4.167   5.510   8.830
11994DOPC   C3B 2483   4.497   5.820   8.730
11994DOPC   C4B 2484   4.647   6.210   8.540
11995DOPC   NC3 2485   1.817   1.960   7.880
11995DOPC   PO4 2486   1.727   1.630   7.700
11995DOPC   GL1 2487   1.887   1.290   7.570
11995DOPC   GL2 2488   2.087   1.460   7.490
11995DOPC   C1A 2489   1.807   1.300   7.150
11995DOPC   D2A 2490   1.507   1.420   6.740
11995DOPC   C3A 2491   1.367   1.360   6.260
11995DOPC   C4A 2492   1.307   1.310   5.720
11995DOPC   C1B 2493   2.297   1.360   7.130
11995DOPC   D2B 2494   2.547   1.350   6.780
11995DOPC   C3B 2495   2.767   1.630   6.510
11995DOPC   C4B 2496   2.757   2.110   6.340
11996DOPC   NC3 2497   2.617   2.410   8.720
11996DOPC   PO4 2498   2.847   2.740   8.680
11996DOPC   GL1 2499   3.027   2.570   8.400
11996DOPC   GL2 2500   2.847   2.590   8.130
11996DOPC   C1A 2501   3.377   2.460   8.340
11996DOPC   D2A 2502   3.807   2.190   8.280
11996DOPC   C3A 2503   4.097   2.310   7.870
11996DOPC   C4A 2504   4.497   2.420   7.630
11996DOPC   C1B 2505   3.197   2.730   7.940
11996DOPC   D2B 2506   3.567   2.940   7.620
11996DOPC   C3B 2507   3.837   3.010   7.240
11996DOPC   C4B 2508   4.087   3.110   6.830
11997DOPC   NC3 2509   5.447   7.210  11.430
11997DOPC   PO4 2510   5.587   7.490  11.270
11997DOPC   GL1 2511   5.867   7.450  10.950
11997DOPC   GL2 2512   5.857   7.130  10.950
11997DOPC   C1A 2513   6.277   7.440  10.790
11997DOPC   D2A 2514   6.637   7.500  10.420
11997DOPC   C3A 2515   6.717   0.080  10.280
11997DOPC   C4A 2516   7.157   0.350  10.170
11997DOPC   C1B 2517   6.227   6.930  10.960
11997DOPC   D2B 2518   6.637   6.680  11.120
11997DOPC   C3B 2519   6.937   6.940  11.310
11997DOPC   C4B 2520   7.437   7.100  11.280
11998DOPC   NC3 2521  12.617   0.650  15.540
11998DOPC   PO4 2522  12.527   0.300  15.350
11998DOPC   GL1 2523  12.377   0.160  15.040
11998DOPC   GL2 2524  12.527   0.270  14.830
11998DOPC   C1A 2525  11.977   7.850  14.960
11998DOPC   D2A 2526  11.727   7.700  14.590
11998DOPC   C3A 2527  11.947   7.460  14.220
11998DOPC   C4A 2528  12.437   7.260  14.110
11998DOPC   C1B 2529  12.257   0.180  14.490
11998DOPC   D2B 2530  12.197   0.170  14.000
11998DOPC   C3B 2531  12.517   0.320  13.630
11998DOPC   C4B 2532  12.837   0.600  13.370
11999DOPC   NC3 2533  10.857   1.720  16.040
11999DOPC   PO4 2534  10.807   1.800  15.660
11999DOPC   GL1 2535  11.147   1.720  15.270
11999DOPC   GL2 2536  10.817   1.830  15.190
11999DOPC   C1A 2537  11.347   1.660  14.920
11999DOPC   D2A 2538  11.597   1.580  14.520
11999DOPC   C3A 2539  11.517   1.460  14.090
11999DOPC   C4A 2540  11.557   1.320  13.620
11999DOPC   C1B 2541  10.767   1.770  14.720
11999DOPC   D2B 2542  10.647   1.640  14.310
11999DOPC   C3B 2543  10.777   1.460  13.920
11999DOPC   C4B 2544  11.157   1.710  13.770
12000DOPC   NC3 2545  23.260   4.090   7.540
12000DOPC   PO4 2546  23.290   4.030   7.160
12000DOPC   GL1 2547  23.130   4.100   6.750
12000DOPC   GL2 2548  23.400   4.000   6.630
12000DOPC   C1A 2549  22.740   4.000   6.630
12000DOPC   D2A 2550  22.290   3.970   6.520
12000DOPC   C3A 2551  21.910   4.180   6.380
12000DOPC   C4A 2552  21.640   4.470   6.130
12000DOPC   C1B 2553  23.420   4.170   6.210
12000DOPC   D2B 2554  23.580   4.300   5.690
12000DOPC   C3B 2555  23.820   4.370   5.270
12000DOPC   C4B 2556  24.050   4.360   4.840
12001DOPC   NC3 2557  18.627   7.250  13.430
12001DOPC   PO4 2558  18.457   7.580  13.390
12001DOPC   GL1 2559  17.997   7.560  13.310
12001DOPC   GL2 2560  18.187   7.560  13.100
12001DOPC   C1A 2561  17.557   7.650  13.100
12001DOPC   D2A 2562  17.047   7.620  13.220
12001DOPC   C3A 2563  16.747   7.570  12.870
12001DOPC   C4A 2564  16.427   7.480  12.580
12001DOPC   C1B 2565  18.027   7.600  12.650
12001DOPC   D2B 2566  18.107   0.040  12.300
12001DOPC   C3B 2567  17.987   0.230  11.870
12001DOPC   C4B 2568  17.797   0.260  11.490
12002DOPC   NC3 2569   5.537   2.370  12.210
12002DOPC   PO4 2570   5.717   2.340  11.850
12002DOPC   GL1 2571   5.607   2.150  11.530
12002DOPC   GL2 2572   5.827   1.970  11.650
12002DOPC   C1A 2573   5.557   2.140  11.160
12002DOPC   D2A 2574   5.647   2.410  10.740
12002DOPC   C3A 2575   6.037   2.500  10.590
12002DOPC   C4A 2576   6.357   2.400  10.280
12002DOPC   C1B 2577   5.957   1.540  11.580
12002DOPC   D2B 2578   6.077   1.030  11.530
12002DOPC   C3B 2579   6.427   0.860  11.240
12002DOPC   C4B 2580   6.797   0.740  10.940
12003DOPC   NC3 2581   0.537   0.770   7.140
12003DOPC   PO4 2582   0.187   0.830   7.000
12003DOPC   GL1 2583   0.347   0.870   6.670
12003DOPC   GL2 2584   0.067   1.000   6.560
12003DOPC   C1A 2585   0.467   0.870   6.270
12003DOPC   D2A 2586   0.587   0.840   5.790
12003DOPC   C3A 2587   0.967   0.830   5.560
12003DOPC   C4A 2588   1.377   0.570   5.420
12003DOPC   C1B 2589   0.077   1.430   6.280
12003DOPC   D2B 2590   0.077   1.750   5.880
12003DOPC   C3B 2591   0.207   1.740   5.490
12003DOPC   C4B 2592   0.407   1.430   5.220
12004DOPC   NC3 2593   0.367   4.350   7.170
12004DOPC   PO4 2594   0.607   4.650   7.170
12004DOPC   GL1 2595   0.547   4.740   6.750
12004DOPC   GL2 2596   0.337   4.990   6.820
12004DOPC   C1A 2597   0.707   4.810   6.380
12004DOPC   D2A 2598   0.947   4.830   5.980
12004DOPC   C3A 2599   1.127   4.980   5.620
12004DOPC   C4A 2600   1.457   5.070   5.210
12004DOPC   C1B 2601   0.327   5.150   6.370
12004DOPC   D2B 2602   0.447   5.300   5.890
12004DOPC   C3B 2603   0.807   5.340   5.550
12004DOPC   C4B 2604   1.047   5.360   5.170
12005DOPC   NC3 2605   5.917   6.140  11.580
12005DOPC   PO4 2606   5.717   6.340  11.330
12005DOPC   GL1 2607   5.667   6.280  10.910
12005DOPC   GL2 2608   5.647   6.040  10.950
12005DOPC   C1A 2609   5.907   6.290  10.480
12005DOPC   D2A 2610   6.347   6.210  10.220
12005DOPC   C3A 2611   6.617   6.000   9.890
12005DOPC   C4A 2612   6.867   6.140   9.500
12005DOPC   C1B 2613   5.617   5.830  10.520
12005DOPC   D2B 2614   5.587   5.420  10.260
12005DOPC   C3B 2615   5.917   5.140  10.030
12005DOPC   C4B 2616   6.247   5.000   9.650
12006DOPC   NC3 2617  15.147   6.010  15.380
12006DOPC   PO4 2618  15.447   6.170  15.190
12006DOPC   GL1 2619  15.547   6.040  14.820
12006DOPC   GL2 2620  15.287   6.030  14.870
12006DOPC   C1A 2621  15.407   6.180  14.460
12006DOPC   D2A 2622  15.437   6.480  14.080
12006DOPC   C3A 2623  15.237   6.610  13.690
12006DOPC   C4A 2624  14.877   6.570  13.410
12006DOPC   C1B 2625  14.947   6.060  14.600
12006DOPC   D2B 2626  14.477   6.210  14.390
12006DOPC   C3B 2627  14.157   6.420  14.140
12006DOPC   C4B 2628  13.867   6.640  13.730
12007DOPC   NC3 2629  22.870   2.340   7.770
12007DOPC   PO4 2630  22.810   2.110   7.480
12007DOPC   GL1 2631  22.460   2.150   7.260
12007DOPC   GL2 2632  22.400   2.380   7.460
12007DOPC   C1A 2633  22.380   2.000   6.920
12007DOPC   D2A 2634  22.250   1.590   6.620
12007DOPC   C3A 2635  21.930   1.670   6.300
12007DOPC   C4A 2636  21.650   1.800   6.000
12007DOPC   C1B 2637  22.000   2.410   7.260
12007DOPC   D2B 2638  21.640   2.260   6.910
12007DOPC   C3B 2639  21.870   2.130   6.520
12007DOPC   C4B 2640  22.080   2.100   6.090
12008DOPC   NC3 2641  22.220   4.050   8.490
12008DOPC   PO4 2642  21.850   4.100   8.600
12008DOPC   GL1 2643  21.610   3.970   8.320
12008DOPC   GL2 2644  21.860   4.030   8.140
12008DOPC   C1A 2645  21.360   3.970   7.970
12008DOPC   D2A 2646  20.970   3.730   7.820
12008DOPC   C3A 2647  20.727   3.530   7.510
12008DOPC   C4A 2648  20.527   3.140   7.240
12008DOPC   C1B 2649  21.760   4.180   7.730
12008DOPC   D2B 2650  21.910   4.110   7.210
12008DOPC   C3B 2651  21.740   3.820   6.810
12008DOPC   C4B 2652  21.820   3.570   6.390
12009DOPC   NC3 2653   4.687   7.810  10.470
12009DOPC   PO4 2654   4.527   0.270  10.250
12009DOPC   GL1 2655   4.897   0.390  10.020
12009DOPC   GL2 2656   5.037   0.340  10.170
12009DOPC   C1A 2657   5.117   0.450   9.630
12009DOPC   D2A 2658   5.527   0.490   9.240
12009DOPC   C3A 2659   5.937   0.350   9.320
12009DOPC   C4A 2660   6.387   0.360   9.420
12009DOPC   C1B 2661   5.417   0.270  10.010
12009DOPC   D2B 2662   5.807   0.480   9.840
12009DOPC   C3B 2663   6.037   0.770   9.620
12009DOPC   C4B 2664   6.297   0.900   9.260
12010DOPC   NC3 2665   5.327   0.490  11.340
12010DOPC   PO4 2666   5.377   0.860  11.230
12010DOPC   GL1 2667   5.657   0.780  10.950
12010DOPC   GL2 2668   5.827   0.690  11.220
12010DOPC   C1A 2669   5.857   1.030  10.580
12010DOPC   D2A 2670   6.277   1.260  10.400
12010DOPC   C3A 2671   6.437   1.250   9.980
12010DOPC   C4A 2672   6.687   1.150   9.490
12010DOPC   C1B 2673   6.177   0.460  11.120
12010DOPC   D2B 2674   6.437   0.100  10.900
12010DOPC   C3B 2675   6.847   0.330  10.690
12010DOPC   C4B 2676   7.137   0.680  10.540
12011DOPC   NC3 2677   0.627   5.240   7.100
12011DOPC   PO4 2678   0.247   5.380   7.070
12011DOPC   GL1 2679   0.237   5.480   6.620
12011DOPC   GL2 2680  25.130   5.360   6.590
12011DOPC   C1A 2681   0.417   5.710   6.290
12011DOPC   D2A 2682   0.497   5.920   5.850
12011DOPC   C3A 2683   0.477   5.760   5.440
12011DOPC   C4A 2684   0.607   5.640   4.990
12011DOPC   C1B 2685  25.120   5.460   6.140
12011DOPC   D2B 2686   0.077   5.600   5.710
12011DOPC   C3B 2687  25.030   5.380   5.320
12011DOPC   C4B 2688   0.107   5.190   4.900
12012DOPC   NC3 2689  24.160   5.660   7.140
12012DOPC   PO4 2690  24.530   5.500   7.080
12012DOPC   GL1 2691  24.670   5.530   6.680
12012DOPC   GL2 2692  24.650   5.850   6.650
12012DOPC   C1A 2693  24.680   5.330   6.310
12012DOPC   D2A 2694  24.760   5.320   5.810
12012DOPC   C3A 2695  24.500   5.630   5.650
12012DOPC   C4A 2696  24.250   5.790   5.320
12012DOPC   C1B 2697  24.660   5.850   6.230
12012DOPC   D2B 2698  24.760   6.140   5.810
12012DOPC   C3B 2699  24.840   5.900   5.410
12012DOPC   C4B 2700  24.850   5.760   4.930
12013DOPC   NC3 2701  20.970   1.240   9.920
12013DOPC   PO4 2702  20.617   1.100   9.790
12013DOPC   GL1 2703  20.367   1.220   9.490
12013DOPC   GL2 2704  20.607   1.260   9.310
12013DOPC   C1A 2705  20.107   1.370   9.180
12013DOPC   D2A 2706  19.927   1.540   8.770
12013DOPC   C3A 2707  19.897   1.780   8.360
12013DOPC   C4A 2708  19.817   2.220   8.180
12013DOPC   C1B 2709  20.597   1.690   9.180
12013DOPC   D2B 2710  20.667   2.200   9.210
12013DOPC   C3B 2711  20.427   2.400   8.900
12013DOPC   C4B 2712  20.267   2.790   8.700
12014DOPC   NC3 2713   1.707   2.830   7.830
12014DOPC   PO4 2714   1.527   3.150   7.650
12014DOPC   GL1 2715   1.687   3.460   7.370
12014DOPC   GL2 2716   1.927   3.530   7.490
12014DOPC   C1A 2717   1.747   3.340   6.890
12014DOPC   D2A 2718   1.727   2.950   6.540
12014DOPC   C3A 2719   1.587   2.990   6.100
12014DOPC   C4A 2720   1.417   3.110   5.650
12014DOPC   C1B 2721   2.157   3.560   7.200
12014DOPC   D2B 2722   2.477   3.470   6.800
12014DOPC   C3B 2723   2.897   3.460   6.580
12014DOPC   C4B 2724   3.117   3.470   6.200
12015DOPC   NC3 2725  19.917   7.040  12.000
12015DOPC   PO4 2726  19.547   6.920  12.060
12015DOPC   GL1 2727  19.257   6.940  11.680
12015DOPC   GL2 2728  19.237   6.650  11.750
12015DOPC   C1A 2729  18.817   7.050  11.440
12015DOPC   D2A 2730  18.367   7.300  11.580
12015DOPC   C3A 2731  17.967   7.180  11.450
12015DOPC   C4A 2732  17.557   6.960  11.410
12015DOPC   C1B 2733  19.007   6.580  11.420
12015DOPC   D2B 2734  18.587   6.550  11.160
12015DOPC   C3B 2735  18.237   6.180  11.080
12015DOPC   C4B 2736  18.017   5.810  11.310
12016DOPC   NC3 2737   2.967   7.720   8.950
12016DOPC   PO4 2738   3.337   7.660   8.960
12016DOPC   GL1 2739   3.467   7.600   8.590
12016DOPC   GL2 2740   3.427   7.300   8.480
12016DOPC   C1A 2741   3.607   7.770   8.190
12016DOPC   D2A 2742   3.857   0.240   7.920
12016DOPC   C3A 2743   4.257   0.190   7.810
12016DOPC   C4A 2744   4.687   0.080   7.750
12016DOPC   C1B 2745   3.557   7.200   8.120
12016DOPC   D2B 2746   3.947   7.020   7.770
12016DOPC   C3B 2747   4.157   7.070   7.370
12016DOPC   C4B 2748   3.967   7.030   6.970
12017DOPC   NC3 2749  15.227   6.520  14.910
12017DOPC   PO4 2750  14.997   6.400  15.210
12017DOPC   GL1 2751  14.527   6.360  15.150
12017DOPC   GL2 2752  14.607   6.060  15.080
12017DOPC   C1A 2753  14.507   6.530  14.750
12017DOPC   D2A 2754  14.577   6.680  14.230
12017DOPC   C3A 2755  14.817   6.510  13.900
12017DOPC   C4A 2756  15.147   6.170  13.690
12017DOPC   C1B 2757  14.467   5.850  14.740
12017DOPC   D2B 2758  14.157   5.730  14.390
12017DOPC   C3B 2759  14.277   5.950  13.970
12017DOPC   C4B 2760  14.377   6.320  13.650
12018DOPC   NC3 2761   8.737   5.570  13.950
12018DOPC   PO4 2762   8.647   5.290  14.190
12018DOPC   GL1 2763   8.897   5.020  14.070
12018DOPC   GL2 2764   9.167   5.200  14.020
12018DOPC   C1A 2765   8.967   4.650  14.040
12018DOPC   D2A 2766   9.167   4.160  14.100
12018DOPC   C3A 2767   9.227   3.840  13.700
12018DOPC   C4A 2768   9.447   3.830  13.200
12018DOPC   C1B 2769   9.227   5.370  13.700
12018DOPC   D2B 2770   9.247   5.230  13.190
12018DOPC   C3B 2771   9.627   4.990  13.070
12018DOPC   C4B 2772  10.067   4.760  13.060
12019DOPC   NC3 2773   6.327   2.850  12.540
12019DOPC   PO4 2774   6.337   2.950  12.150
12019DOPC   GL1 2775   6.287   2.760  11.760
12019DOPC   GL2 2776   6.227   3.010  11.650
12019DOPC   C1A 2777   6.517   2.630  11.420
12019DOPC   D2A 2778   6.947   2.650  11.270
12019DOPC   C3A 2779   7.037   2.360  10.900
12019DOPC   C4A 2780   7.377   2.460  10.550
12019DOPC   C1B 2781   6.207   3.000  11.170
12019DOPC   D2B 2782   6.317   2.990  10.660
12019DOPC   C3B 2783   6.587   2.850  10.390
12019DOPC   C4B 2784   6.997   3.030  10.170
12020DOPC   NC3 2785  14.757   4.800  15.290
12020DOPC   PO4 2786  14.447   5.040  15.390
12020DOPC   GL1 2787  14.327   5.050  14.950
12020DOPC   GL2 2788  14.097   5.130  15.050
12020DOPC   C1A 2789  14.537   5.280  14.640
12020DOPC   D2A 2790  14.707   5.650  14.360
12020DOPC   C3A 2791  14.517   5.520  13.970
12020DOPC   C4A 2792  14.217   5.320  13.580
12020DOPC   C1B 2793  13.877   5.210  14.640
12020DOPC   D2B 2794  13.657   5.500  14.250
12020DOPC   C3B 2795  13.587   5.260  13.850
12020DOPC   C4B 2796  13.557   5.070  13.390
12021DOPC   NC3 2797  12.937   2.170  15.480
12021DOPC   PO4 2798  12.917   1.760  15.540
12021DOPC   GL1 2799  12.757   1.870  15.140
12021DOPC   GL2 2800  13.057   1.730  15.150
12021DOPC   C1A 2801  12.627   1.760  14.690
12021DOPC   D2A 2802  12.397   1.790  14.260
12021DOPC   C3A 2803  12.207   2.250  14.150
12021DOPC   C4A 2804  12.147   2.710  13.940
12021DOPC   C1B 2805  13.137   1.640  14.780
12021DOPC   D2B 2806  13.317   1.450  14.430
12021DOPC   C3B 2807  13.077   1.160  14.150
12021DOPC   C4B 2808  12.757   0.840  13.960
12022DOPC   NC3 2809  20.777   7.710   9.290
12022DOPC   PO4 2810  20.787   7.400   9.500
12022DOPC   GL1 2811  20.407   7.260   9.370
12022DOPC   GL2 2812  20.297   7.080   9.540
12022DOPC   C1A 2813  20.237   7.330   9.000
12022DOPC   D2A 2814  20.167   7.530   8.610
12022DOPC   C3A 2815  20.117   7.630   8.190
12022DOPC   C4A 2816  19.927   0.050   7.860
12022DOPC   C1B 2817  19.877   6.990   9.500
12022DOPC   D2B 2818  19.417   6.830   9.630
12022DOPC   C3B 2819  19.317   6.440   9.430
12022DOPC   C4B 2820  18.967   6.190   9.150
12023DOPC   NC3 2821  17.377   6.240  14.390
12023DOPC   PO4 2822  17.067   5.960  14.450
12023DOPC   GL1 2823  17.017   5.820  14.010
12023DOPC   GL2 2824  16.947   5.540  14.050
12023DOPC   C1A 2825  16.807   5.880  13.650
12023DOPC   D2A 2826  16.447   6.060  13.330
12023DOPC   C3A 2827  16.447   6.000  12.850
12023DOPC   C4A 2828  16.777   6.160  12.580
12023DOPC   C1B 2829  16.847   5.320  13.660
12023DOPC   D2B 2830  16.747   5.270  13.160
12023DOPC   C3B 2831  16.447   5.120  12.810
12023DOPC   C4B 2832  16.027   4.960  12.650
12024DOPC   NC3 2833   1.777   1.590   8.210
12024DOPC   PO4 2834   2.147   1.790   8.300
12024DOPC   GL1 2835   2.297   1.860   7.960
12024DOPC   GL2 2836   2.287   1.980   7.770
12024DOPC   C1A 2837   2.507   1.590   7.620
12024DOPC   D2A 2838   2.807   1.360   7.270
12024DOPC   C3A 2839   3.107   1.480   6.900
12024DOPC   C4A 2840   3.237   1.400   6.460
12024DOPC   C1B 2841   2.587   2.070   7.460
12024DOPC   D2B 2842   3.037   2.150   7.230
12024DOPC   C3B 2843   3.527   2.090   7.150
12024DOPC   C4B 2844   3.937   1.920   7.380
12025DOPC   NC3 2845  18.187   3.480  13.360
12025DOPC   PO4 2846  18.327   3.660  13.680
12025DOPC   GL1 2847  18.127   4.020  13.530
12025DOPC   GL2 2848  18.157   3.970  13.280
12025DOPC   C1A 2849  17.697   3.840  13.530
12025DOPC   D2A 2850  17.197   3.810  13.480
12025DOPC   C3A 2851  16.787   3.920  13.300
12025DOPC   C4A 2852  16.317   4.080  13.090
12025DOPC   C1B 2853  17.997   3.710  13.000
12025DOPC   D2B 2854  17.807   3.370  12.740
12025DOPC   C3B 2855  17.737   3.300  12.270
12025DOPC   C4B 2856  17.447   3.260  11.860
12026DOPC   NC3 2857   0.017   7.290   7.240
12026DOPC   PO4 2858  24.900   7.150   6.980
12026DOPC   GL1 2859  24.990   7.340   6.700
12026DOPC   GL2 2860   0.137   7.350   6.730
12026DOPC   C1A 2861  25.020   7.370   6.290
12026DOPC   D2A 2862   0.027   7.510   5.840
12026DOPC   C3A 2863   0.377   7.290   5.670
12026DOPC   C4A 2864   0.517   6.800   5.570
12026DOPC   C1B 2865   0.407   7.460   6.390
12026DOPC   D2B 2866   0.767   7.460   6.070
12026DOPC   C3B 2867   0.817   7.530   5.640
12026DOPC   C4B 2868   0.577   7.480   5.210
12027DOPC   NC3 2869   3.557   6.460   8.510
12027DOPC   PO4 2870   3.767   6.480   8.860
12027DOPC   GL1 2871   4.167   6.380   8.820
12027DOPC   GL2 2872   4.097   6.360   8.490
12027DOPC   C1A 2873   4.607   6.530   8.930
12027DOPC   D2A 2874   5.067   6.700   8.910
12027DOPC   C3A 2875   5.057   7.100   8.570
12027DOPC   C4A 2876   5.117   7.150   8.090
12027DOPC   C1B 2877   4.367   6.600   8.260
12027DOPC   D2B 2878   4.767   6.800   8.010
12027DOPC   C3B 2879   5.087   6.900   7.680
12027DOPC   C4B 2880   5.447   6.890   7.330
12028DOPC   NC3 2881  22.640   2.730   8.000
12028DOPC   PO4 2882  22.470   3.070   8.100
12028DOPC   GL1 2883  22.290   3.390   8.020
12028DOPC   GL2 2884  22.190   3.170   7.750
12028DOPC   C1A 2885  22.010   3.650   7.760
12028DOPC   D2A 2886  21.640   3.700   7.480
12028DOPC   C3A 2887  21.230   3.900   7.400
12028DOPC   C4A 2888  20.807   4.120   7.390
12028DOPC   C1B 2889  21.810   3.090   7.500
12028DOPC   D2B 2890  21.510   3.290   7.120
12028DOPC   C3B 2891  21.290   3.610   7.020
12028DOPC   C4B 2892  21.250   4.140   6.930
12029DOPC   NC3 2893  20.577   7.180   9.970
12029DOPC   PO4 2894  20.357   7.460  10.230
12029DOPC   GL1 2895  20.197   7.670   9.850
12029DOPC   GL2 2896  20.367   7.540   9.680
12029DOPC   C1A 2897  19.777   7.510   9.650
12029DOPC   D2A 2898  19.307   7.630   9.570
12029DOPC   C3A 2899  19.117   7.210   9.650
12029DOPC   C4A 2900  18.837   6.850   9.520
12029DOPC   C1B 2901  20.217   7.760   9.340
12029DOPC   D2B 2902  19.997   7.840   8.980
12029DOPC   C3B 2903  19.707   7.510   9.050
12029DOPC   C4B 2904  19.457   7.170   9.230
12030DOPC   NC3 2905  11.837   5.450  16.240
12030DOPC   PO4 2906  12.067   5.680  16.020
12030DOPC   GL1 2907  11.997   5.770  15.630
12030DOPC   GL2 2908  11.887   6.030  15.630
12030DOPC   C1A 2909  11.867   5.740  15.230
12030DOPC   D2A 2910  11.457   5.830  14.960
12030DOPC   C3A 2911  11.397   6.280  14.830
12030DOPC   C4A 2912  11.427   6.780  14.720
12030DOPC   C1B 2913  12.077   6.250  15.370
12030DOPC   D2B 2914  12.287   6.450  14.890
12030DOPC   C3B 2915  12.287   6.510  14.380
12030DOPC   C4B 2916  12.357   6.500  13.890
12031DOPC   NC3 2917  13.877   0.360  15.710
12031DOPC   PO4 2918  13.957   0.750  15.620
12031DOPC   GL1 2919  14.047   0.850  15.190
12031DOPC   GL2 2920  13.957   0.570  15.150
12031DOPC   C1A 2921  14.217   0.900  14.830
12031DOPC   D2A 2922  14.147   1.120  14.370
12031DOPC   C3A 2923  13.987   1.030  13.920
12031DOPC   C4A 2924  13.767   0.960  13.480
12031DOPC   C1B 2925  13.597   0.630  14.930
12031DOPC   D2B 2926  13.207   0.900  14.680
12031DOPC   C3B 2927  13.137   0.620  14.260
12031DOPC   C4B 2928  13.177   0.460  13.810
12032DOPC   NC3 2929  15.707   7.180  15.320
12032DOPC   PO4 2930  15.547   7.530  15.200
12032DOPC   GL1 2931  15.407   7.550  14.750
12032DOPC   GL2 2932  15.107   7.590  14.910
12032DOPC   C1A 2933  15.287   7.260  14.440
12032DOPC   D2A 2934  15.467   7.010  14.040
12032DOPC   C3A 2935  15.337   7.180  13.630
12032DOPC   C4A 2936  15.187   7.410  13.220
12032DOPC   C1B 2937  14.827   7.460  14.550
12032DOPC   D2B 2938  14.547   7.420  14.150
12032DOPC   C3B 2939  14.127   7.550  13.950
12032DOPC   C4B 2940  13.647   7.640  13.920
12033DOPC   NC3 2941  23.090   2.530   6.900
12033DOPC   PO4 2942  23.420   2.330   6.980
12033DOPC   GL1 2943  23.280   2.180   6.640
12033DOPC   GL2 2944  23.260   2.430   6.500
12033DOPC   C1A 2945  22.860   2.120   6.500
12033DOPC   D2A 2946  22.450   2.070   6.450
12033DOPC   C3A 2947  22.430   1.730   6.160
12033DOPC   C4A 2948  22.490   1.560   5.710
12033DOPC   C1B 2949  23.600   2.500   6.300
12033DOPC   D2B 2950  24.040   2.730   6.280
12033DOPC   C3B 2951  24.370   3.010   6.050
12033DOPC   C4B 2952  24.680   3.240   5.740
12034DOPC   NC3 2953   4.177   0.290   9.440
12034DOPC   PO4 2954   4.297   0.670   9.480
12034DOPC   GL1 2955   4.657   0.800   9.250
12034DOPC   GL2 2956   4.717   0.580   9.350
12034DOPC   C1A 2957   4.877   0.890   8.930
12034DOPC   D2A 2958   5.247   1.040   8.620
12034DOPC   C3A 2959   5.377   1.510   8.630
12034DOPC   C4A 2960   5.557   1.960   8.680
12034DOPC   C1B 2961   5.047   0.440   9.140
12034DOPC   D2B 2962   5.397   0.600   8.780
12034DOPC   C3B 2963   5.657   0.770   8.440
12034DOPC   C4B 2964   6.057   1.060   8.400
12035DOPC   NC3 2965  19.627   2.760  12.210
12035DOPC   PO4 2966  19.477   2.400  12.220
12035DOPC   GL1 2967  19.087   2.380  11.990
12035DOPC   GL2 2968  18.957   2.250  12.200
12035DOPC   C1A 2969  18.817   2.620  11.800
12035DOPC   D2A 2970  18.517   2.790  11.440
12035DOPC   C3A 2971  17.997   2.710  11.350
12035DOPC   C4A 2972  17.477   2.560  11.460
12035DOPC   C1B 2973  18.547   2.280  12.230
12035DOPC   D2B 2974  18.077   2.450  12.210
12035DOPC   C3B 2975  17.657   2.300  12.180
12035DOPC   C4B 2976  17.267   2.310  11.900
12036DOPC   NC3 2977  16.427   3.860  14.680
12036DOPC   PO4 2978  16.177   4.170  14.720
12036DOPC   GL1 2979  15.767   4.130  14.780
12036DOPC   GL2 2980  15.747   4.220  14.470
12036DOPC   C1A 2981  15.427   3.930  14.670
12036DOPC   D2A 2982  15.027   3.810  14.450
12036DOPC   C3A 2983  14.647   3.960  14.210
12036DOPC   C4A 2984  14.297   4.000  13.950
12036DOPC   C1B 2985  15.367   4.270  14.240
12036DOPC   D2B 2986  14.997   4.230  13.900
12036DOPC   C3B 2987  15.067   4.000  13.490
12036DOPC   C4B 2988  15.047   3.670  13.070
12037DOPC   NC3 2989  16.237   1.650  14.630
12037DOPC   PO4 2990  15.957   1.650  14.850
12037DOPC   GL1 2991  15.827   1.580  14.500
12037DOPC   GL2 2992  15.587   1.710  14.500
12037DOPC   C1A 2993  15.797   1.240  14.090
12037DOPC   D2A 2994  15.717   1.110  13.640
12037DOPC   C3A 2995  15.537   1.140  13.210
12037DOPC   C4A 2996  15.287   1.220  12.760
12037DOPC   C1B 2997  15.757   1.960  14.220
12037DOPC   D2B 2998  15.517   2.200  13.890
12037DOPC   C3B 2999  15.067   2.060  13.850
12037DOPC   C4B 3000  14.817   2.060  13.410
12038DOPC   NC3 3001  15.797   5.820  15.290
12038DOPC   PO4 3002  15.867   5.640  14.980
12038DOPC   GL1 3003  15.887   5.630  14.490
12038DOPC   GL2 3004  15.727   5.840  14.500
12038DOPC   C1A 3005  15.927   5.470  14.090
12038DOPC   D2A 3006  15.927   5.410  13.580
12038DOPC   C3A 3007  15.537   5.440  13.340
12038DOPC   C4A 3008  15.067   5.490  13.120
12038DOPC   C1B 3009  15.667   6.000  14.120
12038DOPC   D2B 3010  15.637   5.850  13.620
12038DOPC   C3B 3011  15.387   5.880  13.180
12038DOPC   C4B 3012  15.057   5.890  12.800
12039DOPC   NC3 3013  21.430   5.690   9.480
12039DOPC   PO4 3014  21.300   5.530   9.100
12039DOPC   GL1 3015  20.867   5.440   9.120
12039DOPC   GL2 3016  20.827   5.720   9.100
12039DOPC   C1A 3017  20.667   5.390   8.720
12039DOPC   D2A 3018  20.297   5.100   8.530
12039DOPC   C3A 3019  19.857   4.950   8.320
12039DOPC   C4A 3020  19.327   5.080   8.170
12039DOPC   C1B 3021  20.697   5.890   8.730
12039DOPC   D2B 3022  20.567   6.160   8.270
12039DOPC   C3B 3023  20.067   6.140   8.130
12039DOPC   C4B 3024  19.757   6.410   7.900
12040DOPC   NC3 3025  18.177   1.670  13.010
12040DOPC   PO4 3026  18.107   1.330  13.200
12040DOPC   GL1 3027  18.047   1.010  12.970
12040DOPC   GL2 3028  18.017   1.270  12.740
12040DOPC   C1A 3029  17.757   0.740  12.770
12040DOPC   D2A 3030  17.417   0.550  12.540
12040DOPC   C3A 3031  17.127   0.300  12.340
12040DOPC   C4A 3032  16.907   7.710  12.290
12040DOPC   C1B 3033  17.817   1.070  12.390
12040DOPC   D2B 3034  17.377   0.920  12.210
12040DOPC   C3B 3035  17.217   1.000  11.770
12040DOPC   C4B 3036  17.117   0.810  11.350
12041DOPC   NC3 3037  20.067   2.080  10.370
12041DOPC   PO4 3038  20.007   2.050  10.780
12041DOPC   GL1 3039  19.647   1.960  10.810
12041DOPC   GL2 3040  19.507   2.190  10.750
12041DOPC   C1A 3041  19.517   1.550  10.780
12041DOPC   D2A 3042  19.257   1.150  10.600
12041DOPC   C3A 3043  18.807   1.090  10.520
12041DOPC   C4A 3044  18.277   0.950  10.440
12041DOPC   C1B 3045  19.267   1.950  10.520
12041DOPC   D2B 3046  18.917   1.750  10.130
12041DOPC   C3B 3047  18.747   1.720   9.640
12041DOPC   C4B 3048  18.527   1.810   9.220
12042DOPC   NC3 3049  21.360   3.970   8.730
12042DOPC   PO4 3050  21.510   3.630   8.580
12042DOPC   GL1 3051  21.340   3.490   8.250
12042DOPC   GL2 3052  21.210   3.260   8.360
12042DOPC   C1A 3053  21.600   3.430   7.890
12042DOPC   D2A 3054  21.220   3.340   7.500
12042DOPC   C3A 3055  21.020   3.180   7.170
12042DOPC   C4A 3056  20.807   3.410   6.770
12042DOPC   C1B 3057  20.870   3.470   8.200
12042DOPC   D2B 3058  20.477   3.700   8.030
12042DOPC   C3B 3059  20.137   3.500   7.730
12042DOPC   C4B 3060  19.767   3.170   7.750
12043DOPC   NC3 3061   8.287   2.290  14.400
12043DOPC   PO4 3062   8.287   2.350  14.010
12043DOPC   GL1 3063   8.547   2.310  13.720
12043DOPC   GL2 3064   8.447   2.150  13.510
12043DOPC   C1A 3065   8.877   2.500  13.460
12043DOPC   D2A 3066   8.787   2.720  13.020
12043DOPC   C3A 3067   9.187   2.720  12.690
12043DOPC   C4A 3068   9.597   2.760  12.440
12043DOPC   C1B 3069   8.687   1.840  13.280
12043DOPC   D2B 3070   8.957   1.360  13.250
12043DOPC   C3B 3071   9.267   1.370  12.890
12043DOPC   C4B 3072   9.677   1.450  12.590
12044DOPC   NC3 3073   7.337   4.870  13.230
12044DOPC   PO4 3074   7.747   4.820  13.340
12044DOPC   GL1 3075   8.027   5.060  13.140
12044DOPC   GL2 3076   7.997   4.900  12.940
12044DOPC   C1A 3077   8.357   5.340  13.180
12044DOPC   D2A 3078   8.807   5.170  13.070
12044DOPC   C3A 3079   8.797   5.500  13.410
12044DOPC   C4A 3080   8.957   5.860  13.590
12044DOPC   C1B 3081   8.357   4.990  12.790
12044DOPC   D2B 3082   8.797   5.030  12.610
12044DOPC   C3B 3083   9.237   5.140  12.570
12044DOPC   C4B 3084   9.687   5.280  12.330
12045DOPC   NC3 3085  21.390   5.090   8.740
12045DOPC   PO4 3086  21.520   4.930   8.430
12045DOPC   GL1 3087  21.330   4.920   8.080
12045DOPC   GL2 3088  21.070   4.740   8.140
12045DOPC   C1A 3089  21.280   4.900   7.620
12045DOPC   D2A 3090  21.100   5.070   7.180
12045DOPC   C3A 3091  20.667   5.210   7.030
12045DOPC   C4A 3092  20.237   5.450   6.930
12045DOPC   C1B 3093  20.847   4.630   7.850
12045DOPC   D2B 3094  20.337   4.610   7.790
12045DOPC   C3B 3095  19.987   4.650   7.460
12045DOPC   C4B 3096  19.857   4.530   7.040
12046DOPC   NC3 3097   4.707   3.940  11.100
12046DOPC   PO4 3098   4.997   4.130  11.320
12046DOPC   GL1 3099   5.397   3.990  11.130
12046DOPC   GL2 3100   5.457   4.290  11.190
12046DOPC   C1A 3101   5.347   3.730  10.750
12046DOPC   D2A 3102   5.417   3.550  10.280
12046DOPC   C3A 3103   5.817   3.730  10.170
12046DOPC   C4A 3104   6.277   3.740  10.100
12046DOPC   C1B 3105   5.807   4.540  11.030
12046DOPC   D2B 3106   6.177   4.370  10.710
12046DOPC   C3B 3107   6.377   4.210  10.290
12046DOPC   C4B 3108   6.567   4.040   9.850
12047DOPC   NC3 3109  18.067   6.120  13.440
12047DOPC   PO4 3110  17.907   6.360  13.710
12047DOPC   GL1 3111  17.697   6.620  13.570
12047DOPC   GL2 3112  17.817   6.840  13.730
12047DOPC   C1A 3113  17.697   6.820  13.160
12047DOPC   D2A 3114  17.677   7.130  12.800
12047DOPC   C3A 3115  17.707   7.240  12.410
12047DOPC   C4A 3116  17.357   7.420  12.200
12047DOPC   C1B 3117  17.697   7.180  13.510
12047DOPC   D2B 3118  17.307   7.100  13.210
12047DOPC   C3B 3119  17.197   6.680  13.070
12047DOPC   C4B 3120  17.147   6.260  12.930
12048DOPC   NC3 3121   7.487   5.990  13.310
12048DOPC   PO4 3122   7.437   5.780  13.000
12048DOPC   GL1 3123   7.637   5.960  12.690
12048DOPC   GL2 3124   7.837   5.760  12.740
12048DOPC   C1A 3125   7.827   6.190  12.420
12048DOPC   D2A 3126   8.237   6.260  12.210
12048DOPC   C3A 3127   8.547   6.580  11.990
12048DOPC   C4A 3128   8.717   6.960  11.700
12048DOPC   C1B 3129   8.047   5.730  12.360
12048DOPC   D2B 3130   8.387   5.840  12.000
12048DOPC   C3B 3131   8.527   5.900  11.560
12048DOPC   C4B 3132   8.687   6.320  11.440
12049DOPC   NC3 3133  19.927   0.550  11.360
12049DOPC   PO4 3134  19.777   0.900  11.530
12049DOPC   GL1 3135  19.497   0.950  11.290
12049DOPC   GL2 3136  19.367   0.690  11.100
12049DOPC   C1A 3137  19.177   1.260  11.170
12049DOPC   D2A 3138  18.887   1.470  10.860
12049DOPC   C3A 3139  18.787   1.800  10.590
12049DOPC   C4A 3140  18.707   2.190  10.260
12049DOPC   C1B 3141  19.027   0.840  10.950
12049DOPC   D2B 3142  18.547   0.910  10.940
12049DOPC   C3B 3143  18.577   1.250  11.280
12049DOPC   C4B 3144  18.437   1.480  11.650
12050DOPC   NC3 3145  23.340   3.250   7.540
12050DOPC   PO4 3146  23.020   3.160   7.300
12050DOPC   GL1 3147  23.060   3.200   6.890
12050DOPC   GL2 3148  22.940   2.970   6.780
12050DOPC   C1A 3149  23.110   3.540   6.600
12050DOPC   D2A 3150  22.990   3.800   6.210
12050DOPC   C3A 3151  22.660   3.750   5.880
12050DOPC   C4A 3152  22.360   3.760   5.420
12050DOPC   C1B 3153  22.860   3.090   6.340
12050DOPC   D2B 3154  22.910   3.130   5.890
12050DOPC   C3B 3155  23.040   3.540   5.690
12050DOPC   C4B 3156  23.000   4.020   5.720
12051DOPC   NC3 3157   1.477   6.080   7.940
12051DOPC   PO4 3158   1.857   5.970   7.910
12051DOPC   GL1 3159   2.007   5.860   7.520
12051DOPC   GL2 3160   2.287   5.730   7.650
12051DOPC   C1A 3161   1.897   5.890   7.090
12051DOPC   D2A 3162   1.707   6.040   6.660
12051DOPC   C3A 3163   1.317   5.980   6.410
12051DOPC   C4A 3164   1.007   6.110   6.070
12051DOPC   C1B 3165   2.667   5.810   7.480
12051DOPC   D2B 3166   3.077   6.100   7.540
12051DOPC   C3B 3167   3.347   6.380   7.320
12051DOPC   C4B 3168   3.617   6.520   6.880
12052DOPC   NC3 3169  21.190   2.890   9.240
12052DOPC   PO4 3170  20.867   3.130   9.300
12052DOPC   GL1 3171  20.487   3.230   9.010
12052DOPC   GL2 3172  20.497   2.990   9.000
12052DOPC   C1A 3173  20.147   3.490   8.860
12052DOPC   D2A 3174  19.707   3.730   8.760
12052DOPC   C3A 3175  19.597   3.780   8.340
12052DOPC   C4A 3176  19.357   3.550   7.970
12052DOPC   C1B 3177  20.087   2.980   9.100
12052DOPC   D2B 3178  19.727   3.190   8.840
12052DOPC   C3B 3179  19.267   3.410   8.950
12052DOPC   C4B 3180  18.827   3.680   8.920
12053DOPC   NC3 3181   5.497   7.590  10.610
12053DOPC   PO4 3182   5.097   7.510  10.640
12053DOPC   GL1 3183   5.277   7.120  10.370
12053DOPC   GL2 3184   5.297   7.350  10.240
12053DOPC   C1A 3185   5.567   6.710  10.260
12053DOPC   D2A 3186   5.977   6.540  10.090
12053DOPC   C3A 3187   6.327   6.520   9.780
12053DOPC   C4A 3188   6.817   6.450   9.850
12053DOPC   C1B 3189   5.557   7.630  10.130
12053DOPC   D2B 3190   5.917   7.850   9.900
12053DOPC   C3B 3191   6.127   7.770   9.480
12053DOPC   C4B 3192   6.157   7.610   8.990
12054DOPC   NC3 3193   2.577   4.420   8.350
12054DOPC   PO4 3194   2.457   4.700   8.080
12054DOPC   GL1 3195   2.527   4.730   7.670
12054DOPC   GL2 3196   2.707   4.970   7.690
12054DOPC   C1A 3197   2.297   4.950   7.350
12054DOPC   D2A 3198   2.097   5.080   6.860
12054DOPC   C3A 3199   2.297   5.100   6.430
12054DOPC   C4A 3200   2.487   5.180   6.000
12054DOPC   C1B 3201   2.727   5.310   7.380
12054DOPC   D2B 3202   2.947   5.700   7.070
12054DOPC   C3B 3203   3.087   6.130   6.940
12054DOPC   C4B 3204   3.047   6.600   6.860
12055DOPC   NC3 3205   5.197   3.060  11.850
12055DOPC   PO4 3206   5.197   3.170  11.480
12055DOPC   GL1 3207   5.467   3.440  11.250
12055DOPC   GL2 3208   5.477   3.330  11.040
12055DOPC   C1A 3209   5.807   3.650  11.260
12055DOPC   D2A 3210   6.157   4.000  11.090
12055DOPC   C3A 3211   6.357   3.900  10.680
12055DOPC   C4A 3212   6.717   3.840  10.340
12055DOPC   C1B 3213   5.857   3.330  10.870
12055DOPC   D2B 3214   6.367   3.450  10.990
12055DOPC   C3B 3215   6.527   3.360  10.530
12055DOPC   C4B 3216   6.647   3.370  10.080
12056DOPC   NC3 3217   2.417   4.260   7.530
12056DOPC   PO4 3218   2.427   4.130   7.890
12056DOPC   GL1 3219   2.747   4.340   7.880
12056DOPC   GL2 3220   2.927   4.230   8.030
12056DOPC   C1A 3221   2.917   4.600   7.600
12056DOPC   D2A 3222   3.047   4.890   7.230
12056DOPC   C3A 3223   3.077   5.240   6.910
12056DOPC   C4A 3224   3.137   5.630   6.600
12056DOPC   C1B 3225   3.267   4.300   7.800
12056DOPC   D2B 3226   3.777   4.320   7.600
12056DOPC   C3B 3227   4.177   4.170   7.530
12056DOPC   C4B 3228   4.627   4.000   7.570
12057DOPC   NC3 3229   2.367   3.310   8.040
12057DOPC   PO4 3230   2.167   3.090   7.790
12057DOPC   GL1 3231   2.497   3.070   7.540
12057DOPC   GL2 3232   2.297   2.880   7.380
12057DOPC   C1A 3233   2.627   3.100   7.130
12057DOPC   D2A 3234   2.647   2.920   6.620
12057DOPC   C3A 3235   2.317   2.910   6.310
12057DOPC   C4A 3236   2.067   3.230   5.930
12057DOPC   C1B 3237   2.497   2.590   7.080
12057DOPC   D2B 3238   2.767   2.290   6.810
12057DOPC   C3B 3239   3.117   1.980   6.770
12057DOPC   C4B 3240   3.567   1.730   6.670
12058DOPC   NC3 3241   0.277   5.590   7.540
12058DOPC   PO4 3242   0.547   5.750   7.270
12058DOPC   GL1 3243   0.557   5.630   6.830
12058DOPC   GL2 3244   0.407   5.860   6.860
12058DOPC   C1A 3245   0.907   5.680   6.550
12058DOPC   D2A 3246   1.337   5.420   6.430
12058DOPC   C3A 3247   1.627   5.670   6.180
12058DOPC   C4A 3248   1.867   5.780   5.790
12058DOPC   C1B 3249   0.457   6.160   6.550
12058DOPC   D2B 3250   0.337   6.380   6.180
12058DOPC   C3B 3251   0.017   6.470   5.870
12058DOPC   C4B 3252  24.800   6.470   5.460
12059DOPC   NC3 3253   8.107   5.090  14.290
12059DOPC   PO4 3254   8.217   5.210  13.920
12059DOPC   GL1 3255   8.557   5.150  13.730
12059DOPC   GL2 3256   8.367   4.900  13.600
12059DOPC   C1A 3257   8.937   5.000  13.630
12059DOPC   D2A 3258   9.367   4.850  13.510
12059DOPC   C3A 3259   9.407   4.510  13.220
12059DOPC   C4A 3260   9.637   4.180  12.940
12059DOPC   C1B 3261   8.437   4.730  13.220
12059DOPC   D2B 3262   8.657   4.620  12.810
12059DOPC   C3B 3263   8.787   4.510  12.390
12059DOPC   C4B 3264   9.167   4.260  12.100
12060DOPC   NC3 3265  15.637   4.610  15.300
12060DOPC   PO4 3266  15.217   4.650  15.350
12060DOPC   GL1 3267  15.217   4.930  15.080
12060DOPC   GL2 3268  15.447   4.830  14.950
12060DOPC   C1A 3269  14.837   4.940  14.820
12060DOPC   D2A 3270  14.447   4.720  14.630
12060DOPC   C3A 3271  14.197   4.580  14.240
12060DOPC   C4A 3272  14.127   4.840  13.800
12060DOPC   C1B 3273  15.247   4.810  14.570
12060DOPC   D2B 3274  14.927   4.850  14.200
12060DOPC   C3B 3275  14.477   5.050  14.120
12060DOPC   C4B 3276  14.057   5.300  14.080
12061DOPC   NC3 3277   4.657   6.000  10.490
12061DOPC   PO4 3278   4.647   5.810  10.150
12061DOPC   GL1 3279   4.987   5.640   9.870
12061DOPC   GL2 3280   4.857   5.830   9.720
12061DOPC   C1A 3281   5.367   5.840   9.910
12061DOPC   D2A 3282   5.567   6.250   9.730
12061DOPC   C3A 3283   5.877   6.340   9.450
12061DOPC   C4A 3284   6.297   6.410   9.210
12061DOPC   C1B 3285   5.127   6.100   9.580
12061DOPC   D2B 3286   5.477   6.220   9.240
12061DOPC   C3B 3287   5.717   6.280   8.830
12061DOPC   C4B 3288   5.857   6.490   8.420
12062DOPC   NC3 3289  14.967   0.300  14.890
12062DOPC   PO4 3290  14.677   0.040  14.960
12062DOPC   GL1 3291  14.487   7.800  14.640
12062DOPC   GL2 3292  14.567   0.170  14.520
12062DOPC   C1A 3293  14.177   7.500  14.460
12062DOPC   D2A 3294  13.827   7.230  14.310
12062DOPC   C3A 3295  13.357   7.330  14.160
12062DOPC   C4A 3296  12.927   7.250  14.030
12062DOPC   C1B 3297  14.407   0.440  14.260
12062DOPC   D2B 3298  14.007   0.580  14.030
12062DOPC   C3B 3299  13.677   0.490  13.800
12062DOPC   C4B 3300  13.467   0.140  13.570
12063DOPC   NC3 3301   1.187   3.940   7.040
12063DOPC   PO4 3302   1.457   3.940   7.330
12063DOPC   GL1 3303   1.847   3.830   7.120
12063DOPC   GL2 3304   1.647   3.770   6.930
12063DOPC   C1A 3305   2.207   4.100   6.950
12063DOPC   D2A 3306   2.577   4.360   7.060
12063DOPC   C3A 3307   2.997   4.410   7.000
12063DOPC   C4A 3308   3.407   4.380   7.210
12063DOPC   C1B 3309   1.967   3.760   6.680
12063DOPC   D2B 3310   2.367   3.890   6.470
12063DOPC   C3B 3311   2.787   3.890   6.180
12063DOPC   C4B 3312   3.247   3.870   5.950
12064DOPC   NC3 3313  24.930   5.170   7.070
12064DOPC   PO4 3314   0.057   4.910   7.170
12064DOPC   GL1 3315  24.980   4.620   6.920
12064DOPC   GL2 3316   0.007   4.430   6.850
12064DOPC   C1A 3317  25.090   4.920   6.590
12064DOPC   D2A 3318  25.000   4.920   6.090
12064DOPC   C3A 3319   0.057   5.110   5.730
12064DOPC   C4A 3320   0.377   5.240   5.310
12064DOPC   C1B 3321   0.167   4.490   6.420
12064DOPC   D2B 3322   0.357   4.780   6.030
12064DOPC   C3B 3323   0.537   4.860   5.570
12064DOPC   C4B 3324   0.847   4.920   5.150
12065DOPC   NC3 3325   3.027   6.310   7.980
12065DOPC   PO4 3326   3.227   6.210   8.280
12065DOPC   GL1 3327   3.517   6.340   8.040
12065DOPC   GL2 3328   3.747   6.150   8.220
12065DOPC   C1A 3329   3.577   6.610   7.730
12065DOPC   D2A 3330   3.667   6.800   7.290
12065DOPC   C3A 3331   3.337   7.020   7.040
12065DOPC   C4A 3332   3.167   7.360   6.640
12065DOPC   C1B 3333   4.197   6.140   8.040
12065DOPC   D2B 3334   4.637   6.290   8.030
12065DOPC   C3B 3335   4.957   5.960   8.070
12065DOPC   C4B 3336   5.287   5.750   8.360
12066DOPC   NC3 3337  10.907   0.980  15.540
12066DOPC   PO4 3338  10.667   0.780  15.310
12066DOPC   GL1 3339  10.457   0.790  14.950
12066DOPC   GL2 3340  10.447   1.110  15.000
12066DOPC   C1A 3341  10.237   0.860  14.570
12066DOPC   D2A 3342  10.037   0.740  14.090
12066DOPC   C3A 3343  10.167   0.620  13.690
12066DOPC   C4A 3344  10.437   0.710  13.280
12066DOPC   C1B 3345  10.407   1.330  14.640
12066DOPC   D2B 3346  10.147   1.730  14.450
12066DOPC   C3B 3347  10.077   1.990  14.100
12066DOPC   C4B 3348  10.297   2.130  13.640
12067DOPC   NC3 3349   2.387   1.710   8.720
12067DOPC   PO4 3350   2.647   1.980   8.890
12067DOPC   GL1 3351   2.997   2.080   8.690
12067DOPC   GL2 3352   3.127   1.880   8.790
12067DOPC   C1A 3353   3.077   2.110   8.260
12067DOPC   D2A 3354   3.117   2.250   7.810
12067DOPC   C3A 3355   3.367   2.440   7.450
12067DOPC   C4A 3356   3.867   2.440   7.350
12067DOPC   C1B 3357   3.477   1.750   8.540
12067DOPC   D2B 3358   3.627   1.540   8.080
12067DOPC   C3B 3359   4.037   1.340   8.140
12067DOPC   C4B 3360   4.437   1.100   8.110
12068DOPC   NC3 3361  15.347   5.120  15.470
12068DOPC   PO4 3362  15.637   5.160  15.200
12068DOPC   GL1 3363  15.487   5.300  14.800
12068DOPC   GL2 3364  15.217   5.280  14.890
12068DOPC   C1A 3365  15.497   5.280  14.370
12068DOPC   D2A 3366  15.517   5.310  13.860
12068DOPC   C3A 3367  15.207   5.140  13.520
12068DOPC   C4A 3368  14.887   5.070  13.130
12068DOPC   C1B 3369  15.017   5.330  14.500
12068DOPC   D2B 3370  14.987   5.330  13.990
12068DOPC   C3B 3371  14.797   5.430  13.590
12068DOPC   C4B 3372  14.567   5.400  13.180
12069DOPC   NC3 3373  19.577   1.600  12.710
12069DOPC   PO4 3374  19.407   1.360  12.410
12069DOPC   GL1 3375  18.997   1.530  12.300
12069DOPC   GL2 3376  18.887   1.270  12.410
12069DOPC   C1A 3377  18.687   1.740  12.020
12069DOPC   D2A 3378  18.687   2.120  11.700
12069DOPC   C3A 3379  18.307   2.280  11.470
12069DOPC   C4A 3380  17.997   2.260  11.040
12069DOPC   C1B 3381  18.567   1.170  12.090
12069DOPC   D2B 3382  18.227   1.050  11.730
12069DOPC   C3B 3383  17.887   0.890  11.460
12069DOPC   C4B 3384  17.547   1.150  11.270
12070DOPC   NC3 3385   8.887   1.310  14.700
12070DOPC   PO4 3386   9.197   1.540  14.600
12070DOPC   GL1 3387   9.297   1.540  14.190
12070DOPC   GL2 3388   9.477   1.430  14.240
12070DOPC   C1A 3389   9.397   1.930  13.930
12070DOPC   D2A 3390   9.197   2.070  13.510
12070DOPC   C3A 3391   9.157   1.840  13.090
12070DOPC   C4A 3392   9.337   1.920  12.710
12070DOPC   C1B 3393   9.837   1.540  14.050
12070DOPC   D2B 3394  10.327   1.650  13.890
12070DOPC   C3B 3395  10.557   1.750  13.510
12070DOPC   C4B 3396  10.917   1.930  13.320
12071DOPC   NC3 3397   5.527   5.450  11.420
12071DOPC   PO4 3398   5.757   5.750  11.350
12071DOPC   GL1 3399   6.147   5.760  11.010
12071DOPC   GL2 3400   6.057   6.020  11.130
12071DOPC   C1A 3401   6.397   5.510  10.770
12071DOPC   D2A 3402   6.667   5.690  10.400
12071DOPC   C3A 3403   6.797   6.140  10.390
12071DOPC   C4A 3404   7.047   6.590  10.410
12071DOPC   C1B 3405   6.477   6.100  10.940
12071DOPC   D2B 3406   6.947   6.320  10.850
12071DOPC   C3B 3407   7.287   6.170  10.580
12071DOPC   C4B 3408   7.617   5.910  10.380
12072DOPC   NC3 3409  19.317   5.700  12.030
12072DOPC   PO4 3410  19.617   5.930  11.880
12072DOPC   GL1 3411  19.317   6.150  11.760
12072DOPC   GL2 3412  19.127   6.140  12.010
12072DOPC   C1A 3413  19.217   6.130  11.370
12072DOPC   D2A 3414  19.187   5.810  11.010
12072DOPC   C3A 3415  18.787   5.840  10.770
12072DOPC   C4A 3416  18.387   5.840  10.520
12072DOPC   C1B 3417  18.777   6.420  11.930
12072DOPC   D2B 3418  18.547   6.800  11.810
12072DOPC   C3B 3419  18.087   6.950  11.860
12072DOPC   C4B 3420  17.587   6.920  11.940
12073DOPC   NC3 3421   0.717   0.280   7.850
12073DOPC   PO4 3422   0.587   0.340   7.480
12073DOPC   GL1 3423   0.697   0.180   7.060
12073DOPC   GL2 3424   0.547   0.370   6.900
12073DOPC   C1A 3425   0.997   0.190   6.740
12073DOPC   D2A 3426   0.787   0.070   6.300
12073DOPC   C3A 3427   1.047   7.850   5.900
12073DOPC   C4A 3428   1.167   0.050   5.430
12073DOPC   C1B 3429   0.797   0.690   6.690
12073DOPC   D2B 3430   1.127   0.930   6.310
12073DOPC   C3B 3431   1.377   0.820   5.910
12073DOPC   C4B 3432   1.767   1.130   5.940
12074DOPC   NC3 3433  11.707   4.300  15.400
12074DOPC   PO4 3434  12.017   4.550  15.470
12074DOPC   GL1 3435  12.107   4.670  15.070
12074DOPC   GL2 3436  11.897   4.590  14.910
12074DOPC   C1A 3437  12.427   4.780  14.810
12074DOPC   D2A 3438  12.827   4.750  14.500
12074DOPC   C3A 3439  12.767   4.660  14.050
12074DOPC   C4A 3440  12.557   4.790  13.600
12074DOPC   C1B 3441  11.917   4.730  14.480
12074DOPC   D2B 3442  12.257   4.770  14.100
12074DOPC   C3B 3443  12.207   4.460  13.790
12074DOPC   C4B 3444  12.137   4.410  13.290
12075DOPC   NC3 3445  20.147   0.380  10.610
12075DOPC   PO4 3446  19.817   0.590  10.710
12075DOPC   GL1 3447  19.487   0.530  10.530
12075DOPC   GL2 3448  19.527   0.820  10.450
12075DOPC   C1A 3449  19.137   0.390  10.260
12075DOPC   D2A 3450  18.787   0.260   9.920
12075DOPC   C3A 3451  18.497   7.720  10.010
12075DOPC   C4A 3452  18.247   7.360  10.220
12075DOPC   C1B 3453  19.177   0.890  10.180
12075DOPC   D2B 3454  18.797   1.200   9.990
12075DOPC   C3B 3455  18.467   1.470  10.100
12075DOPC   C4B 3456  18.297   1.850  10.350
12076DOPC   NC3 3457   1.757   4.820   7.210
12076DOPC   PO4 3458   1.377   4.880   7.320
12076DOPC   GL1 3459   0.997   4.950   7.140
12076DOPC   GL2 3460   1.047   4.730   6.990
12076DOPC   C1A 3461   0.917   5.190   6.690
12076DOPC   D2A 3462   0.847   5.350   6.180
12076DOPC   C3A 3463   1.187   5.490   5.900
12076DOPC   C4A 3464   1.397   5.560   5.460
12076DOPC   C1B 3465   1.227   4.810   6.600
12076DOPC   D2B 3466   1.387   4.990   6.100
12076DOPC   C3B 3467   1.617   5.100   5.730
12076DOPC   C4B 3468   1.867   5.380   5.510
12077DOPC   NC3 3469   2.297   7.740   8.070
12077DOPC   PO4 3470   1.977   7.510   8.010
12077DOPC   GL1 3471   2.087   7.580   7.680
12077DOPC   GL2 3472   1.787   7.640   7.470
12077DOPC   C1A 3473   2.417   7.420   7.360
12077DOPC   D2A 3474   2.797   7.390   6.990
12077DOPC   C3A 3475   2.607   7.340   6.510
12077DOPC   C4A 3476   2.437   7.520   6.020
12077DOPC   C1B 3477   1.837   7.740   7.040
12077DOPC   D2B 3478   2.147   0.080   6.670
12077DOPC   C3B 3479   2.437   0.200   6.330
12077DOPC   C4B 3480   2.937   0.310   6.010
12078DOPC   NC3 3481   6.827   1.960  12.770
12078DOPC   PO4 3482   6.817   2.270  12.570
12078DOPC   GL1 3483   7.017   1.980  12.300
12078DOPC   GL2 3484   7.167   1.880  12.440
12078DOPC   C1A 3485   7.197   1.870  11.910
12078DOPC   D2A 3486   7.327   1.910  11.500
12078DOPC   C3A 3487   7.627   2.100  11.210
12078DOPC   C4A 3488   7.767   2.490  10.960
12078DOPC   C1B 3489   7.347   1.490  12.280
12078DOPC   D2B 3490   7.687   1.340  11.990
12078DOPC   C3B 3491   7.837   1.120  11.630
12078DOPC   C4B 3492   8.117   0.890  11.320
12079DOPC   NC3 3493  22.920   4.360   7.110
12079DOPC   PO4 3494  23.310   4.520   7.080
12079DOPC   GL1 3495  23.330   4.580   6.610
12079DOPC   GL2 3496  23.420   4.800   6.690
12079DOPC   C1A 3497  23.510   4.680   6.210
12079DOPC   D2A 3498  23.620   4.860   5.760
12079DOPC   C3A 3499  23.890   5.110   5.480
12079DOPC   C4A 3500  23.970   5.390   5.080
12079DOPC   C1B 3501  23.120   4.930   6.350
12079DOPC   D2B 3502  23.120   5.050   5.840
12079DOPC   C3B 3503  22.820   4.940   5.510
12079DOPC   C4B 3504  22.810   4.600   5.090
12080DOPC   NC3 3505   4.557   0.200   9.780
12080DOPC   PO4 3506   4.457   7.760   9.570
12080DOPC   GL1 3507   4.797   7.590   9.480
12080DOPC   GL2 3508   4.687   7.320   9.410
12080DOPC   C1A 3509   5.157   7.800   9.240
12080DOPC   D2A 3510   5.297   0.120   8.780
12080DOPC   C3A 3511   5.747   0.220   8.650
12080DOPC   C4A 3512   6.217   0.210   8.850
12080DOPC   C1B 3513   4.667   7.080   8.990
12080DOPC   D2B 3514   4.607   6.960   8.500
12080DOPC   C3B 3515   4.897   6.620   8.430
12080DOPC   C4B 3516   5.297   6.280   8.490
12081DOPC   NC3 3517  19.497   1.290  11.670
12081DOPC   PO4 3518  19.577   1.650  11.580
12081DOPC   GL1 3519  19.217   1.830  11.330
12081DOPC   GL2 3520  19.037   1.750  11.570
12081DOPC   C1A 3521  19.127   2.060  10.960
12081DOPC   D2A 3522  19.247   2.570  10.770
12081DOPC   C3A 3523  18.997   2.870  10.430
12081DOPC   C4A 3524  18.707   3.340  10.340
12081DOPC   C1B 3525  18.727   1.760  11.240
12081DOPC   D2B 3526  18.377   1.900  10.850
12081DOPC   C3B 3527  17.937   1.810  10.700
12081DOPC   C4B 3528  17.527   1.660  10.410
12082DOPC   NC3 3529  11.247   0.120  15.820
12082DOPC   PO4 3530  10.967   7.800  15.660
12082DOPC   GL1 3531  11.107   7.640  15.350
12082DOPC   GL2 3532  11.317   7.800  15.350
12082DOPC   C1A 3533  11.137   7.370  15.010
12082DOPC   D2A 3534  11.527   7.250  14.690
12082DOPC   C3A 3535  11.737   7.010  14.340
12082DOPC   C4A 3536  11.727   7.090  13.830
12082DOPC   C1B 3537  11.307   0.020  14.920
12082DOPC   D2B 3538  11.307   0.140  14.440
12082DOPC   C3B 3539  11.387   0.110  13.990
12082DOPC   C4B 3540  11.417   0.390  13.600
12083DOPC   NC3 3541  23.740   2.690   6.800
12083DOPC   PO4 3542  24.120   2.680   6.870
12083DOPC   GL1 3543  24.260   2.440   6.510
12083DOPC   GL2 3544  24.540   2.640   6.530
12083DOPC   C1A 3545  24.070   2.150   6.270
12083DOPC   D2A 3546  23.850   1.880   5.900
12083DOPC   C3A 3547  23.950   1.800   5.460
12083DOPC   C4A 3548  24.020   1.800   5.000
12083DOPC   C1B 3549  24.740   2.850   6.250
12083DOPC   D2B 3550   0.037   2.840   6.070
12083DOPC   C3B 3551   0.237   2.800   5.620
12083DOPC   C4B 3552   0.497   2.740   5.270
12084DOPC   NC3 3553  21.940   7.840   8.420
12084DOPC   PO4 3554  22.060   0.160   8.090
12084DOPC   GL1 3555  21.880   0.060   7.750
12084DOPC   GL2 3556  22.090   0.240   7.530
12084DOPC   C1A 3557  21.590   0.300   7.540
12084DOPC   D2A 3558  21.500   0.620   7.230
12084DOPC   C3A 3559  21.520   0.430   6.830
12084DOPC   C4A 3560  21.300   0.300   6.460
12084DOPC   C1B 3561  22.040   0.420   7.120
12084DOPC   D2B 3562  22.000   0.500   6.630
12084DOPC   C3B 3563  22.250   0.220   6.440
12084DOPC   C4B 3564  22.370   7.620   6.280
12085DOPC   NC3 3565  18.257   2.860  14.150
12085DOPC   PO4 3566  17.907   3.010  14.070
12085DOPC   GL1 3567  17.647   3.300  13.780
12085DOPC   GL2 3568  17.977   3.320  13.720
12085DOPC   C1A 3569  17.227   3.260  13.580
12085DOPC   D2A 3570  16.867   3.420  13.300
12085DOPC   C3A 3571  16.647   3.700  12.920
12085DOPC   C4A 3572  16.607   4.120  12.630
12085DOPC   C1B 3573  17.677   3.350  13.310
12085DOPC   D2B 3574  17.337   3.600  13.080
12085DOPC   C3B 3575  17.257   3.440  12.640
12085DOPC   C4B 3576  16.797   3.370  12.570
12086DOPC   NC3 3577  22.710   7.150   7.770
12086DOPC   PO4 3578  22.320   7.140   7.790
12086DOPC   GL1 3579  22.180   7.260   7.430
12086DOPC   GL2 3580  22.020   7.030   7.350
12086DOPC   C1A 3581  22.020   7.620   7.370
12086DOPC   D2A 3582  21.740   0.050   7.080
12086DOPC   C3A 3583  21.300   7.830   6.860
12086DOPC   C4A 3584  20.990   7.770   6.540
12086DOPC   C1B 3585  21.630   7.170   7.440
12086DOPC   D2B 3586  21.300   7.320   7.700
12086DOPC   C3B 3587  20.797   7.310   7.670
12086DOPC   C4B 3588  20.417   7.170   7.510
12087DOPC   NC3 3589   5.227   5.250  10.570
12087DOPC   PO4 3590   5.147   5.080  10.950
12087DOPC   GL1 3591   5.567   4.890  10.920
12087DOPC   GL2 3592   5.617   5.190  11.030
12087DOPC   C1A 3593   5.837   4.750  10.530
12087DOPC   D2A 3594   6.277   4.710  10.340
12087DOPC   C3A 3595   6.407   4.610   9.910
12087DOPC   C4A 3596   6.657   4.420   9.560
12087DOPC   C1B 3597   5.887   5.400  10.800
12087DOPC   D2B 3598   6.127   5.810  10.480
12087DOPC   C3B 3599   6.307   5.580  10.120
12087DOPC   C4B 3600   6.487   5.500   9.720
12088DOPC   NC3 3601   3.297   6.570   4.030
12088DOPC   PO4 3602   3.127   6.890   3.930
12088DOPC   GL1 3603   2.817   6.980   4.020
12088DOPC   GL2 3604   2.687   6.740   4.170
12088DOPC   C1A 3605   2.687   7.400   4.260
12088DOPC   D2A 3606   2.737   7.830   4.560
12088DOPC   C3A 3607   2.357   0.090   4.850
12088DOPC   C4A 3608   2.167   0.050   5.290
12088DOPC   C1B 3609   2.747   6.690   4.580
12088DOPC   D2B 3610   2.817   6.600   5.080
12088DOPC   C3B 3611   2.457   6.730   5.420
12088DOPC   C4B 3612   2.057   6.940   5.600
12089DOPC   NC3 3613   0.807   3.590   2.690
12089DOPC   PO4 3614   0.487   3.490   2.910
12089DOPC   GL1 3615   0.307   3.520   3.300
12089DOPC   GL2 3616   0.357   3.320   3.450
12089DOPC   C1A 3617  25.070   3.750   3.510
12089DOPC   D2A 3618  24.550   3.750   3.520
12089DOPC   C3A 3619  24.160   3.780   3.810
12089DOPC   C4A 3620  23.750   4.030   3.960
12089DOPC   C1B 3621   0.257   3.220   3.860
12089DOPC   D2B 3622  24.950   2.970   3.990
12089DOPC   C3B 3623  24.920   2.920   4.450
12089DOPC   C4B 3624  25.130   3.050   4.880
12090DOPC   NC3 3625   9.397   6.030   9.870
12090DOPC   PO4 3626   9.457   5.730  10.080
12090DOPC   GL1 3627   9.207   5.440   9.970
12090DOPC   GL2 3628   9.397   5.230  10.160
12090DOPC   C1A 3629   8.797   5.340  10.100
12090DOPC   D2A 3630   8.427   5.390  10.380
12090DOPC   C3A 3631   8.047   5.210  10.480
12090DOPC   C4A 3632   7.897   4.780  10.640
12090DOPC   C1B 3633   9.117   5.320  10.480
12090DOPC   D2B 3634   8.737   5.270  10.830
12090DOPC   C3B 3635   8.287   5.360  10.910
12090DOPC   C4B 3636   7.787   5.330  10.950
12091DOPC   NC3 3637   7.787   1.580   7.450
12091DOPC   PO4 3638   7.807   1.310   7.760
12091DOPC   GL1 3639   7.447   1.210   7.990
12091DOPC   GL2 3640   7.447   0.920   7.940
12091DOPC   C1A 3641   7.237   1.550   8.190
12091DOPC   D2A 3642   6.787   1.610   8.320
12091DOPC   C3A 3643   6.417   1.520   8.620
12091DOPC   C4A 3644   6.137   1.360   9.010
12091DOPC   C1B 3645   7.037   0.690   8.010
12091DOPC   D2B 3646   6.577   0.670   8.130
12091DOPC   C3B 3647   6.167   0.510   8.430
12091DOPC   C4B 3648   5.917   0.630   8.940
12092DOPC   NC3 3649   0.267   6.090   3.340
12092DOPC   PO4 3650   0.097   5.710   3.420
12092DOPC   GL1 3651   0.197   5.760   3.820
12092DOPC   GL2 3652   0.097   6.010   3.810
12092DOPC   C1A 3653  25.120   5.570   4.190
12092DOPC   D2A 3654   0.097   5.100   4.260
12092DOPC   C3A 3655   0.037   4.790   4.640
12092DOPC   C4A 3656   0.367   4.770   5.010
12092DOPC   C1B 3657   0.177   6.050   4.250
12092DOPC   D2B 3658   0.297   6.070   4.730
12092DOPC   C3B 3659   0.517   6.180   5.170
12092DOPC   C4B 3660   0.567   6.340   5.670
12093DOPC   NC3 3661  16.987   5.910   7.280
12093DOPC   PO4 3662  17.327   6.070   7.430
12093DOPC   GL1 3663  17.577   6.080   7.750
12093DOPC   GL2 3664  17.537   6.280   7.850
12093DOPC   C1A 3665  18.037   6.090   7.840
12093DOPC   D2A 3666  18.497   6.070   7.840
12093DOPC   C3A 3667  18.867   6.080   8.050
12093DOPC   C4A 3668  19.347   6.030   8.030
12093DOPC   C1B 3669  17.807   6.420   8.190
12093DOPC   D2B 3670  17.967   6.660   8.520
12093DOPC   C3B 3671  18.207   6.780   8.910
12093DOPC   C4B 3672  18.657   6.710   9.020
12094DOPC   NC3 3673   8.257   7.770   7.550
12094DOPC   PO4 3674   8.077   7.690   7.890
12094DOPC   GL1 3675   7.647   7.600   8.080
12094DOPC   GL2 3676   7.587   0.060   8.090
12094DOPC   C1A 3677   7.477   7.190   8.240
12094DOPC   D2A 3678   7.077   7.100   8.490
12094DOPC   C3A 3679   6.827   7.460   8.720
12094DOPC   C4A 3680   6.667   0.010   8.970
12094DOPC   C1B 3681   7.617   0.180   8.440
12094DOPC   D2B 3682   7.777   0.470   8.870
12094DOPC   C3B 3683   7.387   0.290   9.020
12094DOPC   C4B 3684   7.007   0.270   9.230
12095DOPC   NC3 3685   4.507   0.200   4.150
12095DOPC   PO4 3686   4.187   0.430   4.320
12095DOPC   GL1 3687   4.077   0.420   4.810
12095DOPC   GL2 3688   3.867   0.460   4.690
12095DOPC   C1A 3689   4.107   0.370   5.240
12095DOPC   D2A 3690   4.097   0.170   5.680
12095DOPC   C3A 3691   3.877   0.040   6.150
12095DOPC   C4A 3692   3.877   7.780   6.640
12095DOPC   C1B 3693   3.687   0.620   5.110
12095DOPC   D2B 3694   3.657   0.450   5.540
12095DOPC   C3B 3695   3.857   0.600   5.960
12095DOPC   C4B 3696   3.987   0.900   6.370
12096DOPC   NC3 3697  14.347   5.370  11.160
12096DOPC   PO4 3698  14.257   5.710  11.320
12096DOPC   GL1 3699  14.427   5.560  11.760
12096DOPC   GL2 3700  14.617   5.410  11.560
12096DOPC   C1A 3701  14.687   5.530  12.140
12096DOPC   D2A 3702  14.857   5.510  12.590
12096DOPC   C3A 3703  15.287   5.460  12.640
12096DOPC   C4A 3704  15.707   5.350  12.540
12096DOPC   C1B 3705  14.867   5.160  11.840
12096DOPC   D2B 3706  15.117   5.210  12.230
12096DOPC   C3B 3707  15.197   5.640  12.200
12096DOPC   C4B 3708  15.277   6.100  12.360
12097DOPC   NC3 3709  16.817   4.350   7.670
12097DOPC   PO4 3710  16.827   4.370   8.080
12097DOPC   GL1 3711  17.227   4.490   8.230
12097DOPC   GL2 3712  17.197   4.570   8.550
12097DOPC   C1A 3713  17.507   4.470   7.910
12097DOPC   D2A 3714  18.017   4.500   7.830
12097DOPC   C3A 3715  18.317   4.830   8.050
12097DOPC   C4A 3716  18.457   5.220   8.440
12097DOPC   C1B 3717  17.597   4.390   8.710
12097DOPC   D2B 3718  17.977   4.220   8.960
12097DOPC   C3B 3719  18.387   4.270   8.910
12097DOPC   C4B 3720  18.877   4.290   8.900
12098DOPC   NC3 3721   8.867   6.440   8.280
12098DOPC   PO4 3722   8.727   6.060   8.310
12098DOPC   GL1 3723   8.617   5.980   8.770
12098DOPC   GL2 3724   8.357   5.920   8.610
12098DOPC   C1A 3725   8.367   6.220   9.070
12098DOPC   D2A 3726   8.047   6.410   9.400
12098DOPC   C3A 3727   8.037   6.500   9.870
12098DOPC   C4A 3728   7.937   6.650  10.310
12098DOPC   C1B 3729   7.987   5.820   8.780
12098DOPC   D2B 3730   7.567   5.740   8.980
12098DOPC   C3B 3731   7.197   6.020   9.040
12098DOPC   C4B 3732   7.107   6.490   9.240
12099DOPC   NC3 3733  21.420   4.410   4.340
12099DOPC   PO4 3734  21.040   4.290   4.290
12099DOPC   GL1 3735  20.870   4.370   4.590
12099DOPC   GL2 3736  21.070   4.660   4.600
12099DOPC   C1A 3737  20.857   4.510   5.010
12099DOPC   D2A 3738  20.990   4.850   5.360
12099DOPC   C3A 3739  21.240   5.310   5.370
12099DOPC   C4A 3740  21.290   5.760   5.540
12099DOPC   C1B 3741  21.300   4.820   4.910
12099DOPC   D2B 3742  21.540   4.930   5.350
12099DOPC   C3B 3743  21.820   4.700   5.640
12099DOPC   C4B 3744  21.970   4.280   5.770
12100DOPC   NC3 3745   5.667   4.530   5.330
12100DOPC   PO4 3746   5.387   4.300   5.550
12100DOPC   GL1 3747   5.397   4.550   5.900
12100DOPC   GL2 3748   5.507   4.790   5.710
12100DOPC   C1A 3749   5.337   4.750   6.300
12100DOPC   D2A 3750   5.117   4.800   6.740
12100DOPC   C3A 3751   4.977   4.410   6.900
12100DOPC   C4A 3752   4.697   4.000   7.090
12100DOPC   C1B 3753   5.327   5.120   5.840
12100DOPC   D2B 3754   5.197   5.580   5.910
12100DOPC   C3B 3755   4.747   5.720   6.050
12100DOPC   C4B 3756   4.387   6.090   6.090
12101DOPC   NC3 3757  18.807   4.980   5.930
12101DOPC   PO4 3758  18.857   5.300   5.710
12101DOPC   GL1 3759  19.207   5.430   5.740
12101DOPC   GL2 3760  19.177   5.730   5.750
12101DOPC   C1A 3761  19.567   5.390   5.910
12101DOPC   D2A 3762  20.077   5.370   5.980
12101DOPC   C3A 3763  20.527   5.390   6.040
12101DOPC   C4A 3764  21.010   5.350   6.200
12101DOPC   C1B 3765  19.257   5.870   6.210
12101DOPC   D2B 3766  19.487   5.980   6.600
12101DOPC   C3B 3767  19.687   6.210   6.920
12101DOPC   C4B 3768  20.107   6.440   7.020
12102DOPC   NC3 3769   5.887   2.330   5.930
12102DOPC   PO4 3770   5.887   2.670   5.760
12102DOPC   GL1 3771   5.737   3.070   5.940
12102DOPC   GL2 3772   5.967   3.040   6.180
12102DOPC   C1A 3773   5.427   3.170   6.230
12102DOPC   D2A 3774   5.247   3.130   6.650
12102DOPC   C3A 3775   5.027   3.400   6.990
12102DOPC   C4A 3776   4.867   3.600   7.370
12102DOPC   C1B 3777   5.847   2.900   6.600
12102DOPC   D2B 3778   5.427   2.650   6.790
12102DOPC   C3B 3779   5.167   2.260   6.780
12102DOPC   C4B 3780   5.117   1.860   7.130
12103DOPC   NC3 3781  18.567   1.820   5.290
12103DOPC   PO4 3782  18.867   2.060   5.300
12103DOPC   GL1 3783  19.237   2.050   5.490
12103DOPC   GL2 3784  19.247   1.790   5.550
12103DOPC   C1A 3785  19.647   2.010   5.420
12103DOPC   D2A 3786  20.127   1.790   5.320
12103DOPC   C3A 3787  20.497   1.540   5.500
12103DOPC   C4A 3788  20.617   1.430   5.960
12103DOPC   C1B 3789  19.667   1.670   5.780
12103DOPC   D2B 3790  20.157   1.650   5.920
12103DOPC   C3B 3791  20.407   1.910   6.220
12103DOPC   C4B 3792  20.767   2.070   6.460
12104DOPC   NC3 3793  21.730   6.390   3.420
12104DOPC   PO4 3794  21.890   5.990   3.480
12104DOPC   GL1 3795  22.070   5.790   3.760
12104DOPC   GL2 3796  22.280   5.650   3.770
12104DOPC   C1A 3797  22.200   6.050   4.040
12104DOPC   D2A 3798  22.240   6.200   4.500
12104DOPC   C3A 3799  22.480   6.200   4.930
12104DOPC   C4A 3800  22.210   6.000   5.270
12104DOPC   C1B 3801  22.640   5.850   3.900
12104DOPC   D2B 3802  23.030   5.950   4.110
12104DOPC   C3B 3803  23.290   6.140   4.430
12104DOPC   C4B 3804  23.560   6.380   4.750
12105DOPC   NC3 3805  16.107   2.840   9.010
12105DOPC   PO4 3806  16.477   2.710   9.110
12105DOPC   GL1 3807  16.777   2.850   8.960
12105DOPC   GL2 3808  16.917   2.620   9.040
12105DOPC   C1A 3809  16.947   3.100   9.340
12105DOPC   D2A 3810  17.017   3.400   9.780
12105DOPC   C3A 3811  17.277   3.370  10.180
12105DOPC   C4A 3812  17.507   3.000  10.470
12105DOPC   C1B 3813  17.277   2.640   9.250
12105DOPC   D2B 3814  17.467   2.440   9.650
12105DOPC   C3B 3815  17.907   2.470   9.790
12105DOPC   C4B 3816  18.297   2.450  10.030
12106DOPC   NC3 3817   9.637   5.350   9.740
12106DOPC   PO4 3818   9.347   5.320   9.450
12106DOPC   GL1 3819   8.947   5.350   9.650
12106DOPC   GL2 3820   8.997   5.050   9.650
12106DOPC   C1A 3821   8.527   5.430   9.590
12106DOPC   D2A 3822   8.047   5.410   9.690
12106DOPC   C3A 3823   7.987   5.530  10.080
12106DOPC   C4A 3824   8.017   5.750  10.570
12106DOPC   C1B 3825   8.547   5.000   9.810
12106DOPC   D2B 3826   8.127   5.010  10.010
12106DOPC   C3B 3827   8.007   4.610  10.190
12106DOPC   C4B 3828   7.727   4.350  10.520
12107DOPC   NC3 3829  16.757   2.380   8.130
12107DOPC   PO4 3830  16.937   2.110   8.370
12107DOPC   GL1 3831  17.067   2.090   8.740
12107DOPC   GL2 3832  17.207   1.840   8.740
12107DOPC   C1A 3833  17.377   2.250   8.970
12107DOPC   D2A 3834  17.767   2.410   9.160
12107DOPC   C3A 3835  17.907   2.840   9.230
12107DOPC   C4A 3836  18.297   3.170   9.270
12107DOPC   C1B 3837  17.507   1.710   9.030
12107DOPC   D2B 3838  17.717   1.510   9.450
12107DOPC   C3B 3839  17.917   1.140   9.630
12107DOPC   C4B 3840  18.327   1.000   9.890
12108DOPC   NC3 3841  14.607   0.360  10.400
12108DOPC   PO4 3842  14.517   0.300  10.790
12108DOPC   GL1 3843  14.867   0.170  11.110
12108DOPC   GL2 3844  14.637   0.000  11.270
12108DOPC   C1A 3845  15.097   0.440  11.260
12108DOPC   D2A 3846  15.577   0.570  11.300
12108DOPC   C3A 3847  15.927   0.260  11.380
12108DOPC   C4A 3848  16.127   7.790  11.690
12108DOPC   C1B 3849  14.477   0.010  11.670
12108DOPC   D2B 3850  14.537   7.520  11.980
12108DOPC   C3B 3851  14.967   7.380  12.040
12108DOPC   C4B 3852  15.227   6.990  12.060
12109DOPC   NC3 3853  15.207   6.420  10.350
12109DOPC   PO4 3854  15.297   6.180  10.690
12109DOPC   GL1 3855  15.577   6.290  10.950
12109DOPC   GL2 3856  15.447   6.420  11.150
12109DOPC   C1A 3857  16.057   6.390  10.960
12109DOPC   D2A 3858  16.457   6.600  11.070
12109DOPC   C3A 3859  16.827   6.610  11.360
12109DOPC   C4A 3860  17.287   6.520  11.410
12109DOPC   C1B 3861  15.677   6.550  11.440
12109DOPC   D2B 3862  15.967   6.740  11.840
12109DOPC   C3B 3863  16.457   6.700  11.930
12109DOPC   C4B 3864  16.977   6.920  12.100
12110DOPC   NC3 3865   9.307   7.740   8.840
12110DOPC   PO4 3866   9.007   7.470   8.870
12110DOPC   GL1 3867   8.947   7.330   9.270
12110DOPC   GL2 3868   8.657   7.240   9.250
12110DOPC   C1A 3869   8.947   7.350   9.700
12110DOPC   D2A 3870   8.827   7.130  10.120
12110DOPC   C3A 3871   8.587   6.750  10.090
12110DOPC   C4A 3872   8.467   6.480   9.620
12110DOPC   C1B 3873   8.487   7.160   9.670
12110DOPC   D2B 3874   8.197   7.070  10.010
12110DOPC   C3B 3875   8.397   7.010  10.390
12110DOPC   C4B 3876   8.497   7.210  10.800
12111DOPC   NC3 3877  18.827   1.700   6.190
12111DOPC   PO4 3878  18.447   1.640   6.290
12111DOPC   GL1 3879  18.687   1.330   6.510
12111DOPC   GL2 3880  18.707   1.070   6.330
12111DOPC   C1A 3881  18.717   1.260   6.950
12111DOPC   D2A 3882  18.867   1.460   7.350
12111DOPC   C3A 3883  18.807   1.260   7.690
12111DOPC   C4A 3884  18.847   0.790   7.780
12111DOPC   C1B 3885  19.047   0.860   6.430
12111DOPC   D2B 3886  19.487   0.610   6.420
12111DOPC   C3B 3887  19.817   0.630   6.810
12111DOPC   C4B 3888  20.127   0.860   7.070
12112DOPC   NC3 3889   6.507   6.720   6.610
12112DOPC   PO4 3890   6.767   6.900   6.900
12112DOPC   GL1 3891   6.607   6.910   7.230
12112DOPC   GL2 3892   6.847   6.850   7.420
12112DOPC   C1A 3893   6.257   6.820   7.470
12112DOPC   D2A 3894   5.927   6.880   7.820
12112DOPC   C3A 3895   5.577   6.890   8.050
12112DOPC   C4A 3896   5.497   6.870   8.510
12112DOPC   C1B 3897   6.607   6.540   7.730
12112DOPC   D2B 3898   6.347   6.490   8.140
12112DOPC   C3B 3899   6.307   6.180   8.500
12112DOPC   C4B 3900   6.197   5.950   8.870
12113DOPC   NC3 3901  10.847   6.460  11.090
12113DOPC   PO4 3902  10.917   6.820  11.230
12113DOPC   GL1 3903  10.787   6.830  11.640
12113DOPC   GL2 3904  11.067   6.750  11.700
12113DOPC   C1A 3905  10.497   6.840  12.030
12113DOPC   D2A 3906  10.587   6.690  12.450
12113DOPC   C3A 3907  10.537   6.330  12.750
12113DOPC   C4A 3908  10.257   6.190  13.090
12113DOPC   C1B 3909  10.957   6.620  12.090
12113DOPC   D2B 3910  10.937   6.290  12.390
12113DOPC   C3B 3911  11.017   6.390  12.790
12113DOPC   C4B 3912  11.157   6.520  13.220
12114DOPC   NC3 3913  16.447   7.600   9.090
12114DOPC   PO4 3914  16.507   7.740   9.470
12114DOPC   GL1 3915  16.697   7.790   9.840
12114DOPC   GL2 3916  16.997   7.770   9.740
12114DOPC   C1A 3917  16.707   7.820  10.250
12114DOPC   D2A 3918  16.657   0.190  10.680
12114DOPC   C3A 3919  16.977   0.220  11.010
12114DOPC   C4A 3920  17.347   0.270  11.390
12114DOPC   C1B 3921  17.327   7.520   9.920
12114DOPC   D2B 3922  17.667   7.320  10.210
12114DOPC   C3B 3923  17.607   6.860  10.040
12114DOPC   C4B 3924  17.727   6.360  10.020
12115DOPC   NC3 3925  16.837   7.750   8.060
12115DOPC   PO4 3926  17.027   7.550   8.370
12115DOPC   GL1 3927  17.377   7.500   8.570
12115DOPC   GL2 3928  17.427   7.200   8.540
12115DOPC   C1A 3929  17.647   7.730   8.890
12115DOPC   D2A 3930  17.787   0.210   9.230
12115DOPC   C3A 3931  18.137   0.490   9.320
12115DOPC   C4A 3932  18.507   0.860   9.490
12115DOPC   C1B 3933  17.867   7.100   8.590
12115DOPC   D2B 3934  18.367   7.080   8.540
12115DOPC   C3B 3935  18.767   7.170   8.730
12115DOPC   C4B 3936  19.237   7.230   8.760
12116DOPC   NC3 3937   5.737   0.070   5.430
12116DOPC   PO4 3938   5.657   7.560   5.400
12116DOPC   GL1 3939   5.397   7.500   5.690
12116DOPC   GL2 3940   5.287   7.800   5.690
12116DOPC   C1A 3941   5.527   7.560   6.090
12116DOPC   D2A 3942   5.687   7.660   6.550
12116DOPC   C3A 3943   5.587   7.390   6.880
12116DOPC   C4A 3944   5.397   7.420   7.330
12116DOPC   C1B 3945   5.117   0.140   6.020
12116DOPC   D2B 3946   4.857   0.000   6.450
12116DOPC   C3B 3947   4.857   0.170   6.920
12116DOPC   C4B 3948   5.077   0.020   7.410
12117DOPC   NC3 3949  19.857   3.600   4.820
12117DOPC   PO4 3950  20.237   3.680   4.790
12117DOPC   GL1 3951  20.437   3.830   5.170
12117DOPC   GL2 3952  20.747   3.720   5.000
12117DOPC   C1A 3953  20.257   3.870   5.660
12117DOPC   D2A 3954  19.987   4.060   6.070
12117DOPC   C3A 3955  20.127   3.920   6.460
12117DOPC   C4A 3956  20.397   3.730   6.790
12117DOPC   C1B 3957  21.000   4.040   4.970
12117DOPC   D2B 3958  21.300   4.360   4.860
12117DOPC   C3B 3959  21.280   4.470   5.360
12117DOPC   C4B 3960  21.380   4.300   5.760
12118DOPC   NC3 3961  10.827   2.120  10.290
12118DOPC   PO4 3962  10.587   2.440  10.180
12118DOPC   GL1 3963  10.317   2.480  10.480
12118DOPC   GL2 3964  10.057   2.480  10.380
12118DOPC   C1A 3965  10.337   2.440  10.930
12118DOPC   D2A 3966  10.407   2.430  11.460
12118DOPC   C3A 3967  10.097   2.270  11.780
12118DOPC   C4A 3968   9.687   2.330  12.130
12118DOPC   C1B 3969   9.767   2.400  10.660
12118DOPC   D2B 3970   9.397   2.390  10.990
12118DOPC   C3B 3971   9.227   2.340  11.490
12118DOPC   C4B 3972   9.157   2.350  12.020
12119DOPC   NC3 3973  21.900   6.750   3.820
12119DOPC   PO4 3974  21.650   7.020   3.910
12119DOPC   GL1 3975  21.750   7.060   4.310
12119DOPC   GL2 3976  22.040   7.110   4.440
12119DOPC   C1A 3977  21.810   7.480   4.470
12119DOPC   D2A 3978  22.060   7.800   4.770
12119DOPC   C3A 3979  22.260   0.020   5.190
12119DOPC   C4A 3980  22.670   0.130   5.550
12119DOPC   C1B 3981  22.010   7.290   4.850
12119DOPC   D2B 3982  22.030   7.500   5.330
12119DOPC   C3B 3983  21.780   0.040   5.420
12119DOPC   C4B 3984  21.880   0.420   5.160
12120DOPC   NC3 3985  23.530   1.330   3.310
12120DOPC   PO4 3986  23.530   0.960   3.120
12120DOPC   GL1 3987  23.620   0.770   3.420
12120DOPC   GL2 3988  23.700   0.980   3.540
12120DOPC   C1A 3989  23.340   0.540   3.640
12120DOPC   D2A 3990  23.110   0.340   4.080
12120DOPC   C3A 3991  23.260   0.370   4.550
12120DOPC   C4A 3992  23.470   0.390   5.020
12120DOPC   C1B 3993  23.910   0.990   3.930
12120DOPC   D2B 3994  24.080   1.130   4.380
12120DOPC   C3B 3995  24.160   1.350   4.810
12120DOPC   C4B 3996  24.260   1.390   5.270
12121DOPC   NC3 3997   3.907   6.920   4.060
12121DOPC   PO4 3998   3.537   7.050   4.150
12121DOPC   GL1 3999   3.227   6.730   4.420
12121DOPC   GL2 4000   3.067   7.000   4.460
12121DOPC   C1A 4001   3.307   6.700   4.850
12121DOPC   D2A 4002   3.167   6.700   5.390
12121DOPC   C3A 4003   3.087   6.350   5.690
12121DOPC   C4A 4004   3.307   5.950   5.750
12121DOPC   C1B 4005   3.147   7.200   4.890
12121DOPC   D2B 4006   3.377   7.460   5.300
12121DOPC   C3B 4007   3.347   7.180   5.630
12121DOPC   C4B 4008   3.087   7.120   5.990
12122DOPC   NC3 4009   4.237   3.440   4.930
12122DOPC   PO4 4010   4.357   3.760   4.860
12122DOPC   GL1 4011   4.107   3.960   5.210
12122DOPC   GL2 4012   4.387   4.150   5.160
12122DOPC   C1A 4013   3.987   3.570   5.490
12122DOPC   D2A 4014   3.827   3.300   5.890
12122DOPC   C3A 4015   3.497   3.090   6.100
12122DOPC   C4A 4016   3.117   2.960   6.410
12122DOPC   C1B 4017   4.327   4.230   5.500
12122DOPC   D2B 4018   4.447   4.610   5.840
12122DOPC   C3B 4019   4.267   4.880   6.220
12122DOPC   C4B 4020   4.207   5.110   6.660
12123DOPC   NC3 4021   7.147   4.480   7.070
12123DOPC   PO4 4022   7.087   4.370   7.420
12123DOPC   GL1 4023   6.787   4.500   7.600
12123DOPC   GL2 4024   6.587   4.550   7.400
12123DOPC   C1A 4025   6.607   4.350   8.020
12123DOPC   D2A 4026   6.257   4.160   8.330
12123DOPC   C3A 4027   5.887   4.410   8.520
12123DOPC   C4A 4028   5.457   4.670   8.720
12123DOPC   C1B 4029   6.237   4.570   7.660
12123DOPC   D2B 4030   5.867   4.510   7.940
12123DOPC   C3B 4031   5.667   4.830   8.300
12123DOPC   C4B 4032   5.677   5.310   8.430
12124DOPC   NC3 4033   2.527   1.480   3.390
12124DOPC   PO4 4034   2.737   1.420   3.760
12124DOPC   GL1 4035   2.577   1.440   4.190
12124DOPC   GL2 4036   2.317   1.330   4.120
12124DOPC   C1A 4037   2.657   1.270   4.540
12124DOPC   D2A 4038   2.717   1.060   4.970
12124DOPC   C3A 4039   2.487   1.020   5.350
12124DOPC   C4A 4040   2.367   1.050   5.810
12124DOPC   C1B 4041   2.087   1.220   4.480
12124DOPC   D2B 4042   2.067   1.080   4.990
12124DOPC   C3B 4043   2.067   0.750   5.330
12124DOPC   C4B 4044   1.937   0.400   5.600
12125DOPC   NC3 4045   4.067   6.490   4.710
12125DOPC   PO4 4046   4.087   6.860   4.500
12125DOPC   GL1 4047   3.847   7.180   4.640
12125DOPC   GL2 4048   3.587   7.010   4.650
12125DOPC   C1A 4049   3.787   7.490   4.920
12125DOPC   D2A 4050   3.547   0.070   4.790
12125DOPC   C3A 4051   3.287   0.280   5.140
12125DOPC   C4A 4052   2.927   0.300   5.470
12125DOPC   C1B 4053   3.627   7.040   5.130
12125DOPC   D2B 4054   3.837   7.340   5.480
12125DOPC   C3B 4055   3.667   7.500   5.880
12125DOPC   C4B 4056   3.407   7.590   6.230
12126DOPC   NC3 4057  11.407   1.640  10.770
12126DOPC   PO4 4058  11.077   1.880  10.700
12126DOPC   GL1 4059  10.697   1.660  10.830
12126DOPC   GL2 4060  10.817   1.500  10.940
12126DOPC   C1A 4061  10.547   1.990  11.020
12126DOPC   D2A 4062  10.067   2.110  11.200
12126DOPC   C3A 4063   9.747   1.950  11.440
12126DOPC   C4A 4064   9.457   1.940  11.870
12126DOPC   C1B 4065  10.727   1.580  11.360
12126DOPC   D2B 4066  10.497   1.480  11.820
12126DOPC   C3B 4067  10.337   1.470  12.340
12126DOPC   C4B 4068  10.207   1.430  12.840
12127DOPC   NC3 4069   6.017   0.530   5.660
12127DOPC   PO4 4070   5.667   0.540   5.450
12127DOPC   GL1 4071   5.287   0.620   5.550
12127DOPC   GL2 4072   5.417   0.780   5.770
12127DOPC   C1A 4073   4.917   0.430   5.660
12127DOPC   D2A 4074   4.607   0.140   5.900
12127DOPC   C3A 4075   4.427   7.800   6.290
12127DOPC   C4A 4076   4.367   7.740   6.800
12127DOPC   C1B 4077   5.287   0.700   6.220
12127DOPC   D2B 4078   5.067   0.560   6.710
12127DOPC   C3B 4079   5.147   0.870   7.070
12127DOPC   C4B 4080   5.317   1.010   7.540
12128DOPC   NC3 4081   9.917   3.810  10.220
12128DOPC   PO4 4082  10.267   3.750  10.010
12128DOPC   GL1 4083  10.337   3.980  10.390
12128DOPC   GL2 4084  10.157   4.210  10.270
12128DOPC   C1A 4085  10.027   3.860  10.760
12128DOPC   D2A 4086   9.727   4.210  11.000
12128DOPC   C3A 4087   9.687   4.390  11.440
12128DOPC   C4A 4088   9.617   4.550  11.890
12128DOPC   C1B 4089   9.757   4.280  10.460
12128DOPC   D2B 4090   9.337   4.370  10.680
12128DOPC   C3B 4091   9.247   4.440  11.130
12128DOPC   C4B 4092   9.217   4.400  11.620
12129DOPC   NC3 4093  11.007   2.350  11.010
12129DOPC   PO4 4094  11.377   2.500  10.960
12129DOPC   GL1 4095  11.487   2.600  11.320
12129DOPC   GL2 4096  11.177   2.760  11.290
12129DOPC   C1A 4097  11.447   2.340  11.650
12129DOPC   D2A 4098  11.287   2.070  12.050
12129DOPC   C3A 4099  10.897   2.210  12.250
12129DOPC   C4A 4100  10.507   2.300  12.610
12129DOPC   C1B 4101  10.917   2.530  11.590
12129DOPC   D2B 4102  10.587   2.470  11.950
12129DOPC   C3B 4103  10.187   2.480  12.220
12129DOPC   C4B 4104  10.027   2.650  12.660
12130DOPC   NC3 4105  21.560   5.650   3.410
12130DOPC   PO4 4106  21.710   5.330   3.590
12130DOPC   GL1 4107  21.910   5.250   4.000
12130DOPC   GL2 4108  21.980   4.950   3.830
12130DOPC   C1A 4109  21.960   5.340   4.420
12130DOPC   D2A 4110  22.100   5.310   4.780
12130DOPC   C3A 4111  21.950   5.580   5.100
12130DOPC   C4A 4112  21.810   5.880   5.480
12130DOPC   C1B 4113  22.140   4.910   4.190
12130DOPC   D2B 4114  22.170   4.860   4.700
12130DOPC   C3B 4115  22.320   4.520   4.970
12130DOPC   C4B 4116  22.080   4.250   5.290
12131DOPC   NC3 4117  17.407   0.480   7.070
12131DOPC   PO4 4118  17.357   0.110   7.270
12131DOPC   GL1 4119  17.687   0.090   7.490
12131DOPC   GL2 4120  17.807   0.360   7.400
12131DOPC   C1A 4121  17.907   7.600   7.630
12131DOPC   D2A 4122  18.167   7.210   7.690
12131DOPC   C3A 4123  18.697   7.310   7.700
12131DOPC   C4A 4124  19.177   7.340   7.800
12131DOPC   C1B 4125  18.087   0.400   7.630
12131DOPC   D2B 4126  18.567   0.370   7.830
12131DOPC   C3B 4127  19.087   0.330   7.850
12131DOPC   C4B 4128  19.497   0.530   7.850
12132DOPC   NC3 4129  19.517   6.040   5.080
12132DOPC   PO4 4130  19.837   5.850   4.920
12132DOPC   GL1 4131  20.207   5.900   5.040
12132DOPC   GL2 4132  20.177   5.700   5.290
12132DOPC   C1A 4133  20.447   6.260   4.900
12132DOPC   D2A 4134  20.697   6.650   4.650
12132DOPC   C3A 4135  21.000   6.950   4.710
12132DOPC   C4A 4136  21.290   7.360   4.670
12132DOPC   C1B 4137  20.327   5.720   5.640
12132DOPC   D2B 4138  20.607   5.920   5.970
12132DOPC   C3B 4139  21.100   5.890   6.080
12132DOPC   C4B 4140  21.620   5.900   5.980
12133DOPC   NC3 4141  21.630   0.450   3.330
12133DOPC   PO4 4142  21.590   0.650   3.670
12133DOPC   GL1 4143  21.870   0.600   3.960
12133DOPC   GL2 4144  21.770   0.720   4.220
12133DOPC   C1A 4145  22.250   0.660   4.110
12133DOPC   D2A 4146  22.670   0.630   4.410
12133DOPC   C3A 4147  22.870   0.510   4.840
12133DOPC   C4A 4148  23.050   0.360   5.270
12133DOPC   C1B 4149  22.090   0.740   4.610
12133DOPC   D2B 4150  22.360   0.330   4.760
12133DOPC   C3B 4151  22.520   0.410   5.160
12133DOPC   C4B 4152  22.690   0.630   5.580
12134DOPC   NC3 4153  12.967   6.900  11.990
12134DOPC   PO4 4154  12.897   7.160  11.720
12134DOPC   GL1 4155  13.247   7.390  11.870
12134DOPC   GL2 4156  13.017   7.600  11.970
12134DOPC   C1A 4157  13.347   7.130  12.210
12134DOPC   D2A 4158  13.617   7.190  12.630
12134DOPC   C3A 4159  13.807   7.530  12.930
12134DOPC   C4A 4160  14.217   7.710  13.130
12134DOPC   C1B 4161  13.117   7.570  12.410
12134DOPC   D2B 4162  13.247   7.560  12.870
12134DOPC   C3B 4163  13.417   7.220  13.090
12134DOPC   C4B 4164  13.597   6.920  13.370
12135DOPC   NC3 4165  21.390   0.360   4.140
12135DOPC   PO4 4166  21.140   0.640   4.270
12135DOPC   GL1 4167  21.440   0.910   4.420
12135DOPC   GL2 4168  21.290   0.860   4.700
12135DOPC   C1A 4169  21.800   1.150   4.610
12135DOPC   D2A 4170  22.140   1.250   4.960
12135DOPC   C3A 4171  22.070   1.340   5.420
12135DOPC   C4A 4172  22.000   1.340   5.890
12135DOPC   C1B 4173  21.150   0.900   5.120
12135DOPC   D2B 4174  21.420   0.940   5.540
12135DOPC   C3B 4175  21.860   0.960   5.690
12135DOPC   C4B 4176  22.260   0.860   5.910
12136DOPC   NC3 4177   8.887   5.270   9.190
12136DOPC   PO4 4178   8.797   5.580   8.960
12136DOPC   GL1 4179   8.347   5.590   9.040
12136DOPC   GL2 4180   8.427   5.270   9.100
12136DOPC   C1A 4181   8.027   5.780   9.270
12136DOPC   D2A 4182   8.037   6.030   9.720
12136DOPC   C3A 4183   7.627   6.060   9.820
12136DOPC   C4A 4184   7.137   5.990  10.030
12136DOPC   C1B 4185   8.217   5.010   9.420
12136DOPC   D2B 4186   7.977   4.590   9.670
12136DOPC   C3B 4187   7.607   4.840   9.720
12136DOPC   C4B 4188   7.337   5.210   9.850
12137DOPC   NC3 4189  17.697   7.830   6.040
12137DOPC   PO4 4190  17.837   7.760   6.430
12137DOPC   GL1 4191  18.307   7.810   6.470
12137DOPC   GL2 4192  18.167   0.150   6.690
12137DOPC   C1A 4193  18.677   0.020   6.650
12137DOPC   D2A 4194  19.007   0.280   6.900
12137DOPC   C3A 4195  19.437   0.300   6.800
12137DOPC   C4A 4196  19.827   0.180   6.670
12137DOPC   C1B 4197  18.507   0.270   7.020
12137DOPC   D2B 4198  18.877   0.360   7.390
12137DOPC   C3B 4199  19.297   0.300   7.400
12137DOPC   C4B 4200  19.817   0.290   7.430
12138DOPC   NC3 4201  12.667   2.310  11.720
12138DOPC   PO4 4202  12.977   2.110  11.680
12138DOPC   GL1 4203  12.947   2.160  12.180
12138DOPC   GL2 4204  13.127   1.980  12.130
12138DOPC   C1A 4205  12.637   1.970  12.390
12138DOPC   D2A 4206  12.337   1.830  12.830
12138DOPC   C3A 4207  12.357   1.780  13.280
12138DOPC   C4A 4208  12.177   1.560  13.700
12138DOPC   C1B 4209  13.217   1.910  12.540
12138DOPC   D2B 4210  13.307   1.970  13.050
12138DOPC   C3B 4211  13.087   1.660  13.310
12138DOPC   C4B 4212  13.047   1.330  13.670
12139DOPC   NC3 4213   4.827   3.940   5.000
12139DOPC   PO4 4214   4.797   4.330   5.020
12139DOPC   GL1 4215   4.537   4.600   5.260
12139DOPC   GL2 4216   4.357   4.650   5.160
12139DOPC   C1A 4217   4.677   4.890   5.500
12139DOPC   D2A 4218   4.947   4.760   5.860
12139DOPC   C3A 4219   4.827   4.650   6.300
12139DOPC   C4A 4220   4.467   4.480   6.580
12139DOPC   C1B 4221   4.127   4.770   5.550
12139DOPC   D2B 4222   3.767   4.820   5.940
12139DOPC   C3B 4223   3.587   4.690   6.310
12139DOPC   C4B 4224   3.177   4.540   6.490
12140DOPC   NC3 4225  14.327   1.430  11.460
12140DOPC   PO4 4226  14.617   1.590  11.290
12140DOPC   GL1 4227  14.827   1.320  11.410
12140DOPC   GL2 4228  14.727   1.380  11.680
12140DOPC   C1A 4229  15.267   1.290  11.440
12140DOPC   D2A 4230  15.727   1.040  11.390
12140DOPC   C3A 4231  15.817   0.630  11.710
12140DOPC   C4A 4232  15.987   0.330  12.080
12140DOPC   C1B 4233  15.117   1.360  11.920
12140DOPC   D2B 4234  15.217   1.480  12.340
12140DOPC   C3B 4235  15.417   1.700  12.740
12140DOPC   C4B 4236  15.607   2.050  13.050
12141DOPC   NC3 4237  14.327   6.060  10.970
12141DOPC   PO4 4238  14.567   6.360  11.040
12141DOPC   GL1 4239  14.777   6.430  11.340
12141DOPC   GL2 4240  14.737   6.600  11.590
12141DOPC   C1A 4241  15.107   6.200  11.490
12141DOPC   D2A 4242  15.427   6.030  11.860
12141DOPC   C3A 4243  15.837   6.180  11.830
12141DOPC   C4A 4244  16.247   6.230  12.050
12141DOPC   C1B 4245  14.657   6.580  12.000
12141DOPC   D2B 4246  14.827   6.890  12.300
12141DOPC   C3B 4247  15.217   6.660  12.480
12141DOPC   C4B 4248  15.607   6.430  12.590
12142DOPC   NC3 4249   9.907   3.550   9.670
12142DOPC   PO4 4250   9.607   3.780   9.790
12142DOPC   GL1 4251   9.387   3.780  10.150
12142DOPC   GL2 4252   9.207   3.970  10.150
12142DOPC   C1A 4253   9.487   3.870  10.590
12142DOPC   D2A 4254   9.217   3.890  10.970
12142DOPC   C3A 4255   9.407   3.960  11.350
12142DOPC   C4A 4256   9.437   4.030  11.810
12142DOPC   C1B 4257   8.917   3.920  10.500
12142DOPC   D2B 4258   8.477   3.960  10.740
12142DOPC   C3B 4259   8.077   3.700  10.670
12142DOPC   C4B 4260   7.867   3.290  10.710
12143DOPC   NC3 4261  22.090   1.860   3.400
12143DOPC   PO4 4262  22.250   2.150   3.660
12143DOPC   GL1 4263  22.330   2.150   4.010
12143DOPC   GL2 4264  22.140   2.030   4.120
12143DOPC   C1A 4265  22.580   2.270   4.300
12143DOPC   D2A 4266  22.910   2.250   4.720
12143DOPC   C3A 4267  23.180   2.420   5.050
12143DOPC   C4A 4268  23.560   2.430   5.420
12143DOPC   C1B 4269  22.420   1.690   4.220
12143DOPC   D2B 4270  22.830   1.340   4.170
12143DOPC   C3B 4271  23.150   1.400   4.540
12143DOPC   C4B 4272  23.350   1.480   4.970
12144DOPC   NC3 4273   1.527   6.450   3.770
12144DOPC   PO4 4274   1.477   6.060   3.610
12144DOPC   GL1 4275   1.317   6.010   4.050
12144DOPC   GL2 4276   1.617   6.070   4.080
12144DOPC   C1A 4277   0.977   6.060   4.350
12144DOPC   D2A 4278   0.817   6.080   4.780
12144DOPC   C3A 4279   0.997   6.000   5.170
12144DOPC   C4A 4280   0.937   5.790   5.620
12144DOPC   C1B 4281   1.637   6.310   4.440
12144DOPC   D2B 4282   1.557   6.690   4.740
12144DOPC   C3B 4283   1.107   6.620   5.030
12144DOPC   C4B 4284   0.997   6.390   5.430
12145DOPC   NC3 4285  20.837   6.520   4.150
12145DOPC   PO4 4286  20.677   6.160   4.070
12145DOPC   GL1 4287  20.767   6.060   4.410
12145DOPC   GL2 4288  20.467   6.000   4.470
12145DOPC   C1A 4289  20.910   6.260   4.810
12145DOPC   D2A 4290  20.777   6.360   5.310
12145DOPC   C3A 4291  20.900   6.110   5.660
12145DOPC   C4A 4292  20.837   5.590   5.660
12145DOPC   C1B 4293  20.597   5.780   4.770
12145DOPC   D2B 4294  20.487   5.380   4.980
12145DOPC   C3B 4295  20.047   5.270   5.080
12145DOPC   C4B 4296  19.837   5.350   5.520
12146DOPC   NC3 4297  22.090   4.120   3.650
12146DOPC   PO4 4298  21.990   4.490   3.530
12146DOPC   GL1 4299  22.190   4.550   3.890
12146DOPC   GL2 4300  22.340   4.770   3.750
12146DOPC   C1A 4301  21.970   4.440   4.270
12146DOPC   D2A 4302  21.800   4.300   4.700
12146DOPC   C3A 4303  21.850   4.640   5.010
12146DOPC   C4A 4304  22.030   5.050   5.200
12146DOPC   C1B 4305  22.660   4.730   4.120
12146DOPC   D2B 4306  22.860   4.710   4.540
12146DOPC   C3B 4307  23.180   4.790   4.810
12146DOPC   C4B 4308  23.490   4.850   5.200
12147DOPC   NC3 4309  15.177   2.130  10.660
12147DOPC   PO4 4310  15.457   2.120  10.370
12147DOPC   GL1 4311  15.857   2.210  10.520
12147DOPC   GL2 4312  15.737   2.400  10.770
12147DOPC   C1A 4313  16.167   2.080  10.760
12147DOPC   D2A 4314  16.377   1.870  11.120
12147DOPC   C3A 4315  16.627   1.500  11.060
12147DOPC   C4A 4316  17.047   1.320  11.140
12147DOPC   C1B 4317  15.957   2.380  11.100
12147DOPC   D2B 4318  16.097   2.250  11.580
12147DOPC   C3B 4319  15.977   2.590  11.900
12147DOPC   C4B 4320  15.487   2.810  11.830
12148DOPC   NC3 4321   0.657   2.160   3.290
12148DOPC   PO4 4322   0.867   1.900   3.080
12148DOPC   GL1 4323   1.197   1.920   3.530
12148DOPC   GL2 4324   1.097   2.200   3.440
12148DOPC   C1A 4325   1.077   1.670   3.870
12148DOPC   D2A 4326   0.697   1.540   4.150
12148DOPC   C3A 4327   0.727   1.630   4.610
12148DOPC   C4A 4328   0.867   1.620   5.070
12148DOPC   C1B 4329   0.857   2.170   3.830
12148DOPC   D2B 4330   0.767   2.050   4.290
12148DOPC   C3B 4331   0.577   2.100   4.690
12148DOPC   C4B 4332   0.387   2.170   5.180
12149DOPC   NC3 4333  15.747   3.470  10.340
12149DOPC   PO4 4334  15.617   3.760  10.600
12149DOPC   GL1 4335  15.837   3.710  11.060
12149DOPC   GL2 4336  15.757   3.980  10.930
12149DOPC   C1A 4337  16.147   3.690  11.390
12149DOPC   D2A 4338  16.377   3.900  11.770
12149DOPC   C3A 4339  16.287   3.880  12.230
12149DOPC   C4A 4340  16.217   3.750  12.680
12149DOPC   C1B 4341  16.097   4.280  11.050
12149DOPC   D2B 4342  16.397   4.660  11.090
12149DOPC   C3B 4343  16.857   4.590  11.190
12149DOPC   C4B 4344  17.317   4.690  11.360
12150DOPC   NC3 4345   2.067   1.990   3.680
12150DOPC   PO4 4346   2.297   1.690   3.840
12150DOPC   GL1 4347   2.237   1.760   4.200
12150DOPC   GL2 4348   2.147   2.000   4.230
12150DOPC   C1A 4349   2.307   1.630   4.590
12150DOPC   D2A 4350   2.447   1.450   5.040
12150DOPC   C3A 4351   2.177   1.370   5.430
12150DOPC   C4A 4352   1.747   1.430   5.540
12150DOPC   C1B 4353   2.147   2.120   4.650
12150DOPC   D2B 4354   2.367   1.970   5.120
12150DOPC   C3B 4355   2.407   1.780   5.590
12150DOPC   C4B 4356   2.497   1.700   6.050
12151DOPC   NC3 4357  20.467   7.590   3.770
12151DOPC   PO4 4358  20.657   7.840   4.020
12151DOPC   GL1 4359  20.817   7.810   4.400
12151DOPC   GL2 4360  21.100   0.010   4.230
12151DOPC   C1A 4361  20.920   7.690   4.790
12151DOPC   D2A 4362  21.110   7.560   5.250
12151DOPC   C3A 4363  21.010   7.210   5.610
12151DOPC   C4A 4364  20.990   6.900   6.030
12151DOPC   C1B 4365  21.400   0.010   4.590
12151DOPC   D2B 4366  21.640   7.660   5.010
12151DOPC   C3B 4367  21.560   7.320   5.430
12151DOPC   C4B 4368  21.450   6.870   5.650
12152DOPC   NC3 4369  17.337   3.720   7.190
12152DOPC   PO4 4370  17.627   3.980   7.000
12152DOPC   GL1 4371  17.727   4.220   7.360
12152DOPC   GL2 4372  17.967   4.240   7.270
12152DOPC   C1A 4373  17.727   4.030   7.790
12152DOPC   D2A 4374  17.867   4.110   8.210
12152DOPC   C3A 4375  18.027   4.480   8.500
12152DOPC   C4A 4376  18.417   4.730   8.630
12152DOPC   C1B 4377  18.077   3.890   7.480
12152DOPC   D2B 4378  18.327   3.540   7.560
12152DOPC   C3B 4379  18.627   3.500   7.940
12152DOPC   C4B 4380  18.857   3.840   8.090
12153DOPC   NC3 4381   3.827   0.900   4.140
12153DOPC   PO4 4382   3.457   0.950   3.960
12153DOPC   GL1 4383   3.217   0.730   4.170
12153DOPC   GL2 4384   3.487   0.650   4.320
12153DOPC   C1A 4385   2.967   0.850   4.530
12153DOPC   D2A 4386   2.717   0.520   4.760
12153DOPC   C3A 4387   2.537   0.480   5.160
12153DOPC   C4A 4388   2.427   0.570   5.630
12153DOPC   C1B 4389   3.637   0.950   4.640
12153DOPC   D2B 4390   3.547   1.170   5.080
12153DOPC   C3B 4391   3.447   1.250   5.510
12153DOPC   C4B 4392   3.157   1.150   5.900
12154DOPC   NC3 4393   1.377   4.680   2.950
12154DOPC   PO4 4394   1.357   4.400   3.240
12154DOPC   GL1 4395   1.087   4.500   3.640
12154DOPC   GL2 4396   1.367   4.440   3.740
12154DOPC   C1A 4397   1.047   4.830   3.860
12154DOPC   D2A 4398   1.287   5.090   4.190
12154DOPC   C3A 4399   1.027   5.050   4.600
12154DOPC   C4A 4400   0.597   5.180   4.790
12154DOPC   C1B 4401   1.197   4.240   4.020
12154DOPC   D2B 4402   1.307   4.170   4.530
12154DOPC   C3B 4403   1.137   4.090   4.980
12154DOPC   C4B 4404   1.217   4.220   5.430
12155DOPC   NC3 4405  21.170   4.130   3.560
12155DOPC   PO4 4406  21.540   3.950   3.610
12155DOPC   GL1 4407  21.710   4.110   3.950
12155DOPC   GL2 4408  21.690   4.390   3.830
12155DOPC   C1A 4409  21.730   3.960   4.330
12155DOPC   D2A 4410  21.620   3.520   4.630
12155DOPC   C3A 4411  22.010   3.290   4.790
12155DOPC   C4A 4412  21.970   2.940   5.130
12155DOPC   C1B 4413  21.690   4.810   4.120
12155DOPC   D2B 4414  21.690   4.860   4.570
12155DOPC   C3B 4415  21.610   5.190   4.900
12155DOPC   C4B 4416  21.500   5.640   5.040
12156DOPC   NC3 4417  15.647   3.290  10.820
12156DOPC   PO4 4418  15.697   2.910  10.850
12156DOPC   GL1 4419  16.017   2.990  11.010
12156DOPC   GL2 4420  15.877   3.220  11.190
12156DOPC   C1A 4421  16.367   2.860  11.210
12156DOPC   D2A 4422  16.767   2.700  11.580
12156DOPC   C3A 4423  17.187   2.860  11.780
12156DOPC   C4A 4424  17.667   2.830  11.890
12156DOPC   C1B 4425  15.957   3.230  11.520
12156DOPC   D2B 4426  15.887   3.100  11.990
12156DOPC   C3B 4427  16.297   3.290  12.110
12156DOPC   C4B 4428  16.677   3.600  11.990
12157DOPC   NC3 4429  14.737   4.610  11.150
12157DOPC   PO4 4430  14.857   4.370  10.880
12157DOPC   GL1 4431  15.257   4.510  11.010
12157DOPC   GL2 4432  15.167   4.820  10.970
12157DOPC   C1A 4433  15.607   4.320  11.210
12157DOPC   D2A 4434  15.957   4.150  11.550
12157DOPC   C3A 4435  16.167   4.440  11.770
12157DOPC   C4A 4436  16.047   4.850  12.000
12157DOPC   C1B 4437  15.487   5.080  11.160
12157DOPC   D2B 4438  15.797   5.180  11.600
12157DOPC   C3B 4439  16.277   5.230  11.740
12157DOPC   C4B 4440  16.707   5.210  11.920
12158DOPC   NC3 4441   9.897   6.790  10.100
12158DOPC   PO4 4442   9.887   7.160  10.040
12158DOPC   GL1 4443   9.757   7.300  10.400
12158DOPC   GL2 4444   9.857   7.000  10.490
12158DOPC   C1A 4445   9.537   7.530  10.590
12158DOPC   D2A 4446   9.127   7.730  10.810
12158DOPC   C3A 4447   8.687   7.700  11.010
12158DOPC   C4A 4448   8.217   7.690  11.270
12158DOPC   C1B 4449   9.437   6.880  10.580
12158DOPC   D2B 4450   9.287   6.410  10.760
12158DOPC   C3B 4451   8.887   6.370  10.960
12158DOPC   C4B 4452   8.347   6.430  11.040
12159DOPC   NC3 4453   7.547   4.190   7.260
12159DOPC   PO4 4454   7.437   4.070   7.640
12159DOPC   GL1 4455   6.957   4.130   7.760
12159DOPC   GL2 4456   7.127   4.330   7.890
12159DOPC   C1A 4457   6.777   3.860   7.930
12159DOPC   D2A 4458   6.677   3.360   8.070
12159DOPC   C3A 4459   6.727   3.250   8.520
12159DOPC   C4A 4460   6.557   3.150   9.040
12159DOPC   C1B 4461   7.037   4.110   8.200
12159DOPC   D2B 4462   7.237   4.020   8.610
12159DOPC   C3B 4463   6.957   4.080   9.040
12159DOPC   C4B 4464   6.557   3.990   9.190
12160DOPC   NC3 4465   8.097   0.250   8.250
12160DOPC   PO4 4466   8.357   0.160   8.540
12160DOPC   GL1 4467   8.137   7.710   8.730
12160DOPC   GL2 4468   8.437   7.660   8.890
12160DOPC   C1A 4469   7.777   7.820   8.980
12160DOPC   D2A 4470   7.457   7.740   9.350
12160DOPC   C3A 4471   7.057   7.690   9.640
12160DOPC   C4A 4472   6.787   7.530   9.980
12160DOPC   C1B 4473   8.387   7.570   9.310
12160DOPC   D2B 4474   8.087   7.460   9.710
12160DOPC   C3B 4475   7.847   7.690  10.100
12160DOPC   C4B 4476   7.367   7.820   9.990
12161DOPC   NC3 4477   5.037   6.900   4.830
12161DOPC   PO4 4478   4.947   6.490   4.780
12161DOPC   GL1 4479   4.527   6.500   4.910
12161DOPC   GL2 4480   4.617   6.740   5.000
12161DOPC   C1A 4481   4.177   6.450   5.220
12161DOPC   D2A 4482   3.927   6.140   5.490
12161DOPC   C3A 4483   3.577   6.370   5.730
12161DOPC   C4A 4484   3.327   6.580   6.090
12161DOPC   C1B 4485   4.717   6.860   5.360
12161DOPC   D2B 4486   4.717   6.930   5.830
12161DOPC   C3B 4487   4.497   6.660   6.050
12161DOPC   C4B 4488   4.247   6.440   6.420
12162DOPC   NC3 4489  22.700   7.310   3.170
12162DOPC   PO4 4490  22.830   7.640   3.220
12162DOPC   GL1 4491  22.820   0.060   3.500
12162DOPC   GL2 4492  23.100   0.190   3.400
12162DOPC   C1A 4493  22.900   7.770   3.870
12162DOPC   D2A 4494  22.870   7.470   4.240
12162DOPC   C3A 4495  23.070   7.220   4.600
12162DOPC   C4A 4496  22.980   7.050   5.010
12162DOPC   C1B 4497  23.390   0.060   3.710
12162DOPC   D2B 4498  23.830   0.200   3.900
12162DOPC   C3B 4499  24.040   7.820   4.170
12162DOPC   C4B 4500  24.160   7.690   4.610
12163DOPC   NC3 4501  13.887   5.740  11.690
12163DOPC   PO4 4502  13.567   5.490  11.670
12163DOPC   GL1 4503  13.537   5.510  12.100
12163DOPC   GL2 4504  13.847   5.560  12.100
12163DOPC   C1A 4505  13.407   5.340  12.470
12163DOPC   D2A 4506  13.207   5.150  12.850
12163DOPC   C3A 4507  13.247   5.480  13.130
12163DOPC   C4A 4508  13.287   5.590  13.620
12163DOPC   C1B 4509  13.787   5.680  12.480
12163DOPC   D2B 4510  13.947   5.850  12.860
12163DOPC   C3B 4511  13.707   6.150  12.790
12163DOPC   C4B 4512  13.507   6.400  12.360
12164DOPC   NC3 4513   7.427   0.850   6.830
12164DOPC   PO4 4514   7.457   1.200   6.920
12164DOPC   GL1 4515   7.427   1.340   7.230
12164DOPC   GL2 4516   7.487   1.130   7.450
12164DOPC   C1A 4517   7.177   1.560   7.400
12164DOPC   D2A 4518   6.837   1.840   7.680
12164DOPC   C3A 4519   6.737   2.070   8.090
12164DOPC   C4A 4520   6.587   2.300   8.490
12164DOPC   C1B 4521   7.067   1.160   7.650
12164DOPC   D2B 4522   6.787   1.190   7.990
12164DOPC   C3B 4523   6.537   1.130   8.350
12164DOPC   C4B 4524   6.427   0.870   8.740
12165DOPC   NC3 4525  12.497   4.670  11.200
12165DOPC   PO4 4526  12.237   4.940  11.290
12165DOPC   GL1 4527  12.157   4.820  11.730
12165DOPC   GL2 4528  12.257   4.600  11.630
12165DOPC   C1A 4529  12.097   4.870  12.170
12165DOPC   D2A 4530  12.017   5.010  12.630
12165DOPC   C3A 4531  11.827   5.160  13.060
12165DOPC   C4A 4532  11.407   5.380  13.110
12165DOPC   C1B 4533  12.277   4.330  12.030
12165DOPC   D2B 4534  12.007   4.470  12.450
12165DOPC   C3B 4535  11.877   4.590  12.920
12165DOPC   C4B 4536  11.747   4.740  13.360
12166DOPC   NC3 4537   2.717   4.950   3.420
12166DOPC   PO4 4538   2.467   5.030   3.740
12166DOPC   GL1 4539   2.167   5.040   3.980
12166DOPC   GL2 4540   2.117   5.270   4.050
12166DOPC   C1A 4541   1.837   4.900   4.270
12166DOPC   D2A 4542   1.477   4.890   4.610
12166DOPC   C3A 4543   1.407   5.290   4.780
12166DOPC   C4A 4544   1.437   5.770   5.030
12166DOPC   C1B 4545   2.257   5.520   4.430
12166DOPC   D2B 4546   2.357   5.780   4.820
12166DOPC   C3B 4547   2.797   5.980   4.970
12166DOPC   C4B 4548   3.207   6.290   5.120
12167DOPC   NC3 4549  14.167   2.390  11.350
12167DOPC   PO4 4550  14.507   2.260  11.490
12167DOPC   GL1 4551  14.577   2.210  11.890
12167DOPC   GL2 4552  14.277   2.110  12.010
12167DOPC   C1A 4553  14.857   2.360  12.250
12167DOPC   D2A 4554  15.137   2.380  12.630
12167DOPC   C3A 4555  15.207   2.570  13.050
12167DOPC   C4A 4556  15.347   2.950  13.370
12167DOPC   C1B 4557  14.407   1.950  12.440
12167DOPC   D2B 4558  14.877   1.950  12.570
12167DOPC   C3B 4559  15.047   2.000  12.960
12167DOPC   C4B 4560  15.297   2.070  13.390
12168DOPC   NC3 4561   7.657   3.930   8.070
12168DOPC   PO4 4562   7.667   3.620   7.770
12168DOPC   GL1 4563   7.357   3.460   8.010
12168DOPC   GL2 4564   7.107   3.560   8.000
12168DOPC   C1A 4565   7.397   3.440   8.420
12168DOPC   D2A 4566   7.587   3.140   8.830
12168DOPC   C3A 4567   7.437   2.840   9.160
12168DOPC   C4A 4568   7.157   2.580   9.400
12168DOPC   C1B 4569   6.917   3.670   8.420
12168DOPC   D2B 4570   6.367   3.660   8.300
12168DOPC   C3B 4571   6.157   3.390   8.590
12168DOPC   C4B 4572   5.837   3.050   8.410
12169DOPC   NC3 4573   7.947   7.570   6.920
12169DOPC   PO4 4574   7.757   7.520   7.280
12169DOPC   GL1 4575   7.397   7.660   7.600
12169DOPC   GL2 4576   7.257   7.530   7.450
12169DOPC   C1A 4577   7.037   0.110   7.680
12169DOPC   D2A 4578   6.607   0.370   7.780
12169DOPC   C3A 4579   6.267   0.220   8.020
12169DOPC   C4A 4580   5.957   7.730   8.190
12169DOPC   C1B 4581   6.907   7.330   7.490
12169DOPC   D2B 4582   6.617   7.040   7.790
12169DOPC   C3B 4583   6.397   6.970   8.230
12169DOPC   C4B 4584   6.217   6.770   8.680
12170DOPC   NC3 4585  11.627   0.700  10.680
12170DOPC   PO4 4586  11.717   0.430  10.980
12170DOPC   GL1 4587  11.407   0.380  11.300
12170DOPC   GL2 4588  11.587   0.430  11.460
12170DOPC   C1A 4589  11.027   0.350  11.590
12170DOPC   D2A 4590  10.627   0.250  11.890
12170DOPC   C3A 4591  10.267   0.030  12.150
12170DOPC   C4A 4592   9.787   7.770  12.140
12170DOPC   C1B 4593  11.457   0.470  11.870
12170DOPC   D2B 4594  11.287   0.420  12.370
12170DOPC   C3B 4595  11.227   0.030  12.610
12170DOPC   C4B 4596  11.147   7.470  12.810
12171DOPC   NC3 4597  15.737   1.550  10.170
12171DOPC   PO4 4598  15.377   1.370  10.230
12171DOPC   GL1 4599  15.257   1.330  10.680
12171DOPC   GL2 4600  15.107   1.030  10.680
12171DOPC   C1A 4601  15.627   1.320  10.970
12171DOPC   D2A 4602  15.677   1.670  11.340
12171DOPC   C3A 4603  15.837   1.850  11.750
12171DOPC   C4A 4604  16.137   2.000  12.030
12171DOPC   C1B 4605  15.247   0.960  11.060
12171DOPC   D2B 4606  14.977   0.900  11.480
12171DOPC   C3B 4607  15.357   0.850  11.740
12171DOPC   C4B 4608  15.527   0.550  12.120
12172DOPC   NC3 4609  13.947   1.010  11.170
12172DOPC   PO4 4610  13.807   1.270  11.420
12172DOPC   GL1 4611  13.927   1.460  11.780
12172DOPC   GL2 4612  13.887   1.710  11.860
12172DOPC   C1A 4613  14.107   1.300  12.090
12172DOPC   D2A 4614  14.357   1.030  12.400
12172DOPC   C3A 4615  14.477   1.180  12.820
12172DOPC   C4A 4616  14.527   1.480  13.280
12172DOPC   C1B 4617  14.057   1.790  12.240
12172DOPC   D2B 4618  14.207   1.560  12.600
12172DOPC   C3B 4619  14.077   1.680  13.050
12172DOPC   C4B 4620  13.797   2.100  13.220
12173DOPC   NC3 4621   4.427   4.370   4.710
12173DOPC   PO4 4622   4.167   4.500   4.410
12173DOPC   GL1 4623   4.007   4.600   4.820
12173DOPC   GL2 4624   3.797   4.580   4.660
12173DOPC   C1A 4625   3.947   4.380   5.230
12173DOPC   D2A 4626   3.827   4.340   5.680
12173DOPC   C3A 4627   3.347   4.390   5.830
12173DOPC   C4A 4628   2.937   4.370   6.080
12173DOPC   C1B 4629   3.447   4.490   5.010
12173DOPC   D2B 4630   3.147   4.230   5.300
12173DOPC   C3B 4631   2.917   4.260   4.920
12173DOPC   C4B 4632   2.517   4.410   4.600
12174DOPC   NC3 4633  18.237   5.740   7.390
12174DOPC   PO4 4634  18.127   5.410   7.140
12174DOPC   GL1 4635  18.307   5.080   7.020
12174DOPC   GL2 4636  18.477   5.230   6.830
12174DOPC   C1A 4637  18.577   5.040   7.300
12174DOPC   D2A 4638  18.947   5.290   7.480
12174DOPC   C3A 4639  19.347   5.270   7.240
12174DOPC   C4A 4640  19.807   5.130   7.300
12174DOPC   C1B 4641  18.847   5.380   6.990
12174DOPC   D2B 4642  19.217   5.710   7.120
12174DOPC   C3B 4643  19.697   5.760   7.190
12174DOPC   C4B 4644  20.137   5.930   7.270
12175DOPC   NC3 4645  11.957   0.870  11.050
12175DOPC   PO4 4646  11.987   1.020  11.400
12175DOPC   GL1 4647  11.747   0.890  11.700
12175DOPC   GL2 4648  11.917   0.690  11.780
12175DOPC   C1A 4649  11.417   0.940  11.950
12175DOPC   D2A 4650  11.127   1.200  12.210
12175DOPC   C3A 4651  10.777   1.320  12.550
12175DOPC   C4A 4652  10.437   1.040  12.760
12175DOPC   C1B 4653  11.877   0.600  12.230
12175DOPC   D2B 4654  11.687   0.590  12.690
12175DOPC   C3B 4655  11.227   0.480  12.830
12175DOPC   C4B 4656  10.757   0.490  12.790
12176DOPC   NC3 4657   7.327   0.660   7.500
12176DOPC   PO4 4658   7.147   0.510   7.190
12176DOPC   GL1 4659   6.797   0.500   7.380
12176DOPC   GL2 4660   6.667   0.320   7.210
12176DOPC   C1A 4661   6.647   0.820   7.620
12176DOPC   D2A 4662   6.277   0.990   7.920
12176DOPC   C3A 4663   5.887   1.230   7.980
12176DOPC   C4A 4664   5.537   1.240   8.180
12176DOPC   C1B 4665   6.547   7.840   7.350
12176DOPC   D2B 4666   6.367   7.390   7.420
12176DOPC   C3B 4667   6.207   7.300   7.890
12176DOPC   C4B 4668   5.937   7.180   8.290
12177DOPC   NC3 4669  16.197   0.020  10.170
12177DOPC   PO4 4670  16.167   0.380  10.010
12177DOPC   GL1 4671  16.527   0.400  10.260
12177DOPC   GL2 4672  16.247   0.330  10.480
12177DOPC   C1A 4673  16.817   0.670  10.390
12177DOPC   D2A 4674  17.047   0.820  10.850
12177DOPC   C3A 4675  17.467   0.720  10.970
12177DOPC   C4A 4676  17.827   0.570  11.110
12177DOPC   C1B 4677  16.177   0.150  10.900
12177DOPC   D2B 4678  16.397   0.170  11.310
12177DOPC   C3B 4679  16.337   0.390  11.680
12177DOPC   C4B 4680  16.367   0.700  12.070
12178DOPC   NC3 4681  15.227   0.370  10.270
12178DOPC   PO4 4682  15.487   0.490  10.560
12178DOPC   GL1 4683  15.727   0.410  10.860
12178DOPC   GL2 4684  15.967   0.570  10.700
12178DOPC   C1A 4685  16.087   0.630  11.140
12178DOPC   D2A 4686  16.307   0.880  11.490
12178DOPC   C3A 4687  16.737   0.790  11.730
12178DOPC   C4A 4688  17.087   0.590  11.980
12178DOPC   C1B 4689  16.037   1.040  10.840
12178DOPC   D2B 4690  16.157   1.280  11.200
12178DOPC   C3B 4691  16.067   1.390  11.600
12178DOPC   C4B 4692  16.367   1.710  11.650
12179DOPC   NC3 4693  16.727   2.440   8.660
12179DOPC   PO4 4694  16.927   2.770   8.510
12179DOPC   GL1 4695  17.247   2.610   8.750
12179DOPC   GL2 4696  17.287   2.410   8.560
12179DOPC   C1A 4697  17.657   2.730   8.780
12179DOPC   D2A 4698  17.937   3.160   8.790
12179DOPC   C3A 4699  18.197   3.510   8.930
12179DOPC   C4A 4700  18.147   3.800   9.360
12179DOPC   C1B 4701  17.747   2.200   8.620
12179DOPC   D2B 4702  18.097   2.070   8.930
12179DOPC   C3B 4703  18.177   2.110   9.380
12179DOPC   C4B 4704  18.337   2.010   9.830
12180DOPC   NC3 4705   5.567   0.990   5.380
12180DOPC   PO4 4706   5.587   1.340   5.560
12180DOPC   GL1 4707   5.447   1.470   5.960
12180DOPC   GL2 4708   5.347   1.170   6.030
12180DOPC   C1A 4709   5.077   1.740   5.910
12180DOPC   D2A 4710   4.617   1.880   6.130
12180DOPC   C3A 4711   4.457   1.660   6.550
12180DOPC   C4A 4712   4.507   1.780   7.080
12180DOPC   C1B 4713   5.057   1.320   6.370
12180DOPC   D2B 4714   4.837   1.420   6.770
12180DOPC   C3B 4715   4.747   1.200   7.140
12180DOPC   C4B 4716   4.807   0.960   7.490
12181DOPC   NC3 4717  12.907   5.270  11.450
12181DOPC   PO4 4718  12.747   4.930  11.610
12181DOPC   GL1 4719  12.497   4.840  11.950
12181DOPC   GL2 4720  12.467   5.130  11.930
12181DOPC   C1A 4721  12.547   4.710  12.430
12181DOPC   D2A 4722  12.347   4.620  12.810
12181DOPC   C3A 4723  12.607   4.530  13.180
12181DOPC   C4A 4724  12.677   4.310  13.660
12181DOPC   C1B 4725  12.487   5.210  12.330
12181DOPC   D2B 4726  12.637   5.060  12.810
12181DOPC   C3B 4727  12.327   4.970  13.190
12181DOPC   C4B 4728  12.067   4.980  13.660
12182DOPC   NC3 4729   8.827   4.250   9.250
12182DOPC   PO4 4730   9.197   4.410   9.210
12182DOPC   GL1 4731   8.867   4.690   9.360
12182DOPC   GL2 4732   9.007   4.560   9.600
12182DOPC   C1A 4733   8.517   4.540   9.550
12182DOPC   D2A 4734   8.457   4.570  10.010
12182DOPC   C3A 4735   8.357   4.460  10.550
12182DOPC   C4A 4736   8.277   4.420  11.040
12182DOPC   C1B 4737   8.817   4.260   9.890
12182DOPC   D2B 4738   8.547   4.110  10.240
12182DOPC   C3B 4739   8.107   3.990  10.190
12182DOPC   C4B 4740   7.657   3.800  10.360
12183DOPC   NC3 4741  11.977   3.800  11.370
12183DOPC   PO4 4742  12.107   3.460  11.570
12183DOPC   GL1 4743  11.797   3.660  11.860
12183DOPC   GL2 4744  11.697   3.830  11.750
12183DOPC   C1A 4745  11.497   3.570  12.170
12183DOPC   D2A 4746  11.157   3.550  12.580
12183DOPC   C3A 4747  10.787   3.810  12.660
12183DOPC   C4A 4748  10.537   4.200  12.550
12183DOPC   C1B 4749  11.537   4.140  12.130
12183DOPC   D2B 4750  11.157   4.070  12.490
12183DOPC   C3B 4751  11.027   4.220  12.850
12183DOPC   C4B 4752  10.987   4.480  13.310
12184DOPC   NC3 4753  12.167   3.060  11.850
12184DOPC   PO4 4754  12.437   2.780  11.830
12184DOPC   GL1 4755  12.157   2.530  11.950
12184DOPC   GL2 4756  11.957   2.630  11.780
12184DOPC   C1A 4757  12.167   2.810  12.340
12184DOPC   D2A 4758  12.227   3.140  12.700
12184DOPC   C3A 4759  12.157   3.230  13.160
12184DOPC   C4A 4760  12.027   3.380  13.610
12184DOPC   C1B 4761  11.697   2.400  12.090
12184DOPC   D2B 4762  11.417   2.320  12.440
12184DOPC   C3B 4763  11.657   2.290  12.820
12184DOPC   C4B 4764  11.917   2.040  13.160
12185DOPC   NC3 4765  20.847   1.040   4.670
12185DOPC   PO4 4766  20.647   1.370   4.630
12185DOPC   GL1 4767  20.687   1.520   5.050
12185DOPC   GL2 4768  20.960   1.410   4.930
12185DOPC   C1A 4769  20.827   1.880   5.220
12185DOPC   D2A 4770  21.210   2.030   5.520
12185DOPC   C3A 4771  21.170   2.030   5.980
12185DOPC   C4A 4772  21.370   1.970   6.430
12185DOPC   C1B 4773  21.240   1.640   5.170
12185DOPC   D2B 4774  21.650   1.620   5.470
12185DOPC   C3B 4775  22.050   1.780   5.660
12185DOPC   C4B 4776  22.380   2.100   5.580
12186DOPC   NC3 4777   2.977   1.850   3.750
12186DOPC   PO4 4778   3.037   1.870   4.140
12186DOPC   GL1 4779   2.807   1.700   4.460
12186DOPC   GL2 4780   2.607   1.950   4.430
12186DOPC   C1A 4781   2.807   1.800   4.880
12186DOPC   D2A 4782   2.787   1.650   5.350
12186DOPC   C3A 4783   2.667   1.370   5.690
12186DOPC   C4A 4784   2.737   1.220   6.150
12186DOPC   C1B 4785   2.657   2.280   4.710
12186DOPC   D2B 4786   2.627   2.440   5.130
12186DOPC   C3B 4787   2.567   2.300   5.550
12186DOPC   C4B 4788   2.467   2.290   6.020
12187DOPC   NC3 4789  21.540   3.350   3.610
12187DOPC   PO4 4790  21.510   3.070   3.920
12187DOPC   GL1 4791  21.510   3.150   4.340
12187DOPC   GL2 4792  21.890   3.230   4.300
12187DOPC   C1A 4793  21.500   3.010   4.750
12187DOPC   D2A 4794  21.480   3.060   5.240
12187DOPC   C3A 4795  21.700   3.460   5.230
12187DOPC   C4A 4796  21.970   3.850   5.020
12187DOPC   C1B 4797  22.010   3.570   4.360
12187DOPC   D2B 4798  22.190   3.930   4.560
12187DOPC   C3B 4799  22.460   4.040   4.940
12187DOPC   C4B 4800  22.670   4.190   5.390
23975DOPC   NC3 4801  22.560   2.830   7.480
23975DOPC   PO4 4802  22.820   2.590   7.280
23975DOPC   GL1 4803  22.620   2.700   6.920
23975DOPC   GL2 4804  22.410   2.510   6.950
23975DOPC   C1A 4805  22.380   3.020   6.680
23975DOPC   D2A 4806  22.170   3.180   6.240
23975DOPC   C3A 4807  22.440   2.810   6.190
23975DOPC   C4A 4808  22.820   2.630   6.450
23975DOPC   C1B 4809  22.120   2.620   6.640
23975DOPC   D2B 4810  21.900   2.740   6.230
23975DOPC   C3B 4811  21.560   3.040   6.260
23975DOPC   C4B 4812  21.430   3.370   6.610
23976DOPC   NC3 4813  13.277   1.890  15.870
23976DOPC   PO4 4814  13.337   2.270  15.830
23976DOPC   GL1 4815  13.287   2.470  15.470
23976DOPC   GL2 4816  13.567   2.420  15.460
23976DOPC   C1A 4817  13.057   2.510  15.130
23976DOPC   D2A 4818  12.897   2.700  14.640
23976DOPC   C3A 4819  13.297   2.800  14.370
23976DOPC   C4A 4820  13.567   2.730  13.960
23976DOPC   C1B 4821  13.767   2.240  15.140
23976DOPC   D2B 4822  14.297   2.260  15.010
23976DOPC   C3B 4823  14.087   2.170  14.620
23976DOPC   C4B 4824  13.817   1.910  14.310
23977DOPC   NC3 4825  19.627   3.640  12.370
23977DOPC   PO4 4826  19.467   3.700  11.970
23977DOPC   GL1 4827  19.137   4.040  11.900
23977DOPC   GL2 4828  19.197   4.100  11.670
23977DOPC   C1A 4829  18.707   4.000  11.870
23977DOPC   D2A 4830  18.237   3.890  11.650
23977DOPC   C3A 4831  18.207   3.720  11.250
23977DOPC   C4A 4832  17.957   3.550  10.850
23977DOPC   C1B 4833  18.967   4.270  11.400
23977DOPC   D2B 4834  18.707   4.580  11.030
23977DOPC   C3B 4835  18.477   4.740  10.600
23977DOPC   C4B 4836  18.087   4.630  10.210
23978DOPC   NC3 4837   4.347   2.620  10.060
23978DOPC   PO4 4838   3.977   2.600   9.890
23978DOPC   GL1 4839   4.087   2.890   9.650
23978DOPC   GL2 4840   4.347   2.930   9.750
23978DOPC   C1A 4841   4.177   2.990   9.230
23978DOPC   D2A 4842   4.287   2.980   8.720
23978DOPC   C3A 4843   4.547   3.080   8.400
23978DOPC   C4A 4844   4.867   3.120   8.100
23978DOPC   C1B 4845   4.627   2.620   9.580
23978DOPC   D2B 4846   5.037   2.620   9.270
23978DOPC   C3B 4847   5.457   2.440   9.360
23978DOPC   C4B 4848   5.737   2.130   9.130
23979DOPC   NC3 4849  19.757   4.580  12.110
23979DOPC   PO4 4850  19.437   4.410  11.970
23979DOPC   GL1 4851  19.107   4.580  11.770
23979DOPC   GL2 4852  18.897   4.490  11.960
23979DOPC   C1A 4853  18.907   4.880  11.480
23979DOPC   D2A 4854  18.607   5.240  11.550
23979DOPC   C3A 4855  18.497   5.700  11.470
23979DOPC   C4A 4856  18.727   6.080  11.200
23979DOPC   C1B 4857  18.477   4.450  11.860
23979DOPC   D2B 4858  18.037   4.700  11.780
23979DOPC   C3B 4859  17.807   4.600  11.420
23979DOPC   C4B 4860  17.557   4.400  10.990
23980DOPC   NC3 4861   6.707   4.530  12.870
23980DOPC   PO4 4862   6.727   4.180  12.720
23980DOPC   GL1 4863   7.057   3.990  12.460
23980DOPC   GL2 4864   7.127   4.280  12.390
23980DOPC   C1A 4865   7.237   3.770  12.090
23980DOPC   D2A 4866   7.367   3.670  11.630
23980DOPC   C3A 4867   7.367   3.590  11.220
23980DOPC   C4A 4868   7.437   3.690  10.810
23980DOPC   C1B 4869   7.587   4.330  12.380
23980DOPC   D2B 4870   7.997   4.370  12.170
23980DOPC   C3B 4871   8.127   4.100  11.790
23980DOPC   C4B 4872   8.287   3.950  11.320
23981DOPC   NC3 4873   4.207   4.250  10.240
23981DOPC   PO4 4874   4.527   4.490  10.300
23981DOPC   GL1 4875   4.857   4.330  10.170
23981DOPC   GL2 4876   4.977   4.150  10.340
23981DOPC   C1A 4877   5.147   4.500  10.000
23981DOPC   D2A 4878   5.597   4.320   9.780
23981DOPC   C3A 4879   5.767   4.180   9.360
23981DOPC   C4A 4880   6.057   3.810   9.190
23981DOPC   C1B 4881   5.417   4.140  10.260
23981DOPC   D2B 4882   5.897   4.180  10.310
23981DOPC   C3B 4883   6.037   4.160   9.830
23981DOPC   C4B 4884   6.257   4.240   9.410
23982DOPC   NC3 4885   0.807   2.990   7.050
23982DOPC   PO4 4886   0.397   3.100   6.960
23982DOPC   GL1 4887   0.077   3.240   6.630
23982DOPC   GL2 4888   0.217   3.020   6.530
23982DOPC   C1A 4889   0.127   3.640   6.460
23982DOPC   D2A 4890   0.187   4.040   6.150
23982DOPC   C3A 4891   0.587   4.180   5.900
23982DOPC   C4A 4892   0.877   4.480   5.600
23982DOPC   C1B 4893   0.407   3.220   6.160
23982DOPC   D2B 4894   0.587   3.170   5.720
23982DOPC   C3B 4895   1.007   3.410   5.830
23982DOPC   C4B 4896   1.507   3.520   5.880
23983DOPC   NC3 4897  14.277   3.010  15.740
23983DOPC   PO4 4898  14.077   2.680  15.830
23983DOPC   GL1 4899  13.947   2.610  15.430
23983DOPC   GL2 4900  13.887   2.930  15.460
23983DOPC   C1A 4901  14.037   2.700  15.010
23983DOPC   D2A 4902  14.027   2.780  14.510
23983DOPC   C3A 4903  14.027   2.610  14.110
23983DOPC   C4A 4904  13.987   2.350  13.690
23983DOPC   C1B 4905  13.747   3.150  15.100
23983DOPC   D2B 4906  13.617   3.030  14.630
23983DOPC   C3B 4907  13.837   3.070  14.190
23983DOPC   C4B 4908  14.117   3.190  13.830
23984DOPC   NC3 4909   1.537   0.330   8.430
23984DOPC   PO4 4910   1.807   0.500   8.230
23984DOPC   GL1 4911   1.917   0.300   7.840
23984DOPC   GL2 4912   2.037   0.150   7.840
23984DOPC   C1A 4913   2.077   0.530   7.510
23984DOPC   D2A 4914   2.237   0.880   7.130
23984DOPC   C3A 4915   2.687   0.910   7.070
23984DOPC   C4A 4916   3.057   0.990   6.790
23984DOPC   C1B 4917   2.247   0.080   7.420
23984DOPC   D2B 4918   2.497   0.050   7.010
23984DOPC   C3B 4919   2.427   0.520   6.760
23984DOPC   C4B 4920   2.587   0.930   6.600
23985DOPC   NC3 4921  23.960   0.300   7.420
23985DOPC   PO4 4922  23.720   0.450   7.120
23985DOPC   GL1 4923  23.690   0.360   6.720
23985DOPC   GL2 4924  23.850   0.130   6.700
23985DOPC   C1A 4925  23.530   0.620   6.420
23985DOPC   D2A 4926  23.310   1.060   6.300
23985DOPC   C3A 4927  23.360   1.470   6.080
23985DOPC   C4A 4928  23.260   1.870   5.780
23985DOPC   C1B 4929  23.760   7.770   6.350
23985DOPC   D2B 4930  23.340   7.550   6.160
23985DOPC   C3B 4931  23.190   7.360   5.780
23985DOPC   C4B 4932  23.000   7.000   5.570
23986DOPC   NC3 4933  17.067   6.990  14.520
23986DOPC   PO4 4934  16.757   7.070  14.350
23986DOPC   GL1 4935  16.427   7.020  14.080
23986DOPC   GL2 4936  16.437   7.230  14.000
23986DOPC   C1A 4937  16.297   6.830  13.640
23986DOPC   D2A 4938  16.157   6.530  13.280
23986DOPC   C3A 4939  15.867   6.260  12.970
23986DOPC   C4A 4940  15.597   5.920  12.710
23986DOPC   C1B 4941  16.317   7.310  13.560
23986DOPC   D2B 4942  16.337   7.350  13.070
23986DOPC   C3B 4943  16.357   6.990  12.790
23986DOPC   C4B 4944  16.277   6.490  12.780
23987DOPC   NC3 4945  17.617   1.280  13.490
23987DOPC   PO4 4946  17.637   1.640  13.620
23987DOPC   GL1 4947  17.387   1.870  13.450
23987DOPC   GL2 4948  17.107   1.800  13.650
23987DOPC   C1A 4949  17.147   1.740  13.110
23987DOPC   D2A 4950  16.737   1.400  13.080
23987DOPC   C3A 4951  16.837   1.150  12.680
23987DOPC   C4A 4952  16.807   0.940  12.200
23987DOPC   C1B 4953  16.807   2.070  13.410
23987DOPC   D2B 4954  16.527   2.440  13.400
23987DOPC   C3B 4955  16.067   2.430  13.390
23987DOPC   C4B 4956  15.587   2.460  13.430
23988DOPC   NC3 4957  24.920   0.000   7.370
23988DOPC   PO4 4958  24.730   7.570   7.300
23988DOPC   GL1 4959  24.630   7.620   6.900
23988DOPC   GL2 4960  24.550   7.410   6.830
23988DOPC   C1A 4961  24.300   7.800   6.600
23988DOPC   D2A 4962  24.200   0.010   6.130
23988DOPC   C3A 4963  24.260   0.050   5.640
23988DOPC   C4A 4964  24.170   0.220   5.250
23988DOPC   C1B 4965  24.500   7.320   6.440
23988DOPC   D2B 4966  24.700   7.190   5.990
23988DOPC   C3B 4967  24.720   7.400   5.600
23988DOPC   C4B 4968  24.550   7.690   5.280
23989DOPC   NC3 4969   7.377   7.110  12.830
23989DOPC   PO4 4970   7.537   6.860  13.130
23989DOPC   GL1 4971   7.837   6.820  12.930
23989DOPC   GL2 4972   7.877   7.080  12.770
23989DOPC   C1A 4973   8.167   6.490  12.850
23989DOPC   D2A 4974   8.337   6.030  12.740
23989DOPC   C3A 4975   8.727   5.900  12.400
23989DOPC   C4A 4976   9.157   5.630  12.360
23989DOPC   C1B 4977   7.967   7.180  12.370
23989DOPC   D2B 4978   8.227   7.210  12.000
23989DOPC   C3B 4979   8.627   7.420  11.980
23989DOPC   C4B 4980   8.957   7.800  12.060
23990DOPC   NC3 4981   5.597   0.350  12.280
23990DOPC   PO4 4982   5.937   0.450  12.380
23990DOPC   GL1 4983   6.267   0.580  12.220
23990DOPC   GL2 4984   6.357   0.360  12.190
23990DOPC   C1A 4985   6.417   0.970  11.900
23990DOPC   D2A 4986   6.617   1.300  11.690
23990DOPC   C3A 4987   6.387   1.450  11.320
23990DOPC   C4A 4988   6.207   1.530  10.790
23990DOPC   C1B 4989   6.627   0.120  11.920
23990DOPC   D2B 4990   6.917   7.740  11.590
23990DOPC   C3B 4991   7.077   7.470  11.230
23990DOPC   C4B 4992   7.257   7.280  10.820
23991DOPC   NC3 4993  11.477   5.690  15.700
23991DOPC   PO4 4994  11.617   5.880  16.000
23991DOPC   GL1 4995  11.447   6.210  15.810
23991DOPC   GL2 4996  11.277   6.070  15.590
23991DOPC   C1A 4997  11.707   6.510  15.570
23991DOPC   D2A 4998  11.747   6.620  15.090
23991DOPC   C3A 4999  11.987   6.870  14.800
23991DOPC   C4A 5000  12.337   7.010  14.520
23991DOPC   C1B 5001  11.547   6.180  15.290
23991DOPC   D2B 5002  11.907   6.160  14.910
23991DOPC   C3B 5003  11.977   6.020  14.500
23991DOPC   C4B 5004  12.087   6.090  14.040
23992DOPC   NC3 5005  12.307   4.200  15.700
23992DOPC   PO4 5006  12.647   4.270  15.870
23992DOPC   GL1 5007  12.847   4.160  15.450
23992DOPC   GL2 5008  12.897   4.330  15.290
23992DOPC   C1A 5009  12.687   3.940  15.120
23992DOPC   D2A 5010  12.567   3.920  14.640
23992DOPC   C3A 5011  12.647   3.570  14.280
23992DOPC   C4A 5012  12.587   3.270  13.860
23992DOPC   C1B 5013  12.757   4.350  14.850
23992DOPC   D2B 5014  12.917   4.200  14.340
23992DOPC   C3B 5015  13.117   4.250  13.930
23992DOPC   C4B 5016  13.437   4.210  13.550
23993DOPC   NC3 5017  20.287   7.660  11.310
23993DOPC   PO4 5018  20.087   0.090  11.130
23993DOPC   GL1 5019  19.837   0.030  10.780
23993DOPC   GL2 5020  19.607   0.240  10.850
23993DOPC   C1A 5021  19.587   0.110  10.390
23993DOPC   D2A 5022  19.237   7.840  10.000
23993DOPC   C3A 5023  18.957   7.450  10.090
23993DOPC   C4A 5024  18.627   7.140   9.880
23993DOPC   C1B 5025  19.197   0.340  10.820
23993DOPC   D2B 5026  18.747   0.500  10.720
23993DOPC   C3B 5027  18.537   0.520  10.300
23993DOPC   C4B 5028  18.347   0.500   9.820
23994DOPC   NC3 5029  21.860   6.850   8.620
23994DOPC   PO4 5030  21.800   6.670   8.300
23994DOPC   GL1 5031  21.560   6.470   7.890
23994DOPC   GL2 5032  21.350   6.360   8.100
23994DOPC   C1A 5033  21.290   6.790   7.700
23994DOPC   D2A 5034  21.080   7.030   7.330
23994DOPC   C3A 5035  21.040   7.520   7.280
23994DOPC   C4A 5036  20.647   7.810   7.170
23994DOPC   C1B 5037  20.930   6.530   8.000
23994DOPC   D2B 5038  20.527   6.350   7.810
23994DOPC   C3B 5039  20.327   5.940   7.730
23994DOPC   C4B 5040  20.087   5.510   7.500
23995DOPC   NC3 5041   3.587   7.280   9.480
23995DOPC   PO4 5042   3.647   7.640   9.330
23995DOPC   GL1 5043   3.767   0.030   8.880
23995DOPC   GL2 5044   3.887   7.620   8.820
23995DOPC   C1A 5045   4.007   0.330   8.910
23995DOPC   D2A 5046   4.407   0.570   8.870
23995DOPC   C3A 5047   4.717   0.750   8.500
23995DOPC   C4A 5048   4.837   0.770   8.050
23995DOPC   C1B 5049   3.997   7.550   8.460
23995DOPC   D2B 5050   3.987   7.480   7.930
23995DOPC   C3B 5051   4.327   7.590   7.590
23995DOPC   C4B 5052   4.617   7.810   7.290
23996DOPC   NC3 5053   2.807   2.630   9.470
23996DOPC   PO4 5054   2.887   2.380   9.130
23996DOPC   GL1 5055   3.357   2.400   8.880
23996DOPC   GL2 5056   3.317   2.700   8.730
23996DOPC   C1A 5057   3.727   2.270   8.770
23996DOPC   D2A 5058   4.207   2.160   8.670
23996DOPC   C3A 5059   4.547   2.100   8.240
23996DOPC   C4A 5060   4.907   2.020   7.940
23996DOPC   C1B 5061   3.687   3.010   8.630
23996DOPC   D2B 5062   4.027   3.340   8.440
23996DOPC   C3B 5063   4.117   3.780   8.220
23996DOPC   C4B 5064   4.147   4.210   8.020
23997DOPC   NC3 5065  12.037   3.570  15.920
23997DOPC   PO4 5066  11.927   3.890  15.700
23997DOPC   GL1 5067  12.037   3.850  15.260
23997DOPC   GL2 5068  12.117   4.150  15.260
23997DOPC   C1A 5069  11.937   3.800  14.780
23997DOPC   D2A 5070  12.137   3.900  14.390
23997DOPC   C3A 5071  12.267   3.670  13.950
23997DOPC   C4A 5072  12.477   3.560  13.470
23997DOPC   C1B 5073  12.267   4.260  14.880
23997DOPC   D2B 5074  12.377   4.380  14.380
23997DOPC   C3B 5075  12.517   4.100  14.100
23997DOPC   C4B 5076  12.767   3.780  13.820
23998DOPC   NC3 5077  18.677   4.660  12.880
23998DOPC   PO4 5078  18.557   4.790  13.230
23998DOPC   GL1 5079  18.297   5.150  13.200
23998DOPC   GL2 5080  18.087   4.930  13.270
23998DOPC   C1A 5081  18.147   5.320  12.840
23998DOPC   D2A 5082  17.877   5.120  12.510
23998DOPC   C3A 5083  17.747   5.060  12.040
23998DOPC   C4A 5084  17.597   5.090  11.550
23998DOPC   C1B 5085  17.737   5.100  13.010
23998DOPC   D2B 5086  17.357   4.980  12.770
23998DOPC   C3B 5087  17.417   4.780  12.350
23998DOPC   C4B 5088  17.567   4.630  11.860
23999DOPC   NC3 5089  20.267   4.580  10.400
23999DOPC   PO4 5090  20.317   4.250  10.200
23999DOPC   GL1 5091  20.047   4.480  10.020
23999DOPC   GL2 5092  20.147   4.530   9.780
23999DOPC   C1A 5093  19.787   4.130   9.910
23999DOPC   D2A 5094  19.287   3.900   9.800
23999DOPC   C3A 5095  18.927   4.160   9.680
23999DOPC   C4A 5096  18.627   4.450   9.430
23999DOPC   C1B 5097  19.857   4.810   9.520
23999DOPC   D2B 5098  19.537   4.980   9.170
23999DOPC   C3B 5099  19.107   4.940   9.090
23999DOPC   C4B 5100  18.647   4.790   9.100
24000DOPC   NC3 5101  15.117   3.420  15.450
24000DOPC   PO4 5102  14.967   3.070  15.590
24000DOPC   GL1 5103  14.667   3.200  15.320
24000DOPC   GL2 5104  14.807   3.220  15.120
24000DOPC   C1A 5105  14.237   3.240  15.220
24000DOPC   D2A 5106  14.097   3.650  15.150
24000DOPC   C3A 5107  13.657   3.810  15.220
24000DOPC   C4A 5108  13.227   4.030  14.980
24000DOPC   C1B 5109  14.557   3.020  14.840
24000DOPC   D2B 5110  14.447   3.040  14.330
24000DOPC   C3B 5111  14.447   2.870  13.880
24000DOPC   C4B 5112  14.357   3.000  13.350
24001DOPC   NC3 5113   4.817   7.000  10.090
24001DOPC   PO4 5114   4.807   7.350  10.220
24001DOPC   GL1 5115   4.867   7.560   9.890
24001DOPC   GL2 5116   4.917   7.310   9.770
24001DOPC   C1A 5117   5.167   7.750   9.710
24001DOPC   D2A 5118   5.587   7.840   9.500
24001DOPC   C3A 5119   5.697   7.750   9.060
24001DOPC   C4A 5120   5.717   7.560   8.580
24001DOPC   C1B 5121   5.347   7.160   9.710
24001DOPC   D2B 5122   5.727   6.860   9.640
24001DOPC   C3B 5123   6.147   6.980   9.870
24001DOPC   C4B 5124   6.587   7.070   9.970
24002DOPC   NC3 5125   2.287   5.130   8.310
24002DOPC   PO4 5126   2.707   5.100   8.260
24002DOPC   GL1 5127   2.947   5.160   7.980
24002DOPC   GL2 5128   3.117   5.360   8.030
24002DOPC   C1A 5129   3.237   5.010   7.700
24002DOPC   D2A 5130   3.617   4.800   7.510
24002DOPC   C3A 5131   3.807   5.100   7.070
24002DOPC   C4A 5132   3.587   5.470   6.910
24002DOPC   C1B 5133   3.097   5.530   7.660
24002DOPC   D2B 5134   3.357   5.790   7.290
24002DOPC   C3B 5135   3.537   5.960   6.910
24002DOPC   C4B 5136   3.417   6.220   6.460
24003DOPC   NC3 5137   3.977   1.080   9.520
24003DOPC   PO4 5138   3.817   0.750   9.380
24003DOPC   GL1 5139   3.977   0.820   8.950
24003DOPC   GL2 5140   4.237   0.980   9.020
24003DOPC   C1A 5141   4.057   0.800   8.580
24003DOPC   D2A 5142   4.237   0.640   8.170
24003DOPC   C3A 5143   4.577   0.390   8.150
24003DOPC   C4A 5144   4.887   0.010   8.250
24003DOPC   C1B 5145   4.297   1.230   8.660
24003DOPC   D2B 5146   4.487   1.590   8.410
24003DOPC   C3B 5147   4.527   1.550   7.930
24003DOPC   C4B 5148   4.467   1.880   7.600
24004DOPC   NC3 5149  11.267   4.950  15.270
24004DOPC   PO4 5150  11.377   5.320  15.390
24004DOPC   GL1 5151  11.537   5.380  15.020
24004DOPC   GL2 5152  11.307   5.180  14.890
24004DOPC   C1A 5153  11.677   5.540  14.640
24004DOPC   D2A 5154  11.727   5.690  14.180
24004DOPC   C3A 5155  11.577   5.980  13.850
24004DOPC   C4A 5156  11.267   6.260  13.840
24004DOPC   C1B 5157  11.527   5.080  14.490
24004DOPC   D2B 5158  11.897   5.220  14.140
24004DOPC   C3B 5159  12.097   5.490  13.900
24004DOPC   C4B 5160  12.277   5.890  13.620
24005DOPC   NC3 5161   8.467   4.220  14.190
24005DOPC   PO4 5162   8.327   3.920  13.960
24005DOPC   GL1 5163   8.757   3.970  13.790
24005DOPC   GL2 5164   8.637   3.720  13.630
24005DOPC   C1A 5165   8.997   4.200  13.440
24005DOPC   D2A 5166   9.087   4.150  13.030
24005DOPC   C3A 5167   9.307   4.180  12.590
24005DOPC   C4A 5168   9.687   4.190  12.220
24005DOPC   C1B 5169   8.947   3.710  13.240
24005DOPC   D2B 5170   9.027   3.690  12.750
24005DOPC   C3B 5171   9.527   3.700  12.640
24005DOPC   C4B 5172   9.867   3.440  12.500
24006DOPC   NC3 5173  23.930   0.790   6.840
24006DOPC   PO4 5174  24.220   0.540   6.900
24006DOPC   GL1 5175  24.200   0.400   6.550
24006DOPC   GL2 5176  24.500   0.400   6.460
24006DOPC   C1A 5177  23.910   0.370   6.270
24006DOPC   D2A 5178  23.870   0.290   5.780
24006DOPC   C3A 5179  24.030   0.640   5.570
24006DOPC   C4A 5180  24.350   0.890   5.310
24006DOPC   C1B 5181  24.800   0.490   6.090
24006DOPC   D2B 5182  25.110   0.470   5.690
24006DOPC   C3B 5183  25.130   0.420   5.230
24006DOPC   C4B 5184  24.940   0.410   4.750
24007DOPC   NC3 5185   9.437   4.180  14.610
24007DOPC   PO4 5186   9.317   3.820  14.500
24007DOPC   GL1 5187   9.517   3.730  14.220
24007DOPC   GL2 5188   9.377   3.570  14.050
24007DOPC   C1A 5189   9.657   4.010  13.960
24007DOPC   D2A 5190   9.877   4.110  13.490
24007DOPC   C3A 5191  10.147   4.320  13.180
24007DOPC   C4A 5192  10.637   4.500  12.910
24007DOPC   C1B 5193   9.597   3.530  13.670
24007DOPC   D2B 5194   9.857   3.490  13.240
24007DOPC   C3B 5195   9.947   3.730  12.910
24007DOPC   C4B 5196  10.067   3.900  12.490
24008DOPC   NC3 5197   0.597   6.880   7.310
24008DOPC   PO4 5198   0.937   6.810   7.530
24008DOPC   GL1 5199   1.287   6.800   7.300
24008DOPC   GL2 5200   1.387   6.600   7.380
24008DOPC   C1A 5201   1.287   6.680   6.860
24008DOPC   D2A 5202   1.227   6.550   6.380
24008DOPC   C3A 5203   1.577   6.770   6.150
24008DOPC   C4A 5204   1.627   7.070   5.830
24008DOPC   C1B 5205   1.817   6.760   7.350
24008DOPC   D2B 5206   1.967   7.230   7.190
24008DOPC   C3B 5207   2.187   7.420   6.850
24008DOPC   C4B 5208   2.107   7.560   6.400
24009DOPC   NC3 5209   8.977   2.660  13.910
24009DOPC   PO4 5210   8.967   3.040  14.070
24009DOPC   GL1 5211   9.137   3.290  13.790
24009DOPC   GL2 5212   8.977   3.340  13.600
24009DOPC   C1A 5213   9.457   3.030  13.620
24009DOPC   D2A 5214   9.757   2.990  13.280
24009DOPC   C3A 5215  10.047   3.200  12.900
24009DOPC   C4A 5216  10.357   3.530  12.650
24009DOPC   C1B 5217   9.287   3.340  13.270
24009DOPC   D2B 5218   9.537   3.200  12.860
24009DOPC   C3B 5219   9.407   3.220  12.420
24009DOPC   C4B 5220   9.077   3.630  12.250
24010DOPC   NC3 5221   0.717   0.760   7.650
24010DOPC   PO4 5222   0.907   0.990   7.380
24010DOPC   GL1 5223   1.027   0.970   6.980
24010DOPC   GL2 5224   1.147   1.230   6.990
24010DOPC   C1A 5225   1.297   0.740   6.730
24010DOPC   D2A 5226   1.447   0.450   6.270
24010DOPC   C3A 5227   1.447   0.260   5.830
24010DOPC   C4A 5228   1.787   7.740   5.740
24010DOPC   C1B 5229   0.957   1.330   6.640
24010DOPC   D2B 5230   0.957   1.710   6.270
24010DOPC   C3B 5231   0.637   1.690   5.920
24010DOPC   C4B 5232   0.637   1.860   5.430
24011DOPC   NC3 5233   8.987   2.860  14.510
24011DOPC   PO4 5234   9.257   2.600  14.340
24011DOPC   GL1 5235   9.297   2.390  14.010
24011DOPC   GL2 5236   9.427   2.590  13.870
24011DOPC   C1A 5237   8.917   2.110  13.920
24011DOPC   D2A 5238   8.497   1.810  13.840
24011DOPC   C3A 5239   8.607   1.440  13.600
24011DOPC   C4A 5240   8.757   0.980  13.490
24011DOPC   C1B 5241   9.557   2.470  13.450
24011DOPC   D2B 5242  10.047   2.590  13.530
24011DOPC   C3B 5243  10.277   2.760  13.160
24011DOPC   C4B 5244  10.587   3.140  12.960
24012DOPC   NC3 5245   4.327   1.760  10.070
24012DOPC   PO4 5246   4.127   1.490   9.820
24012DOPC   GL1 5247   4.127   1.660   9.350
24012DOPC   GL2 5248   4.217   1.390   9.310
24012DOPC   C1A 5249   4.297   1.780   8.960
24012DOPC   D2A 5250   4.707   1.890   8.710
24012DOPC   C3A 5251   5.087   1.820   8.430
24012DOPC   C4A 5252   5.347   2.170   8.250
24012DOPC   C1B 5253   4.557   1.340   9.050
24012DOPC   D2B 5254   4.867   1.390   8.680
24012DOPC   C3B 5255   4.927   1.310   8.270
24012DOPC   C4B 5256   4.947   1.240   7.840
24013DOPC   NC3 5257  20.007   3.280  10.780
24013DOPC   PO4 5258  19.997   3.670  10.820
24013DOPC   GL1 5259  19.747   3.850  10.930
24013DOPC   GL2 5260  19.687   3.850  11.200
24013DOPC   C1A 5261  19.347   3.730  10.740
24013DOPC   D2A 5262  18.997   3.710  10.390
24013DOPC   C3A 5263  18.627   3.930  10.310
24013DOPC   C4A 5264  18.267   4.210  10.420
24013DOPC   C1B 5265  19.307   3.930  11.260
24013DOPC   D2B 5266  18.797   3.770  11.370
24013DOPC   C3B 5267  18.477   4.070  11.180
24013DOPC   C4B 5268  18.217   4.360  10.930
24014DOPC   NC3 5269   6.617   7.450  12.640
24014DOPC   PO4 5270   6.637   7.850  12.550
24014DOPC   GL1 5271   6.967   0.200  12.320
24014DOPC   GL2 5272   7.187   0.090  12.580
24014DOPC   C1A 5273   7.237   0.470  12.340
24014DOPC   D2A 5274   7.687   0.600  12.140
24014DOPC   C3A 5275   7.757   0.560  11.720
24014DOPC   C4A 5276   7.787   0.380  11.290
24014DOPC   C1B 5277   7.547   0.140  12.240
24014DOPC   D2B 5278   7.967   0.210  12.020
24014DOPC   C3B 5279   8.207   0.250  11.560
24014DOPC   C4B 5280   8.337   0.380  11.090
24015DOPC   NC3 5281  20.697   2.120   9.730
24015DOPC   PO4 5282  20.477   2.090  10.020
24015DOPC   GL1 5283  20.177   1.930   9.850
24015DOPC   GL2 5284  20.167   1.620   9.880
24015DOPC   C1A 5285  20.217   1.880   9.410
24015DOPC   D2A 5286  20.197   1.980   8.830
24015DOPC   C3A 5287  20.077   2.300   8.570
24015DOPC   C4A 5288  19.757   2.690   8.470
24015DOPC   C1B 5289  19.917   1.280   9.740
24015DOPC   D2B 5290  19.737   0.930   9.520
24015DOPC   C3B 5291  19.307   0.970   9.710
24015DOPC   C4B 5292  18.857   0.740   9.820
24016DOPC   NC3 5293  17.997   4.630  13.880
24016DOPC   PO4 5294  17.837   5.000  13.830
24016DOPC   GL1 5295  17.497   4.920  13.610
24016DOPC   GL2 5296  17.737   4.770  13.430
24016DOPC   C1A 5297  17.187   4.860  13.310
24016DOPC   D2A 5298  16.877   4.840  12.940
24016DOPC   C3A 5299  16.897   4.950  12.540
24016DOPC   C4A 5300  16.757   4.720  12.110
24016DOPC   C1B 5301  17.627   4.590  13.050
24016DOPC   D2B 5302  17.207   4.450  12.770
24016DOPC   C3B 5303  17.067   4.380  12.370
24016DOPC   C4B 5304  16.707   4.130  12.110
24017DOPC   NC3 5305   4.887   1.390  10.730
24017DOPC   PO4 5306   4.617   1.610  10.510
24017DOPC   GL1 5307   4.867   1.830  10.270
24017DOPC   GL2 5308   4.967   2.010  10.420
24017DOPC   C1A 5309   5.197   1.730   9.960
24017DOPC   D2A 5310   5.517   1.470   9.570
24017DOPC   C3A 5311   5.707   1.540   9.140
24017DOPC   C4A 5312   5.907   1.630   8.650
24017DOPC   C1B 5313   5.327   2.100  10.330
24017DOPC   D2B 5314   5.737   1.950  10.090
24017DOPC   C3B 5315   6.237   1.820  10.150
24017DOPC   C4B 5316   6.657   1.560  10.270
24018DOPC   NC3 5317   4.117   3.160  10.050
24018DOPC   PO4 5318   4.377   3.010  10.290
24018DOPC   GL1 5319   4.747   3.030  10.130
24018DOPC   GL2 5320   4.757   2.900   9.920
24018DOPC   C1A 5321   5.197   3.020  10.190
24018DOPC   D2A 5322   5.697   3.140  10.120
24018DOPC   C3A 5323   6.127   3.280   9.860
24018DOPC   C4A 5324   6.447   3.510   9.590
24018DOPC   C1B 5325   5.047   2.910   9.660
24018DOPC   D2B 5326   5.447   3.200   9.720
24018DOPC   C3B 5327   5.837   3.290   9.450
24018DOPC   C4B 5328   6.077   3.320   9.090
24019DOPC   NC3 5329   0.467   3.830   7.130
24019DOPC   PO4 5330   0.767   4.020   7.270
24019DOPC   GL1 5331   0.887   4.310   6.950
24019DOPC   GL2 5332   0.667   4.190   6.820
24019DOPC   C1A 5333   1.187   4.310   6.680
24019DOPC   D2A 5334   1.477   4.300   6.270
24019DOPC   C3A 5335   1.617   4.090   5.820
24019DOPC   C4A 5336   1.867   4.130   5.380
24019DOPC   C1B 5337   0.897   3.890   6.550
24019DOPC   D2B 5338   1.177   3.850   6.100
24019DOPC   C3B 5339   0.967   3.910   5.710
24019DOPC   C4B 5340   0.637   4.050   5.320
24020DOPC   NC3 5341   8.927   6.500  14.230
24020DOPC   PO4 5342   8.767   6.540  13.870
24020DOPC   GL1 5343   9.247   6.640  13.820
24020DOPC   GL2 5344   9.137   6.940  13.920
24020DOPC   C1A 5345   9.657   6.640  13.520
24020DOPC   D2A 5346   9.877   6.820  13.060
24020DOPC   C3A 5347   9.887   6.460  12.810
24020DOPC   C4A 5348  10.077   6.080  12.560
24020DOPC   C1B 5349   9.237   7.250  13.590
24020DOPC   D2B 5350   9.357   7.560  13.240
24020DOPC   C3B 5351   9.647   7.450  12.910
24020DOPC   C4B 5352   9.657   7.310  12.430
24021DOPC   NC3 5353   3.647   4.540   9.620
24021DOPC   PO4 5354   3.927   4.810   9.570
24021DOPC   GL1 5355   4.277   4.740   9.330
24021DOPC   GL2 5356   4.287   4.470   9.320
24021DOPC   C1A 5357   4.677   4.880   9.240
24021DOPC   D2A 5358   5.077   4.850   8.900
24021DOPC   C3A 5359   5.437   5.180   8.840
24021DOPC   C4A 5360   5.687   5.300   9.250
24021DOPC   C1B 5361   4.707   4.210   9.220
24021DOPC   D2B 5362   4.997   3.810   9.120
24021DOPC   C3B 5363   5.127   3.690   8.720
24021DOPC   C4B 5364   5.087   4.030   8.340
24022DOPC   NC3 5365  21.560   6.060   8.430
24022DOPC   PO4 5366  21.710   6.040   8.030
24022DOPC   GL1 5367  21.470   5.800   7.770
24022DOPC   GL2 5368  21.400   6.080   7.730
24022DOPC   C1A 5369  21.250   5.530   7.460
24022DOPC   D2A 5370  21.000   5.600   7.020
24022DOPC   C3A 5371  21.130   5.240   6.720
24022DOPC   C4A 5372  21.340   4.900   6.410
24022DOPC   C1B 5373  21.070   6.340   7.570
24022DOPC   D2B 5374  20.960   6.580   7.090
24022DOPC   C3B 5375  20.940   6.910   6.720
24022DOPC   C4B 5376  20.970   7.260   6.400
24023DOPC   NC3 5377  11.307   3.530  15.650
24023DOPC   PO4 5378  11.637   3.380  15.760
24023DOPC   GL1 5379  12.007   3.200  15.630
24023DOPC   GL2 5380  12.027   3.440  15.510
24023DOPC   C1A 5381  12.127   2.950  15.290
24023DOPC   D2A 5382  12.197   2.500  15.070
24023DOPC   C3A 5383  12.627   2.330  14.980
24023DOPC   C4A 5384  13.027   2.140  14.850
24023DOPC   C1B 5385  11.847   3.370  15.060
24023DOPC   D2B 5386  11.787   3.330  14.580
24023DOPC   C3B 5387  11.757   2.950  14.300
24023DOPC   C4B 5388  11.657   2.870  13.800
24024DOPC   NC3 5389  13.087   7.030  15.780
24024DOPC   PO4 5390  12.757   7.240  15.740
24024DOPC   GL1 5391  12.637   7.240  15.380
24024DOPC   GL2 5392  12.937   7.130  15.230
24024DOPC   C1A 5393  12.307   7.340  15.120
24024DOPC   D2A 5394  11.997   7.340  14.760
24024DOPC   C3A 5395  12.327   7.560  14.580
24024DOPC   C4A 5396  12.727   7.660  14.320
24024DOPC   C1B 5397  13.277   7.390  14.990
24024DOPC   D2B 5398  13.247   7.650  14.590
24024DOPC   C3B 5399  13.627   7.700  14.410
24024DOPC   C4B 5400  13.987   0.090  14.180
24025DOPC   NC3 5401   4.817   3.090  11.150
24025DOPC   PO4 5402   4.627   3.420  11.080
24025DOPC   GL1 5403   4.867   3.660  10.810
24025DOPC   GL2 5404   5.067   3.370  10.840
24025DOPC   C1A 5405   4.917   3.670  10.410
24025DOPC   D2A 5406   5.117   3.800   9.980
24025DOPC   C3A 5407   5.437   3.690   9.650
24025DOPC   C4A 5408   5.877   3.750   9.690
24025DOPC   C1B 5409   5.347   3.160  10.620
24025DOPC   D2B 5410   5.757   2.930  10.550
24025DOPC   C3B 5411   6.087   2.850  10.220
24025DOPC   C4B 5412   6.427   2.870   9.890
24026DOPC   NC3 5413   5.997   1.670  12.830
24026DOPC   PO4 5414   6.227   1.710  12.510
24026DOPC   GL1 5415   6.577   1.740  12.400
24026DOPC   GL2 5416   6.567   2.030  12.260
24026DOPC   C1A 5417   6.817   1.520  12.130
24026DOPC   D2A 5418   7.197   1.430  11.760
24026DOPC   C3A 5419   7.327   1.470  11.280
24026DOPC   C4A 5420   7.537   1.740  10.940
24026DOPC   C1B 5421   6.647   1.940  11.860
24026DOPC   D2B 5422   6.887   1.660  11.480
24026DOPC   C3B 5423   7.067   1.850  11.070
24026DOPC   C4B 5424   7.157   2.030  10.600
24027DOPC   NC3 5425  23.200   0.520   7.210
24027DOPC   PO4 5426  23.330   0.890   7.320
24027DOPC   GL1 5427  23.400   1.010   6.930
24027DOPC   GL2 5428  23.420   0.730   6.850
24027DOPC   C1A 5429  23.510   1.300   6.700
24027DOPC   D2A 5430  23.850   1.550   6.400
24027DOPC   C3A 5431  23.860   1.410   5.960
24027DOPC   C4A 5432  23.590   1.450   5.560
24027DOPC   C1B 5433  23.090   0.590   6.670
24027DOPC   D2B 5434  22.740   0.390   6.270
24027DOPC   C3B 5435  22.450   0.380   5.990
24027DOPC   C4B 5436  22.110   0.330   5.620
24028DOPC   NC3 5437   7.457   3.470  12.820
24028DOPC   PO4 5438   7.577   3.250  13.140
24028DOPC   GL1 5439   7.877   3.030  13.000
24028DOPC   GL2 5440   8.067   3.300  13.080
24028DOPC   C1A 5441   8.067   2.890  12.610
24028DOPC   D2A 5442   8.387   2.660  12.290
24028DOPC   C3A 5443   8.697   2.690  11.960
24028DOPC   C4A 5444   9.067   2.790  11.590
24028DOPC   C1B 5445   8.037   3.510  12.680
24028DOPC   D2B 5446   8.027   3.710  12.190
24028DOPC   C3B 5447   7.687   3.930  12.060
24028DOPC   C4B 5448   7.367   4.220  11.860
24029DOPC   NC3 5449  21.300   6.810   8.950
24029DOPC   PO4 5450  21.310   7.110   8.730
24029DOPC   GL1 5451  20.970   7.180   8.440
24029DOPC   GL2 5452  20.930   6.960   8.590
24029DOPC   C1A 5453  20.980   7.040   8.040
24029DOPC   D2A 5454  20.787   6.780   7.660
24029DOPC   C3A 5455  20.487   6.700   7.300
24029DOPC   C4A 5456  20.547   6.560   6.780
24029DOPC   C1B 5457  20.557   6.810   8.430
24029DOPC   D2B 5458  20.367   6.810   7.980
24029DOPC   C3B 5459  20.147   7.300   7.890
24029DOPC   C4B 5460  19.667   7.390   8.020
24030DOPC   NC3 5461  17.847   5.960  14.030
24030DOPC   PO4 5462  17.457   5.920  13.960
24030DOPC   GL1 5463  17.247   6.190  13.670
24030DOPC   GL2 5464  17.437   6.250  13.560
24030DOPC   C1A 5465  16.937   6.300  13.410
24030DOPC   D2A 5466  16.717   6.410  13.040
24030DOPC   C3A 5467  16.717   6.680  12.610
24030DOPC   C4A 5468  16.477   7.000  12.320
24030DOPC   C1B 5469  17.607   6.310  13.120
24030DOPC   D2B 5470  17.557   6.010  12.690
24030DOPC   C3B 5471  17.147   5.830  12.600
24030DOPC   C4B 5472  17.007   5.520  12.250
24031DOPC   NC3 5473  21.220   1.730   8.800
24031DOPC   PO4 5474  21.080   2.060   8.930
24031DOPC   GL1 5475  20.837   2.340   8.660
24031DOPC   GL2 5476  20.867   2.090   8.460
24031DOPC   C1A 5477  20.557   2.500   8.440
24031DOPC   D2A 5478  20.137   2.660   8.140
24031DOPC   C3A 5479  19.677   2.640   7.900
24031DOPC   C4A 5480  19.297   2.750   7.580
24031DOPC   C1B 5481  20.637   1.740   8.470
24031DOPC   D2B 5482  20.307   1.390   8.390
24031DOPC   C3B 5483  20.007   1.280   8.030
24031DOPC   C4B 5484  19.757   1.390   7.660
24032DOPC   NC3 5485  22.480   1.440   7.880
24032DOPC   PO4 5486  22.270   1.760   7.870
24032DOPC   GL1 5487  21.800   1.820   7.740
24032DOPC   GL2 5488  21.800   1.620   7.710
24032DOPC   C1A 5489  21.560   2.030   7.450
24032DOPC   D2A 5490  21.160   2.260   7.400
24032DOPC   C3A 5491  20.707   2.300   7.540
24032DOPC   C4A 5492  20.267   2.240   7.650
24032DOPC   C1B 5493  21.600   1.560   7.370
24032DOPC   D2B 5494  21.260   1.250   7.070
24032DOPC   C3B 5495  21.060   0.820   6.990
24032DOPC   C4B 5496  20.970   0.360   6.900
24033DOPC   NC3 5497   2.287   0.540   8.020
24033DOPC   PO4 5498   2.367   0.300   8.280
24033DOPC   GL1 5499   2.677   0.150   8.020
24033DOPC   GL2 5500   2.527   0.220   7.740
24033DOPC   C1A 5501   3.087   7.810   7.910
24033DOPC   D2A 5502   3.487   7.520   7.760
24033DOPC   C3A 5503   3.857   7.710   7.530
24033DOPC   C4A 5504   3.997   0.140   7.200
24033DOPC   C1B 5505   2.637   0.460   7.330
24033DOPC   D2B 5506   2.927   0.420   6.950
24033DOPC   C3B 5507   2.877   0.430   6.520
24033DOPC   C4B 5508   2.597   0.640   6.150
24034DOPC   NC3 5509   7.837   2.510  12.970
24034DOPC   PO4 5510   7.467   2.400  13.050
24034DOPC   GL1 5511   7.477   2.340  12.690
24034DOPC   GL2 5512   7.267   2.260  12.580
24034DOPC   C1A 5513   7.857   2.370  12.460
24034DOPC   D2A 5514   8.077   2.200  12.150
24034DOPC   C3A 5515   8.257   2.350  11.790
24034DOPC   C4A 5516   8.667   2.310  11.580
24034DOPC   C1B 5517   7.467   2.280  12.170
24034DOPC   D2B 5518   7.667   2.280  11.700
24034DOPC   C3B 5519   7.947   2.430  11.380
24034DOPC   C4B 5520   8.337   2.380  11.130
24035DOPC   NC3 5521  22.660   4.450   7.810
24035DOPC   PO4 5522  22.790   4.120   7.660
24035DOPC   GL1 5523  22.620   4.060   7.280
24035DOPC   GL2 5524  22.490   4.360   7.270
24035DOPC   C1A 5525  22.370   3.810   7.070
24035DOPC   D2A 5526  22.060   3.430   6.890
24035DOPC   C3A 5527  21.830   3.040   6.720
24035DOPC   C4A 5528  21.570   2.640   6.550
24035DOPC   C1B 5529  22.430   4.420   6.800
24035DOPC   D2B 5530  22.280   4.520   6.320
24035DOPC   C3B 5531  22.250   4.830   5.990
24035DOPC   C4B 5532  22.340   5.120   5.650
24036DOPC   NC3 5533  23.650   4.350   6.810
24036DOPC   PO4 5534  23.950   4.120   6.780
24036DOPC   GL1 5535  24.160   3.930   6.390
24036DOPC   GL2 5536  23.980   3.760   6.400
24036DOPC   C1A 5537  24.390   3.960   6.020
24036DOPC   D2A 5538  24.600   4.140   5.610
24036DOPC   C3A 5539  24.500   3.730   5.380
24036DOPC   C4A 5540  24.560   3.200   5.220
24036DOPC   C1B 5541  23.800   3.720   6.020
24036DOPC   D2B 5542  23.480   3.770   5.730
24036DOPC   C3B 5543  23.480   3.900   5.320
24036DOPC   C4B 5544  23.580   3.950   4.800
24037DOPC   NC3 5545   6.077   6.810  12.110
24037DOPC   PO4 5546   5.917   6.500  11.910
24037DOPC   GL1 5547   6.287   6.370  11.800
24037DOPC   GL2 5548   6.417   6.560  11.900
24037DOPC   C1A 5549   6.327   6.340  11.370
24037DOPC   D2A 5550   6.097   6.440  10.930
24037DOPC   C3A 5551   6.367   6.570  10.660
24037DOPC   C4A 5552   6.527   6.670  10.270
24037DOPC   C1B 5553   6.797   6.540  11.620
24037DOPC   D2B 5554   7.217   6.540  11.290
24037DOPC   C3B 5555   7.577   6.300  11.000
24037DOPC   C4B 5556   7.907   6.260  10.670
24038DOPC   NC3 5557  17.817   5.300  13.440
24038DOPC   PO4 5558  17.917   5.680  13.630
24038DOPC   GL1 5559  17.667   5.860  13.350
24038DOPC   GL2 5560  17.817   5.880  13.060
24038DOPC   C1A 5561  17.257   5.920  13.300
24038DOPC   D2A 5562  16.827   5.790  13.150
24038DOPC   C3A 5563  16.717   5.600  12.690
24038DOPC   C4A 5564  16.517   5.290  12.350
24038DOPC   C1B 5565  17.617   5.580  12.860
24038DOPC   D2B 5566  17.427   5.360  12.460
24038DOPC   C3B 5567  17.177   5.410  12.840
24038DOPC   C4B 5568  17.287   5.310  13.270
24039DOPC   NC3 5569  22.180   2.100   8.220
24039DOPC   PO4 5570  22.380   2.280   7.890
24039DOPC   GL1 5571  21.990   2.240   7.690
24039DOPC   GL2 5572  22.090   2.040   7.480
24039DOPC   C1A 5573  21.680   2.540   7.700
24039DOPC   D2A 5574  21.290   2.800   7.460
24039DOPC   C3A 5575  20.847   2.710   7.240
24039DOPC   C4A 5576  20.387   2.550   7.210
24039DOPC   C1B 5577  21.940   1.830   7.110
24039DOPC   D2B 5578  21.410   1.770   6.960
24039DOPC   C3B 5579  21.130   2.100   6.880
24039DOPC   C4B 5580  20.890   2.490   6.690
24040DOPC   NC3 5581  18.707   6.870  12.580
24040DOPC   PO4 5582  18.897   7.110  12.870
24040DOPC   GL1 5583  18.637   7.450  12.840
24040DOPC   GL2 5584  18.397   7.230  12.960
24040DOPC   C1A 5585  18.547   7.540  12.430
24040DOPC   D2A 5586  18.407   7.670  11.920
24040DOPC   C3A 5587  18.057   7.670  11.630
24040DOPC   C4A 5588  17.867   7.630  11.180
24040DOPC   C1B 5589  18.247   7.090  12.590
24040DOPC   D2B 5590  17.947   6.790  12.340
24040DOPC   C3B 5591  17.557   6.530  12.210
24040DOPC   C4B 5592  17.247   6.530  11.910
24041DOPC   NC3 5593  10.517   4.850  15.110
24041DOPC   PO4 5594  10.837   4.710  15.280
24041DOPC   GL1 5595  11.147   4.560  15.050
24041DOPC   GL2 5596  11.077   4.580  14.720
24041DOPC   C1A 5597  11.497   4.760  14.910
24041DOPC   D2A 5598  11.907   5.090  14.840
24041DOPC   C3A 5599  12.297   5.190  14.480
24041DOPC   C4A 5600  12.577   5.110  14.100
24041DOPC   C1B 5601  11.087   4.860  14.370
24041DOPC   D2B 5602  11.367   5.050  13.950
24041DOPC   C3B 5603  11.357   4.950  13.500
24041DOPC   C4B 5604  11.337   4.900  13.030
24042DOPC   NC3 5605  19.427   6.040  12.370
24042DOPC   PO4 5606  19.107   5.940  12.560
24042DOPC   GL1 5607  18.847   5.670  12.360
24042DOPC   GL2 5608  18.807   5.980  12.250
24042DOPC   C1A 5609  18.427   5.480  12.290
24042DOPC   D2A 5610  18.217   5.220  11.950
24042DOPC   C3A 5611  18.067   5.210  11.480
24042DOPC   C4A 5612  17.907   5.330  11.090
24042DOPC   C1B 5613  18.417   5.980  12.070
24042DOPC   D2B 5614  18.037   5.770  11.830
24042DOPC   C3B 5615  17.657   5.860  11.560
24042DOPC   C4B 5616  17.437   5.480  11.320
24043DOPC   NC3 5617  19.357   7.340  13.010
24043DOPC   PO4 5618  19.207   7.460  12.680
24043DOPC   GL1 5619  19.107   7.590  12.280
24043DOPC   GL2 5620  18.987   7.280  12.260
24043DOPC   C1A 5621  18.887   7.730  12.030
24043DOPC   D2A 5622  18.587   0.240  11.820
24043DOPC   C3A 5623  18.357   0.550  12.040
24043DOPC   C4A 5624  18.287   0.930  12.420
24043DOPC   C1B 5625  18.637   7.230  12.030
24043DOPC   D2B 5626  18.157   7.320  12.160
24043DOPC   C3B 5627  17.817   7.550  12.020
24043DOPC   C4B 5628  17.537   7.650  11.670
24044DOPC   NC3 5629  24.250   5.080   6.960
24044DOPC   PO4 5630  24.220   4.670   6.830
24044DOPC   GL1 5631  23.940   4.650   6.540
24044DOPC   GL2 5632  23.930   4.400   6.450
24044DOPC   C1A 5633  24.060   4.800   6.110
24044DOPC   D2A 5634  24.360   5.050   5.770
24044DOPC   C3A 5635  24.440   5.260   5.330
24044DOPC   C4A 5636  24.530   5.440   4.860
24044DOPC   C1B 5637  23.910   4.240   6.050
24044DOPC   D2B 5638  23.960   3.980   5.640
24044DOPC   C3B 5639  24.050   3.870   5.200
24044DOPC   C4B 5640  24.450   3.890   4.940
24045DOPC   NC3 5641   8.547   0.620  14.840
24045DOPC   PO4 5642   8.837   0.380  14.750
24045DOPC   GL1 5643   9.007   0.410  14.380
24045DOPC   GL2 5644   8.957   0.100  14.280
24045DOPC   C1A 5645   9.097   0.540  13.980
24045DOPC   D2A 5646   9.037   0.580  13.440
24045DOPC   C3A 5647   9.097   0.730  12.990
24045DOPC   C4A 5648   9.257   0.950  12.580
24045DOPC   C1B 5649   9.237   0.050  13.900
24045DOPC   D2B 5650   9.477   0.180  13.430
24045DOPC   C3B 5651   9.327   0.200  13.030
24045DOPC   C4B 5652   9.197   0.360  12.570
24046DOPC   NC3 5653   7.047   6.760  12.940
24046DOPC   PO4 5654   6.867   7.060  12.770
24046DOPC   GL1 5655   6.847   7.100  12.310
24046DOPC   GL2 5656   7.067   7.270  12.350
24046DOPC   C1A 5657   7.117   6.800  12.000
24046DOPC   D2A 5658   7.437   6.740  11.650
24046DOPC   C3A 5659   7.697   6.330  11.540
24046DOPC   C4A 5660   7.947   6.100  11.240
24046DOPC   C1B 5661   7.217   7.580  12.160
24046DOPC   D2B 5662   7.257   0.150  11.880
24046DOPC   C3B 5663   7.317   0.450  11.500
24046DOPC   C4B 5664   7.327   0.480  11.030
24047DOPC   NC3 5665  20.727   7.730  10.470
24047DOPC   PO4 5666  20.457   0.120  10.320
24047DOPC   GL1 5667  20.057   0.150  10.160
24047DOPC   GL2 5668  19.957   7.760  10.310
24047DOPC   C1A 5669  19.867   0.170   9.800
24047DOPC   D2A 5670  19.697   0.050   9.380
24047DOPC   C3A 5671  19.477   0.150   8.900
24047DOPC   C4A 5672  19.307   7.700   8.620
24047DOPC   C1B 5673  19.687   7.490  10.190
24047DOPC   D2B 5674  19.507   7.030  10.110
24047DOPC   C3B 5675  19.077   6.840   9.960
24047DOPC   C4B 5676  18.637   6.610   9.940
24048DOPC   NC3 5677   4.927   1.330  11.720
24048DOPC   PO4 5678   5.077   1.340  11.350
24048DOPC   GL1 5679   5.487   1.320  11.140
24048DOPC   GL2 5680   5.627   1.300  11.340
24048DOPC   C1A 5681   5.627   1.410  10.780
24048DOPC   D2A 5682   5.847   1.560  10.370
24048DOPC   C3A 5683   5.937   1.430   9.910
24048DOPC   C4A 5684   6.087   1.320   9.510
24048DOPC   C1B 5685   6.007   1.140  11.080
24048DOPC   D2B 5686   6.437   1.110  10.820
24048DOPC   C3B 5687   6.797   1.070  10.430
24048DOPC   C4B 5688   7.077   1.290  10.020
24049DOPC   NC3 5689  24.560   4.340   6.960
24049DOPC   PO4 5690  24.410   3.970   6.990
24049DOPC   GL1 5691  24.510   3.960   6.610
24049DOPC   GL2 5692  24.330   4.270   6.550
24049DOPC   C1A 5693  24.790   3.770   6.340
24049DOPC   D2A 5694  24.920   3.780   5.850
24049DOPC   C3A 5695  25.120   4.120   5.600
24049DOPC   C4A 5696   0.267   4.390   5.280
24049DOPC   C1B 5697  24.380   4.430   6.130
24049DOPC   D2B 5698  24.130   4.530   5.690
24049DOPC   C3B 5699  24.420   4.780   5.340
24049DOPC   C4B 5700  24.740   4.990   4.960
24050DOPC   NC3 5701   6.717   6.650  12.410
24050DOPC   PO4 5702   6.897   6.400  12.620
24050DOPC   GL1 5703   7.317   6.200  12.430
24050DOPC   GL2 5704   7.257   6.400  12.180
24050DOPC   C1A 5705   7.427   5.880  12.140
24050DOPC   D2A 5706   7.437   5.790  11.670
24050DOPC   C3A 5707   7.387   5.450  11.360
24050DOPC   C4A 5708   7.197   5.330  10.960
24050DOPC   C1B 5709   7.647   6.470  12.060
24050DOPC   D2B 5710   8.037   6.720  11.910
24050DOPC   C3B 5711   8.207   6.870  11.500
24050DOPC   C4B 5712   8.107   7.240  11.100
24051DOPC   NC3 5713   7.447   1.450  13.840
24051DOPC   PO4 5714   7.807   1.510  13.950
24051DOPC   GL1 5715   8.157   1.510  13.670
24051DOPC   GL2 5716   8.267   1.310  13.820
24051DOPC   C1A 5717   8.227   1.560  13.230
24051DOPC   D2A 5718   8.557   1.620  12.880
24051DOPC   C3A 5719   8.837   1.860  12.640
24051DOPC   C4A 5720   9.107   1.930  12.290
24051DOPC   C1B 5721   8.237   0.920  13.740
24051DOPC   D2B 5722   8.477   0.580  13.580
24051DOPC   C3B 5723   8.487   0.320  13.280
24051DOPC   C4B 5724   8.317   0.140  12.850
24052DOPC   NC3 5725   1.727   5.170   7.970
24052DOPC   PO4 5726   1.707   5.110   7.600
24052DOPC   GL1 5727   1.927   5.380   7.370
24052DOPC   GL2 5728   1.777   5.340   7.140
24052DOPC   C1A 5729   2.287   5.450   7.180
24052DOPC   D2A 5730   2.577   5.480   6.790
24052DOPC   C3A 5731   2.667   5.860   6.570
24052DOPC   C4A 5732   2.517   6.100   6.160
24052DOPC   C1B 5733   1.977   5.570   6.750
24052DOPC   D2B 5734   2.307   5.610   6.380
24052DOPC   C3B 5735   2.057   5.970   6.190
24052DOPC   C4B 5736   1.637   6.230   6.160
24053DOPC   NC3 5737  22.430   1.420   8.750
24053DOPC   PO4 5738  22.300   1.360   8.370
24053DOPC   GL1 5739  22.080   1.180   7.990
24053DOPC   GL2 5740  22.290   1.000   7.960
24053DOPC   C1A 5741  21.650   1.160   7.770
24053DOPC   D2A 5742  21.230   1.080   7.550
24053DOPC   C3A 5743  20.950   0.700   7.450
24053DOPC   C4A 5744  20.687   0.310   7.600
24053DOPC   C1B 5745  22.480   0.910   7.540
24053DOPC   D2B 5746  22.250   0.900   7.070
24053DOPC   C3B 5747  22.050   1.040   6.680
24053DOPC   C4B 5748  21.850   1.010   6.290
24054DOPC   NC3 5749   0.087   1.430   6.760
24054DOPC   PO4 5750   0.317   1.680   7.010
24054DOPC   GL1 5751   0.707   1.790   6.780
24054DOPC   GL2 5752   0.507   1.680   6.610
24054DOPC   C1A 5753   1.027   2.080   6.570
24054DOPC   D2A 5754   1.317   2.390   6.330
24054DOPC   C3A 5755   1.587   2.340   5.970
24054DOPC   C4A 5756   1.967   1.970   6.100
24054DOPC   C1B 5757   0.557   1.410   6.360
24054DOPC   D2B 5758   0.807   1.210   6.010
24054DOPC   C3B 5759   0.747   1.250   5.550
24054DOPC   C4B 5760   0.947   1.130   5.130
24055DOPC   NC3 5761  24.070   6.580   7.080
24055DOPC   PO4 5762  24.170   6.180   7.120
24055DOPC   GL1 5763  24.100   6.160   6.750
24055DOPC   GL2 5764  24.410   6.260   6.720
24055DOPC   C1A 5765  24.190   5.790   6.540
24055DOPC   D2A 5766  24.250   5.510   6.070
24055DOPC   C3A 5767  24.010   5.530   5.740
24055DOPC   C4A 5768  23.750   5.840   5.430
24055DOPC   C1B 5769  24.350   6.210   6.310
24055DOPC   D2B 5770  24.150   6.020   5.830
24055DOPC   C3B 5771  23.710   5.880   5.900
24055DOPC   C4B 5772  23.240   5.720   5.830
24056DOPC   NC3 5773  19.517   4.610  11.530
24056DOPC   PO4 5774  19.587   4.930  11.750
24056DOPC   GL1 5775  19.547   5.240  11.430
24056DOPC   GL2 5776  19.497   4.980  11.260
24056DOPC   C1A 5777  19.157   5.380  11.380
24056DOPC   D2A 5778  18.827   5.460  11.100
24056DOPC   C3A 5779  18.377   5.560  10.950
24056DOPC   C4A 5780  17.947   5.760  10.810
24056DOPC   C1B 5781  19.357   5.230  10.920
24056DOPC   D2B 5782  19.067   5.440  10.580
24056DOPC   C3B 5783  18.617   5.340  10.500
24056DOPC   C4B 5784  18.117   5.110  10.560
24057DOPC   NC3 5785  15.697   0.500  15.030
24057DOPC   PO4 5786  15.907   0.770  14.830
24057DOPC   GL1 5787  15.797   0.850  14.500
24057DOPC   GL2 5788  15.547   0.960  14.570
24057DOPC   C1A 5789  15.937   0.760  14.070
24057DOPC   D2A 5790  16.067   0.710  13.600
24057DOPC   C3A 5791  15.847   0.790  13.220
24057DOPC   C4A 5792  15.897   0.970  12.770
24057DOPC   C1B 5793  15.387   1.310  14.410
24057DOPC   D2B 5794  15.237   1.730  14.190
24057DOPC   C3B 5795  15.487   1.680  13.800
24057DOPC   C4B 5796  15.677   1.580  13.380
24058DOPC   NC3 5797   2.147   7.240   8.480
24058DOPC   PO4 5798   2.487   7.280   8.260
24058DOPC   GL1 5799   2.787   7.580   8.080
24058DOPC   GL2 5800   2.607   7.530   7.800
24058DOPC   C1A 5801   3.087   7.330   7.890
24058DOPC   D2A 5802   3.387   7.060   7.630
24058DOPC   C3A 5803   3.717   7.290   7.330
24058DOPC   C4A 5804   4.077   7.500   7.140
24058DOPC   C1B 5805   2.797   7.790   7.440
24058DOPC   D2B 5806   3.057   7.830   7.010
24058DOPC   C3B 5807   3.247   0.020   6.570
24058DOPC   C4B 5808   3.437   0.240   6.140
24059DOPC   NC3 5809   9.567   2.080  14.830
24059DOPC   PO4 5810   9.947   2.160  14.790
24059DOPC   GL1 5811  10.137   2.340  14.410
24059DOPC   GL2 5812  10.377   2.160  14.480
24059DOPC   C1A 5813  10.227   2.570  14.030
24059DOPC   D2A 5814  10.587   2.600  13.690
24059DOPC   C3A 5815  10.777   2.810  13.390
24059DOPC   C4A 5816  11.067   3.060  12.990
24059DOPC   C1B 5817  10.607   2.150  14.160
24059DOPC   D2B 5818  10.827   2.140  13.740
24059DOPC   C3B 5819  11.287   2.210  13.660
24059DOPC   C4B 5820  11.667   2.480  13.440
24060DOPC   NC3 5821  13.667   5.120  15.840
24060DOPC   PO4 5822  13.427   4.790  15.810
24060DOPC   GL1 5823  13.487   4.600  15.440
24060DOPC   GL2 5824  13.697   4.520  15.370
24060DOPC   C1A 5825  13.297   4.570  15.090
24060DOPC   D2A 5826  13.287   4.380  14.630
24060DOPC   C3A 5827  13.297   4.580  14.210
24060DOPC   C4A 5828  13.607   4.740  13.840
24060DOPC   C1B 5829  13.697   4.300  15.030
24060DOPC   D2B 5830  13.647   3.930  14.620
24060DOPC   C3B 5831  13.877   4.070  14.220
24060DOPC   C4B 5832  13.897   4.340  13.830
24061DOPC   NC3 5833  24.470   6.390   7.460
24061DOPC   PO4 5834  24.540   6.540   7.080
24061DOPC   GL1 5835  24.850   6.620   6.780
24061DOPC   GL2 5836  24.840   6.350   6.800
24061DOPC   C1A 5837  24.580   6.770   6.440
24061DOPC   D2A 5838  24.260   6.950   6.080
24061DOPC   C3A 5839  24.290   7.250   5.760
24061DOPC   C4A 5840  24.090   7.510   5.390
24061DOPC   C1B 5841  24.860   6.310   6.320
24061DOPC   D2B 5842  24.660   6.650   5.940
24061DOPC   C3B 5843  24.540   6.880   5.570
24061DOPC   C4B 5844  24.530   7.160   5.180
24062DOPC   NC3 5845  16.527   2.360  14.350
24062DOPC   PO4 5846  16.297   2.540  14.640
24062DOPC   GL1 5847  16.027   2.650  14.440
24062DOPC   GL2 5848  16.087   2.790  14.210
24062DOPC   C1A 5849  15.657   2.570  14.210
24062DOPC   D2A 5850  15.347   2.730  13.850
24062DOPC   C3A 5851  15.057   2.570  13.570
24062DOPC   C4A 5852  14.727   2.500  13.220
24062DOPC   C1B 5853  15.767   3.140  14.110
24062DOPC   D2B 5854  15.347   3.250  13.880
24062DOPC   C3B 5855  15.087   3.410  13.530
24062DOPC   C4B 5856  14.657   3.400  13.400
24063DOPC   NC3 5857  23.050   4.860   7.300
24063DOPC   PO4 5858  22.690   4.740   7.420
24063DOPC   GL1 5859  22.400   4.860   7.210
24063DOPC   GL2 5860  22.570   4.990   7.070
24063DOPC   C1A 5861  22.110   4.870   6.900
24063DOPC   D2A 5862  21.860   4.820   6.440
24063DOPC   C3A 5863  21.660   5.030   6.050
24063DOPC   C4A 5864  21.410   5.390   5.890
24063DOPC   C1B 5865  22.600   4.870   6.670
24063DOPC   D2B 5866  22.690   4.740   6.190
24063DOPC   C3B 5867  23.040   4.560   5.850
24063DOPC   C4B 5868  23.180   4.540   5.450
24064DOPC   NC3 5869   0.527   7.650   7.720
24064DOPC   PO4 5870   0.427   7.280   7.500
24064DOPC   GL1 5871   0.497   7.440   7.040
24064DOPC   GL2 5872   0.457   7.220   7.030
24064DOPC   C1A 5873   0.897   7.560   6.830
24064DOPC   D2A 5874   1.177   7.590   6.410
24064DOPC   C3A 5875   1.387   7.510   5.990
24064DOPC   C4A 5876   1.347   7.410   5.460
24064DOPC   C1B 5877   0.687   7.090   6.610
24064DOPC   D2B 5878   0.527   6.980   6.130
24064DOPC   C3B 5879   0.877   6.680   5.930
24064DOPC   C4B 5880   1.327   6.480   5.860
24065DOPC   NC3 5881   1.557   0.620   7.840
24065DOPC   PO4 5882   1.277   0.780   7.640
24065DOPC   GL1 5883   1.437   0.600   7.260
24065DOPC   GL2 5884   1.407   0.890   7.100
24065DOPC   C1A 5885   1.537   0.300   6.860
24065DOPC   D2A 5886   1.687   0.050   6.440
24065DOPC   C3A 5887   1.927   0.170   6.060
24065DOPC   C4A 5888   2.387   0.110   5.840
24065DOPC   C1B 5889   1.777   0.820   6.910
24065DOPC   D2B 5890   2.107   1.090   6.680
24065DOPC   C3B 5891   2.267   1.210   6.280
24065DOPC   C4B 5892   2.097   1.490   5.900
24066DOPC   NC3 5893   7.397   4.080  13.200
24066DOPC   PO4 5894   7.547   4.360  13.250
24066DOPC   GL1 5895   8.007   4.240  13.170
24066DOPC   GL2 5896   8.037   4.510  13.120
24066DOPC   C1A 5897   8.217   3.840  12.990
24066DOPC   D2A 5898   8.507   3.610  12.620
24066DOPC   C3A 5899   8.527   3.590  12.110
24066DOPC   C4A 5900   8.487   3.620  11.640
24066DOPC   C1B 5901   8.167   4.560  12.740
24066DOPC   D2B 5902   8.347   4.750  12.280
24066DOPC   C3B 5903   8.227   4.630  11.800
24066DOPC   C4B 5904   7.977   4.450  11.430
24067DOPC   NC3 5905  10.257   3.950  15.270
24067DOPC   PO4 5906  10.667   3.930  15.300
24067DOPC   GL1 5907  10.817   3.930  14.960
24067DOPC   GL2 5908  10.967   4.110  14.920
24067DOPC   C1A 5909  10.697   3.700  14.600
24067DOPC   D2A 5910  10.377   3.480  14.410
24067DOPC   C3A 5911  10.537   3.490  13.980
24067DOPC   C4A 5912  10.807   3.740  13.620
24067DOPC   C1B 5913  11.397   4.170  14.870
24067DOPC   D2B 5914  11.847   4.230  14.570
24067DOPC   C3B 5915  11.797   4.260  14.080
24067DOPC   C4B 5916  11.597   4.260  13.610
24068DOPC   NC3 5917  10.017   0.630  14.970
24068DOPC   PO4 5918  10.067   0.260  14.980
24068DOPC   GL1 5919  10.387   0.110  14.680
24068DOPC   GL2 5920  10.437   0.440  14.650
24068DOPC   C1A 5921  10.617   7.800  14.270
24068DOPC   D2A 5922  10.967   7.660  14.020
24068DOPC   C3A 5923  10.967   7.840  13.580
24068DOPC   C4A 5924  11.277   0.100  13.190
24068DOPC   C1B 5925  10.547   0.510  14.250
24068DOPC   D2B 5926  10.637   0.810  13.890
24068DOPC   C3B 5927  10.787   1.040  13.520
24068DOPC   C4B 5928  10.957   1.420  13.440
24069DOPC   NC3 5929  22.150   5.200   7.520
24069DOPC   PO4 5930  22.560   5.250   7.470
24069DOPC   GL1 5931  22.450   5.530   7.160
24069DOPC   GL2 5932  22.170   5.620   7.240
24069DOPC   C1A 5933  22.460   5.320   6.840
24069DOPC   D2A 5934  22.330   5.170   6.380
24069DOPC   C3A 5935  22.050   5.360   6.080
24069DOPC   C4A 5936  21.830   5.290   5.570
24069DOPC   C1B 5937  21.970   5.380   6.920
24069DOPC   D2B 5938  21.750   5.270   6.520
24069DOPC   C3B 5939  21.410   5.560   6.370
24069DOPC   C4B 5940  21.140   5.920   6.600
24070DOPC   NC3 5941  21.960   7.470   7.860
24070DOPC   PO4 5942  21.670   7.570   8.110
24070DOPC   GL1 5943  21.440   7.790   7.870
24070DOPC   GL2 5944  21.550   0.230   7.990
24070DOPC   C1A 5945  21.480   7.670   7.410
24070DOPC   D2A 5946  21.580   7.460   6.990
24070DOPC   C3A 5947  21.430   7.480   6.510
24070DOPC   C4A 5948  21.300   7.320   6.000
24070DOPC   C1B 5949  21.230   0.540   7.890
24070DOPC   D2B 5950  20.920   0.980   7.910
24070DOPC   C3B 5951  20.797   1.220   7.490
24070DOPC   C4B 5952  20.677   1.180   7.030
24071DOPC   NC3 5953  19.267   2.850  12.800
24071DOPC   PO4 5954  18.887   2.810  12.930
24071DOPC   GL1 5955  18.597   2.620  12.620
24071DOPC   GL2 5956  18.437   2.850  12.810
24071DOPC   C1A 5957  18.547   2.820  12.160
24071DOPC   D2A 5958  18.447   3.110  11.840
24071DOPC   C3A 5959  18.027   3.160  11.690
24071DOPC   C4A 5960  17.777   3.490  11.300
24071DOPC   C1B 5961  18.017   2.850  12.640
24071DOPC   D2B 5962  17.547   2.970  12.580
24071DOPC   C3B 5963  17.167   3.100  12.290
24071DOPC   C4B 5964  16.767   3.050  12.050
24072DOPC   NC3 5965  19.057   5.470  12.740
24072DOPC   PO4 5966  19.207   5.350  12.380
24072DOPC   GL1 5967  18.887   5.220  12.250
24072DOPC   GL2 5968  18.767   5.170  12.500
24072DOPC   C1A 5969  18.777   5.530  11.940
24072DOPC   D2A 5970  18.757   6.000  11.740
24072DOPC   C3A 5971  18.447   6.320  11.550
24072DOPC   C4A 5972  18.157   6.670  11.440
24072DOPC   C1B 5973  18.367   4.930  12.580
24072DOPC   D2B 5974  18.097   4.670  12.920
24072DOPC   C3B 5975  17.897   4.270  12.860
24072DOPC   C4B 5976  17.617   3.910  12.790
24073DOPC   NC3 5977  19.297   2.830  11.830
24073DOPC   PO4 5978  19.407   3.190  11.920
24073DOPC   GL1 5979  19.237   3.410  11.590
24073DOPC   GL2 5980  19.037   3.540  11.750
24073DOPC   C1A 5981  19.137   3.460  11.180
24073DOPC   D2A 5982  18.857   3.460  10.840
24073DOPC   C3A 5983  18.427   3.290  10.750
24073DOPC   C4A 5984  17.967   3.120  10.620
24073DOPC   C1B 5985  18.617   3.530  11.830
24073DOPC   D2B 5986  18.097   3.510  12.030
24073DOPC   C3B 5987  17.707   3.740  11.910
24073DOPC   C4B 5988  17.387   3.690  11.600
24074DOPC   NC3 5989   8.247   1.540  14.200
24074DOPC   PO4 5990   8.527   1.290  14.200
24074DOPC   GL1 5991   8.887   1.450  14.240
24074DOPC   GL2 5992   9.097   1.210  14.200
24074DOPC   C1A 5993   9.047   1.590  13.830
24074DOPC   D2A 5994   9.407   1.560  13.540
24074DOPC   C3A 5995   9.617   1.580  13.160
24074DOPC   C4A 5996   9.887   1.840  12.880
24074DOPC   C1B 5997   9.167   1.120  13.790
24074DOPC   D2B 5998   9.397   1.100  13.330
24074DOPC   C3B 5999   9.747   1.120  12.980
24074DOPC   C4B 6000  10.007   1.060  12.540
24075DOPC   NC3 6001  10.407   6.980  10.220
24075DOPC   PO4 6002  10.217   7.330  10.410
24075DOPC   GL1 6003   9.997   7.360  10.810
24075DOPC   GL2 6004  10.197   7.510  10.940
24075DOPC   C1A 6005   9.657   7.150  10.930
24075DOPC   D2A 6006   9.247   6.810  11.050
24075DOPC   C3A 6007   9.077   6.650  11.480
24075DOPC   C4A 6008   9.027   6.590  11.960
24075DOPC   C1B 6009  10.007   7.310  11.320
24075DOPC   D2B 6010   9.737   7.310  11.810
24075DOPC   C3B 6011   9.347   7.490  12.070
24075DOPC   C4B 6012   8.987   7.360  12.330
24076DOPC   NC3 6013  22.680   1.690   2.910
24076DOPC   PO4 6014  22.500   1.510   3.220
24076DOPC   GL1 6015  22.700   1.270   3.540
24076DOPC   GL2 6016  22.920   1.370   3.640
24076DOPC   C1A 6017  22.440   1.150   3.810
24076DOPC   D2A 6018  22.040   1.130   4.180
24076DOPC   C3A 6019  22.290   1.260   4.460
24076DOPC   C4A 6020  22.530   1.540   4.740
24076DOPC   C1B 6021  23.230   1.200   3.810
24076DOPC   D2B 6022  23.420   0.800   4.040
24076DOPC   C3B 6023  23.560   1.120   4.300
24076DOPC   C4B 6024  23.730   1.440   4.630
24077DOPC   NC3 6025  13.647   0.750  11.610
24077DOPC   PO4 6026  13.917   0.540  11.410
24077DOPC   GL1 6027  14.277   0.480  11.730
24077DOPC   GL2 6028  13.967   0.390  11.820
24077DOPC   C1A 6029  14.557   0.510  12.050
24077DOPC   D2A 6030  14.777   0.440  12.480
24077DOPC   C3A 6031  14.437   0.620  12.810
24077DOPC   C4A 6032  14.467   0.820  13.240
24077DOPC   C1B 6033  13.987   0.280  12.280
24077DOPC   D2B 6034  14.017   0.170  12.790
24077DOPC   C3B 6035  13.657   0.210  13.080
24077DOPC   C4B 6036  13.397   0.610  13.350
24078DOPC   NC3 6037  18.097   3.550   6.350
24078DOPC   PO4 6038  17.887   3.760   6.580
24078DOPC   GL1 6039  18.157   3.780   6.980
24078DOPC   GL2 6040  18.137   3.450   6.880
24078DOPC   C1A 6041  18.507   3.760   7.110
24078DOPC   D2A 6042  18.957   3.960   7.130
24078DOPC   C3A 6043  19.127   4.370   7.310
24078DOPC   C4A 6044  19.507   4.730   7.340
24078DOPC   C1B 6045  18.487   3.270   7.210
24078DOPC   D2B 6046  18.507   3.020   7.660
24078DOPC   C3B 6047  18.907   3.040   7.870
24078DOPC   C4B 6048  19.327   3.030   8.100
24079DOPC   NC3 6049   6.817   6.160   6.440
24079DOPC   PO4 6050   6.447   6.290   6.410
24079DOPC   GL1 6051   6.107   6.500   6.520
24079DOPC   GL2 6052   6.017   6.340   6.320
24079DOPC   C1A 6053   5.687   6.650   6.630
24079DOPC   D2A 6054   5.417   6.930   6.860
24079DOPC   C3A 6055   4.957   7.040   6.920
24079DOPC   C4A 6056   4.477   6.820   7.000
24079DOPC   C1B 6057   5.637   6.100   6.510
24079DOPC   D2B 6058   5.347   6.070   6.850
24079DOPC   C3B 6059   5.347   5.990   7.300
24079DOPC   C4B 6060   5.317   5.720   7.670
24080DOPC   NC3 6061   6.227   0.870   6.470
24080DOPC   PO4 6062   6.457   0.740   6.770
24080DOPC   GL1 6063   6.097   0.660   6.980
24080DOPC   GL2 6064   6.017   0.950   6.940
24080DOPC   C1A 6065   6.137   0.260   7.240
24080DOPC   D2A 6066   6.157   7.820   7.630
24080DOPC   C3A 6067   6.497   7.700   7.870
24080DOPC   C4A 6068   6.707   7.360   8.180
24080DOPC   C1B 6069   5.667   1.160   7.150
24080DOPC   D2B 6070   5.567   1.630   7.190
24080DOPC   C3B 6071   5.887   1.970   7.220
24080DOPC   C4B 6072   6.277   2.310   7.120
24081DOPC   NC3 6073  14.267   3.300  11.750
24081DOPC   PO4 6074  13.917   3.130  11.780
24081DOPC   GL1 6075  13.957   3.160  12.140
24081DOPC   GL2 6076  14.237   3.000  12.100
24081DOPC   C1A 6077  13.747   3.260  12.510
24081DOPC   D2A 6078  13.327   3.370  12.820
24081DOPC   C3A 6079  13.027   3.540  13.080
24081DOPC   C4A 6080  12.877   3.900  13.330
24081DOPC   C1B 6081  14.407   2.600  12.330
24081DOPC   D2B 6082  14.577   2.340  12.750
24081DOPC   C3B 6083  14.557   1.910  12.930
24081DOPC   C4B 6084  14.837   1.520  12.860
24082DOPC   NC3 6085   6.447   4.220   6.660
24082DOPC   PO4 6086   6.787   4.060   6.820
24082DOPC   GL1 6087   6.837   4.070   7.200
24082DOPC   GL2 6088   6.707   4.350   7.050
24082DOPC   C1A 6089   6.537   4.080   7.530
24082DOPC   D2A 6090   6.227   3.960   7.850
24082DOPC   C3A 6091   5.817   4.030   8.110
24082DOPC   C4A 6092   5.467   4.350   8.130
24082DOPC   C1B 6093   6.277   4.370   7.140
24082DOPC   D2B 6094   5.937   4.250   7.450
24082DOPC   C3B 6095   5.557   4.080   7.650
24082DOPC   C4B 6096   5.107   3.830   7.790
24083DOPC   NC3 6097  14.267   6.580  11.490
24083DOPC   PO4 6098  14.097   6.250  11.440
24083DOPC   GL1 6099  14.327   5.970  11.710
24083DOPC   GL2 6100  14.437   6.240  11.850
24083DOPC   C1A 6101  14.267   5.850  12.070
24083DOPC   D2A 6102  14.347   5.610  12.510
24083DOPC   C3A 6103  14.517   5.800  12.880
24083DOPC   C4A 6104  14.767   6.050  13.210
24083DOPC   C1B 6105  14.177   6.390  12.070
24083DOPC   D2B 6106  13.917   6.720  12.370
24083DOPC   C3B 6107  14.007   6.580  12.730
24083DOPC   C4B 6108  13.857   6.470  13.210
24084DOPC   NC3 6109  16.587   6.930   8.750
24084DOPC   PO4 6110  16.737   7.180   9.030
24084DOPC   GL1 6111  17.127   7.200   9.160
24084DOPC   GL2 6112  17.247   7.220   8.960
24084DOPC   C1A 6113  17.487   7.160   9.510
24084DOPC   D2A 6114  17.887   7.150   9.760
24084DOPC   C3A 6115  18.187   6.880   9.880
24084DOPC   C4A 6116  18.147   6.690  10.270
24084DOPC   C1B 6117  17.657   7.240   8.990
24084DOPC   D2B 6118  18.187   7.390   8.950
24084DOPC   C3B 6119  18.417   7.660   9.220
24084DOPC   C4B 6120  18.797   7.640   9.620
24085DOPC   NC3 6121  17.297   1.320   7.310
24085DOPC   PO4 6122  17.217   0.940   7.200
24085DOPC   GL1 6123  17.587   0.780   7.400
24085DOPC   GL2 6124  17.587   0.970   7.620
24085DOPC   C1A 6125  18.057   0.850   7.340
24085DOPC   D2A 6126  18.497   0.740   7.390
24085DOPC   C3A 6127  18.907   0.960   7.290
24085DOPC   C4A 6128  19.287   1.150   7.570
24085DOPC   C1B 6129  17.947   0.810   7.920
24085DOPC   D2B 6130  18.237   0.620   8.260
24085DOPC   C3B 6131  18.707   0.570   8.250
24085DOPC   C4B 6132  19.157   0.800   8.240
24086DOPC   NC3 6133   2.507   2.700   3.790
24086DOPC   PO4 6134   2.337   2.470   3.510
24086DOPC   GL1 6135   1.967   2.490   3.730
24086DOPC   GL2 6136   2.197   2.320   3.950
24086DOPC   C1A 6137   1.787   2.380   4.130
24086DOPC   D2A 6138   1.657   2.170   4.600
24086DOPC   C3A 6139   1.427   2.310   4.980
24086DOPC   C4A 6140   1.147   2.640   5.160
24086DOPC   C1B 6141   2.207   2.510   4.330
24086DOPC   D2B 6142   2.227   2.580   4.830
24086DOPC   C3B 6143   2.167   2.460   5.220
24086DOPC   C4B 6144   2.037   2.290   5.690
24087DOPC   NC3 6145   1.727   4.190   3.500
24087DOPC   PO4 6146   1.867   4.560   3.450
24087DOPC   GL1 6147   1.827   4.670   3.820
24087DOPC   GL2 6148   1.907   4.360   3.900
24087DOPC   C1A 6149   1.467   4.620   4.120
24087DOPC   D2A 6150   1.067   4.620   4.330
24087DOPC   C3A 6151   1.067   4.570   4.750
24087DOPC   C4A 6152   1.257   4.660   5.190
24087DOPC   C1B 6153   1.657   4.170   4.120
24087DOPC   D2B 6154   1.677   3.780   4.360
24087DOPC   C3B 6155   1.437   3.420   4.660
24087DOPC   C4B 6156   1.237   2.950   4.760
24088DOPC   NC3 6157   3.827   1.300   3.720
24088DOPC   PO4 6158   3.897   1.530   4.020
24088DOPC   GL1 6159   3.597   1.550   4.320
24088DOPC   GL2 6160   3.507   1.250   4.290
24088DOPC   C1A 6161   3.597   1.590   4.790
24088DOPC   D2A 6162   3.817   1.650   5.280
24088DOPC   C3A 6163   3.747   1.610   5.730
24088DOPC   C4A 6164   3.617   1.660   6.140
24088DOPC   C1B 6165   3.197   1.310   4.680
24088DOPC   D2B 6166   3.077   1.340   5.150
24088DOPC   C3B 6167   2.977   1.060   5.480
24088DOPC   C4B 6168   2.877   0.740   5.760
24089DOPC   NC3 6169   7.027   3.690   6.600
24089DOPC   PO4 6170   6.817   3.600   6.930
24089DOPC   GL1 6171   6.647   3.700   7.280
24089DOPC   GL2 6172   6.407   3.820   7.160
24089DOPC   C1A 6173   6.447   3.560   7.630
24089DOPC   D2A 6174   6.107   3.330   7.950
24089DOPC   C3A 6175   5.837   3.590   8.280
24089DOPC   C4A 6176   5.567   3.950   8.500
24089DOPC   C1B 6177   6.037   3.760   7.450
24089DOPC   D2B 6178   5.687   3.670   7.830
24089DOPC   C3B 6179   5.507   3.190   7.960
24089DOPC   C4B 6180   5.357   2.810   8.140
24090DOPC   NC3 6181   7.607   4.840   8.070
24090DOPC   PO4 6182   7.987   4.690   8.270
24090DOPC   GL1 6183   7.817   4.830   8.700
24090DOPC   GL2 6184   7.587   4.590   8.650
24090DOPC   C1A 6185   7.507   5.120   8.900
24090DOPC   D2A 6186   7.187   5.420   9.160
24090DOPC   C3A 6187   6.727   5.550   9.100
24090DOPC   C4A 6188   6.427   5.390   8.740
24090DOPC   C1B 6189   7.227   4.570   8.970
24090DOPC   D2B 6190   6.797   4.610   9.060
24090DOPC   C3B 6191   6.447   4.390   8.950
24090DOPC   C4B 6192   6.107   4.010   8.760
24091DOPC   NC3 6193  22.560   6.060   2.970
24091DOPC   PO4 6194  22.600   6.360   3.280
24091DOPC   GL1 6195  22.590   6.220   3.730
24091DOPC   GL2 6196  22.860   6.290   3.670
24091DOPC   C1A 6197  22.640   6.260   4.160
24091DOPC   D2A 6198  22.740   6.030   4.550
24091DOPC   C3A 6199  23.100   6.030   4.880
24091DOPC   C4A 6200  23.530   5.770   4.790
24091DOPC   C1B 6201  23.010   6.560   4.000
24091DOPC   D2B 6202  22.830   6.730   4.410
24091DOPC   C3B 6203  22.960   6.460   4.760
24091DOPC   C4B 6204  23.220   6.500   5.170
24092DOPC   NC3 6205  24.600   1.690   3.000
24092DOPC   PO4 6206  24.450   2.040   2.890
24092DOPC   GL1 6207  24.330   2.100   3.210
24092DOPC   GL2 6208  24.370   1.850   3.320
24092DOPC   C1A 6209  24.510   2.260   3.610
24092DOPC   D2A 6210  24.660   2.390   4.040
24092DOPC   C3A 6211  24.640   2.240   4.480
24092DOPC   C4A 6212  24.670   2.090   4.970
24092DOPC   C1B 6213  24.180   1.930   3.700
24092DOPC   D2B 6214  23.780   2.030   3.930
24092DOPC   C3B 6215  23.620   2.370   4.070
24092DOPC   C4B 6216  23.460   2.740   4.320
24093DOPC   NC3 6217  19.777   3.090   5.200
24093DOPC   PO4 6218  19.377   3.010   5.270
24093DOPC   GL1 6219  19.307   2.680   5.540
24093DOPC   GL2 6220  19.137   2.750   5.720
24093DOPC   C1A 6221  19.527   2.390   5.780
24093DOPC   D2A 6222  19.917   2.170   5.860
24093DOPC   C3A 6223  20.377   2.070   5.750
24093DOPC   C4A 6224  20.727   1.860   5.800
24093DOPC   C1B 6225  19.097   2.520   6.160
24093DOPC   D2B 6226  19.357   2.510   6.590
24093DOPC   C3B 6227  19.817   2.350   6.660
24093DOPC   C4B 6228  20.277   2.580   6.700
24094DOPC   NC3 6229  15.127   4.050  11.160
24094DOPC   PO4 6230  15.347   3.710  11.140
24094DOPC   GL1 6231  15.407   3.580  11.560
24094DOPC   GL2 6232  15.697   3.630  11.520
24094DOPC   C1A 6233  15.417   3.300  11.910
24094DOPC   D2A 6234  15.537   3.160  12.390
24094DOPC   C3A 6235  15.787   2.810  12.420
24094DOPC   C4A 6236  16.077   2.450  12.360
24094DOPC   C1B 6237  15.967   3.640  11.860
24094DOPC   D2B 6238  15.927   3.580  12.350
24094DOPC   C3B 6239  15.747   3.690  12.720
24094DOPC   C4B 6240  15.437   3.970  12.960
24095DOPC   NC3 6241  12.547   3.740  11.630
24095DOPC   PO4 6242  12.847   3.990  11.690
24095DOPC   GL1 6243  12.717   4.160  12.090
24095DOPC   GL2 6244  12.497   3.940  12.170
24095DOPC   C1A 6245  12.987   4.370  12.410
24095DOPC   D2A 6246  13.327   4.290  12.800
24095DOPC   C3A 6247  13.417   3.930  13.130
24095DOPC   C4A 6248  13.547   3.460  13.290
24095DOPC   C1B 6249  12.307   3.660  12.480
24095DOPC   D2B 6250  12.017   3.630  12.880
24095DOPC   C3B 6251  12.027   3.720  13.300
24095DOPC   C4B 6252  12.057   4.010  13.620
24096DOPC   NC3 6253   0.497   3.000   3.100
24096DOPC   PO4 6254   0.557   2.640   3.210
24096DOPC   GL1 6255   0.777   2.530   3.550
24096DOPC   GL2 6256   1.057   2.610   3.450
24096DOPC   C1A 6257   0.567   2.610   3.910
24096DOPC   D2A 6258   0.327   2.870   4.220
24096DOPC   C3A 6259   0.237   3.260   4.460
24096DOPC   C4A 6260   0.197   3.760   4.690
24096DOPC   C1B 6261   1.197   2.510   3.900
24096DOPC   D2B 6262   0.867   2.690   4.310
24096DOPC   C3B 6263   0.967   2.490   4.700
24096DOPC   C4B 6264   0.947   2.180   5.070
24097DOPC   NC3 6265   4.327   2.130   4.350
24097DOPC   PO4 6266   4.407   2.030   4.710
24097DOPC   GL1 6267   4.237   2.190   5.080
24097DOPC   GL2 6268   3.987   2.010   4.940
24097DOPC   C1A 6269   3.947   2.190   5.430
24097DOPC   D2A 6270   3.527   2.090   5.640
24097DOPC   C3A 6271   3.587   2.200   6.060
24097DOPC   C4A 6272   3.577   2.210   6.540
24097DOPC   C1B 6273   3.627   2.040   5.020
24097DOPC   D2B 6274   3.267   1.800   5.170
24097DOPC   C3B 6275   3.207   1.690   5.610
24097DOPC   C4B 6276   3.047   1.620   6.050
24098DOPC   NC3 6277  17.437   3.020   6.740
24098DOPC   PO4 6278  17.537   3.220   7.040
24098DOPC   GL1 6279  17.887   3.020   7.110
24098DOPC   GL2 6280  17.927   2.760   6.910
24098DOPC   C1A 6281  18.017   3.030   7.550
24098DOPC   D2A 6282  18.187   3.220   8.010
24098DOPC   C3A 6283  18.557   3.010   8.200
24098DOPC   C4A 6284  18.957   2.870   8.400
24098DOPC   C1B 6285  18.317   2.900   6.850
24098DOPC   D2B 6286  18.797   3.030   6.880
24098DOPC   C3B 6287  19.217   3.000   6.710
24098DOPC   C4B 6288  19.757   2.930   6.560
24099DOPC   NC3 6289  13.487   0.310  11.390
24099DOPC   PO4 6290  13.167   0.560  11.390
24099DOPC   GL1 6291  13.247   0.650  11.810
24099DOPC   GL2 6292  13.417   0.450  11.870
24099DOPC   C1A 6293  13.057   0.690  12.210
24099DOPC   D2A 6294  12.857   1.040  12.450
24099DOPC   C3A 6295  12.847   1.240  12.900
24099DOPC   C4A 6296  12.707   1.390  13.320
24099DOPC   C1B 6297  13.477   0.530  12.300
24099DOPC   D2B 6298  13.537   0.570  12.750
24099DOPC   C3B 6299  13.057   0.760  12.860
24099DOPC   C4B 6300  12.567   0.860  13.000
24100DOPC   NC3 6301  10.777   5.750  10.560
24100DOPC   PO4 6302  10.917   5.910  10.940
24100DOPC   GL1 6303  10.627   6.070  11.170
24100DOPC   GL2 6304  10.847   6.120  11.370
24100DOPC   C1A 6305  10.227   6.000  11.390
24100DOPC   D2A 6306   9.817   6.000  11.620
24100DOPC   C3A 6307   9.507   5.720  11.800
24100DOPC   C4A 6308   9.217   5.320  11.980
24100DOPC   C1B 6309  10.527   6.310  11.600
24100DOPC   D2B 6310  10.107   6.470  11.830
24100DOPC   C3B 6311   9.917   6.170  12.060
24100DOPC   C4B 6312   9.647   5.830  12.390
24101DOPC   NC3 6313  21.040   1.580   4.200
24101DOPC   PO4 6314  21.140   1.300   4.440
24101DOPC   GL1 6315  21.390   1.420   4.810
24101DOPC   GL2 6316  21.400   1.160   4.910
24101DOPC   C1A 6317  21.700   1.620   4.980
24101DOPC   D2A 6318  22.130   1.740   5.150
24101DOPC   C3A 6319  22.550   1.550   5.230
24101DOPC   C4A 6320  22.900   1.270   5.040
24101DOPC   C1B 6321  21.710   1.000   5.150
24101DOPC   D2B 6322  22.130   0.830   5.280
24101DOPC   C3B 6323  22.550   0.920   5.100
24101DOPC   C4B 6324  22.680   1.080   4.650
24102DOPC   NC3 6325  22.030   4.950   3.390
24102DOPC   PO4 6326  22.300   5.190   3.530
24102DOPC   GL1 6327  22.300   5.350   4.060
24102DOPC   GL2 6328  22.550   5.160   4.000
24102DOPC   C1A 6329  22.300   5.690   4.350
24102DOPC   D2A 6330  22.390   5.770   4.820
24102DOPC   C3A 6331  22.680   5.820   5.240
24102DOPC   C4A 6332  22.730   5.980   5.700
24102DOPC   C1B 6333  22.550   5.100   4.440
24102DOPC   D2B 6334  22.580   4.980   4.930
24102DOPC   C3B 6335  22.570   5.340   5.250
24102DOPC   C4B 6336  22.370   5.630   5.610
24103DOPC   NC3 6337   5.737   7.000   5.460
24103DOPC   PO4 6338   5.837   6.670   5.400
24103DOPC   GL1 6339   5.857   6.500   5.790
24103DOPC   GL2 6340   5.657   6.670   5.840
24103DOPC   C1A 6341   5.807   6.000   5.870
24103DOPC   D2A 6342   5.787   5.630   6.270
24103DOPC   C3A 6343   5.647   5.660   6.700
24103DOPC   C4A 6344   5.747   5.770   7.150
24103DOPC   C1B 6345   5.427   6.670   6.230
24103DOPC   D2B 6346   5.137   6.620   6.640
24103DOPC   C3B 6347   4.777   6.430   6.840
24103DOPC   C4B 6348   4.407   6.190   7.150
24104DOPC   NC3 6349  17.717   7.160   7.510
24104DOPC   PO4 6350  17.377   7.050   7.660
24104DOPC   GL1 6351  17.617   6.980   7.910
24104DOPC   GL2 6352  17.397   6.710   7.950
24104DOPC   C1A 6353  17.987   6.960   8.100
24104DOPC   D2A 6354  18.497   7.040   8.080
24104DOPC   C3A 6355  18.837   7.420   8.170
24104DOPC   C4A 6356  19.217   7.730   8.090
24104DOPC   C1B 6357  17.467   6.680   8.390
24104DOPC   D2B 6358  17.537   6.820   8.840
24104DOPC   C3B 6359  17.367   6.730   9.210
24104DOPC   C4B 6360  16.967   6.610   9.480
24105DOPC   NC3 6361   4.297   7.490   4.620
24105DOPC   PO4 6362   4.617   7.210   4.670
24105DOPC   GL1 6363   4.547   7.220   5.100
24105DOPC   GL2 6364   4.877   7.170   5.130
24105DOPC   C1A 6365   4.367   7.240   5.450
24105DOPC   D2A 6366   4.157   7.080   5.880
24105DOPC   C3A 6367   3.717   7.020   6.090
24105DOPC   C4A 6368   3.357   6.900   6.490
24105DOPC   C1B 6369   5.027   7.190   5.530
24105DOPC   D2B 6370   5.287   7.070   5.930
24105DOPC   C3B 6371   5.017   7.020   6.300
24105DOPC   C4B 6372   4.657   6.840   6.530
24106DOPC   NC3 6373  18.747   0.060   5.060
24106DOPC   PO4 6374  19.157   0.010   5.130
24106DOPC   GL1 6375  19.457   0.240   5.290
24106DOPC   GL2 6376  19.427   0.540   5.170
24106DOPC   C1A 6377  19.577   0.140   5.680
24106DOPC   D2A 6378  19.727   0.150   6.160
24106DOPC   C3A 6379  20.157   0.230   6.220
24106DOPC   C4A 6380  20.517   0.140   6.520
24106DOPC   C1B 6381  19.817   0.510   5.460
24106DOPC   D2B 6382  20.137   0.570   5.760
24106DOPC   C3B 6383  20.507   0.630   6.090
24106DOPC   C4B 6384  20.857   0.700   6.430
24107DOPC   NC3 6385   6.747   4.830   7.040
24107DOPC   PO4 6386   7.027   4.920   7.300
24107DOPC   GL1 6387   6.747   4.980   7.500
24107DOPC   GL2 6388   6.507   5.070   7.380
24107DOPC   C1A 6389   6.627   4.840   7.890
24107DOPC   D2A 6390   6.257   4.710   8.230
24107DOPC   C3A 6391   6.257   4.730   8.660
24107DOPC   C4A 6392   6.007   4.420   9.010
24107DOPC   C1B 6393   6.167   5.050   7.650
24107DOPC   D2B 6394   5.967   5.150   8.040
24107DOPC   C3B 6395   6.377   5.210   8.230
24107DOPC   C4B 6396   6.777   5.000   8.460
24108DOPC   NC3 6397  21.870   2.720   3.950
24108DOPC   PO4 6398  22.160   2.660   3.670
24108DOPC   GL1 6399  22.340   2.680   4.040
24108DOPC   GL2 6400  22.190   2.570   4.240
24108DOPC   C1A 6401  22.720   2.730   4.270
24108DOPC   D2A 6402  23.040   2.770   4.680
24108DOPC   C3A 6403  23.470   2.830   4.980
24108DOPC   C4A 6404  23.830   3.110   4.960
24108DOPC   C1B 6405  22.410   2.530   4.660
24108DOPC   D2B 6406  22.680   2.730   5.040
24108DOPC   C3B 6407  22.460   3.110   5.000
24108DOPC   C4B 6408  22.490   3.500   4.770
24109DOPC   NC3 6409   6.837   1.240   6.130
24109DOPC   PO4 6410   6.447   1.240   6.290
24109DOPC   GL1 6411   6.467   1.240   6.720
24109DOPC   GL2 6412   6.607   1.480   6.710
24109DOPC   C1A 6413   6.167   1.330   7.110
24109DOPC   D2A 6414   5.967   1.440   7.570
24109DOPC   C3A 6415   5.507   1.450   7.700
24109DOPC   C4A 6416   5.247   1.640   8.020
24109DOPC   C1B 6417   6.517   1.670   7.070
24109DOPC   D2B 6418   6.337   1.820   7.540
24109DOPC   C3B 6419   5.977   1.910   7.760
24109DOPC   C4B 6420   5.687   1.760   8.180
24110DOPC   NC3 6421   6.207   3.040   5.700
24110DOPC   PO4 6422   5.967   3.380   5.640
24110DOPC   GL1 6423   5.607   3.540   5.930
24110DOPC   GL2 6424   5.797   3.470   6.120
24110DOPC   C1A 6425   5.197   3.610   6.040
24110DOPC   D2A 6426   4.777   3.740   6.160
24110DOPC   C3A 6427   4.447   3.380   6.270
24110DOPC   C4A 6428   3.997   3.300   6.360
24110DOPC   C1B 6429   5.787   3.410   6.560
24110DOPC   D2B 6430   5.847   3.250   7.070
24110DOPC   C3B 6431   5.417   3.170   7.220
24110DOPC   C4B 6432   4.947   3.020   7.370
24111DOPC   NC3 6433  23.950   2.310   2.760
24111DOPC   PO4 6434  23.790   2.120   3.080
24111DOPC   GL1 6435  23.440   2.370   3.280
24111DOPC   GL2 6436  23.500   2.120   3.430
24111DOPC   C1A 6437  23.560   2.620   3.650
24111DOPC   D2A 6438  23.510   3.040   3.890
24111DOPC   C3A 6439  23.560   3.240   4.370
24111DOPC   C4A 6440  23.480   3.460   4.850
24111DOPC   C1B 6441  23.280   2.130   3.820
24111DOPC   D2B 6442  23.370   1.900   4.300
24111DOPC   C3B 6443  23.360   1.910   4.800
24111DOPC   C4B 6444  23.450   1.970   5.260
24112DOPC   NC3 6445   5.027   5.690   4.720
24112DOPC   PO4 6446   5.047   5.370   4.970
24112DOPC   GL1 6447   4.757   5.230   5.180
24112DOPC   GL2 6448   4.967   5.200   5.430
24112DOPC   C1A 6449   4.507   5.450   5.470
24112DOPC   D2A 6450   4.307   5.680   5.820
24112DOPC   C3A 6451   4.127   5.710   6.290
24112DOPC   C4A 6452   4.037   5.700   6.820
24112DOPC   C1B 6453   4.787   5.240   5.860
24112DOPC   D2B 6454   4.517   5.310   6.230
24112DOPC   C3B 6455   4.667   5.620   6.540
24112DOPC   C4B 6456   4.887   5.950   6.810
24113DOPC   NC3 6457  14.947   2.250  11.120
24113DOPC   PO4 6458  15.057   2.380  11.440
24113DOPC   GL1 6459  15.047   2.180  11.850
24113DOPC   GL2 6460  15.217   2.430  11.880
24113DOPC   C1A 6461  15.297   1.790  11.820
24113DOPC   D2A 6462  15.587   1.340  11.800
24113DOPC   C3A 6463  15.867   1.060  11.920
24113DOPC   C4A 6464  15.937   0.770  12.300
24113DOPC   C1B 6465  15.607   2.410  12.110
24113DOPC   D2B 6466  15.647   2.220  12.530
24113DOPC   C3B 6467  15.897   1.800  12.630
24113DOPC   C4B 6468  16.317   1.450  12.790
24114DOPC   NC3 6469  21.730   2.060   3.780
24114DOPC   PO4 6470  21.520   2.360   3.890
24114DOPC   GL1 6471  21.640   2.410   4.280
24114DOPC   GL2 6472  21.620   2.660   4.360
24114DOPC   C1A 6473  21.990   2.290   4.490
24114DOPC   D2A 6474  22.040   2.200   4.960
24114DOPC   C3A 6475  22.240   2.530   5.290
24114DOPC   C4A 6476  22.480   2.880   5.490
24114DOPC   C1B 6477  21.980   2.860   4.550
24114DOPC   D2B 6478  22.380   3.090   4.480
24114DOPC   C3B 6479  22.530   3.480   4.260
24114DOPC   C4B 6480  22.740   3.850   4.490
24115DOPC   NC3 6481  23.840   4.960   2.720
24115DOPC   PO4 6482  23.660   5.290   2.870
24115DOPC   GL1 6483  23.590   5.200   3.280
24115DOPC   GL2 6484  23.800   5.260   3.370
24115DOPC   C1A 6485  23.290   5.350   3.600
24115DOPC   D2A 6486  23.010   5.470   3.970
24115DOPC   C3A 6487  22.810   5.500   4.390
24115DOPC   C4A 6488  22.840   5.550   4.870
24115DOPC   C1B 6489  23.820   5.330   3.800
24115DOPC   D2B 6490  23.850   5.470   4.310
24115DOPC   C3B 6491  24.080   5.790   4.560
24115DOPC   C4B 6492  23.890   6.050   4.960
24116DOPC   NC3 6493  11.837   4.820  11.010
24116DOPC   PO4 6494  11.527   4.610  11.140
24116DOPC   GL1 6495  11.287   4.770  11.410
24116DOPC   GL2 6496  11.167   4.550  11.510
24116DOPC   C1A 6497  11.367   4.990  11.830
24116DOPC   D2A 6498  11.667   5.200  12.200
24116DOPC   C3A 6499  11.447   5.050  12.580
24116DOPC   C4A 6500  10.957   4.930  12.640
24116DOPC   C1B 6501  11.087   4.590  11.960
24116DOPC   D2B 6502  10.877   4.500  12.410
24116DOPC   C3B 6503  10.477   4.750  12.490
24116DOPC   C4B 6504  10.067   4.950  12.600
24117DOPC   NC3 6505   2.487   6.160   3.830
24117DOPC   PO4 6506   2.787   6.410   3.880
24117DOPC   GL1 6507   2.927   6.400   4.300
24117DOPC   GL2 6508   2.937   6.150   4.230
24117DOPC   C1A 6509   3.177   6.240   4.620
24117DOPC   D2A 6510   3.687   6.210   4.840
24117DOPC   C3A 6511   3.707   6.530   5.230
24117DOPC   C4A 6512   3.817   6.790   5.560
24117DOPC   C1B 6513   2.927   5.820   4.450
24117DOPC   D2B 6514   2.687   5.380   4.620
24117DOPC   C3B 6515   2.427   5.210   4.930
24117DOPC   C4B 6516   2.547   5.100   5.380
24118DOPC   NC3 6517   2.127   6.350   3.490
24118DOPC   PO4 6518   1.977   6.140   3.760
24118DOPC   GL1 6519   2.097   6.210   4.090
24118DOPC   GL2 6520   1.917   6.430   4.110
24118DOPC   C1A 6521   2.087   6.050   4.500
24118DOPC   D2A 6522   1.857   6.000   4.930
24118DOPC   C3A 6523   1.687   5.980   5.380
24118DOPC   C4A 6524   1.397   5.940   5.810
24118DOPC   C1B 6525   2.087   6.600   4.450
24118DOPC   D2B 6526   2.337   6.780   4.790
24118DOPC   C3B 6527   2.227   7.090   5.070
24118DOPC   C4B 6528   2.437   7.520   5.090
24119DOPC   NC3 6529   9.607   3.370  10.040
24119DOPC   PO4 6530   9.957   3.310  10.130
24119DOPC   GL1 6531   9.907   3.160  10.570
24119DOPC   GL2 6532   9.727   3.390  10.540
24119DOPC   C1A 6533   9.667   2.920  10.820
24119DOPC   D2A 6534   9.397   2.850  11.250
24119DOPC   C3A 6535   9.767   3.120  11.340
24119DOPC   C4A 6536  10.137   3.400  11.580
24119DOPC   C1B 6537   9.267   3.400  10.710
24119DOPC   D2B 6538   8.817   3.610  10.870
24119DOPC   C3B 6539   8.867   3.690  11.290
24119DOPC   C4B 6540   9.127   3.600  11.680
24120DOPC   NC3 6541   8.697   0.680   8.810
24120DOPC   PO4 6542   8.937   0.550   9.090
24120DOPC   GL1 6543   8.717   0.570   9.430
24120DOPC   GL2 6544   8.767   0.330   9.560
24120DOPC   C1A 6545   8.327   0.630   9.540
24120DOPC   D2A 6546   7.877   0.660   9.750
24120DOPC   C3A 6547   7.627   0.410  10.090
24120DOPC   C4A 6548   7.537   0.300  10.510
24120DOPC   C1B 6549   8.647   7.770   9.770
24120DOPC   D2B 6550   8.347   7.630  10.150
24120DOPC   C3B 6551   8.117   7.400  10.470
24120DOPC   C4B 6552   7.727   7.250  10.740
24121DOPC   NC3 6553  17.607   0.770   6.260
24121DOPC   PO4 6554  18.027   0.840   6.300
24121DOPC   GL1 6555  18.137   0.580   6.610
24121DOPC   GL2 6556  18.397   0.520   6.590
24121DOPC   C1A 6557  17.977   0.480   7.000
24121DOPC   D2A 6558  18.087   0.010   7.160
24121DOPC   C3A 6559  18.417   0.000   7.530
24121DOPC   C4A 6560  18.667   7.820   7.910
24121DOPC   C1B 6561  18.787   0.750   6.830
24121DOPC   D2B 6562  19.307   0.820   7.000
24121DOPC   C3B 6563  19.627   0.760   7.340
24121DOPC   C4B 6564  19.967   0.760   7.700
24122DOPC   NC3 6565  11.617   5.300  10.900
24122DOPC   PO4 6566  11.287   5.170  11.090
24122DOPC   GL1 6567  10.947   5.060  11.370
24122DOPC   GL2 6568  11.127   5.220  11.510
24122DOPC   C1A 6569  10.657   4.780  11.460
24122DOPC   D2A 6570  10.237   4.450  11.630
24122DOPC   C3A 6571   9.967   4.110  11.790
24122DOPC   C4A 6572  10.007   3.680  12.010
24122DOPC   C1B 6573  11.207   5.460  11.860
24122DOPC   D2B 6574  11.047   5.770  12.200
24122DOPC   C3B 6575  10.657   5.870  12.490
24122DOPC   C4B 6576  10.377   5.700  12.880
24123DOPC   NC3 6577   3.487   2.040   4.290
24123DOPC   PO4 6578   3.507   2.430   4.320
24123DOPC   GL1 6579   3.437   2.480   4.680
24123DOPC   GL2 6580   3.587   2.760   4.750
24123DOPC   C1A 6581   3.077   2.320   4.960
24123DOPC   D2A 6582   2.917   2.070   5.350
24123DOPC   C3A 6583   3.067   2.120   5.830
24123DOPC   C4A 6584   3.237   1.980   6.270
24123DOPC   C1B 6585   3.327   2.930   5.050
24123DOPC   D2B 6586   3.357   2.960   5.540
24123DOPC   C3B 6587   3.057   3.070   5.870
24123DOPC   C4B 6588   2.687   3.200   6.180
24124DOPC   NC3 6589  17.317   7.090   7.040
24124DOPC   PO4 6590  17.697   6.920   7.010
24124DOPC   GL1 6591  18.057   7.030   7.170
24124DOPC   GL2 6592  18.137   6.730   7.230
24124DOPC   C1A 6593  18.327   7.440   7.270
24124DOPC   D2A 6594  18.687   7.720   7.180
24124DOPC   C3A 6595  19.067   7.690   7.470
24124DOPC   C4A 6596  19.487   7.770   7.620
24124DOPC   C1B 6597  18.347   6.740   7.600
24124DOPC   D2B 6598  18.787   6.680   7.900
24124DOPC   C3B 6599  19.007   6.930   8.070
24124DOPC   C4B 6600  19.277   7.200   8.290
24125DOPC   NC3 6601  10.107   1.320  10.520
24125DOPC   PO4 6602  10.157   1.050  10.270
24125DOPC   GL1 6603   9.717   0.850  10.190
24125DOPC   GL2 6604   9.697   1.130  10.320
24125DOPC   C1A 6605   9.457   0.620  10.490
24125DOPC   D2A 6606   9.267   0.360  10.860
24125DOPC   C3A 6607   9.277   0.060  11.210
24125DOPC   C4A 6608   9.197   7.620  11.580
24125DOPC   C1B 6609   9.647   1.230  10.780
24125DOPC   D2B 6610   9.357   1.260  11.210
24125DOPC   C3B 6611   9.007   1.010  11.450
24125DOPC   C4B 6612   8.697   0.870  11.150
24126DOPC   NC3 6613  23.980   7.140   3.120
24126DOPC   PO4 6614  23.750   7.430   3.160
24126DOPC   GL1 6615  23.630   7.470   3.570
24126DOPC   GL2 6616  23.790   7.230   3.540
24126DOPC   C1A 6617  23.710   7.520   4.000
24126DOPC   D2A 6618  23.700   7.470   4.530
24126DOPC   C3A 6619  23.780   7.620   4.960
24126DOPC   C4A 6620  23.680   0.100   5.340
24126DOPC   C1B 6621  23.960   6.910   3.780
24126DOPC   D2B 6622  23.920   6.680   4.240
24126DOPC   C3B 6623  23.900   6.860   4.670
24126DOPC   C4B 6624  23.940   7.090   5.040
24127DOPC   NC3 6625  11.627   2.950  10.940
24127DOPC   PO4 6626  11.847   2.910  11.260
24127DOPC   GL1 6627  11.787   3.040  11.630
24127DOPC   GL2 6628  11.687   3.250  11.690
24127DOPC   C1A 6629  11.697   2.980  12.060
24127DOPC   D2A 6630  11.757   2.700  12.540
24127DOPC   C3A 6631  11.337   2.660  12.820
24127DOPC   C4A 6632  10.827   2.670  12.860
24127DOPC   C1B 6633  11.267   3.430  11.750
24127DOPC   D2B 6634  10.737   3.460  11.780
24127DOPC   C3B 6635  10.337   3.310  12.030
24127DOPC   C4B 6636  10.057   2.970  12.260
24128DOPC   NC3 6637  18.237   1.220   6.500
24128DOPC   PO4 6638  18.007   1.490   6.680
24128DOPC   GL1 6639  18.127   1.750   7.030
24128DOPC   GL2 6640  18.097   1.550   7.210
24128DOPC   C1A 6641  18.527   1.790   7.200
24128DOPC   D2A 6642  18.777   1.850   7.660
24128DOPC   C3A 6643  19.127   1.580   7.860
24128DOPC   C4A 6644  19.547   1.600   8.070
24128DOPC   C1B 6645  18.057   1.890   7.470
24128DOPC   D2B 6646  18.127   2.200   7.800
24128DOPC   C3B 6647  18.157   2.240   8.240
24128DOPC   C4B 6648  18.237   2.420   8.630
24129DOPC   NC3 6649  23.880   7.830   3.460
24129DOPC   PO4 6650  24.170   7.520   3.450
24129DOPC   GL1 6651  24.320   7.320   3.780
24129DOPC   GL2 6652  24.400   7.570   3.850
24129DOPC   C1A 6653  24.520   7.040   4.080
24129DOPC   D2A 6654  24.810   6.890   4.410
24129DOPC   C3A 6655  24.770   6.470   4.660
24129DOPC   C4A 6656  24.930   6.240   5.050
24129DOPC   C1B 6657  24.460   7.620   4.250
24129DOPC   D2B 6658  24.700   7.520   4.640
24129DOPC   C3B 6659  24.910   7.240   4.870
24129DOPC   C4B 6660  24.900   6.770   5.050
24130DOPC   NC3 6661  13.237   7.430  11.420
24130DOPC   PO4 6662  13.327   7.780  11.640
24130DOPC   GL1 6663  13.477   0.010  12.090
24130DOPC   GL2 6664  13.257   0.110  12.120
24130DOPC   C1A 6665  13.697   7.720  12.460
24130DOPC   D2A 6666  14.177   7.600  12.560
24130DOPC   C3A 6667  14.577   7.340  12.470
24130DOPC   C4A 6668  15.097   7.310  12.560
24130DOPC   C1B 6669  13.217   0.210  12.540
24130DOPC   D2B 6670  13.137   0.210  13.060
24130DOPC   C3B 6671  12.907   0.110  13.510
24130DOPC   C4B 6672  12.647   7.640  13.770
24131DOPC   NC3 6673  18.897   1.000   5.540
24131DOPC   PO4 6674  18.737   0.690   5.740
24131DOPC   GL1 6675  18.927   0.750   6.050
24131DOPC   GL2 6676  19.177   0.930   5.930
24131DOPC   C1A 6677  18.837   0.440   6.400
24131DOPC   D2A 6678  19.207   0.130   6.410
24131DOPC   C3A 6679  19.567   7.700   6.510
24131DOPC   C4A 6680  20.097   7.630   6.610
24131DOPC   C1B 6681  19.487   1.070   6.290
24131DOPC   D2B 6682  19.797   1.080   6.660
24131DOPC   C3B 6683  20.227   1.100   6.620
24131DOPC   C4B 6684  20.517   1.530   6.600
24132DOPC   NC3 6685  10.067   7.420   9.640
24132DOPC   PO4 6686   9.707   7.380   9.560
24132DOPC   GL1 6687   9.497   7.020   9.710
24132DOPC   GL2 6688   9.267   7.080   9.490
24132DOPC   C1A 6689   9.307   7.010  10.050
24132DOPC   D2A 6690   9.037   6.690  10.270
24132DOPC   C3A 6691   8.787   6.790  10.680
24132DOPC   C4A 6692   8.567   6.840  11.160
24132DOPC   C1B 6693   8.927   6.770   9.670
24132DOPC   D2B 6694   8.957   6.340   9.930
24132DOPC   C3B 6695   8.487   6.220  10.040
24132DOPC   C4B 6696   8.027   6.110  10.170
24133DOPC   NC3 6697   7.117   1.390   6.590
24133DOPC   PO4 6698   6.907   1.110   6.740
24133DOPC   GL1 6699   6.677   1.220   7.110
24133DOPC   GL2 6700   6.517   0.960   7.130
24133DOPC   C1A 6701   6.617   1.350   7.490
24133DOPC   D2A 6702   6.417   1.500   7.890
24133DOPC   C3A 6703   6.287   1.840   8.190
24133DOPC   C4A 6704   5.957   2.130   8.380
24133DOPC   C1B 6705   6.207   0.920   7.440
24133DOPC   D2B 6706   5.807   0.880   7.690
24133DOPC   C3B 6707   5.467   0.530   7.640
24133DOPC   C4B 6708   5.117   0.300   7.850
24134DOPC   NC3 6709   8.447   2.470   8.740
24134DOPC   PO4 6710   8.607   2.380   9.080
24134DOPC   GL1 6711   8.357   2.250   9.340
24134DOPC   GL2 6712   8.447   2.400   9.620
24134DOPC   C1A 6713   8.017   1.930   9.320
24134DOPC   D2A 6714   7.607   1.660   9.470
24134DOPC   C3A 6715   7.197   1.540   9.640
24134DOPC   C4A 6716   6.677   1.620   9.680
24134DOPC   C1B 6717   8.217   2.700   9.870
24134DOPC   D2B 6718   7.967   2.950  10.180
24134DOPC   C3B 6719   8.007   2.810  10.650
24134DOPC   C4B 6720   7.997   2.890  11.140
24135DOPC   NC3 6721  20.417   2.570   4.380
24135DOPC   PO4 6722  20.107   2.840   4.530
24135DOPC   GL1 6723  20.117   3.000   4.910
24135DOPC   GL2 6724  20.287   3.220   4.970
24135DOPC   C1A 6725  20.167   2.830   5.290
24135DOPC   D2A 6726  20.227   2.740   5.810
24135DOPC   C3A 6727  20.127   2.960   6.240
24135DOPC   C4A 6728  19.987   3.390   6.490
24135DOPC   C1B 6729  20.577   3.210   5.310
24135DOPC   D2B 6730  20.717   3.580   5.660
24135DOPC   C3B 6731  21.070   3.380   5.820
24135DOPC   C4B 6732  21.390   3.530   6.180
24136DOPC   NC3 6733  13.997   3.630  12.250
24136DOPC   PO4 6734  13.627   3.710  12.140
24136DOPC   GL1 6735  13.607   3.890  12.490
24136DOPC   GL2 6736  13.747   4.060  12.390
24136DOPC   C1A 6737  13.697   3.650  12.850
24136DOPC   D2A 6738  13.957   3.300  13.100
24136DOPC   C3A 6739  13.837   2.990  13.440
24136DOPC   C4A 6740  13.577   3.190  13.760
24136DOPC   C1B 6741  14.047   4.000  12.610
24136DOPC   D2B 6742  14.407   4.200  12.860
24136DOPC   C3B 6743  14.577   4.640  12.880
24136DOPC   C4B 6744  14.977   4.960  12.670
24137DOPC   NC3 6745   3.067   5.450   4.050
24137DOPC   PO4 6746   3.377   5.700   4.010
24137DOPC   GL1 6747   3.547   5.620   4.330
24137DOPC   GL2 6748   3.597   5.820   4.510
24137DOPC   C1A 6749   3.287   5.430   4.590
24137DOPC   D2A 6750   3.007   5.360   5.010
24137DOPC   C3A 6751   2.637   5.540   5.230
24137DOPC   C4A 6752   2.367   5.590   5.660
24137DOPC   C1B 6753   3.337   5.860   4.890
24137DOPC   D2B 6754   3.147   5.760   5.330
24137DOPC   C3B 6755   2.817   5.860   5.690
24137DOPC   C4B 6756   2.707   5.650   6.080
24138DOPC   NC3 6757  24.920   1.160   2.970
24138DOPC   PO4 6758   0.137   1.160   3.170
24138DOPC   GL1 6759   0.307   0.990   3.580
24138DOPC   GL2 6760   0.217   1.200   3.750
24138DOPC   C1A 6761   0.637   0.720   3.620
24138DOPC   D2A 6762   0.907   0.730   4.020
24138DOPC   C3A 6763   1.227   0.820   4.350
24138DOPC   C4A 6764   1.207   0.710   4.880
24138DOPC   C1B 6765   0.067   1.620   3.910
24138DOPC   D2B 6766  25.060   2.020   4.200
24138DOPC   C3B 6767  24.880   1.830   4.610
24138DOPC   C4B 6768  24.640   1.600   5.020
24139DOPC   NC3 6769   7.647   2.670   7.500
24139DOPC   PO4 6770   7.347   2.410   7.560
24139DOPC   GL1 6771   6.937   2.530   7.520
24139DOPC   GL2 6772   6.967   2.360   7.800
24139DOPC   C1A 6773   6.647   2.690   7.170
24139DOPC   D2A 6774   6.187   2.770   7.000
24139DOPC   C3A 6775   5.727   2.770   7.180
24139DOPC   C4A 6776   5.447   2.810   7.590
24139DOPC   C1B 6777   6.647   2.640   8.010
24139DOPC   D2B 6778   6.407   3.010   8.290
24139DOPC   C3B 6779   6.197   2.950   8.770
24139DOPC   C4B 6780   5.887   2.770   9.080
24140DOPC   NC3 6781  19.507   0.180   4.820
24140DOPC   PO4 6782  19.787   7.840   4.660
24140DOPC   GL1 6783  19.687   7.480   4.910
24140DOPC   GL2 6784  19.577   7.660   5.040
24140DOPC   C1A 6785  19.837   7.240   5.190
24140DOPC   D2A 6786  20.227   7.140   5.530
24140DOPC   C3A 6787  20.547   6.810   5.650
24140DOPC   C4A 6788  20.677   6.430   6.010
24140DOPC   C1B 6789  19.807   7.710   5.400
24140DOPC   D2B 6790  20.077   0.020   5.770
24140DOPC   C3B 6791  20.537   0.160   5.880
24140DOPC   C4B 6792  20.920   0.290   6.100
24141DOPC   NC3 6793   6.437   5.280   5.560
24141DOPC   PO4 6794   6.287   5.050   5.860
24141DOPC   GL1 6795   5.937   5.210   6.240
24141DOPC   GL2 6796   6.157   5.000   6.360
24141DOPC   C1A 6797   5.527   5.180   6.340
24141DOPC   D2A 6798   5.027   5.170   6.260
24141DOPC   C3A 6799   4.757   5.190   6.680
24141DOPC   C4A 6800   4.557   4.860   6.970
24141DOPC   C1B 6801   6.067   5.180   6.770
24141DOPC   D2B 6802   5.687   5.160   7.120
24141DOPC   C3B 6803   5.337   5.500   7.170
24141DOPC   C4B 6804   4.927   5.800   7.240
24142DOPC   NC3 6805  16.977   2.140   7.720
24142DOPC   PO4 6806  17.217   2.260   8.000
24142DOPC   GL1 6807  17.597   2.290   8.110
24142DOPC   GL2 6808  17.677   2.010   8.200
24142DOPC   C1A 6809  17.817   2.590   8.280
24142DOPC   D2A 6810  18.097   2.920   8.440
24142DOPC   C3A 6811  18.527   2.900   8.650
24142DOPC   C4A 6812  18.907   2.720   8.880
24142DOPC   C1B 6813  17.977   1.700   7.990
24142DOPC   D2B 6814  18.357   1.560   7.680
24142DOPC   C3B 6815  18.437   1.220   7.380
24142DOPC   C4B 6816  18.357   0.910   6.970
24143DOPC   NC3 6817  20.437   1.780   4.800
24143DOPC   PO4 6818  20.397   2.100   4.570
24143DOPC   GL1 6819  20.707   2.280   4.650
24143DOPC   GL2 6820  20.910   2.210   4.590
24143DOPC   C1A 6821  20.707   2.470   5.090
24143DOPC   D2A 6822  20.647   2.760   5.490
24143DOPC   C3A 6823  20.910   2.840   5.880
24143DOPC   C4A 6824  21.030   3.020   6.310
24143DOPC   C1B 6825  21.160   2.230   4.940
24143DOPC   D2B 6826  21.200   2.590   5.310
24143DOPC   C3B 6827  21.190   2.470   5.740
24143DOPC   C4B 6828  21.060   2.460   6.240
24144DOPC   NC3 6829   0.987   5.620   3.210
24144DOPC   PO4 6830   0.607   5.700   3.240
24144DOPC   GL1 6831   0.537   5.800   3.570
24144DOPC   GL2 6832   0.767   5.630   3.670
24144DOPC   C1A 6833   0.567   6.000   3.920
24144DOPC   D2A 6834   0.597   6.340   4.290
24144DOPC   C3A 6835   0.527   6.790   4.270
24144DOPC   C4A 6836   0.457   7.300   4.310
24144DOPC   C1B 6837   0.797   5.240   3.870
24144DOPC   D2B 6838   0.657   5.080   4.300
24144DOPC   C3B 6839   0.617   4.760   4.570
24144DOPC   C4B 6840   0.637   4.390   4.940
24145DOPC   NC3 6841  24.410   2.860   3.210
24145DOPC   PO4 6842  24.210   2.570   3.040
24145DOPC   GL1 6843  23.870   2.670   3.340
24145DOPC   GL2 6844  23.990   2.380   3.430
24145DOPC   C1A 6845  23.910   3.000   3.650
24145DOPC   D2A 6846  23.900   3.390   3.990
24145DOPC   C3A 6847  23.870   3.680   4.400
24145DOPC   C4A 6848  24.000   3.580   4.830
24145DOPC   C1B 6849  24.080   2.420   3.830
24145DOPC   D2B 6850  24.230   2.170   4.240
24145DOPC   C3B 6851  24.190   2.350   4.670
24145DOPC   C4B 6852  24.240   2.180   5.170
24146DOPC   NC3 6853  20.007   1.840   4.400
24146DOPC   PO4 6854  19.947   1.840   4.800
24146DOPC   GL1 6855  20.067   2.150   5.070
24146DOPC   GL2 6856  19.797   2.210   5.050
24146DOPC   C1A 6857  20.287   2.370   5.330
24146DOPC   D2A 6858  20.767   2.310   5.590
24146DOPC   C3A 6859  20.627   2.440   5.990
24146DOPC   C4A 6860  20.617   2.780   6.360
24146DOPC   C1B 6861  19.837   2.490   5.410
24146DOPC   D2B 6862  19.667   2.880   5.730
24146DOPC   C3B 6863  19.777   3.210   6.040
24146DOPC   C4B 6864  19.627   3.660   6.110
24147DOPC   NC3 6865  13.777   5.080  11.860
24147DOPC   PO4 6866  14.127   5.250  11.710
24147DOPC   GL1 6867  14.337   5.060  11.990
24147DOPC   GL2 6868  14.207   5.310  12.180
24147DOPC   C1A 6869  14.207   4.830  12.410
24147DOPC   D2A 6870  14.047   4.780  12.880
24147DOPC   C3A 6871  14.217   4.910  13.330
24147DOPC   C4A 6872  14.607   4.930  13.640
24147DOPC   C1B 6873  13.877   5.220  12.420
24147DOPC   D2B 6874  13.727   5.310  12.860
24147DOPC   C3B 6875  13.867   5.550  13.270
24147DOPC   C4B 6876  13.847   5.630  13.760
24148DOPC   NC3 6877  23.300   2.150   2.870
24148DOPC   PO4 6878  23.020   2.030   3.090
24148DOPC   GL1 6879  22.950   1.870   3.510
24148DOPC   GL2 6880  22.870   2.010   3.670
24148DOPC   C1A 6881  23.300   1.710   3.560
24148DOPC   D2A 6882  23.680   1.450   3.770
24148DOPC   C3A 6883  23.780   1.630   4.190
24148DOPC   C4A 6884  23.850   1.980   4.550
24148DOPC   C1B 6885  22.880   1.840   4.060
24148DOPC   D2B 6886  22.880   1.780   4.560
24148DOPC   C3B 6887  22.920   1.780   5.000
24148DOPC   C4B 6888  22.880   1.890   5.480
24149DOPC   NC3 6889   0.637   0.980   3.150
24149DOPC   PO4 6890   0.937   1.200   3.070
24149DOPC   GL1 6891   0.707   1.460   3.300
24149DOPC   GL2 6892   0.517   1.320   3.420
24149DOPC   C1A 6893   0.577   1.710   3.710
24149DOPC   D2A 6894   0.347   2.030   4.060
24149DOPC   C3A 6895   0.407   2.380   4.320
24149DOPC   C4A 6896   0.427   2.660   4.760
24149DOPC   C1B 6897   0.787   1.260   3.810
24149DOPC   D2B 6898   1.287   1.230   3.980
24149DOPC   C3B 6899   1.307   1.630   4.320
24149DOPC   C4B 6900   1.157   1.940   4.660
24150DOPC   NC3 6901   8.257   4.180   8.280
24150DOPC   PO4 6902   7.997   3.900   8.400
24150DOPC   GL1 6903   7.787   3.820   8.780
24150DOPC   GL2 6904   7.707   3.590   8.770
24150DOPC   C1A 6905   7.577   4.070   9.040
24150DOPC   D2A 6906   7.517   4.330   9.420
24150DOPC   C3A 6907   7.167   4.490   9.680
24150DOPC   C4A 6908   7.017   4.880  10.000
24150DOPC   C1B 6909   7.287   3.630   8.920
24150DOPC   D2B 6910   6.847   3.550   9.160
24150DOPC   C3B 6911   6.957   3.710   9.550
24150DOPC   C4B 6912   7.057   3.960   9.970
24151DOPC   NC3 6913   7.197   6.780   7.140
24151DOPC   PO4 6914   7.497   6.660   7.350
24151DOPC   GL1 6915   7.217   6.760   7.610
24151DOPC   GL2 6916   7.147   6.600   7.790
24151DOPC   C1A 6917   7.127   7.100   7.830
24151DOPC   D2A 6918   7.167   7.590   7.970
24151DOPC   C3A 6919   7.127   7.630   8.420
24151DOPC   C4A 6920   7.067   0.150   8.720
24151DOPC   C1B 6921   6.887   6.730   8.160
24151DOPC   D2B 6922   6.677   6.840   8.590
24151DOPC   C3B 6923   6.667   6.720   9.050
24151DOPC   C4B 6924   6.547   6.850   9.510
24152DOPC   NC3 6925  11.117   0.120  11.070
24152DOPC   PO4 6926  11.247   7.630  11.150
24152DOPC   GL1 6927  11.197   7.750  11.490
24152DOPC   GL2 6928  11.437   0.020  11.600
24152DOPC   C1A 6929  11.097   7.850  11.920
24152DOPC   D2A 6930  10.877   0.180  12.300
24152DOPC   C3A 6931  10.487   0.390  12.390
24152DOPC   C4A 6932  10.157   0.670  12.130
24152DOPC   C1B 6933  11.527   0.010  12.030
24152DOPC   D2B 6934  11.727   0.130  12.450
24152DOPC   C3B 6935  11.767   0.170  12.930
24152DOPC   C4B 6936  11.747   7.700  13.310
24153DOPC   NC3 6937  12.277   6.590  11.190
24153DOPC   PO4 6938  12.287   6.290  11.450
24153DOPC   GL1 6939  12.227   6.470  11.830
24153DOPC   GL2 6940  12.387   6.330  11.990
24153DOPC   C1A 6941  11.847   6.490  12.140
24153DOPC   D2A 6942  11.447   6.460  12.440
24153DOPC   C3A 6943  11.137   6.800  12.560
24153DOPC   C4A 6944  10.747   7.080  12.700
24153DOPC   C1B 6945  12.447   6.550  12.390
24153DOPC   D2B 6946  12.597   6.710  12.850
24153DOPC   C3B 6947  12.867   6.410  13.090
24153DOPC   C4B 6948  13.067   5.960  13.290
24154DOPC   NC3 6949  21.210   2.700   4.180
24154DOPC   PO4 6950  20.870   2.610   4.350
24154DOPC   GL1 6951  21.010   2.660   4.650
24154DOPC   GL2 6952  21.290   2.570   4.640
24154DOPC   C1A 6953  20.920   2.960   4.980
24154DOPC   D2A 6954  21.030   3.050   5.450
24154DOPC   C3A 6955  21.440   2.930   5.720
24154DOPC   C4A 6956  21.920   2.930   5.770
24154DOPC   C1B 6957  21.610   2.560   4.990
24154DOPC   D2B 6958  21.770   2.600   5.450
24154DOPC   C3B 6959  22.130   2.500   5.810
24154DOPC   C4B 6960  22.550   2.380   6.010
24155DOPC   NC3 6961  15.727   6.300  10.470
24155DOPC   PO4 6962  15.537   6.640  10.620
24155DOPC   GL1 6963  15.617   6.820  10.990
24155DOPC   GL2 6964  15.357   6.860  11.120
24155DOPC   C1A 6965  15.967   6.880  11.170
24155DOPC   D2A 6966  16.387   6.870  11.490
24155DOPC   C3A 6967  16.787   7.050  11.630
24155DOPC   C4A 6968  17.187   7.300  11.730
24155DOPC   C1B 6969  15.137   6.700  11.570
24155DOPC   D2B 6970  15.157   6.480  12.000
24155DOPC   C3B 6971  15.607   6.510  12.140
24155DOPC   C4B 6972  16.077   6.670  12.350
24156DOPC   NC3 6973   4.877   4.300   5.500
24156DOPC   PO4 6974   4.977   3.920   5.470
24156DOPC   GL1 6975   5.047   4.000   5.900
24156DOPC   GL2 6976   4.827   4.170   5.920
24156DOPC   C1A 6977   5.167   4.110   6.340
24156DOPC   D2A 6978   5.437   4.260   6.690
24156DOPC   C3A 6979   5.187   3.960   6.940
24156DOPC   C4A 6980   5.127   4.090   7.380
24156DOPC   C1B 6981   4.407   4.180   6.100
24156DOPC   D2B 6982   3.997   4.320   6.300
24156DOPC   C3B 6983   3.607   4.130   6.280
24156DOPC   C4B 6984   3.167   4.060   6.420
24157DOPC   NC3 6985  19.487   1.580   5.240
24157DOPC   PO4 6986  19.257   1.280   5.350
24157DOPC   GL1 6987  19.347   1.300   5.830
24157DOPC   GL2 6988  19.587   1.130   5.760
24157DOPC   C1A 6989  19.077   1.300   6.120
24157DOPC   D2A 6990  19.167   1.440   6.540
24157DOPC   C3A 6991  19.297   1.330   6.950
24157DOPC   C4A 6992  19.367   1.600   7.400
24157DOPC   C1B 6993  19.667   0.800   5.900
24157DOPC   D2B 6994  20.017   0.710   6.280
24157DOPC   C3B 6995  20.357   0.600   6.600
24157DOPC   C4B 6996  20.557   0.620   7.040
24158DOPC   NC3 6997  20.617   4.560   4.230
24158DOPC   PO4 6998  20.417   4.300   4.480
24158DOPC   GL1 6999  20.437   4.280   4.910
24158DOPC   GL2 7000  20.267   4.520   4.850
24158DOPC   C1A 7001  20.637   4.200   5.280
24158DOPC   D2A 7002  20.990   3.950   5.500
24158DOPC   C3A 7003  21.110   3.920   5.970
24158DOPC   C4A 7004  21.360   3.890   6.440
24158DOPC   C1B 7005  20.447   4.910   5.000
24158DOPC   D2B 7006  20.527   5.200   5.430
24158DOPC   C3B 7007  20.847   5.120   5.730
24158DOPC   C4B 7008  21.250   4.840   5.860
24159DOPC   NC3 7009  17.997   6.560   6.760
24159DOPC   PO4 7010  18.157   6.300   6.990
24159DOPC   GL1 7011  18.397   6.250   7.280
24159DOPC   GL2 7012  18.217   6.300   7.520
24159DOPC   C1A 7013  18.757   6.440   7.430
24159DOPC   D2A 7014  19.167   6.460   7.720
24159DOPC   C3A 7015  19.267   6.540   8.160
24159DOPC   C4A 7016  19.697   6.440   8.360
24159DOPC   C1B 7017  18.327   6.460   7.990
24159DOPC   D2B 7018  18.567   6.650   8.390
24159DOPC   C3B 7019  18.987   6.760   8.620
24159DOPC   C4B 7020  19.497   6.830   8.650
24160DOPC   NC3 7021  18.207   2.910   5.760
24160DOPC   PO4 7022  18.037   2.940   6.130
24160DOPC   GL1 7023  18.307   3.120   6.430
24160DOPC   GL2 7024  18.467   2.900   6.280
24160DOPC   C1A 7025  18.567   3.420   6.650
24160DOPC   D2A 7026  18.977   3.460   6.950
24160DOPC   C3A 7027  19.347   3.680   7.100
24160DOPC   C4A 7028  19.747   3.560   7.380
24160DOPC   C1B 7029  18.907   2.980   6.340
24160DOPC   D2B 7030  19.397   2.910   6.230
24160DOPC   C3B 7031  19.727   2.590   6.160
24160DOPC   C4B 7032  20.177   2.390   6.240
24161DOPC   NC3 7033  16.907   5.440   8.740
24161DOPC   PO4 7034  17.027   5.310   8.420
24161DOPC   GL1 7035  17.447   5.280   8.490
24161DOPC   GL2 7036  17.257   5.030   8.670
24161DOPC   C1A 7037  17.727   5.580   8.570
24161DOPC   D2A 7038  17.807   5.880   8.980
24161DOPC   C3A 7039  18.207   6.160   8.920
24161DOPC   C4A 7040  18.287   6.530   9.310
24161DOPC   C1B 7041  17.557   4.880   8.820
24161DOPC   D2B 7042  18.037   4.720   9.030
24161DOPC   C3B 7043  18.147   4.440   9.360
24161DOPC   C4B 7044  18.047   4.160   9.720
24162DOPC   NC3 7045   2.487   5.430   3.340
24162DOPC   PO4 7046   2.807   5.470   3.630
24162DOPC   GL1 7047   2.627   5.550   3.960
24162DOPC   GL2 7048   2.647   5.270   4.090
24162DOPC   C1A 7049   2.547   5.850   4.190
24162DOPC   D2A 7050   2.617   6.180   4.570
24162DOPC   C3A 7051   2.387   6.280   4.940
24162DOPC   C4A 7052   2.577   6.180   5.400
24162DOPC   C1B 7053   2.347   5.050   4.430
24162DOPC   D2B 7054   2.167   4.820   4.800
24162DOPC   C3B 7055   2.097   4.970   5.260
24162DOPC   C4B 7056   2.157   4.930   5.730
24163DOPC   NC3 7057  23.300   3.990   3.470
24163DOPC   PO4 7058  22.950   4.210   3.400
24163DOPC   GL1 7059  22.780   4.520   3.680
24163DOPC   GL2 7060  22.600   4.380   3.830
24163DOPC   C1A 7061  22.890   4.960   3.670
24163DOPC   D2A 7062  22.740   5.460   3.560
24163DOPC   C3A 7063  23.030   5.800   3.510
24163DOPC   C4A 7064  23.250   6.190   3.680
24163DOPC   C1B 7065  22.820   4.230   4.180
24163DOPC   D2B 7066  23.250   4.220   4.470
24163DOPC   C3B 7067  23.720   4.250   4.400
24163DOPC   C4B 7068  24.250   4.110   4.470
24164DOPC   NC3 7069  12.007   5.230  11.740
24164DOPC   PO4 7070  11.997   5.590  11.710
24164DOPC   GL1 7071  11.987   5.740  12.160
24164DOPC   GL2 7072  11.917   5.900  12.030
24164DOPC   C1A 7073  12.087   5.540  12.530
24164DOPC   D2A 7074  12.257   5.430  12.940
24164DOPC   C3A 7075  12.097   5.460  13.360
24164DOPC   C4A 7076  11.737   5.320  13.650
24164DOPC   C1B 7077  11.887   6.020  12.460
24164DOPC   D2B 7078  11.977   6.400  12.640
24164DOPC   C3B 7079  12.247   6.400  13.070
24164DOPC   C4B 7080  12.547   6.650  13.350
24165DOPC   NC3 7081  16.857   0.910   8.350
24165DOPC   PO4 7082  16.797   1.080   8.690
24165DOPC   GL1 7083  17.247   1.230   8.850
24165DOPC   GL2 7084  17.187   1.420   8.650
24165DOPC   C1A 7085  17.597   1.160   9.120
24165DOPC   D2A 7086  18.147   1.110   9.170
24165DOPC   C3A 7087  18.607   1.280   9.040
24165DOPC   C4A 7088  18.917   1.600   8.800
24165DOPC   C1B 7089  17.567   1.550   8.520
24165DOPC   D2B 7090  18.017   1.720   8.430
24165DOPC   C3B 7091  18.407   1.810   8.150
24165DOPC   C4B 7092  18.847   2.080   8.090
24166DOPC   NC3 7093   0.077   0.210   2.860
24166DOPC   PO4 7094  24.990   0.350   3.120
24166DOPC   GL1 7095  24.990   0.330   3.510
24166DOPC   GL2 7096  24.720   0.440   3.630
24166DOPC   C1A 7097   0.127   0.530   3.680
24166DOPC   D2A 7098   0.347   0.850   4.000
24166DOPC   C3A 7099   0.237   1.290   4.200
24166DOPC   C4A 7100   0.217   1.710   4.480
24166DOPC   C1B 7101  24.830   0.480   4.070
24166DOPC   D2B 7102   0.057   0.550   4.340
24166DOPC   C3B 7103   0.277   0.860   4.560
24166DOPC   C4B 7104   0.437   1.260   4.790
24167DOPC   NC3 7105  15.797   7.300   9.860
24167DOPC   PO4 7106  15.787   7.650  10.100
24167DOPC   GL1 7107  15.997   7.590  10.490
24167DOPC   GL2 7108  16.177   7.450  10.380
24167DOPC   C1A 7109  15.967   7.240  10.760
24167DOPC   D2A 7110  16.357   7.130  11.020
24167DOPC   C3A 7111  16.757   7.060  11.120
24167DOPC   C4A 7112  17.177   7.230  11.230
24167DOPC   C1B 7113  16.467   7.550  10.660
24167DOPC   D2B 7114  16.737   7.580  11.090
24167DOPC   C3B 7115  16.967   7.680  11.490
24167DOPC   C4B 7116  17.177   0.050  11.870
24168DOPC   NC3 7117  24.640   5.070   3.120
24168DOPC   PO4 7118  24.920   4.820   3.110
24168DOPC   GL1 7119  24.990   4.520   3.410
24168DOPC   GL2 7120  24.910   4.760   3.610
24168DOPC   C1A 7121  24.760   4.250   3.690
24168DOPC   D2A 7122  24.540   4.040   4.080
24168DOPC   C3A 7123  24.420   3.630   4.310
24168DOPC   C4A 7124  24.060   3.230   4.470
24168DOPC   C1B 7125  24.720   4.690   4.010
24168DOPC   D2B 7126  24.620   4.880   4.480
24168DOPC   C3B 7127  24.470   4.580   4.750
24168DOPC   C4B 7128  24.370   4.310   5.250
24169DOPC   NC3 7129   3.287   0.540   3.750
24169DOPC   PO4 7130   3.307   0.160   3.830
24169DOPC   GL1 7131   3.137   0.230   4.260
24169DOPC   GL2 7132   3.257   7.820   4.250
24169DOPC   C1A 7133   3.157   0.400   4.650
24169DOPC   D2A 7134   3.197   0.780   5.010
24169DOPC   C3A 7135   3.317   0.750   5.440
24169DOPC   C4A 7136   3.397   0.700   5.930
24169DOPC   C1B 7137   3.167   7.600   4.650
24169DOPC   D2B 7138   2.927   7.690   5.130
24169DOPC   C3B 7139   2.667   7.620   5.560
24169DOPC   C4B 7140   2.177   7.490   5.550
24170DOPC   NC3 7141   0.567   4.860   2.580
24170DOPC   PO4 7142   0.787   4.880   2.890
24170DOPC   GL1 7143   0.947   4.690   3.250
24170DOPC   GL2 7144   1.177   4.890   3.270
24170DOPC   C1A 7145   0.657   4.780   3.570
24170DOPC   D2A 7146   0.397   4.940   3.930
24170DOPC   C3A 7147   0.407   5.430   4.050
24170DOPC   C4A 7148   0.527   5.700   4.430
24170DOPC   C1B 7149   1.117   5.260   3.540
24170DOPC   D2B 7150   1.257   5.650   3.730
24170DOPC   C3B 7151   1.037   5.580   4.120
24170DOPC   C4B 7152   0.987   5.600   4.650
24171DOPC   NC3 7153   9.407   5.470   8.990
24171DOPC   PO4 7154   9.217   5.810   9.010
24171DOPC   GL1 7155   9.037   5.680   9.330
24171DOPC   GL2 7156   8.787   5.930   9.220
24171DOPC   C1A 7157   8.947   5.780   9.730
24171DOPC   D2A 7158   8.947   5.850  10.190
24171DOPC   C3A 7159   9.017   5.840  10.710
24171DOPC   C4A 7160   8.837   5.900  11.170
24171DOPC   C1B 7161   8.527   5.970   9.580
24171DOPC   D2B 7162   8.407   5.730  10.000
24171DOPC   C3B 7163   8.507   5.900  10.440
24171DOPC   C4B 7164   8.327   5.890  10.910
24172DOPC   NC3 7165  12.077   1.490  11.220
24172DOPC   PO4 7166  11.687   1.410  11.230
24172DOPC   GL1 7167  11.547   1.280  11.570
24172DOPC   GL2 7168  11.287   1.140  11.450
24172DOPC   C1A 7169  11.397   1.480  11.840
24172DOPC   D2A 7170  11.407   1.600  12.320
24172DOPC   C3A 7171  11.167   1.840  12.560
24172DOPC   C4A 7172  10.947   2.160  12.850
24172DOPC   C1B 7173  10.957   1.340  11.750
24172DOPC   D2B 7174  10.907   1.680  12.080
24172DOPC   C3B 7175  10.677   1.860  12.500
24172DOPC   C4B 7176  10.527   1.820  13.000
24173DOPC   NC3 7177   2.367   3.090   3.460
24173DOPC   PO4 7178   2.187   3.380   3.660
24173DOPC   GL1 7179   1.787   3.350   3.880
24173DOPC   GL2 7180   1.987   3.380   4.150
24173DOPC   C1A 7181   1.367   3.460   4.010
24173DOPC   D2A 7182   1.107   3.260   4.360
24173DOPC   C3A 7183   0.977   3.460   4.780
24173DOPC   C4A 7184   0.917   3.650   5.230
24173DOPC   C1B 7185   1.977   3.410   4.570
24173DOPC   D2B 7186   1.787   3.170   4.960
24173DOPC   C3B 7187   1.387   3.330   5.160
24173DOPC   C4B 7188   1.417   3.740   5.410
24174DOPC   NC3 7189  15.577   6.810   9.750
24174DOPC   PO4 7190  15.527   6.760  10.130
24174DOPC   GL1 7191  15.897   6.800  10.340
24174DOPC   GL2 7192  15.957   7.090  10.250
24174DOPC   C1A 7193  16.177   6.680  10.620
24174DOPC   D2A 7194  16.557   6.280  10.700
24174DOPC   C3A 7195  17.017   6.240  10.480
24174DOPC   C4A 7196  17.327   6.030  10.170
24174DOPC   C1B 7197  16.367   7.070  10.440
24174DOPC   D2B 7198  16.837   7.100  10.590
24174DOPC   C3B 7199  17.107   7.440  10.820
24174DOPC   C4B 7200  17.437   7.800  10.960
35962DOPC   NC3 7201  15.337   2.110  15.170
35962DOPC   PO4 7202  15.417   2.480  15.060
35962DOPC   GL1 7203  15.297   2.650  14.750
35962DOPC   GL2 7204  15.437   2.470  14.590
35962DOPC   C1A 7205  14.887   2.670  14.620
35962DOPC   D2A 7206  14.507   2.510  14.380
35962DOPC   C3A 7207  14.277   2.130  14.130
35962DOPC   C4A 7208  13.957   1.850  13.840
35962DOPC   C1B 7209  15.217   2.300  14.280
35962DOPC   D2B 7210  14.757   2.070  14.220
35962DOPC   C3B 7211  14.617   1.820  13.820
35962DOPC   C4B 7212  14.277   1.910  13.440
35963DOPC   NC3 7213   4.047   5.020  10.010
35963DOPC   PO4 7214   4.277   4.690   9.920
35963DOPC   GL1 7215   4.667   4.780   9.800
35963DOPC   GL2 7216   4.777   4.800  10.020
35963DOPC   C1A 7217   5.007   4.630   9.540
35963DOPC   D2A 7218   5.377   4.480   9.300
35963DOPC   C3A 7219   5.637   4.780   9.200
35963DOPC   C4A 7220   5.867   4.970   8.840
35963DOPC   C1B 7221   5.077   5.000   9.840
35963DOPC   D2B 7222   5.407   5.360   9.740
35963DOPC   C3B 7223   5.837   5.510   9.660
35963DOPC   C4B 7224   5.837   5.840   9.340
35964DOPC   NC3 7225  22.450   0.580   8.160
35964DOPC   PO4 7226  22.740   0.390   7.940
35964DOPC   GL1 7227  22.530   0.380   7.630
35964DOPC   GL2 7228  22.270   0.550   7.740
35964DOPC   C1A 7229  22.590   0.530   7.240
35964DOPC   D2A 7230  22.630   0.580   6.740
35964DOPC   C3A 7231  22.390   0.790   6.360
35964DOPC   C4A 7232  22.280   1.230   6.250
35964DOPC   C1B 7233  22.010   0.830   7.580
35964DOPC   D2B 7234  21.800   1.100   7.260
35964DOPC   C3B 7235  21.570   0.910   6.830
35964DOPC   C4B 7236  21.420   0.770   6.460
35965DOPC   NC3 7237   0.117   2.680   6.960
35965DOPC   PO4 7238  24.960   2.450   6.920
35965DOPC   GL1 7239  24.760   2.250   6.480
35965DOPC   GL2 7240  24.980   2.470   6.380
35965DOPC   C1A 7241  24.510   2.400   6.140
35965DOPC   D2A 7242  24.460   2.670   5.740
35965DOPC   C3A 7243  24.650   2.410   5.390
35965DOPC   C4A 7244  24.770   2.540   4.870
35965DOPC   C1B 7245   0.127   2.340   6.100
35965DOPC   D2B 7246   0.407   2.210   5.690
35965DOPC   C3B 7247   0.907   2.330   5.590
35965DOPC   C4B 7248   1.387   2.400   5.510
35966DOPC   NC3 7249  17.137   0.120  14.050
35966DOPC   PO4 7250  16.907   7.820  14.330
35966DOPC   GL1 7251  16.687   7.580  14.190
35966DOPC   GL2 7252  16.357   7.620  14.260
35966DOPC   C1A 7253  16.667   7.590  13.780
35966DOPC   D2A 7254  16.507   7.790  13.320
35966DOPC   C3A 7255  16.267   7.850  12.930
35966DOPC   C4A 7256  16.077   0.060  12.500
35966DOPC   C1B 7257  16.187   7.660  13.890
35966DOPC   D2B 7258  15.827   7.750  13.570
35966DOPC   C3B 7259  15.677   7.480  13.320
35966DOPC   C4B 7260  15.527   7.230  12.920
35967DOPC   NC3 7261   5.267   6.700  10.730
35967DOPC   PO4 7262   5.567   6.740  10.980
35967DOPC   GL1 7263   5.697   6.920  10.590
35967DOPC   GL2 7264   5.977   6.820  10.560
35967DOPC   C1A 7265   5.757   7.140  10.220
35967DOPC   D2A 7266   5.807   7.390   9.780
35967DOPC   C3A 7267   5.807   7.320   9.330
35967DOPC   C4A 7268   5.897   7.180   8.860
35967DOPC   C1B 7269   6.317   7.100  10.440
35967DOPC   D2B 7270   6.867   7.070  10.340
35967DOPC   C3B 7271   7.357   7.020  10.380
35967DOPC   C4B 7272   7.757   7.180  10.250
35968DOPC   NC3 7273   5.357   3.630  11.640
35968DOPC   PO4 7274   5.697   3.710  11.880
35968DOPC   GL1 7275   6.077   3.830  11.610
35968DOPC   GL2 7276   6.097   4.070  11.690
35968DOPC   C1A 7277   6.297   3.530  11.510
35968DOPC   D2A 7278   6.607   3.110  11.410
35968DOPC   C3A 7279   6.727   3.000  10.990
35968DOPC   C4A 7280   7.087   2.910  10.690
35968DOPC   C1B 7281   6.187   4.400  11.350
35968DOPC   D2B 7282   6.617   4.360  11.140
35968DOPC   C3B 7283   6.667   4.350  10.660
35968DOPC   C4B 7284   6.887   4.430  10.180
35969DOPC   NC3 7285   7.927   5.260  13.550
35969DOPC   PO4 7286   7.577   5.310  13.350
35969DOPC   GL1 7287   7.717   5.340  12.930
35969DOPC   GL2 7288   7.547   5.130  12.840
35969DOPC   C1A 7289   8.137   5.400  12.700
35969DOPC   D2A 7290   8.517   5.360  12.370
35969DOPC   C3A 7291   8.777   5.010  12.150
35969DOPC   C4A 7292   9.197   4.790  12.200
35969DOPC   C1B 7293   7.837   4.940  12.510
35969DOPC   D2B 7294   8.087   5.180  12.150
35969DOPC   C3B 7295   8.367   5.110  11.810
35969DOPC   C4B 7296   8.507   4.790  11.440
35970DOPC   NC3 7297   3.207   6.010   8.800
35970DOPC   PO4 7298   3.547   5.970   8.610
35970DOPC   GL1 7299   3.747   5.650   8.630
35970DOPC   GL2 7300   3.607   5.500   8.400
35970DOPC   C1A 7301   4.107   5.810   8.400
35970DOPC   D2A 7302   4.547   5.670   8.230
35970DOPC   C3A 7303   4.897   5.390   8.060
35970DOPC   C4A 7304   4.867   5.410   7.620
35970DOPC   C1B 7305   3.577   5.300   7.970
35970DOPC   D2B 7306   3.637   5.390   7.520
35970DOPC   C3B 7307   3.887   5.740   7.340
35970DOPC   C4B 7308   3.827   6.220   7.190
35971DOPC   NC3 7309  18.867   6.090  13.000
35971DOPC   PO4 7310  18.717   6.310  12.720
35971DOPC   GL1 7311  18.297   6.410  12.500
35971DOPC   GL2 7312  18.467   6.550  12.310
35971DOPC   C1A 7313  17.937   6.190  12.390
35971DOPC   D2A 7314  17.477   6.030  12.180
35971DOPC   C3A 7315  17.047   5.960  12.050
35971DOPC   C4A 7316  16.777   6.260  11.730
35971DOPC   C1B 7317  18.167   6.440  12.030
35971DOPC   D2B 7318  17.797   6.260  11.810
35971DOPC   C3B 7319  17.747   6.300  11.380
35971DOPC   C4B 7320  17.777   6.290  10.870
35972DOPC   NC3 7321  12.577   3.930  16.290
35972DOPC   PO4 7322  12.437   3.810  15.960
35972DOPC   GL1 7323  12.667   3.810  15.600
35972DOPC   GL2 7324  12.387   3.810  15.440
35972DOPC   C1A 7325  13.027   3.750  15.370
35972DOPC   D2A 7326  13.297   3.410  15.230
35972DOPC   C3A 7327  13.427   3.540  14.820
35972DOPC   C4A 7328  13.517   3.420  14.340
35972DOPC   C1B 7329  12.317   3.530  15.130
35972DOPC   D2B 7330  12.467   3.350  14.690
35972DOPC   C3B 7331  12.207   3.320  14.280
35972DOPC   C4B 7332  11.777   3.370  14.070
35973DOPC   NC3 7333  21.380   0.470   8.930
35973DOPC   PO4 7334  21.100   0.550   9.170
35973DOPC   GL1 7335  20.777   0.460   8.960
35973DOPC   GL2 7336  20.627   0.240   9.090
35973DOPC   C1A 7337  20.537   0.710   8.690
35973DOPC   D2A 7338  20.287   0.850   8.300
35973DOPC   C3A 7339  20.387   1.020   7.840
35973DOPC   C4A 7340  20.267   1.210   7.430
35973DOPC   C1B 7341  20.267   0.400   8.950
35973DOPC   D2B 7342  19.877   0.670   8.930
35973DOPC   C3B 7343  19.717   1.080   8.960
35973DOPC   C4B 7344  19.517   1.350   9.380
35974DOPC   NC3 7345  25.110   1.210   7.220
35974DOPC   PO4 7346  24.850   1.050   6.980
35974DOPC   GL1 7347  24.690   1.120   6.590
35974DOPC   GL2 7348  24.440   0.990   6.690
35974DOPC   C1A 7349  24.770   1.020   6.230
35974DOPC   D2A 7350  24.690   0.830   5.790
35974DOPC   C3A 7351  24.900   0.890   5.400
35974DOPC   C4A 7352   0.017   0.860   4.980
35974DOPC   C1B 7353  24.260   0.810   6.270
35974DOPC   D2B 7354  24.280   0.460   5.960
35974DOPC   C3B 7355  24.570   0.410   5.570
35974DOPC   C4B 7356  24.660   0.550   5.150
35975DOPC   NC3 7357   9.237   7.110  14.390
35975DOPC   PO4 7358   9.497   6.860  14.370
35975DOPC   GL1 7359   9.877   6.770  14.190
35975DOPC   GL2 7360   9.737   6.760  13.920
35975DOPC   C1A 7361  10.227   7.020  14.130
35975DOPC   D2A 7362  10.587   7.400  14.010
35975DOPC   C3A 7363  10.677   7.450  13.560
35975DOPC   C4A 7364  10.727   7.380  13.090
35975DOPC   C1B 7365  10.067   6.880  13.650
35975DOPC   D2B 7366  10.347   6.680  13.230
35975DOPC   C3B 7367  10.757   6.740  13.080
35975DOPC   C4B 7368  11.177   7.030  13.000
35976DOPC   NC3 7369   8.227   3.480  13.630
35976DOPC   PO4 7370   8.177   3.110  13.510
35976DOPC   GL1 7371   8.387   3.000  13.260
35976DOPC   GL2 7372   8.257   2.690  13.150
35976DOPC   C1A 7373   8.447   3.140  12.820
35976DOPC   D2A 7374   8.297   3.170  12.310
35976DOPC   C3A 7375   8.577   3.200  11.880
35976DOPC   C4A 7376   8.847   3.210  11.520
35976DOPC   C1B 7377   8.347   2.470  12.750
35976DOPC   D2B 7378   8.747   2.380  12.560
35976DOPC   C3B 7379   8.677   2.220  12.140
35976DOPC   C4B 7380   8.937   1.940  11.790
35977DOPC   NC3 7381   8.277   6.710  13.780
35977DOPC   PO4 7382   8.157   6.310  13.710
35977DOPC   GL1 7383   8.527   6.210  13.560
35977DOPC   GL2 7384   8.587   6.450  13.430
35977DOPC   C1A 7385   8.577   5.930  13.200
35977DOPC   D2A 7386   8.587   5.600  12.820
35977DOPC   C3A 7387   9.047   5.540  12.850
35977DOPC   C4A 7388   9.527   5.510  12.800
35977DOPC   C1B 7389   8.617   6.460  13.050
35977DOPC   D2B 7390   8.657   6.410  12.590
35977DOPC   C3B 7391   9.017   6.290  12.450
35977DOPC   C4B 7392   9.287   6.060  12.100
35978DOPC   NC3 7393  20.847   7.010  10.930
35978DOPC   PO4 7394  20.537   6.810  11.020
35978DOPC   GL1 7395  20.047   6.720  11.010
35978DOPC   GL2 7396  20.007   7.010  11.010
35978DOPC   C1A 7397  19.637   6.620  11.140
35978DOPC   D2A 7398  19.407   6.220  10.870
35978DOPC   C3A 7399  19.007   6.340  10.800
35978DOPC   C4A 7400  18.497   6.360  10.590
35978DOPC   C1B 7401  19.627   7.040  10.730
35978DOPC   D2B 7402  19.197   7.190  10.510
35978DOPC   C3B 7403  18.717   7.380  10.560
35978DOPC   C4B 7404  18.247   7.460  10.740
35979DOPC   NC3 7405  16.197   3.120  14.530
35979DOPC   PO4 7406  16.557   3.300  14.550
35979DOPC   GL1 7407  16.767   3.340  14.160
35979DOPC   GL2 7408  16.977   3.490  14.120
35979DOPC   C1A 7409  16.667   3.340  13.790
35979DOPC   D2A 7410  16.397   3.560  13.460
35979DOPC   C3A 7411  16.147   3.380  13.140
35979DOPC   C4A 7412  16.207   3.220  12.660
35979DOPC   C1B 7413  16.807   3.860  13.920
35979DOPC   D2B 7414  16.627   4.260  13.920
35979DOPC   C3B 7415  16.477   4.360  13.500
35979DOPC   C4B 7416  16.087   4.640  13.360
35980DOPC   NC3 7417  18.477   1.000  13.170
35980DOPC   PO4 7418  18.537   1.310  12.910
35980DOPC   GL1 7419  18.317   1.430  12.470
35980DOPC   GL2 7420  18.277   1.660  12.590
35980DOPC   C1A 7421  18.057   1.500  12.040
35980DOPC   D2A 7422  17.887   1.430  11.520
35980DOPC   C3A 7423  18.187   1.500  11.170
35980DOPC   C4A 7424  18.347   1.380  10.670
35980DOPC   C1B 7425  17.857   1.590  12.540
35980DOPC   D2B 7426  17.537   1.420  12.180
35980DOPC   C3B 7427  17.087   1.340  12.280
35980DOPC   C4B 7428  16.597   1.510  12.290
35981DOPC   NC3 7429   9.617   4.810  15.320
35981DOPC   PO4 7430   9.937   4.920  15.120
35981DOPC   GL1 7431  10.047   4.980  14.760
35981DOPC   GL2 7432  10.247   4.780  14.720
35981DOPC   C1A 7433  10.167   5.120  14.330
35981DOPC   D2A 7434  10.037   4.950  13.870
35981DOPC   C3A 7435   9.807   4.680  13.610
35981DOPC   C4A 7436   9.397   4.320  13.650
35981DOPC   C1B 7437  10.587   4.730  14.440
35981DOPC   D2B 7438  10.867   4.550  14.080
35981DOPC   C3B 7439  11.317   4.560  13.960
35981DOPC   C4B 7440  11.747   4.750  13.990
35982DOPC   NC3 7441  18.457   4.250  13.080
35982DOPC   PO4 7442  18.717   4.120  12.840
35982DOPC   GL1 7443  18.447   4.140  12.500
35982DOPC   GL2 7444  18.317   3.980  12.700
35982DOPC   C1A 7445  18.277   4.080  12.100
35982DOPC   D2A 7446  17.877   4.180  11.850
35982DOPC   C3A 7447  17.497   4.200  11.620
35982DOPC   C4A 7448  17.107   4.160  11.300
35982DOPC   C1B 7449  17.987   3.760  12.450
35982DOPC   D2B 7450  17.487   3.740  12.380
35982DOPC   C3B 7451  17.127   3.600  12.100
35982DOPC   C4B 7452  16.977   3.330  11.690
35983DOPC   NC3 7453   2.127   6.340   8.150
35983DOPC   PO4 7454   2.507   6.400   8.060
35983DOPC   GL1 7455   2.667   6.300   7.650
35983DOPC   GL2 7456   2.707   6.530   7.710
35983DOPC   C1A 7457   2.757   6.410   7.270
35983DOPC   D2A 7458   2.547   6.340   6.830
35983DOPC   C3A 7459   2.837   6.290   6.470
35983DOPC   C4A 7460   3.037   6.010   6.130
35983DOPC   C1B 7461   3.037   6.710   7.580
35983DOPC   D2B 7462   2.887   7.110   7.370
35983DOPC   C3B 7463   3.217   7.480   7.350
35983DOPC   C4B 7464   3.577   7.630   7.030
35984DOPC   NC3 7465   8.797   7.720  14.640
35984DOPC   PO4 7466   8.977   7.500  14.350
35984DOPC   GL1 7467   9.067   7.520  13.940
35984DOPC   GL2 7468   9.407   7.340  14.000
35984DOPC   C1A 7469   8.757   7.480  13.540
35984DOPC   D2A 7470   8.897   7.330  13.110
35984DOPC   C3A 7471   9.077   7.650  12.780
35984DOPC   C4A 7472   9.467   7.760  12.520
35984DOPC   C1B 7473   9.587   7.610  13.690
35984DOPC   D2B 7474   9.847   7.740  13.290
35984DOPC   C3B 7475   9.827   0.060  12.850
35984DOPC   C4B 7476   9.977   0.270  12.490
35985DOPC   NC3 7477  20.637   2.560  10.020
35985DOPC   PO4 7478  20.317   2.520  10.210
35985DOPC   GL1 7479  20.027   2.460  10.100
35985DOPC   GL2 7480  19.957   2.750  10.150
35985DOPC   C1A 7481  19.827   2.260   9.780
35985DOPC   D2A 7482  19.427   2.150   9.550
35985DOPC   C3A 7483  19.027   2.190   9.270
35985DOPC   C4A 7484  18.997   2.110   8.810
35985DOPC   C1B 7485  19.597   2.780   9.920
35985DOPC   D2B 7486  19.207   2.580   9.620
35985DOPC   C3B 7487  18.817   2.820   9.390
35985DOPC   C4B 7488  18.767   3.170   9.040
35986DOPC   NC3 7489  20.397   0.310   9.890
35986DOPC   PO4 7490  20.327   0.600  10.180
35986DOPC   GL1 7491  19.877   0.560  10.260
35986DOPC   GL2 7492  19.937   0.840  10.270
35986DOPC   C1A 7493  19.517   0.560  10.010
35986DOPC   D2A 7494  19.227   0.380   9.680
35986DOPC   C3A 7495  19.127   0.280   9.240
35986DOPC   C4A 7496  18.987   0.310   8.730
35986DOPC   C1B 7497  19.607   1.070  10.110
35986DOPC   D2B 7498  19.267   1.440  10.180
35986DOPC   C3B 7499  19.187   1.510   9.720
35986DOPC   C4B 7500  19.077   1.640   9.270
35987DOPC   NC3 7501  23.690   7.140   7.600
35987DOPC   PO4 7502  23.690   6.800   7.400
35987DOPC   GL1 7503  23.630   6.760   6.970
35987DOPC   GL2 7504  23.530   6.980   6.900
35987DOPC   C1A 7505  23.670   6.370   6.730
35987DOPC   D2A 7506  23.840   6.130   6.380
35987DOPC   C3A 7507  23.720   5.710   6.390
35987DOPC   C4A 7508  23.350   5.400   6.510
35987DOPC   C1B 7509  23.620   7.010   6.450
35987DOPC   D2B 7510  23.630   7.170   5.960
35987DOPC   C3B 7511  23.930   6.880   5.710
35987DOPC   C4B 7512  24.160   6.570   5.440
35988DOPC   NC3 7513  12.017   0.170  16.160
35988DOPC   PO4 7514  11.757   0.240  15.890
35988DOPC   GL1 7515  11.677   0.090  15.510
35988DOPC   GL2 7516  11.867   7.740  15.450
35988DOPC   C1A 7517  11.627   0.280  15.150
35988DOPC   D2A 7518  11.717   0.320  14.700
35988DOPC   C3A 7519  11.787   0.150  14.250
35988DOPC   C4A 7520  11.787   7.820  13.780
35988DOPC   C1B 7521  11.637   7.510  15.140
35988DOPC   D2B 7522  11.497   7.020  15.170
35988DOPC   C3B 7523  11.947   7.000  15.320
35988DOPC   C4B 7524  12.367   6.780  15.270
35989DOPC   NC3 7525   5.497   4.670  11.420
35989DOPC   PO4 7526   5.707   4.990  11.570
35989DOPC   GL1 7527   6.027   4.900  11.380
35989DOPC   GL2 7528   6.187   4.970  11.580
35989DOPC   C1A 7529   6.087   4.940  10.950
35989DOPC   D2A 7530   6.187   5.130  10.450
35989DOPC   C3A 7531   6.467   5.120  10.100
35989DOPC   C4A 7532   6.897   5.380  10.040
35989DOPC   C1B 7533   6.517   4.870  11.300
35989DOPC   D2B 7534   6.527   4.770  10.790
35989DOPC   C3B 7535   6.937   4.780  10.600
35989DOPC   C4B 7536   7.407   4.880  10.690
35990DOPC   NC3 7537  13.677   4.360  15.850
35990DOPC   PO4 7538  14.017   4.530  15.790
35990DOPC   GL1 7539  14.217   4.560  15.530
35990DOPC   GL2 7540  14.477   4.440  15.440
35990DOPC   C1A 7541  14.097   4.680  15.030
35990DOPC   D2A 7542  13.677   4.870  14.930
35990DOPC   C3A 7543  13.317   4.870  14.630
35990DOPC   C4A 7544  13.167   5.110  14.260
35990DOPC   C1B 7545  14.617   4.400  15.020
35990DOPC   D2B 7546  14.877   4.420  14.560
35990DOPC   C3B 7547  14.647   4.430  14.160
35990DOPC   C4B 7548  14.557   4.450  13.680
35991DOPC   NC3 7549  20.797   3.590   9.160
35991DOPC   PO4 7550  21.150   3.570   8.970
35991DOPC   GL1 7551  21.040   3.650   8.570
35991DOPC   GL2 7552  20.757   3.590   8.660
35991DOPC   C1A 7553  20.940   4.010   8.240
35991DOPC   D2A 7554  20.587   4.230   8.000
35991DOPC   C3A 7555  20.377   4.040   7.640
35991DOPC   C4A 7556  20.377   4.040   7.190
35991DOPC   C1B 7557  20.497   3.870   8.530
35991DOPC   D2B 7558  20.177   4.090   8.220
35991DOPC   C3B 7559  19.827   3.980   7.930
35991DOPC   C4B 7560  19.457   3.930   7.580
35992DOPC   NC3 7561  19.357   7.710  11.860
35992DOPC   PO4 7562  19.657   0.060  11.940
35992DOPC   GL1 7563  19.697   0.230  11.530
35992DOPC   GL2 7564  19.797   7.760  11.460
35992DOPC   C1A 7565  19.377   0.180  11.260
35992DOPC   D2A 7566  18.897   0.000  11.140
35992DOPC   C3A 7567  19.017   7.560  11.480
35992DOPC   C4A 7568  19.087   7.330  11.870
35992DOPC   C1B 7569  19.497   7.590  11.280
35992DOPC   D2B 7570  19.147   7.430  10.970
35992DOPC   C3B 7571  18.657   7.410  11.170
35992DOPC   C4B 7572  18.407   7.770  11.360
35993DOPC   NC3 7573   3.927   2.080   9.240
35993DOPC   PO4 7574   3.757   2.330   9.480
35993DOPC   GL1 7575   3.907   2.630   9.330
35993DOPC   GL2 7576   4.207   2.490   9.420
35993DOPC   C1A 7577   3.917   2.700   8.940
35993DOPC   D2A 7578   3.977   2.630   8.430
35993DOPC   C3A 7579   4.297   2.750   8.090
35993DOPC   C4A 7580   4.567   2.870   7.710
35993DOPC   C1B 7581   4.387   2.480   9.020
35993DOPC   D2B 7582   4.607   2.540   8.550
35993DOPC   C3B 7583   4.797   2.570   8.090
35993DOPC   C4B 7584   5.177   2.430   7.790
35994DOPC   NC3 7585  17.397   2.620  14.150
35994DOPC   PO4 7586  17.017   2.570  14.210
35994DOPC   GL1 7587  16.777   2.380  13.860
35994DOPC   GL2 7588  16.787   2.120  14.020
35994DOPC   C1A 7589  16.447   2.660  13.880
35994DOPC   D2A 7590  16.247   3.180  13.920
35994DOPC   C3A 7591  15.957   3.550  13.940
35994DOPC   C4A 7592  15.827   3.970  14.080
35994DOPC   C1B 7593  16.377   2.180  13.880
35994DOPC   D2B 7594  15.987   2.350  13.850
35994DOPC   C3B 7595  15.977   2.800  13.770
35994DOPC   C4B 7596  15.747   3.180  13.590
35995DOPC   NC3 7597   3.017   7.070   8.490
35995DOPC   PO4 7598   3.297   6.880   8.660
35995DOPC   GL1 7599   3.677   6.900   8.490
35995DOPC   GL2 7600   3.787   7.150   8.550
35995DOPC   C1A 7601   3.807   6.720   8.150
35995DOPC   D2A 7602   4.107   6.580   7.820
35995DOPC   C3A 7603   4.177   6.570   7.410
35995DOPC   C4A 7604   4.077   6.600   6.890
35995DOPC   C1B 7605   4.177   7.130   8.260
35995DOPC   D2B 7606   4.387   7.130   7.840
35995DOPC   C3B 7607   4.767   7.340   7.740
35995DOPC   C4B 7608   5.097   7.660   7.880
35996DOPC   NC3 7609   1.467   2.660   7.290
35996DOPC   PO4 7610   1.387   2.230   7.240
35996DOPC   GL1 7611   1.397   2.190   6.870
35996DOPC   GL2 7612   1.537   2.480   6.800
35996DOPC   C1A 7613   1.557   1.930   6.550
35996DOPC   D2A 7614   1.517   1.800   6.050
35996DOPC   C3A 7615   1.687   1.910   5.620
35996DOPC   C4A 7616   1.907   1.800   5.180
35996DOPC   C1B 7617   1.807   2.410   6.470
35996DOPC   D2B 7618   2.047   2.590   6.070
35996DOPC   C3B 7619   1.757   2.710   5.690
35996DOPC   C4B 7620   1.677   2.780   5.220
35997DOPC   NC3 7621   4.467   4.990  10.320
35997DOPC   PO4 7622   4.757   5.080  10.630
35997DOPC   GL1 7623   4.967   4.730  10.490
35997DOPC   GL2 7624   5.067   4.890  10.330
35997DOPC   C1A 7625   5.347   4.530  10.590
35997DOPC   D2A 7626   5.697   4.190  10.750
35997DOPC   C3A 7627   5.867   3.760  10.680
35997DOPC   C4A 7628   6.027   3.350  10.430
35997DOPC   C1B 7629   5.457   4.920  10.190
35997DOPC   D2B 7630   5.877   4.690  10.000
35997DOPC   C3B 7631   5.977   4.590   9.520
35997DOPC   C4B 7632   6.257   4.770   9.190
35998DOPC   NC3 7633   3.937   6.290   9.300
35998DOPC   PO4 7634   4.127   5.940   9.400
35998DOPC   GL1 7635   4.397   5.910   9.230
35998DOPC   GL2 7636   4.607   6.150   9.170
35998DOPC   C1A 7637   4.727   5.700   9.130
35998DOPC   D2A 7638   5.007   5.310   9.050
35998DOPC   C3A 7639   5.207   5.080   9.350
35998DOPC   C4A 7640   5.517   4.880   9.690
35998DOPC   C1B 7641   4.807   6.490   9.400
35998DOPC   D2B 7642   4.907   6.940   9.550
35998DOPC   C3B 7643   5.197   7.200   9.260
35998DOPC   C4B 7644   5.397   7.350   8.870
35999DOPC   NC3 7645  13.927   7.220  15.520
35999DOPC   PO4 7646  14.107   7.540  15.390
35999DOPC   GL1 7647  14.107   7.510  15.000
35999DOPC   GL2 7648  14.237   7.730  14.950
35999DOPC   C1A 7649  13.837   7.290  14.780
35999DOPC   D2A 7650  13.687   6.970  15.120
35999DOPC   C3A 7651  13.257   6.890  15.000
35999DOPC   C4A 7652  12.777   6.770  14.910
35999DOPC   C1B 7653  13.757   0.070  14.900
35999DOPC   D2B 7654  13.307   0.260  14.730
35999DOPC   C3B 7655  12.937   0.230  14.460
35999DOPC   C4B 7656  12.617   0.410  14.140
36000DOPC   NC3 7657  20.017   2.510  11.590
36000DOPC   PO4 7658  19.677   2.490  11.690
36000DOPC   GL1 7659  19.377   2.440  11.410
36000DOPC   GL2 7660  19.177   2.310  11.560
36000DOPC   C1A 7661  19.057   2.700  11.360
36000DOPC   D2A 7662  18.837   3.150  11.500
36000DOPC   C3A 7663  18.507   3.320  11.340
36000DOPC   C4A 7664  18.097   3.150  11.150
36000DOPC   C1B 7665  18.837   2.320  11.250
36000DOPC   D2B 7666  18.637   2.400  10.810
36000DOPC   C3B 7667  18.487   2.680  10.440
36000DOPC   C4B 7668  18.237   3.000  10.140
36001DOPC   NC3 7669  24.450   0.870   7.180
36001DOPC   PO4 7670  24.200   1.130   7.060
36001DOPC   GL1 7671  24.030   1.210   6.700
36001DOPC   GL2 7672  24.300   1.440   6.660
36001DOPC   C1A 7673  23.820   1.070   6.310
36001DOPC   D2A 7674  23.700   0.780   5.940
36001DOPC   C3A 7675  23.380   1.020   5.750
36001DOPC   C4A 7676  23.120   1.370   5.550
36001DOPC   C1B 7677  24.280   1.300   6.260
36001DOPC   D2B 7678  24.180   1.060   5.850
36001DOPC   C3B 7679  23.910   1.120   5.500
36001DOPC   C4B 7680  23.520   0.960   5.290
36002DOPC   NC3 7681  20.237   4.050   9.730
36002DOPC   PO4 7682  20.357   3.640   9.690
36002DOPC   GL1 7683  20.297   3.550   9.310
36002DOPC   GL2 7684  20.437   3.780   9.200
36002DOPC   C1A 7685  19.917   3.360   9.300
36002DOPC   D2A 7686  19.467   3.070   9.260
36002DOPC   C3A 7687  19.087   3.300   9.410
36002DOPC   C4A 7688  18.607   3.500   9.470
36002DOPC   C1B 7689  20.277   4.120   8.960
36002DOPC   D2B 7690  19.977   4.230   8.620
36002DOPC   C3B 7691  19.657   4.260   8.370
36002DOPC   C4B 7692  19.317   4.110   8.040
36003DOPC   NC3 7693  15.117   1.000  15.370
36003DOPC   PO4 7694  14.767   1.140  15.540
36003DOPC   GL1 7695  14.527   1.210  15.180
36003DOPC   GL2 7696  14.717   1.260  15.010
36003DOPC   C1A 7697  14.217   1.360  15.050
36003DOPC   D2A 7698  13.887   1.530  14.710
36003DOPC   C3A 7699  13.777   1.430  14.300
36003DOPC   C4A 7700  13.507   1.350  13.880
36003DOPC   C1B 7701  14.577   1.120  14.630
36003DOPC   D2B 7702  14.527   0.870  14.190
36003DOPC   C3B 7703  14.457   0.610  13.780
36003DOPC   C4B 7704  14.487   0.270  13.360
36004DOPC   NC3 7705   7.717   6.320  12.980
36004DOPC   PO4 7706   7.327   6.330  12.920
36004DOPC   GL1 7707   7.417   6.650  12.600
36004DOPC   GL2 7708   7.177   6.730  12.520
36004DOPC   C1A 7709   7.837   6.700  12.460
36004DOPC   D2A 7710   8.297   6.770  12.490
36004DOPC   C3A 7711   8.777   6.830  12.310
36004DOPC   C4A 7712   9.297   6.940  12.230
36004DOPC   C1B 7713   7.447   7.000  12.310
36004DOPC   D2B 7714   7.637   7.120  11.940
36004DOPC   C3B 7715   7.927   7.250  11.620
36004DOPC   C4B 7716   8.437   7.280  11.490
36005DOPC   NC3 7717  16.567   1.070  14.580
36005DOPC   PO4 7718  16.837   0.800  14.580
36005DOPC   GL1 7719  16.707   0.600  14.240
36005DOPC   GL2 7720  16.967   0.500  14.180
36005DOPC   C1A 7721  16.487   0.860  14.010
36005DOPC   D2A 7722  16.207   1.200  13.780
36005DOPC   C3A 7723  16.127   1.320  13.370
36005DOPC   C4A 7724  15.847   1.440  12.970
36005DOPC   C1B 7725  17.017   0.570  13.740
36005DOPC   D2B 7726  17.057   0.690  13.280
36005DOPC   C3B 7727  16.717   0.830  13.080
36005DOPC   C4B 7728  16.337   0.970  13.020
36006DOPC   NC3 7729  21.430   7.510   8.950
36006DOPC   PO4 7730  21.570   0.010   8.840
36006DOPC   GL1 7731  21.450   0.200   8.480
36006DOPC   GL2 7732  21.630   0.350   8.400
36006DOPC   C1A 7733  21.110   0.230   8.290
36006DOPC   D2A 7734  20.687   0.150   8.070
36006DOPC   C3A 7735  20.517   7.670   7.850
36006DOPC   C4A 7736  20.237   7.710   7.520
36006DOPC   C1B 7737  21.510   0.720   8.240
36006DOPC   D2B 7738  21.280   1.170   8.240
36006DOPC   C3B 7739  21.170   1.440   7.840
36006DOPC   C4B 7740  21.070   1.760   7.380
36007DOPC   NC3 7741   7.887   4.400  13.570
36007DOPC   PO4 7742   8.227   4.410  13.790
36007DOPC   GL1 7743   8.587   4.360  13.640
36007DOPC   GL2 7744   8.737   4.590  13.630
36007DOPC   C1A 7745   8.567   4.250  13.210
36007DOPC   D2A 7746   8.677   4.050  12.780
36007DOPC   C3A 7747   8.787   4.010  12.310
36007DOPC   C4A 7748   8.777   3.970  11.830
36007DOPC   C1B 7749   8.917   4.660  13.250
36007DOPC   D2B 7750   9.127   4.680  12.810
36007DOPC   C3B 7751   9.577   4.670  12.620
36007DOPC   C4B 7752   9.897   4.720  12.220
36008DOPC   NC3 7753  22.480   6.910   7.370
36008DOPC   PO4 7754  22.750   6.550   7.390
36008DOPC   GL1 7755  22.600   6.560   7.030
36008DOPC   GL2 7756  22.800   6.710   6.940
36008DOPC   C1A 7757  22.240   6.610   6.760
36008DOPC   D2A 7758  22.220   6.700   6.270
36008DOPC   C3A 7759  22.010   6.800   5.780
36008DOPC   C4A 7760  21.970   7.050   5.300
36008DOPC   C1B 7761  22.730   6.710   6.530
36008DOPC   D2B 7762  22.660   6.860   6.040
36008DOPC   C3B 7763  22.710   7.310   5.960
36008DOPC   C4B 7764  22.770   7.800   5.950
36009DOPC   NC3 7765  21.450   6.400   9.250
36009DOPC   PO4 7766  21.280   6.050   9.300
36009DOPC   GL1 7767  20.960   6.150   9.120
36009DOPC   GL2 7768  21.080   6.310   8.860
36009DOPC   C1A 7769  20.537   6.110   9.130
36009DOPC   D2A 7770  20.087   6.030   9.120
36009DOPC   C3A 7771  19.717   6.260   8.920
36009DOPC   C4A 7772  19.257   6.300   8.680
36009DOPC   C1B 7773  21.070   6.180   8.450
36009DOPC   D2B 7774  20.970   6.040   7.980
36009DOPC   C3B 7775  20.827   5.860   7.600
36009DOPC   C4B 7776  20.577   5.460   7.440
36010DOPC   NC3 7777   0.917   0.150   8.300
36010DOPC   PO4 7778   1.167   0.320   8.070
36010DOPC   GL1 7779   1.267   0.250   7.630
36010DOPC   GL2 7780   1.127   0.350   7.530
36010DOPC   C1A 7781   1.607   0.250   7.410
36010DOPC   D2A 7782   1.997   0.330   7.060
36010DOPC   C3A 7783   1.987   0.530   6.590
36010DOPC   C4A 7784   2.017   0.680   6.130
36010DOPC   C1B 7785   1.177   7.840   7.260
36010DOPC   D2B 7786   1.327   7.590   6.970
36010DOPC   C3B 7787   1.617   7.500   6.660
36010DOPC   C4B 7788   1.757   7.250   6.280
36011DOPC   NC3 7789   4.597   0.380  10.830
36011DOPC   PO4 7790   4.907   0.370  11.090
36011DOPC   GL1 7791   5.227   0.560  10.890
36011DOPC   GL2 7792   5.477   0.380  10.890
36011DOPC   C1A 7793   5.337   0.870  10.610
36011DOPC   D2A 7794   5.427   1.170  10.230
36011DOPC   C3A 7795   5.117   1.250   9.860
36011DOPC   C4A 7796   4.887   1.390   9.450
36011DOPC   C1B 7797   5.937   0.520  10.710
36011DOPC   D2B 7798   6.397   0.630  10.610
36011DOPC   C3B 7799   6.677   0.580  10.300
36011DOPC   C4B 7800   6.997   0.810  10.020
36012DOPC   NC3 7801  20.657   4.590  10.100
36012DOPC   PO4 7802  20.727   4.320   9.880
36012DOPC   GL1 7803  20.517   4.530   9.550
36012DOPC   GL2 7804  20.447   4.770   9.640
36012DOPC   C1A 7805  20.127   4.440   9.350
36012DOPC   D2A 7806  19.717   4.430   9.080
36012DOPC   C3A 7807  19.427   4.180   8.890
36012DOPC   C4A 7808  19.177   3.840   8.620
36012DOPC   C1B 7809  20.267   4.930   9.250
36012DOPC   D2B 7810  19.967   5.190   8.930
36012DOPC   C3B 7811  19.797   5.460   8.570
36012DOPC   C4B 7812  19.387   5.570   8.320
36013DOPC   NC3 7813  21.700   4.500   8.170
36013DOPC   PO4 7814  21.930   4.840   8.120
36013DOPC   GL1 7815  21.850   4.880   7.700
36013DOPC   GL2 7816  21.720   4.610   7.700
36013DOPC   C1A 7817  21.660   5.110   7.390
36013DOPC   D2A 7818  21.480   5.420   6.970
36013DOPC   C3A 7819  21.610   5.830   6.770
36013DOPC   C4A 7820  21.530   6.130   6.400
36013DOPC   C1B 7821  21.810   4.650   7.330
36013DOPC   D2B 7822  21.820   4.460   6.840
36013DOPC   C3B 7823  21.430   4.440   6.600
36013DOPC   C4B 7824  20.980   4.680   6.640
36014DOPC   NC3 7825  22.000   6.020   7.630
36014DOPC   PO4 7826  21.920   5.620   7.600
36014DOPC   GL1 7827  21.710   5.800   7.340
36014DOPC   GL2 7828  21.880   5.990   7.180
36014DOPC   C1A 7829  21.310   5.940   7.190
36014DOPC   D2A 7830  20.847   6.140   7.120
36014DOPC   C3A 7831  20.427   6.040   6.880
36014DOPC   C4A 7832  19.997   5.910   6.720
36014DOPC   C1B 7833  21.730   6.340   6.920
36014DOPC   D2B 7834  21.330   6.520   6.650
36014DOPC   C3B 7835  20.910   6.410   6.420
36014DOPC   C4B 7836  20.407   6.210   6.430
36015DOPC   NC3 7837  24.640   4.710   7.560
36015DOPC   PO4 7838  24.590   4.790   7.150
36015DOPC   GL1 7839  24.620   5.090   6.740
36015DOPC   GL2 7840  24.610   4.790   6.660
36015DOPC   C1A 7841  24.230   5.250   6.530
36015DOPC   D2A 7842  23.840   5.220   6.230
36015DOPC   C3A 7843  23.550   5.310   5.970
36015DOPC   C4A 7844  23.420   5.260   5.500
36015DOPC   C1B 7845  24.530   4.850   6.260
36015DOPC   D2B 7846  24.680   4.650   5.830
36015DOPC   C3B 7847  24.820   4.540   5.460
36015DOPC   C4B 7848  24.850   4.110   5.180
36016DOPC   NC3 7849   3.887   3.610   9.890
36016DOPC   PO4 7850   4.157   3.630  10.160
36016DOPC   GL1 7851   4.537   3.430  10.140
36016DOPC   GL2 7852   4.427   3.340   9.800
36016DOPC   C1A 7853   4.887   3.360   9.840
36016DOPC   D2A 7854   5.057   3.490   9.470
36016DOPC   C3A 7855   5.437   3.510   9.160
36016DOPC   C4A 7856   5.757   3.620   8.800
36016DOPC   C1B 7857   4.627   3.150   9.430
36016DOPC   D2B 7858   4.687   2.870   9.020
36016DOPC   C3B 7859   4.967   2.920   8.680
36016DOPC   C4B 7860   5.327   3.220   8.520
36017DOPC   NC3 7861  24.410   1.580   7.150
36017DOPC   PO4 7862  24.790   1.540   6.960
36017DOPC   GL1 7863  24.850   1.620   6.560
36017DOPC   GL2 7864  24.630   1.480   6.450
36017DOPC   C1A 7865  25.040   1.980   6.320
36017DOPC   D2A 7866  24.840   2.080   5.840
36017DOPC   C3A 7867  24.930   2.540   5.760
36017DOPC   C4A 7868  24.910   2.930   5.450
36017DOPC   C1B 7869  24.720   1.630   5.990
36017DOPC   D2B 7870  24.660   1.790   5.530
36017DOPC   C3B 7871  24.980   2.050   5.330
36017DOPC   C4B 7872  25.140   2.500   5.240
36018DOPC   NC3 7873  12.047   0.340  15.420
36018DOPC   PO4 7874  12.127   0.590  15.730
36018DOPC   GL1 7875  11.977   0.820  15.310
36018DOPC   GL2 7876  12.277   0.720  15.280
36018DOPC   C1A 7877  11.647   0.730  15.020
36018DOPC   D2A 7878  11.297   0.650  14.700
36018DOPC   C3A 7879  11.467   0.550  14.300
36018DOPC   C4A 7880  11.567   0.730  13.960
36018DOPC   C1B 7881  12.187   0.640  14.810
36018DOPC   D2B 7882  12.057   0.580  14.290
36018DOPC   C3B 7883  12.287   0.740  13.910
36018DOPC   C4B 7884  12.387   1.000  13.500
36019DOPC   NC3 7885  12.157   2.470  15.570
36019DOPC   PO4 7886  12.587   2.440  15.650
36019DOPC   GL1 7887  12.777   2.730  15.450
36019DOPC   GL2 7888  12.787   2.960  15.570
36019DOPC   C1A 7889  12.587   2.800  15.090
36019DOPC   D2A 7890  12.187   2.990  14.770
36019DOPC   C3A 7891  11.787   2.790  14.900
36019DOPC   C4A 7892  11.367   2.520  14.860
36019DOPC   C1B 7893  12.767   3.280  15.220
36019DOPC   D2B 7894  12.857   3.560  14.790
36019DOPC   C3B 7895  13.137   3.790  14.510
36019DOPC   C4B 7896  13.377   3.910  14.150
36020DOPC   NC3 7897  15.367   3.700  15.880
36020DOPC   PO4 7898  15.527   3.700  15.500
36020DOPC   GL1 7899  15.377   3.890  15.160
36020DOPC   GL2 7900  15.157   3.920  15.310
36020DOPC   C1A 7901  15.197   3.540  14.940
36020DOPC   D2A 7902  15.007   3.230  14.660
36020DOPC   C3A 7903  14.987   3.290  14.220
36020DOPC   C4A 7904  14.787   3.580  13.920
36020DOPC   C1B 7905  14.867   3.980  14.970
36020DOPC   D2B 7906  14.547   4.040  14.670
36020DOPC   C3B 7907  14.197   3.820  14.680
36020DOPC   C4B 7908  14.077   3.300  14.570
36021DOPC   NC3 7909  24.920   3.480   7.530
36021DOPC   PO4 7910  24.950   3.840   7.410
36021DOPC   GL1 7911  24.940   4.010   6.930
36021DOPC   GL2 7912   0.057   4.070   7.060
36021DOPC   C1A 7913  24.860   4.270   6.530
36021DOPC   D2A 7914  24.990   4.350   6.050
36021DOPC   C3A 7915   0.077   4.570   5.720
36021DOPC   C4A 7916   0.027   4.840   5.350
36021DOPC   C1B 7917   0.297   4.060   6.710
36021DOPC   D2B 7918   0.567   4.270   6.370
36021DOPC   C3B 7919   0.977   4.420   6.240
36021DOPC   C4B 7920   1.327   4.550   5.880
36022DOPC   NC3 7921   8.417   7.320  14.350
36022DOPC   PO4 7922   8.327   7.720  14.390
36022DOPC   GL1 7923   8.357   0.150  14.060
36022DOPC   GL2 7924   8.167   7.820  13.930
36022DOPC   C1A 7925   8.697   0.210  13.800
36022DOPC   D2A 7926   8.917   0.080  13.440
36022DOPC   C3A 7927   8.857   0.250  12.950
36022DOPC   C4A 7928   8.747   0.110  12.550
36022DOPC   C1B 7929   8.377   7.760  13.590
36022DOPC   D2B 7930   8.577   7.700  13.130
36022DOPC   C3B 7931   8.557   7.550  12.760
36022DOPC   C4B 7932   8.477   7.270  12.430
36023DOPC   NC3 7933  14.587   4.170  15.770
36023DOPC   PO4 7934  14.887   3.850  15.680
36023DOPC   GL1 7935  14.697   3.700  15.320
36023DOPC   GL2 7936  14.447   3.890  15.400
36023DOPC   C1A 7937  14.597   3.550  14.910
36023DOPC   D2A 7938  14.537   3.510  14.400
36023DOPC   C3A 7939  14.117   3.600  14.170
36023DOPC   C4A 7940  13.777   3.670  13.930
36023DOPC   C1B 7941  14.187   4.110  15.050
36023DOPC   D2B 7942  14.047   4.290  14.650
36023DOPC   C3B 7943  13.737   4.510  14.470
36023DOPC   C4B 7944  13.667   4.980  14.250
36024DOPC   NC3 7945   7.537   7.710  14.130
36024DOPC   PO4 7946   7.897   7.530  14.170
36024DOPC   GL1 7947   8.127   7.220  13.970
36024DOPC   GL2 7948   7.917   7.260  13.730
36024DOPC   C1A 7949   8.517   7.130  13.840
36024DOPC   D2A 7950   8.827   6.940  13.480
36024DOPC   C3A 7951   9.017   6.740  13.220
36024DOPC   C4A 7952   9.397   6.480  13.100
36024DOPC   C1B 7953   8.227   7.220  13.390
36024DOPC   D2B 7954   8.347   7.130  12.910
36024DOPC   C3B 7955   8.767   6.910  12.810
36024DOPC   C4B 7956   9.217   6.640  12.650
36025DOPC   NC3 7957  18.887   0.000  12.640
36025DOPC   PO4 7958  19.037   0.360  12.560
36025DOPC   GL1 7959  19.077   0.520  12.170
36025DOPC   GL2 7960  19.197   0.260  12.030
36025DOPC   C1A 7961  18.797   0.690  11.860
36025DOPC   D2A 7962  18.487   0.650  11.490
36025DOPC   C3A 7963  18.397   0.400  11.180
36025DOPC   C4A 7964  18.147   0.100  10.960
36025DOPC   C1B 7965  19.007   0.160  11.630
36025DOPC   D2B 7966  18.917   0.480  11.290
36025DOPC   C3B 7967  19.077   0.830  11.470
36025DOPC   C4B 7968  18.947   1.300  11.660
36026DOPC   NC3 7969   9.207   3.610  14.960
36026DOPC   PO4 7970   9.597   3.660  14.930
36026DOPC   GL1 7971   9.877   3.910  14.650
36026DOPC   GL2 7972   9.867   3.760  14.480
36026DOPC   C1A 7973   9.937   4.350  14.550
36026DOPC   D2A 7974  10.127   4.630  14.260
36026DOPC   C3A 7975  10.387   4.650  13.930
36026DOPC   C4A 7976  10.547   4.390  13.470
36026DOPC   C1B 7977  10.177   3.920  14.260
36026DOPC   D2B 7978  10.537   4.230  14.400
36026DOPC   C3B 7979  11.017   4.230  14.490
36026DOPC   C4B 7980  11.427   4.500  14.490
36027DOPC   NC3 7981  10.607   6.490  15.510
36027DOPC   PO4 7982  10.347   6.440  15.200
36027DOPC   GL1 7983  10.537   6.350  14.830
36027DOPC   GL2 7984  10.717   6.590  14.800
36027DOPC   C1A 7985  10.667   6.250  14.380
36027DOPC   D2A 7986  10.757   6.100  13.930
36027DOPC   C3A 7987  11.097   5.770  13.930
36027DOPC   C4A 7988  11.227   5.440  13.560
36027DOPC   C1B 7989  11.027   6.530  14.570
36027DOPC   D2B 7990  11.367   6.640  14.260
36027DOPC   C3B 7991  11.707   6.580  13.980
36027DOPC   C4B 7992  11.967   6.290  13.610
36028DOPC   NC3 7993  12.707   5.270  15.970
36028DOPC   PO4 7994  12.607   4.950  15.790
36028DOPC   GL1 7995  12.737   4.980  15.340
36028DOPC   GL2 7996  12.847   5.180  15.380
36028DOPC   C1A 7997  12.467   5.280  15.100
36028DOPC   D2A 7998  12.177   5.510  14.810
36028DOPC   C3A 7999  12.307   5.860  15.100
36028DOPC   C4A 8000  12.627   6.180  15.200
36028DOPC   C1B 8001  13.027   5.500  15.150
36028DOPC   D2B 8002  13.297   5.940  14.980
36028DOPC   C3B 8003  12.807   5.790  14.850
36028DOPC   C4B 8004  12.507   6.100  14.590
36029DOPC   NC3 8005   3.217   3.890   9.250
36029DOPC   PO4 8006   3.087   4.010   8.860
36029DOPC   GL1 8007   3.457   4.070   8.700
36029DOPC   GL2 8008   3.547   4.260   8.640
36029DOPC   C1A 8009   3.617   3.740   8.420
36029DOPC   D2A 8010   3.787   3.490   8.040
36029DOPC   C3A 8011   4.067   3.220   7.890
36029DOPC   C4A 8012   4.067   2.760   7.660
36029DOPC   C1B 8013   3.967   4.210   8.520
36029DOPC   D2B 8014   4.417   4.110   8.450
36029DOPC   C3B 8015   4.597   3.880   8.060
36029DOPC   C4B 8016   4.497   3.460   7.790
36030DOPC   NC3 8017  19.957   4.880  11.450
36030DOPC   PO4 8018  19.907   4.690  11.110
36030DOPC   GL1 8019  19.567   4.770  10.880
36030DOPC   GL2 8020  19.757   4.660  10.640
36030DOPC   C1A 8021  19.197   4.680  10.660
36030DOPC   D2A 8022  18.757   4.310  10.560
36030DOPC   C3A 8023  18.607   4.390  10.080
36030DOPC   C4A 8024  18.507   4.760   9.830
36030DOPC   C1B 8025  19.597   4.710  10.230
36030DOPC   D2B 8026  19.487   4.580   9.730
36030DOPC   C3B 8027  19.557   4.200   9.480
36030DOPC   C4B 8028  19.817   3.940   9.250
36031DOPC   NC3 8029  16.647   0.320  14.650
36031DOPC   PO4 8030  16.447   0.250  14.380
36031DOPC   GL1 8031  16.447   0.290  14.000
36031DOPC   GL2 8032  16.727   0.210  13.900
36031DOPC   C1A 8033  16.207   0.230  13.630
36031DOPC   D2A 8034  15.797   0.300  13.330
36031DOPC   C3A 8035  15.777   7.850  12.970
36031DOPC   C4A 8036  15.937   7.450  12.800
36031DOPC   C1B 8037  16.887   0.200  13.470
36031DOPC   D2B 8038  16.857   0.200  13.010
36031DOPC   C3B 8039  16.617   0.150  12.660
36031DOPC   C4B 8040  16.647   0.310  12.190
36032DOPC   NC3 8041   1.377   6.770   7.890
36032DOPC   PO4 8042   1.717   6.580   8.010
36032DOPC   GL1 8043   2.017   6.500   7.730
36032DOPC   GL2 8044   2.247   6.650   7.780
36032DOPC   C1A 8045   2.247   6.260   7.390
36032DOPC   D2A 8046   2.387   5.900   7.030
36032DOPC   C3A 8047   2.207   6.000   6.680
36032DOPC   C4A 8048   1.997   6.420   6.530
36032DOPC   C1B 8049   2.407   6.720   7.420
36032DOPC   D2B 8050   2.637   6.910   6.960
36032DOPC   C3B 8051   2.757   6.800   6.510
36032DOPC   C4B 8052   2.767   6.590   6.010
36033DOPC   NC3 8053  25.070   5.650   6.940
36033DOPC   PO4 8054   0.047   5.920   7.180
36033DOPC   GL1 8055   0.067   6.100   6.760
36033DOPC   GL2 8056   0.047   5.870   6.530
36033DOPC   C1A 8057   0.087   6.510   6.600
36033DOPC   D2A 8058   0.187   7.000   6.480
36033DOPC   C3A 8059   0.067   7.020   5.980
36033DOPC   C4A 8060  25.080   6.950   5.530
36033DOPC   C1B 8061   0.027   5.950   6.060
36033DOPC   D2B 8062   0.127   6.090   5.580
36033DOPC   C3B 8063   0.117   5.800   5.150
36033DOPC   C4B 8064   0.107   5.640   4.680
36034DOPC   NC3 8065  19.687   2.130  11.270
36034DOPC   PO4 8066  19.737   2.500  11.060
36034DOPC   GL1 8067  19.877   2.660  10.670
36034DOPC   GL2 8068  19.897   2.480  10.630
36034DOPC   C1A 8069  19.677   3.000  10.440
36034DOPC   D2A 8070  19.737   3.470  10.380
36034DOPC   C3A 8071  19.487   3.890  10.280
36034DOPC   C4A 8072  19.147   4.190  10.210
36034DOPC   C1B 8073  19.617   2.430  10.360
36034DOPC   D2B 8074  19.167   2.450  10.190
36034DOPC   C3B 8075  18.777   2.670  10.000
36034DOPC   C4B 8076  18.487   2.870   9.730
36035DOPC   NC3 8077   2.237   3.770   8.290
36035DOPC   PO4 8078   2.087   3.740   7.890
36035DOPC   GL1 8079   2.317   3.790   7.560
36035DOPC   GL2 8080   2.357   3.490   7.630
36035DOPC   C1A 8081   2.557   3.790   7.210
36035DOPC   D2A 8082   2.807   3.900   6.760
36035DOPC   C3A 8083   2.757   4.320   6.530
36035DOPC   C4A 8084   2.777   4.800   6.290
36035DOPC   C1B 8085   2.787   3.470   7.560
36035DOPC   D2B 8086   2.997   3.540   7.160
36035DOPC   C3B 8087   3.367   3.840   7.040
36035DOPC   C4B 8088   3.647   4.160   6.750
36036DOPC   NC3 8089  20.587   5.940  10.470
36036DOPC   PO4 8090  20.447   5.600  10.380
36036DOPC   GL1 8091  20.307   5.580  10.010
36036DOPC   GL2 8092  20.107   5.350  10.110
36036DOPC   C1A 8093  20.427   5.770   9.590
36036DOPC   D2A 8094  20.387   5.610   9.070
36036DOPC   C3A 8095  20.187   5.760   8.680
36036DOPC   C4A 8096  19.727   5.960   8.530
36036DOPC   C1B 8097  19.847   5.510   9.800
36036DOPC   D2B 8098  19.527   5.490   9.470
36036DOPC   C3B 8099  19.167   5.440   9.200
36036DOPC   C4B 8100  18.717   5.310   8.950
36037DOPC   NC3 8101   3.887   1.920   9.740
36037DOPC   PO4 8102   4.237   2.070   9.640
36037DOPC   GL1 8103   4.437   2.000   9.310
36037DOPC   GL2 8104   4.587   2.250   9.320
36037DOPC   C1A 8105   4.787   1.780   9.220
36037DOPC   D2A 8106   5.287   1.790   9.110
36037DOPC   C3A 8107   5.267   1.280   9.130
36037DOPC   C4A 8108   5.217   0.840   9.360
36037DOPC   C1B 8109   4.847   2.290   8.990
36037DOPC   D2B 8110   5.167   2.400   8.650
36037DOPC   C3B 8111   5.447   2.790   8.780
36037DOPC   C4B 8112   5.657   3.180   8.890
36038DOPC   NC3 8113   1.317   1.290   7.420
36038DOPC   PO4 8114   1.367   1.670   7.350
36038DOPC   GL1 8115   1.657   1.840   7.080
36038DOPC   GL2 8116   1.747   1.950   7.390
36038DOPC   C1A 8117   1.997   1.640   6.870
36038DOPC   D2A 8118   2.247   1.720   6.450
36038DOPC   C3A 8119   1.847   1.470   6.390
36038DOPC   C4A 8120   1.667   0.980   6.420
36038DOPC   C1B 8121   2.187   1.870   7.300
36038DOPC   D2B 8122   2.557   1.840   6.980
36038DOPC   C3B 8123   2.307   2.120   6.820
36038DOPC   C4B 8124   2.357   2.480   6.500
36039DOPC   NC3 8125   7.867   0.220  14.250
36039DOPC   PO4 8126   7.757   0.260  13.880
36039DOPC   GL1 8127   7.967   0.460  13.550
36039DOPC   GL2 8128   8.087   0.220  13.570
36039DOPC   C1A 8129   8.137   0.890  13.270
36039DOPC   D2A 8130   8.537   1.140  13.090
36039DOPC   C3A 8131   8.837   1.280  12.700
36039DOPC   C4A 8132   9.217   1.440  12.350
36039DOPC   C1B 8133   8.017   7.800  13.250
36039DOPC   D2B 8134   7.987   7.540  12.850
36039DOPC   C3B 8135   8.147   7.710  12.420
36039DOPC   C4B 8136   8.497   0.030  12.140
36040DOPC   NC3 8137   6.967   0.000  13.010
36040DOPC   PO4 8138   7.197   7.680  13.290
36040DOPC   GL1 8139   7.557   7.820  12.990
36040DOPC   GL2 8140   7.487   7.550  12.940
36040DOPC   C1A 8141   7.727   0.190  12.710
36040DOPC   D2A 8142   8.087   0.350  12.510
36040DOPC   C3A 8143   8.337   0.530  12.220
36040DOPC   C4A 8144   8.207   0.720  11.770
36040DOPC   C1B 8145   7.587   7.560  12.510
36040DOPC   D2B 8146   7.787   7.580  12.030
36040DOPC   C3B 8147   8.207   7.640  11.820
36040DOPC   C4B 8148   8.667   7.740  11.580
36041DOPC   NC3 8149  12.877   0.230  15.730
36041DOPC   PO4 8150  13.027   0.350  15.340
36041DOPC   GL1 8151  12.917   0.270  15.020
36041DOPC   GL2 8152  12.967   0.530  14.800
36041DOPC   C1A 8153  12.787   7.720  14.840
36041DOPC   D2A 8154  12.687   7.260  14.870
36041DOPC   C3A 8155  13.027   7.180  14.570
36041DOPC   C4A 8156  13.447   7.090  14.600
36041DOPC   C1B 8157  12.607   0.660  14.550
36041DOPC   D2B 8158  12.277   0.980  14.340
36041DOPC   C3B 8159  12.487   1.310  14.070
36041DOPC   C4B 8160  12.687   1.660  13.760
36042DOPC   NC3 8161   7.007   5.910  12.810
36042DOPC   PO4 8162   6.747   5.800  12.520
36042DOPC   GL1 8163   6.827   5.800  12.120
36042DOPC   GL2 8164   6.937   6.100  12.070
36042DOPC   C1A 8165   7.137   5.500  11.970
36042DOPC   D2A 8166   7.447   5.180  11.780
36042DOPC   C3A 8167   7.487   4.900  11.350
36042DOPC   C4A 8168   7.697   4.540  11.040
36042DOPC   C1B 8169   7.217   6.180  11.730
36042DOPC   D2B 8170   7.297   6.010  11.220
36042DOPC   C3B 8171   7.587   5.780  10.890
36042DOPC   C4B 8172   7.637   5.420  10.540
36043DOPC   NC3 8173   4.617   2.000  10.720
36043DOPC   PO4 8174   4.567   2.160  10.350
36043DOPC   GL1 8175   4.667   2.260   9.960
36043DOPC   GL2 8176   4.667   2.010   9.870
36043DOPC   C1A 8177   5.067   2.470   9.940
36043DOPC   D2A 8178   5.487   2.700   9.770
36043DOPC   C3A 8179   5.907   2.810   9.730
36043DOPC   C4A 8180   6.267   3.050   9.430
36043DOPC   C1B 8181   5.027   2.140   9.540
36043DOPC   D2B 8182   5.437   2.070   9.660
36043DOPC   C3B 8183   5.917   1.880   9.590
36043DOPC   C4B 8184   6.217   1.810   9.240
36044DOPC   NC3 8185   2.357   2.350   8.310
36044DOPC   PO4 8186   2.117   2.350   7.990
36044DOPC   GL1 8187   2.227   2.630   7.740
36044DOPC   GL2 8188   2.477   2.720   7.900
36044DOPC   C1A 8189   2.157   2.370   7.380
36044DOPC   D2A 8190   1.877   2.240   7.020
36044DOPC   C3A 8191   1.927   2.700   6.910
36044DOPC   C4A 8192   2.207   3.030   6.820
36044DOPC   C1B 8193   2.787   2.680   7.580
36044DOPC   D2B 8194   3.017   2.660   7.160
36044DOPC   C3B 8195   3.327   2.610   6.850
36044DOPC   C4B 8196   3.787   2.770   6.720
36045DOPC   NC3 8197  16.647   7.460  14.690
36045DOPC   PO4 8198  16.337   7.700  14.750
36045DOPC   GL1 8199  16.027   0.030  14.440
36045DOPC   GL2 8200  15.897   7.670  14.430
36045DOPC   C1A 8201  15.857   0.210  14.000
36045DOPC   D2A 8202  15.587   0.550  13.740
36045DOPC   C3A 8203  15.377   0.690  13.390
36045DOPC   C4A 8204  15.177   0.830  13.030
36045DOPC   C1B 8205  15.577   7.700  14.130
36045DOPC   D2B 8206  15.347   7.710  13.710
36045DOPC   C3B 8207  15.367   0.080  13.350
36045DOPC   C4B 8208  15.447   0.390  12.980
36046DOPC   NC3 8209  15.877   2.580  14.890
36046DOPC   PO4 8210  15.937   2.980  14.930
36046DOPC   GL1 8211  15.737   3.250  14.630
36046DOPC   GL2 8212  15.757   2.920  14.500
36046DOPC   C1A 8213  15.517   3.480  14.350
36046DOPC   D2A 8214  15.307   3.750  14.030
36046DOPC   C3A 8215  15.587   3.680  13.630
36046DOPC   C4A 8216  15.517   3.420  13.240
36046DOPC   C1B 8217  15.337   2.930  14.370
36046DOPC   D2B 8218  14.907   2.840  14.130
36046DOPC   C3B 8219  14.887   3.020  13.640
36046DOPC   C4B 8220  14.867   2.990  13.170
36047DOPC   NC3 8221  19.667   4.060  11.670
36047DOPC   PO4 8222  19.927   4.240  11.420
36047DOPC   GL1 8223  19.617   4.360  11.160
36047DOPC   GL2 8224  19.677   4.330  10.880
36047DOPC   C1A 8225  19.247   4.600  11.110
36047DOPC   D2A 8226  18.957   4.990  10.920
36047DOPC   C3A 8227  18.537   5.070  11.020
36047DOPC   C4A 8228  18.107   4.850  11.060
36047DOPC   C1B 8229  19.287   4.210  10.700
36047DOPC   D2B 8230  18.907   4.000  10.890
36047DOPC   C3B 8231  18.497   3.780  10.770
36047DOPC   C4B 8232  18.157   3.720  10.360
36048DOPC   NC3 8233  13.897   5.920  15.770
36048DOPC   PO4 8234  14.187   6.190  15.640
36048DOPC   GL1 8235  14.057   6.300  15.280
36048DOPC   GL2 8236  14.107   6.170  14.980
36048DOPC   C1A 8237  14.007   6.630  15.000
36048DOPC   D2A 8238  13.917   6.760  14.530
36048DOPC   C3A 8239  13.587   6.780  14.200
36048DOPC   C4A 8240  13.287   6.900  13.880
36048DOPC   C1B 8241  13.987   6.220  14.570
36048DOPC   D2B 8242  13.787   6.030  14.130
36048DOPC   C3B 8243  13.397   5.820  14.050
36048DOPC   C4B 8244  13.017   5.550  14.040
36049DOPC   NC3 8245  10.707   7.340  15.370
36049DOPC   PO4 8246  10.567   7.730  15.290
36049DOPC   GL1 8247  10.777   7.840  14.890
36049DOPC   GL2 8248  10.627   7.640  14.750
36049DOPC   C1A 8249  10.897   0.340  14.690
36049DOPC   D2A 8250  11.007   0.590  14.210
36049DOPC   C3A 8251  10.967   0.460  13.750
36049DOPC   C4A 8252  11.017   0.500  13.270
36049DOPC   C1B 8253  11.007   7.570  14.500
36049DOPC   D2B 8254  11.417   7.490  14.260
36049DOPC   C3B 8255  11.397   7.520  13.800
36049DOPC   C4B 8256  11.177   7.440  13.360
36050DOPC   NC3 8257  20.617   5.300   9.880
36050DOPC   PO4 8258  20.467   5.010  10.090
36050DOPC   GL1 8259  20.077   4.950   9.950
36050DOPC   GL2 8260  20.207   5.130   9.710
36050DOPC   C1A 8261  19.657   5.080   9.880
36050DOPC   D2A 8262  19.267   5.060   9.550
36050DOPC   C3A 8263  18.847   5.080   9.450
36050DOPC   C4A 8264  18.387   5.180   9.320
36050DOPC   C1B 8265  20.017   5.350   9.390
36050DOPC   D2B 8266  19.747   5.660   9.060
36050DOPC   C3B 8267  19.297   5.820   8.870
36050DOPC   C4B 8268  19.007   5.900   8.480
36051DOPC   NC3 8269   8.477   2.750  13.640
36051DOPC   PO4 8270   8.637   3.100  13.700
36051DOPC   GL1 8271   8.997   2.930  13.520
36051DOPC   GL2 8272   8.857   3.100  13.230
36051DOPC   C1A 8273   9.227   2.800  13.210
36051DOPC   D2A 8274   9.667   2.610  13.010
36051DOPC   C3A 8275  10.047   2.260  13.110
36051DOPC   C4A 8276  10.547   2.260  13.250
36051DOPC   C1B 8277   8.977   3.220  12.840
36051DOPC   D2B 8278   8.867   3.190  12.350
36051DOPC   C3B 8279   9.057   3.220  12.010
36051DOPC   C4B 8280   9.377   3.170  11.640
36052DOPC   NC3 8281  19.647   3.530  11.560
36052DOPC   PO4 8282  19.817   3.380  11.230
36052DOPC   GL1 8283  19.547   3.350  10.870
36052DOPC   GL2 8284  19.607   3.060  10.910
36052DOPC   C1A 8285  19.287   3.270  10.500
36052DOPC   D2A 8286  19.317   3.480  10.030
36052DOPC   C3A 8287  18.887   3.690   9.850
36052DOPC   C4A 8288  18.447   3.970   9.840
36052DOPC   C1B 8289  19.147   3.040  10.900
36052DOPC   D2B 8290  18.687   2.940  10.980
36052DOPC   C3B 8291  18.237   2.740  10.870
36052DOPC   C4B 8292  17.727   2.770  10.950
36053DOPC   NC3 8293  16.667   5.830  14.760
36053DOPC   PO4 8294  16.597   6.120  14.480
36053DOPC   GL1 8295  16.667   6.100  14.050
36053DOPC   GL2 8296  16.887   6.310  13.980
36053DOPC   C1A 8297  16.327   6.310  13.790
36053DOPC   D2A 8298  15.857   6.260  13.810
36053DOPC   C3A 8299  15.577   6.310  13.430
36053DOPC   C4A 8300  15.307   6.320  12.970
36053DOPC   C1B 8301  16.757   6.660  13.640
36053DOPC   D2B 8302  16.597   6.980  13.270
36053DOPC   C3B 8303  16.887   7.050  12.960
36053DOPC   C4B 8304  16.887   7.250  12.480
36054DOPC   NC3 8305  20.197   6.840  11.420
36054DOPC   PO4 8306  20.127   7.180  11.460
36054DOPC   GL1 8307  19.857   7.340  11.250
36054DOPC   GL2 8308  19.937   7.410  10.990
36054DOPC   C1A 8309  19.417   7.110  11.210
36054DOPC   D2A 8310  19.177   6.770  10.930
36054DOPC   C3A 8311  18.757   6.900  10.950
36054DOPC   C4A 8312  18.337   7.020  11.080
36054DOPC   C1B 8313  19.617   7.510  10.720
36054DOPC   D2B 8314  19.167   7.710  10.550
36054DOPC   C3B 8315  18.787   0.060  10.400
36054DOPC   C4B 8316  18.277   0.010  10.450
36055DOPC   NC3 8317  21.710   3.220   8.540
36055DOPC   PO4 8318  21.800   2.820   8.540
36055DOPC   GL1 8319  21.460   2.830   8.360
36055DOPC   GL2 8320  21.490   2.770   8.090
36055DOPC   C1A 8321  21.020   2.770   8.340
36055DOPC   D2A 8322  20.617   3.020   8.280
36055DOPC   C3A 8323  20.417   3.390   8.460
36055DOPC   C4A 8324  20.027   3.610   8.180
36055DOPC   C1B 8325  21.130   2.990   7.930
36055DOPC   D2B 8326  20.697   3.110   7.760
36055DOPC   C3B 8327  20.247   3.140   7.980
36055DOPC   C4B 8328  19.927   3.150   8.390
36056DOPC   NC3 8329   1.527   7.300   7.910
36056DOPC   PO4 8330   1.237   7.200   7.670
36056DOPC   GL1 8331   1.237   7.220   7.190
36056DOPC   GL2 8332   1.007   7.100   7.110
36056DOPC   C1A 8333   1.587   7.020   6.980
36056DOPC   D2A 8334   1.727   6.830   6.600
36056DOPC   C3A 8335   2.047   6.850   6.230
36056DOPC   C4A 8336   2.207   6.510   5.900
36056DOPC   C1B 8337   1.167   7.150   6.670
36056DOPC   D2B 8338   1.077   7.080   6.210
36056DOPC   C3B 8339   1.067   7.110   5.770
36056DOPC   C4B 8340   0.837   7.080   5.320
36057DOPC   NC3 8341   6.327   4.010  12.510
36057DOPC   PO4 8342   6.627   3.790  12.380
36057DOPC   GL1 8343   6.737   4.000  12.110
36057DOPC   GL2 8344   6.467   3.950  11.930
36057DOPC   C1A 8345   6.917   4.050  11.750
36057DOPC   D2A 8346   7.087   4.030  11.300
36057DOPC   C3A 8347   7.467   4.120  11.050
36057DOPC   C4A 8348   7.917   4.060  10.970
36057DOPC   C1B 8349   6.507   4.020  11.510
36057DOPC   D2B 8350   6.687   3.850  11.060
36057DOPC   C3B 8351   6.937   3.930  10.770
36057DOPC   C4B 8352   7.267   4.120  10.520
36058DOPC   NC3 8353  24.320   7.330   7.240
36058DOPC   PO4 8354  23.950   7.150   7.150
36058DOPC   GL1 8355  23.990   6.940   6.780
36058DOPC   GL2 8356  24.110   7.210   6.650
36058DOPC   C1A 8357  24.070   6.650   6.530
36058DOPC   D2A 8358  24.050   6.450   6.030
36058DOPC   C3A 8359  23.730   6.410   5.740
36058DOPC   C4A 8360  23.690   6.590   5.310
36058DOPC   C1B 8361  24.020   7.380   6.250
36058DOPC   D2B 8362  23.870   7.580   5.790
36058DOPC   C3B 8363  23.600   7.440   5.480
36058DOPC   C4B 8364  23.440   7.020   5.350
36059DOPC   NC3 8365   4.337   0.690  10.410
36059DOPC   PO4 8366   4.527   1.010  10.550
36059DOPC   GL1 8367   4.917   1.080  10.370
36059DOPC   GL2 8368   5.007   1.370  10.290
36059DOPC   C1A 8369   5.217   0.720  10.120
36059DOPC   D2A 8370   5.547   0.960   9.790
36059DOPC   C3A 8371   5.657   1.030   9.380
36059DOPC   C4A 8372   5.717   1.060   8.870
36059DOPC   C1B 8373   5.317   1.610  10.470
36059DOPC   D2B 8374   5.657   1.920  10.720
36059DOPC   C3B 8375   6.027   2.010  10.550
36059DOPC   C4B 8376   6.527   2.000  10.610
36060DOPC   NC3 8377   1.247   3.480   7.400
36060DOPC   PO4 8378   0.907   3.450   7.180
36060DOPC   GL1 8379   1.017   3.300   6.740
36060DOPC   GL2 8380   1.207   3.570   6.770
36060DOPC   C1A 8381   0.817   3.480   6.320
36060DOPC   D2A 8382   0.607   3.690   5.970
36060DOPC   C3A 8383   0.347   3.730   5.610
36060DOPC   C4A 8384   0.207   3.860   5.150
36060DOPC   C1B 8385   1.467   3.820   6.530
36060DOPC   D2B 8386   1.897   3.910   6.210
36060DOPC   C3B 8387   1.977   3.690   5.800
36060DOPC   C4B 8388   1.857   3.460   5.350
36061DOPC   NC3 8389  22.980   7.530   7.170
36061DOPC   PO4 8390  22.940   7.110   7.240
36061DOPC   GL1 8391  22.940   7.100   6.830
36061DOPC   GL2 8392  22.640   7.100   6.810
36061DOPC   C1A 8393  23.200   6.820   6.590
36061DOPC   D2A 8394  23.520   6.490   6.300
36061DOPC   C3A 8395  23.270   6.200   5.950
36061DOPC   C4A 8396  23.130   6.190   5.540
36061DOPC   C1B 8397  22.420   7.110   6.420
36061DOPC   D2B 8398  22.150   7.150   6.080
36061DOPC   C3B 8399  21.690   7.080   6.100
36061DOPC   C4B 8400  21.300   6.940   6.400
36062DOPC   NC3 8401  10.167   6.070  10.060
36062DOPC   PO4 8402   9.797   6.130  10.100
36062DOPC   GL1 8403   9.467   6.050  10.450
36062DOPC   GL2 8404   9.287   6.230  10.270
36062DOPC   C1A 8405   9.487   5.850  10.840
36062DOPC   D2A 8406   9.407   5.650  11.290
36062DOPC   C3A 8407   9.067   5.650  11.610
36062DOPC   C4A 8408   8.787   5.520  12.000
36062DOPC   C1B 8409   8.867   6.290  10.430
36062DOPC   D2B 8410   8.407   6.450  10.500
36062DOPC   C3B 8411   8.097   6.800  10.750
36062DOPC   C4B 8412   7.807   6.830  11.180
36063DOPC   NC3 8413   7.257   5.360   7.230
36063DOPC   PO4 8414   7.447   5.700   7.160
36063DOPC   GL1 8415   7.277   5.950   7.480
36063DOPC   GL2 8416   7.407   5.860   7.670
36063DOPC   C1A 8417   6.977   6.140   7.810
36063DOPC   D2A 8418   6.717   6.130   8.220
36063DOPC   C3A 8419   6.877   6.380   8.500
36063DOPC   C4A 8420   7.107   6.620   8.760
36063DOPC   C1B 8421   7.047   5.610   7.730
36063DOPC   D2B 8422   6.567   5.360   7.760
36063DOPC   C3B 8423   6.167   5.540   7.830
36063DOPC   C4B 8424   5.767   5.650   8.100
36064DOPC   NC3 8425  19.257   3.190   5.790
36064DOPC   PO4 8426  18.947   3.450   5.920
36064DOPC   GL1 8427  18.927   3.520   6.340
36064DOPC   GL2 8428  19.197   3.380   6.290
36064DOPC   C1A 8429  19.097   3.790   6.650
36064DOPC   D2A 8430  19.617   3.900   6.630
36064DOPC   C3A 8431  19.917   3.730   6.900
36064DOPC   C4A 8432  20.267   3.550   7.240
36064DOPC   C1B 8433  19.497   3.390   6.540
36064DOPC   D2B 8434  19.737   3.250   6.950
36064DOPC   C3B 8435  19.697   2.840   7.160
36064DOPC   C4B 8436  19.867   2.480   7.440
36065DOPC   NC3 8437  12.767   0.290  11.530
36065DOPC   PO4 8438  12.887   0.190  11.860
36065DOPC   GL1 8439  12.677   7.780  12.170
36065DOPC   GL2 8440  12.677   0.130  12.370
36065DOPC   C1A 8441  12.577   7.510  12.450
36065DOPC   D2A 8442  12.697   7.330  12.940
36065DOPC   C3A 8443  12.677   7.240  13.390
36065DOPC   C4A 8444  12.647   6.940  13.790
36065DOPC   C1B 8445  12.767   0.010  12.770
36065DOPC   D2B 8446  12.577   7.730  13.210
36065DOPC   C3B 8447  12.177   0.060  13.390
36065DOPC   C4B 8448  11.917   0.410  13.620
36066DOPC   NC3 8449  16.597   2.650   9.620
36066DOPC   PO4 8450  16.347   2.380   9.840
36066DOPC   GL1 8451  16.427   2.460  10.250
36066DOPC   GL2 8452  16.227   2.580  10.450
36066DOPC   C1A 8453  16.807   2.540  10.490
36066DOPC   D2A 8454  17.207   2.760  10.680
36066DOPC   C3A 8455  17.607   2.440  10.610
36066DOPC   C4A 8456  17.827   2.100  10.300
36066DOPC   C1B 8457  16.307   2.560  10.790
36066DOPC   D2B 8458  16.487   2.360  11.200
36066DOPC   C3B 8459  16.557   2.160  11.590
36066DOPC   C4B 8460  16.637   2.000  12.040
36067DOPC   NC3 8461   8.937   1.460   9.460
36067DOPC   PO4 8462   8.777   1.550   9.120
36067DOPC   GL1 8463   8.367   1.490   9.110
36067DOPC   GL2 8464   8.387   1.520   9.420
36067DOPC   C1A 8465   7.947   1.460   9.170
36067DOPC   D2A 8466   7.517   1.170   9.060
36067DOPC   C3A 8467   7.597   0.730   9.240
36067DOPC   C4A 8468   7.407   0.480   9.590
36067DOPC   C1B 8469   8.187   1.310   9.650
36067DOPC   D2B 8470   7.927   1.160  10.100
36067DOPC   C3B 8471   7.887   0.730  10.390
36067DOPC   C4B 8472   7.907   0.380  10.770
36068DOPC   NC3 8473  15.757   2.690  10.320
36068DOPC   PO4 8474  15.917   3.030  10.420
36068DOPC   GL1 8475  16.197   3.270  10.660
36068DOPC   GL2 8476  16.087   3.510  10.640
36068DOPC   C1A 8477  16.357   3.340  11.070
36068DOPC   D2A 8478  16.747   3.200  11.270
36068DOPC   C3A 8479  17.147   3.010  11.320
36068DOPC   C4A 8480  17.637   3.020  11.380
36068DOPC   C1B 8481  16.307   3.870  10.880
36068DOPC   D2B 8482  16.467   4.090  11.280
36068DOPC   C3B 8483  16.647   4.270  11.620
36068DOPC   C4B 8484  17.067   4.450  11.780
36069DOPC   NC3 8485  11.967   2.000  10.770
36069DOPC   PO4 8486  11.797   1.900  11.130
36069DOPC   GL1 8487  11.507   1.830  11.480
36069DOPC   GL2 8488  11.757   1.700  11.620
36069DOPC   C1A 8489  11.107   2.030  11.560
36069DOPC   D2A 8490  10.617   1.960  11.630
36069DOPC   C3A 8491  10.437   1.950  12.090
36069DOPC   C4A 8492  10.177   1.900  12.510
36069DOPC   C1B 8493  11.727   1.810  12.010
36069DOPC   D2B 8494  11.777   1.970  12.480
36069DOPC   C3B 8495  11.567   1.780  12.810
36069DOPC   C4B 8496  11.387   1.690  13.240
36070DOPC   NC3 8497  19.097   3.960   5.250
36070DOPC   PO4 8498  19.287   4.280   5.270
36070DOPC   GL1 8499  19.297   4.540   5.550
36070DOPC   GL2 8500  19.087   4.640   5.640
36070DOPC   C1A 8501  19.637   4.480   5.860
36070DOPC   D2A 8502  19.997   4.550   6.180
36070DOPC   C3A 8503  20.357   4.760   6.360
36070DOPC   C4A 8504  20.797   4.860   6.230
36070DOPC   C1B 8505  19.197   4.550   6.120
36070DOPC   D2B 8506  19.547   4.700   6.410
36070DOPC   C3B 8507  19.927   4.860   6.610
36070DOPC   C4B 8508  20.397   4.860   6.810
36071DOPC   NC3 8509  16.807   3.260   8.260
36071DOPC   PO4 8510  16.517   3.550   8.280
36071DOPC   GL1 8511  16.867   3.650   8.630
36071DOPC   GL2 8512  16.727   3.910   8.640
36071DOPC   C1A 8513  17.287   3.590   8.750
36071DOPC   D2A 8514  17.727   3.670   8.990
36071DOPC   C3A 8515  17.837   3.360   9.330
36071DOPC   C4A 8516  17.987   2.980   9.730
36071DOPC   C1B 8517  16.977   4.170   8.840
36071DOPC   D2B 8518  17.457   4.140   9.080
36071DOPC   C3B 8519  17.637   3.910   9.430
36071DOPC   C4B 8520  17.847   3.720   9.830
36072DOPC   NC3 8521  18.367   4.130   5.780
36072DOPC   PO4 8522  18.307   3.740   5.890
36072DOPC   GL1 8523  18.587   3.870   6.160
36072DOPC   GL2 8524  18.387   3.900   6.420
36072DOPC   C1A 8525  19.017   4.030   6.190
36072DOPC   D2A 8526  19.517   4.160   6.240
36072DOPC   C3A 8527  19.827   4.310   6.570
36072DOPC   C4A 8528  20.297   4.360   6.730
36072DOPC   C1B 8529  18.737   4.110   6.660
36072DOPC   D2B 8530  19.197   4.250   6.730
36072DOPC   C3B 8531  19.487   4.180   7.080
36072DOPC   C4B 8532  19.917   4.030   7.340
36073DOPC   NC3 8533  10.987   1.350  10.580
36073DOPC   PO4 8534  11.167   1.210  10.920
36073DOPC   GL1 8535  10.927   1.080  11.190
36073DOPC   GL2 8536  10.997   0.780  11.230
36073DOPC   C1A 8537  10.507   1.060  11.320
36073DOPC   D2A 8538  10.107   1.220  11.490
36073DOPC   C3A 8539   9.947   1.160  11.940
36073DOPC   C4A 8540   9.597   0.850  12.140
36073DOPC   C1B 8541  10.987   0.850  11.620
36073DOPC   D2B 8542  10.987   0.700  12.080
36073DOPC   C3B 8543  11.007   0.800  12.540
36073DOPC   C4B 8544  10.907   0.970  12.980
36074DOPC   NC3 8545   7.077   3.730   7.520
36074DOPC   PO4 8546   7.197   3.340   7.580
36074DOPC   GL1 8547   6.867   3.060   7.700
36074DOPC   GL2 8548   7.017   2.880   7.820
36074DOPC   C1A 8549   6.457   3.000   7.670
36074DOPC   D2A 8550   6.107   2.670   7.500
36074DOPC   C3A 8551   5.737   2.380   7.550
36074DOPC   C4A 8552   5.437   2.020   7.560
36074DOPC   C1B 8553   7.067   2.980   8.240
36074DOPC   D2B 8554   7.137   2.940   8.750
36074DOPC   C3B 8555   7.007   3.040   9.200
36074DOPC   C4B 8556   6.797   3.120   9.620
36075DOPC   NC3 8557  17.257   1.780   8.150
36075DOPC   PO4 8558  17.157   1.550   7.830
36075DOPC   GL1 8559  17.527   1.310   7.880
36075DOPC   GL2 8560  17.627   1.510   7.660
36075DOPC   C1A 8561  17.747   1.250   8.180
36075DOPC   D2A 8562  18.187   1.160   8.360
36075DOPC   C3A 8563  18.507   1.440   8.580
36075DOPC   C4A 8564  18.507   1.920   8.700
36075DOPC   C1B 8565  17.977   1.270   7.700
36075DOPC   D2B 8566  18.387   0.980   7.830
36075DOPC   C3B 8567  18.687   1.130   8.140
36075DOPC   C4B 8568  18.977   1.290   8.400
36076DOPC   NC3 8569  10.397   4.130   9.710
36076DOPC   PO4 8570  10.337   4.450   9.930
36076DOPC   GL1 8571  10.057   4.670  10.200
36076DOPC   GL2 8572   9.797   4.520  10.060
36076DOPC   C1A 8573   9.907   4.750  10.620
36076DOPC   D2A 8574   9.587   4.780  10.970
36076DOPC   C3A 8575   9.457   4.810  11.460
36076DOPC   C4A 8576   9.607   5.020  11.840
36076DOPC   C1B 8577   9.377   4.400  10.160
36076DOPC   D2B 8578   8.927   4.470  10.330
36076DOPC   C3B 8579   8.787   4.360  10.770
36076DOPC   C4B 8580   8.797   4.230  11.220
36077DOPC   NC3 8581   5.067   0.070   4.780
36077DOPC   PO4 8582   4.977   0.430   4.940
36077DOPC   GL1 8583   4.627   0.350   5.170
36077DOPC   GL2 8584   4.787   0.070   5.290
36077DOPC   C1A 8585   4.457   0.450   5.510
36077DOPC   D2A 8586   4.407   0.660   5.960
36077DOPC   C3A 8587   4.287   0.440   6.300
36077DOPC   C4A 8588   4.187   0.330   6.740
36077DOPC   C1B 8589   4.707   7.630   5.580
36077DOPC   D2B 8590   4.887   7.390   6.030
36077DOPC   C3B 8591   4.477   7.250   6.210
36077DOPC   C4B 8592   4.137   6.900   6.420
36078DOPC   NC3 8593  10.767   4.700  10.160
36078DOPC   PO4 8594  10.937   4.680  10.540
36078DOPC   GL1 8595  10.647   4.600  10.800
36078DOPC   GL2 8596  10.717   4.370  10.940
36078DOPC   C1A 8597  10.357   4.740  11.020
36078DOPC   D2A 8598  10.017   4.780  11.280
36078DOPC   C3A 8599  10.107   4.910  11.720
36078DOPC   C4A 8600  10.157   5.150  12.120
36078DOPC   C1B 8601  10.657   4.260  11.370
36078DOPC   D2B 8602  10.717   4.310  11.880
36078DOPC   C3B 8603  10.287   4.350  12.130
36078DOPC   C4B 8604   9.987   4.410  12.600
36079DOPC   NC3 8605  14.817   1.190  10.990
36079DOPC   PO4 8606  14.437   1.160  11.040
36079DOPC   GL1 8607  14.527   1.010  11.400
36079DOPC   GL2 8608  14.447   0.750  11.370
36079DOPC   C1A 8609  14.617   0.950  11.860
36079DOPC   D2A 8610  15.037   0.760  12.110
36079DOPC   C3A 8611  15.337   1.030  12.250
36079DOPC   C4A 8612  15.737   1.310  12.430
36079DOPC   C1B 8613  14.747   0.480  11.580
36079DOPC   D2B 8614  15.187   0.380  11.770
36079DOPC   C3B 8615  15.577   0.140  11.870
36079DOPC   C4B 8616  15.887   7.610  12.050
36080DOPC   NC3 8617   8.937   4.230   8.780
36080DOPC   PO4 8618   8.887   3.860   8.890
36080DOPC   GL1 8619   8.607   3.770   9.260
36080DOPC   GL2 8620   8.707   3.860   9.490
36080DOPC   C1A 8621   8.197   3.570   9.340
36080DOPC   D2A 8622   7.747   3.630   9.270
36080DOPC   C3A 8623   7.347   3.390   9.360
36080DOPC   C4A 8624   7.317   3.000   9.660
36080DOPC   C1B 8625   8.767   3.740   9.950
36080DOPC   D2B 8626   9.057   3.500  10.250
36080DOPC   C3B 8627   8.837   3.200  10.490
36080DOPC   C4B 8628   8.667   2.780  10.660
36081DOPC   NC3 8629   9.467   3.160   9.220
36081DOPC   PO4 8630   9.597   3.150   9.590
36081DOPC   GL1 8631   9.367   2.940   9.940
36081DOPC   GL2 8632   9.137   3.180   9.950
36081DOPC   C1A 8633   9.307   2.980  10.430
36081DOPC   D2A 8634   9.117   2.830  10.900
36081DOPC   C3A 8635   8.817   2.630  11.150
36081DOPC   C4A 8636   8.477   2.780  11.480
36081DOPC   C1B 8637   8.677   3.280   9.950
36081DOPC   D2B 8638   8.457   3.530  10.320
36081DOPC   C3B 8639   7.997   3.490  10.250
36081DOPC   C4B 8640   7.517   3.330  10.370
36082DOPC   NC3 8641   7.997   5.540   8.210
36082DOPC   PO4 8642   7.877   5.280   7.970
36082DOPC   GL1 8643   7.497   5.320   8.100
36082DOPC   GL2 8644   7.527   5.660   8.090
36082DOPC   C1A 8645   7.307   5.080   8.430
36082DOPC   D2A 8646   7.027   5.030   8.860
36082DOPC   C3A 8647   6.607   5.030   9.030
36082DOPC   C4A 8648   6.217   5.290   9.210
36082DOPC   C1B 8649   7.157   5.770   8.210
36082DOPC   D2B 8650   6.647   5.620   8.160
36082DOPC   C3B 8651   6.237   5.750   8.350
36082DOPC   C4B 8652   5.787   5.860   8.550
36083DOPC   NC3 8653  16.697   5.950   8.340
36083DOPC   PO4 8654  16.607   5.810   8.670
36083DOPC   GL1 8655  16.847   5.850   9.010
36083DOPC   GL2 8656  16.727   6.020   9.200
36083DOPC   C1A 8657  17.097   5.560   9.300
36083DOPC   D2A 8658  17.367   5.220   9.530
36083DOPC   C3A 8659  17.287   4.850   9.840
36083DOPC   C4A 8660  16.967   4.730  10.240
36083DOPC   C1B 8661  16.997   6.150   9.440
36083DOPC   D2B 8662  17.347   6.440   9.680
36083DOPC   C3B 8663  17.767   6.710   9.580
36083DOPC   C4B 8664  18.187   6.970   9.380
36084DOPC   NC3 8665  18.577   6.240   6.830
36084DOPC   PO4 8666  18.467   5.890   6.950
36084DOPC   GL1 8667  18.687   5.720   7.230
36084DOPC   GL2 8668  18.837   6.000   7.120
36084DOPC   C1A 8669  18.657   5.600   7.700
36084DOPC   D2A 8670  18.647   5.590   8.170
36084DOPC   C3A 8671  18.947   5.370   8.490
36084DOPC   C4A 8672  19.377   5.250   8.730
36084DOPC   C1B 8673  18.977   5.960   7.530
36084DOPC   D2B 8674  19.107   5.590   7.850
36084DOPC   C3B 8675  19.467   5.260   7.750
36084DOPC   C4B 8676  19.867   4.990   7.810
36085DOPC   NC3 8677   5.927   3.840   5.750
36085DOPC   PO4 8678   6.187   3.710   6.040
36085DOPC   GL1 8679   5.917   3.870   6.280
36085DOPC   GL2 8680   6.037   3.810   6.480
36085DOPC   C1A 8681   5.577   3.830   6.490
36085DOPC   D2A 8682   5.137   3.690   6.560
36085DOPC   C3A 8683   4.737   3.980   6.560
36085DOPC   C4A 8684   4.267   3.900   6.450
36085DOPC   C1B 8685   5.917   4.190   6.740
36085DOPC   D2B 8686   5.767   4.510   7.060
36085DOPC   C3B 8687   5.397   4.750   7.170
36085DOPC   C4B 8688   5.067   5.100   7.230
36086DOPC   NC3 8689  16.157   1.890   9.750
36086DOPC   PO4 8690  16.427   1.600   9.650
36086DOPC   GL1 8691  16.627   1.760  10.030
36086DOPC   GL2 8692  16.527   1.550  10.250
36086DOPC   C1A 8693  16.977   1.560  10.260
36086DOPC   D2A 8694  17.107   1.590  10.710
36086DOPC   C3A 8695  17.257   1.740  11.140
36086DOPC   C4A 8696  17.347   2.020  11.550
36086DOPC   C1B 8697  16.687   1.840  10.580
36086DOPC   D2B 8698  16.857   2.050  11.050
36086DOPC   C3B 8699  16.847   1.820  11.480
36086DOPC   C4B 8700  16.907   1.520  11.880
36087DOPC   NC3 8701  10.527   7.810  10.380
36087DOPC   PO4 8702  10.577   7.550  10.700
36087DOPC   GL1 8703  10.487   7.770  11.080
36087DOPC   GL2 8704  10.767   7.660  11.150
36087DOPC   C1A 8705  10.067   7.830  11.310
36087DOPC   D2A 8706   9.677   7.720  11.630
36087DOPC   C3A 8707   9.377   0.190  11.720
36087DOPC   C4A 8708   9.207   0.620  11.860
36087DOPC   C1B 8709  10.747   7.740  11.570
36087DOPC   D2B 8710  10.677   7.660  12.080
36087DOPC   C3B 8711  10.687   7.720  12.600
36087DOPC   C4B 8712  10.847   0.010  13.060
36088DOPC   NC3 8713   6.337   3.300   6.270
36088DOPC   PO4 8714   6.647   3.260   6.550
36088DOPC   GL1 8715   6.497   3.230   6.910
36088DOPC   GL2 8716   6.277   3.500   6.750
36088DOPC   C1A 8717   6.257   3.220   7.260
36088DOPC   D2A 8718   5.857   3.130   7.600
36088DOPC   C3A 8719   6.017   2.860   7.970
36088DOPC   C4A 8720   6.127   2.570   8.400
36088DOPC   C1B 8721   5.937   3.730   6.890
36088DOPC   D2B 8722   5.587   3.890   7.180
36088DOPC   C3B 8723   5.347   3.610   7.460
36088DOPC   C4B 8724   5.127   3.300   7.730
36089DOPC   NC3 8725  10.787   0.800  10.820
36089DOPC   PO4 8726  10.847   0.510  10.540
36089DOPC   GL1 8727  10.547   0.280  10.710
36089DOPC   GL2 8728  10.707   0.300  10.950
36089DOPC   C1A 8729  10.157   0.380  10.970
36089DOPC   D2A 8730   9.847   0.410  11.320
36089DOPC   C3A 8731   9.757   0.570  11.750
36089DOPC   C4A 8732   9.577   0.360  12.160
36089DOPC   C1B 8733  10.537   0.320  11.380
36089DOPC   D2B 8734  10.127   0.220  11.710
36089DOPC   C3B 8735  10.227   7.590  11.730
36089DOPC   C4B 8736  10.587   7.240  11.740
36090DOPC   NC3 8737  16.067   4.080   8.650
36090DOPC   PO4 8738  16.027   3.880   9.010
36090DOPC   GL1 8739  16.297   3.700   9.300
36090DOPC   GL2 8740  16.297   3.850   9.570
36090DOPC   C1A 8741  16.747   3.610   9.340
36090DOPC   D2A 8742  17.287   3.550   9.340
36090DOPC   C3A 8743  17.497   3.420   9.770
36090DOPC   C4A 8744  17.887   3.330  10.130
36090DOPC   C1B 8745  16.677   3.870   9.780
36090DOPC   D2B 8746  16.947   3.870  10.240
36090DOPC   C3B 8747  17.177   3.760  10.570
36090DOPC   C4B 8748  17.507   3.800  10.980
36091DOPC   NC3 8749  12.287   0.900  11.730
36091DOPC   PO4 8750  12.357   0.490  11.730
36091DOPC   GL1 8751  12.467   0.300  12.050
36091DOPC   GL2 8752  12.427   0.590  12.210
36091DOPC   C1A 8753  12.157   0.010  12.230
36091DOPC   D2A 8754  11.817   7.500  12.480
36091DOPC   C3A 8755  11.677   7.470  12.900
36091DOPC   C4A 8756  11.657   7.190  13.280
36091DOPC   C1B 8757  12.627   0.500  12.630
36091DOPC   D2B 8758  12.557   0.340  13.100
36091DOPC   C3B 8759  12.127   0.530  13.170
36091DOPC   C4B 8760  11.637   0.540  13.200
36092DOPC   NC3 8761  18.347   4.800   6.610
36092DOPC   PO4 8762  18.517   5.100   6.410
36092DOPC   GL1 8763  18.897   5.140   6.560
36092DOPC   GL2 8764  18.837   4.990   6.810
36092DOPC   C1A 8765  19.197   5.060   6.320
36092DOPC   D2A 8766  19.407   4.930   5.920
36092DOPC   C3A 8767  19.807   4.960   6.030
36092DOPC   C4A 8768  20.327   4.970   5.930
36092DOPC   C1B 8769  19.087   4.880   7.170
36092DOPC   D2B 8770  19.167   4.840   7.690
36092DOPC   C3B 8771  19.297   4.600   8.070
36092DOPC   C4B 8772  19.177   4.350   8.530
36093DOPC   NC3 8773  24.010   0.870   3.180
36093DOPC   PO4 8774  23.970   0.450   3.270
36093DOPC   GL1 8775  24.050   0.520   3.660
36093DOPC   GL2 8776  24.110   0.790   3.590
36093DOPC   C1A 8777  24.080   0.480   4.160
36093DOPC   D2A 8778  23.700   0.640   4.500
36093DOPC   C3A 8779  23.800   0.990   4.820
36093DOPC   C4A 8780  23.790   1.390   5.140
36093DOPC   C1B 8781  24.340   0.810   3.930
36093DOPC   D2B 8782  24.540   0.770   4.350
36093DOPC   C3B 8783  24.360   0.690   4.760
36093DOPC   C4B 8784  23.920   0.610   5.090
36094DOPC   NC3 8785   1.407   6.580   2.960
36094DOPC   PO4 8786   1.227   6.580   3.320
36094DOPC   GL1 8787   1.197   6.880   3.540
36094DOPC   GL2 8788   1.427   6.900   3.730
36094DOPC   C1A 8789   1.127   7.320   3.520
36094DOPC   D2A 8790   1.367   7.750   3.730
36094DOPC   C3A 8791   1.077   7.710   4.100
36094DOPC   C4A 8792   0.937   7.280   4.400
36094DOPC   C1B 8793   1.337   7.230   4.080
36094DOPC   D2B 8794   1.397   7.340   4.680
36094DOPC   C3B 8795   1.397   7.070   5.040
36094DOPC   C4B 8796   1.347   6.880   5.440
36095DOPC   NC3 8797   5.577   5.850   5.190
36095DOPC   PO4 8798   5.377   6.120   4.960
36095DOPC   GL1 8799   4.987   6.230   5.240
36095DOPC   GL2 8800   5.107   6.410   5.220
36095DOPC   C1A 8801   4.617   6.360   5.330
36095DOPC   D2A 8802   4.227   6.400   5.690
36095DOPC   C3A 8803   3.927   6.590   6.010
36095DOPC   C4A 8804   3.737   6.620   6.390
36095DOPC   C1B 8805   5.107   6.560   5.600
36095DOPC   D2B 8806   5.017   6.520   6.100
36095DOPC   C3B 8807   4.707   6.350   6.380
36095DOPC   C4B 8808   4.387   6.040   6.650
36096DOPC   NC3 8809  24.640   7.840   3.360
36096DOPC   PO4 8810  24.310   0.160   3.590
36096DOPC   GL1 8811  24.450   0.200   3.950
36096DOPC   GL2 8812  24.670   0.030   3.880
36096DOPC   C1A 8813  24.450   0.240   4.430
36096DOPC   D2A 8814  24.540   0.120   4.850
36096DOPC   C3A 8815  24.960   7.780   5.000
36096DOPC   C4A 8816   0.267   7.850   5.120
36096DOPC   C1B 8817  24.880   0.010   4.330
36096DOPC   D2B 8818   0.117   0.130   4.550
36096DOPC   C3B 8819   0.297   0.430   4.840
36096DOPC   C4B 8820   0.617   0.780   4.960
36097DOPC   NC3 8821   6.787   2.610   6.680
36097DOPC   PO4 8822   6.627   2.490   6.340
36097DOPC   GL1 8823   6.177   2.480   6.510
36097DOPC   GL2 8824   6.067   2.630   6.270
36097DOPC   C1A 8825   5.887   2.430   6.760
36097DOPC   D2A 8826   5.567   2.310   7.110
36097DOPC   C3A 8827   5.167   2.470   7.310
36097DOPC   C4A 8828   4.817   2.170   7.350
36097DOPC   C1B 8829   5.647   2.530   6.300
36097DOPC   D2B 8830   5.207   2.730   6.310
36097DOPC   C3B 8831   4.917   2.660   6.620
36097DOPC   C4B 8832   4.797   2.640   7.070
36098DOPC   NC3 8833  13.347   2.410  11.980
36098DOPC   PO4 8834  12.967   2.590  11.910
36098DOPC   GL1 8835  12.807   2.810  12.280
36098DOPC   GL2 8836  12.937   3.030  12.370
36098DOPC   C1A 8837  12.557   2.740  12.610
36098DOPC   D2A 8838  12.517   2.850  13.090
36098DOPC   C3A 8839  12.827   3.090  13.250
36098DOPC   C4A 8840  12.997   3.370  13.590
36098DOPC   C1B 8841  13.037   2.930  12.770
36098DOPC   D2B 8842  13.257   2.920  13.230
36098DOPC   C3B 8843  13.167   2.810  13.630
36098DOPC   C4B 8844  12.997   2.950  14.010
36099DOPC   NC3 8845   9.377   2.700   9.490
36099DOPC   PO4 8846   9.387   2.360   9.740
36099DOPC   GL1 8847   9.107   2.160   9.980
36099DOPC   GL2 8848   8.887   2.160   9.800
36099DOPC   C1A 8849   9.157   2.010  10.410
36099DOPC   D2A 8850   9.007   1.780  10.850
36099DOPC   C3A 8851   8.527   1.800  10.870
36099DOPC   C4A 8852   8.067   1.650  10.990
36099DOPC   C1B 8853   8.607   2.410  10.020
36099DOPC   D2B 8854   8.237   2.550  10.320
36099DOPC   C3B 8855   7.797   2.460  10.270
36099DOPC   C4B 8856   7.297   2.280  10.110
36100DOPC   NC3 8857  12.317   3.030  11.320
36100DOPC   PO4 8858  12.577   3.260  11.570
36100DOPC   GL1 8859  12.557   3.430  11.990
36100DOPC   GL2 8860  12.307   3.540  12.020
36100DOPC   C1A 8861  12.527   3.210  12.320
36100DOPC   D2A 8862  12.727   3.310  12.780
36100DOPC   C3A 8863  12.537   3.680  13.000
36100DOPC   C4A 8864  12.417   4.070  13.260
36100DOPC   C1B 8865  11.997   3.310  12.290
36100DOPC   D2B 8866  11.697   3.240  12.670
36100DOPC   C3B 8867  11.547   3.330  13.110
36100DOPC   C4B 8868  11.267   3.370  13.530
36101DOPC   NC3 8869  20.617   3.510   4.050
36101DOPC   PO4 8870  21.030   3.510   4.180
36101DOPC   GL1 8871  21.160   3.640   4.500
36101DOPC   GL2 8872  21.300   3.880   4.500
36101DOPC   C1A 8873  21.100   3.450   4.840
36101DOPC   D2A 8874  21.160   3.520   5.280
36101DOPC   C3A 8875  21.390   3.640   5.640
36101DOPC   C4A 8876  21.620   3.980   5.980
36101DOPC   C1B 8877  21.520   3.930   4.840
36101DOPC   D2B 8878  21.480   4.040   5.310
36101DOPC   C3B 8879  21.830   3.830   5.550
36101DOPC   C4B 8880  21.780   3.420   5.830
36102DOPC   NC3 8881  25.110   2.200   2.890
36102DOPC   PO4 8882   0.207   2.280   3.170
36102DOPC   GL1 8883   0.277   2.440   3.580
36102DOPC   GL2 8884   0.357   2.200   3.650
36102DOPC   C1A 8885   0.067   2.510   3.930
36102DOPC   D2A 8886  25.120   2.510   4.460
36102DOPC   C3A 8887  25.140   2.190   4.780
36102DOPC   C4A 8888   0.207   1.810   4.950
36102DOPC   C1B 8889  25.130   2.030   3.710
36102DOPC   D2B 8890  24.680   1.830   3.800
36102DOPC   C3B 8891  24.400   1.680   4.120
36102DOPC   C4B 8892  24.330   1.800   4.580
36103DOPC   NC3 8893  18.257   2.520   6.480
36103DOPC   PO4 8894  18.327   2.520   6.060
36103DOPC   GL1 8895  18.667   2.440   6.260
36103DOPC   GL2 8896  18.697   2.170   6.300
36103DOPC   C1A 8897  18.857   2.600   6.630
36103DOPC   D2A 8898  19.157   2.570   7.050
36103DOPC   C3A 8899  19.557   2.300   7.050
36103DOPC   C4A 8900  20.037   2.160   7.110
36103DOPC   C1B 8901  19.027   2.080   6.490
36103DOPC   D2B 8902  19.417   1.880   6.710
36103DOPC   C3B 8903  19.707   1.790   7.060
36103DOPC   C4B 8904  20.137   1.750   7.330
36104DOPC   NC3 8905   4.227   5.240   4.550
36104DOPC   PO4 8906   3.967   5.500   4.480
36104DOPC   GL1 8907   3.807   5.360   4.910
36104DOPC   GL2 8908   4.057   5.480   5.030
36104DOPC   C1A 8909   3.467   5.350   5.180
36104DOPC   D2A 8910   3.067   5.170   5.440
36104DOPC   C3A 8911   3.007   5.290   5.910
36104DOPC   C4A 8912   2.787   5.290   6.400
36104DOPC   C1B 8913   3.917   5.300   5.460
36104DOPC   D2B 8914   3.497   5.260   5.760
36104DOPC   C3B 8915   3.387   5.570   6.140
36104DOPC   C4B 8916   3.607   5.750   6.500
36105DOPC   NC3 8917  16.027   3.360   9.620
36105DOPC   PO4 8918  16.237   3.040   9.620
36105DOPC   GL1 8919  16.507   2.960   9.960
36105DOPC   GL2 8920  16.747   3.070   9.910
36105DOPC   C1A 8921  16.537   3.070  10.400
36105DOPC   D2A 8922  16.787   2.960  10.810
36105DOPC   C3A 8923  16.897   2.630  11.080
36105DOPC   C4A 8924  17.017   2.320  11.480
36105DOPC   C1B 8925  17.127   2.870   9.830
36105DOPC   D2B 8926  17.557   2.910   9.990
36105DOPC   C3B 8927  17.867   2.650  10.280
36105DOPC   C4B 8928  18.207   2.320  10.550
36106DOPC   NC3 8929  14.077   4.240  11.480
36106DOPC   PO4 8930  14.257   4.470  11.250
36106DOPC   GL1 8931  14.507   4.430  11.580
36106DOPC   GL2 8932  14.497   4.140  11.670
36106DOPC   C1A 8933  14.677   4.670  11.890
36106DOPC   D2A 8934  14.677   4.980  12.310
36106DOPC   C3A 8935  14.487   5.110  12.680
36106DOPC   C4A 8936  14.177   5.350  12.890
36106DOPC   C1B 8937  14.757   4.120  12.010
36106DOPC   D2B 8938  15.217   4.280  11.990
36106DOPC   C3B 8939  15.297   4.610  12.270
36106DOPC   C4B 8940  15.467   4.890  12.570
36107DOPC   NC3 8941  10.207   2.810  10.050
36107DOPC   PO4 8942  10.277   2.910  10.440
36107DOPC   GL1 8943  10.137   2.870  10.840
36107DOPC   GL2 8944  10.447   2.980  10.890
36107DOPC   C1A 8945   9.927   2.590  11.110
36107DOPC   D2A 8946   9.747   2.490  11.520
36107DOPC   C3A 8947   9.467   2.740  11.880
36107DOPC   C4A 8948   9.137   2.790  12.200
36107DOPC   C1B 8949  10.287   2.880  11.280
36107DOPC   D2B 8950  10.087   2.810  11.750
36107DOPC   C3B 8951   9.767   3.190  11.930
36107DOPC   C4B 8952   9.557   3.570  12.140
36108DOPC   NC3 8953  17.547   0.500   7.760
36108DOPC   PO4 8954  17.307   0.150   7.860
36108DOPC   GL1 8955  17.657   7.810   7.910
36108DOPC   GL2 8956  17.547   7.800   8.220
36108DOPC   C1A 8957  18.027   0.090   8.060
36108DOPC   D2A 8958  18.437   0.160   8.370
36108DOPC   C3A 8959  18.857   0.030   8.350
36108DOPC   C4A 8960  19.277   0.270   8.310
36108DOPC   C1B 8961  17.777   0.280   8.450
36108DOPC   D2B 8962  17.777   0.730   8.460
36108DOPC   C3B 8963  17.857   1.090   8.750
36108DOPC   C4B 8964  18.047   1.560   8.910
36109DOPC   NC3 8965  11.247   5.640  11.250
36109DOPC   PO4 8966  11.597   5.740  11.340
36109DOPC   GL1 8967  11.507   5.810  11.750
36109DOPC   GL2 8968  11.197   5.850  11.640
36109DOPC   C1A 8969  11.557   5.690  12.190
36109DOPC   D2A 8970  11.607   5.570  12.630
36109DOPC   C3A 8971  11.777   5.640  12.970
36109DOPC   C4A 8972  11.697   5.780  13.440
36109DOPC   C1B 8973  10.967   6.170  11.870
36109DOPC   D2B 8974  10.467   6.290  12.130
36109DOPC   C3B 8975  10.127   6.560  12.320
36109DOPC   C4B 8976  10.167   7.030  12.530
36110DOPC   NC3 8977  13.437   3.300  11.920
36110DOPC   PO4 8978  13.377   2.920  11.890
36110DOPC   GL1 8979  13.247   2.750  12.270
36110DOPC   GL2 8980  13.377   3.040  12.410
36110DOPC   C1A 8981  12.927   2.450  12.510
36110DOPC   D2A 8982  12.627   2.240  12.850
36110DOPC   C3A 8983  12.437   2.350  13.230
36110DOPC   C4A 8984  12.187   2.680  13.400
36110DOPC   C1B 8985  13.557   2.910  12.750
36110DOPC   D2B 8986  13.867   2.610  13.010
36110DOPC   C3B 8987  14.257   2.470  13.250
36110DOPC   C4B 8988  14.537   2.320  13.670
36111DOPC   NC3 8989  16.457   1.800   9.180
36111DOPC   PO4 8990  16.657   2.140   9.020
36111DOPC   GL1 8991  16.887   2.280   9.290
36111DOPC   GL2 8992  17.047   2.010   9.210
36111DOPC   C1A 8993  17.017   2.360   9.720
36111DOPC   D2A 8994  16.887   2.180  10.190
36111DOPC   C3A 8995  17.127   2.220  10.630
36111DOPC   C4A 8996  17.267   2.330  11.050
36111DOPC   C1B 8997  17.327   2.030   9.440
36111DOPC   D2B 8998  17.757   1.930   9.700
36111DOPC   C3B 8999  18.157   1.670   9.560
36111DOPC   C4B 9000  18.447   1.350   9.590
36112DOPC   NC3 9001  25.100   7.240   2.960
36112DOPC   PO4 9002  25.100   7.590   3.140
36112DOPC   GL1 9003  25.140   7.520   3.510
36112DOPC   GL2 9004  25.000   7.740   3.630
36112DOPC   C1A 9005   0.207   7.270   3.790
36112DOPC   D2A 9006   0.037   7.000   4.090
36112DOPC   C3A 9007   0.137   7.000   4.550
36112DOPC   C4A 9008   0.217   7.000   5.080
36112DOPC   C1B 9009   0.047   0.010   3.950
36112DOPC   D2B 9010   0.497   0.000   4.280
36112DOPC   C3B 9011   0.597   7.810   4.740
36112DOPC   C4B 9012   0.817   0.020   5.140
36113DOPC   NC3 9013   5.667   2.950   5.450
36113DOPC   PO4 9014   5.287   2.880   5.370
36113DOPC   GL1 9015   4.987   3.000   5.700
36113DOPC   GL2 9016   4.967   2.700   5.660
36113DOPC   C1A 9017   4.927   3.100   6.090
36113DOPC   D2A 9018   4.757   3.230   6.600
36113DOPC   C3A 9019   4.557   3.080   7.010
36113DOPC   C4A 9020   4.277   3.170   7.450
36113DOPC   C1B 9021   4.577   2.630   5.960
36113DOPC   D2B 9022   4.447   2.720   6.350
36113DOPC   C3B 9023   4.347   2.660   6.730
36113DOPC   C4B 9024   4.247   2.730   7.170
36114DOPC   NC3 9025   0.777   6.630   3.170
36114DOPC   PO4 9026   0.397   6.510   3.130
36114DOPC   GL1 9027   0.347   6.530   3.510
36114DOPC   GL2 9028   0.597   6.360   3.520
36114DOPC   C1A 9029   0.257   6.520   3.970
36114DOPC   D2A 9030   0.057   6.500   4.420
36114DOPC   C3A 9031   0.137   6.550   4.910
36114DOPC   C4A 9032   0.167   6.530   5.400
36114DOPC   C1B 9033   0.867   6.470   3.840
36114DOPC   D2B 9034   0.907   6.940   3.970
36114DOPC   C3B 9035   0.717   7.340   3.850
36114DOPC   C4B 9036   0.497   7.720   3.790
36115DOPC   NC3 9037  16.807   0.520   8.780
36115DOPC   PO4 9038  17.197   0.710   8.670
36115DOPC   GL1 9039  17.497   0.610   8.940
36115DOPC   GL2 9040  17.557   0.390   8.820
36115DOPC   C1A 9041  17.707   0.680   9.270
36115DOPC   D2A 9042  17.897   0.670   9.740
36115DOPC   C3A 9043  17.847   0.380  10.130
36115DOPC   C4A 9044  17.777   0.260  10.620
36115DOPC   C1B 9045  17.977   0.530   8.840
36115DOPC   D2B 9046  18.367   0.870   8.730
36115DOPC   C3B 9047  18.837   0.910   8.660
36115DOPC   C4B 9048  19.157   1.190   9.010
36116DOPC   NC3 9049  14.147   7.350  11.730
36116DOPC   PO4 9050  14.337   7.050  11.480
36116DOPC   GL1 9051  14.707   7.080  11.600
36116DOPC   GL2 9052  14.687   7.060  11.920
36116DOPC   C1A 9053  15.117   7.270  11.580
36116DOPC   D2A 9054  15.527   7.040  11.590
36116DOPC   C3A 9055  15.687   7.100  12.000
36116DOPC   C4A 9056  15.637   6.970  12.470
36116DOPC   C1B 9057  14.377   6.910  12.190
36116DOPC   D2B 9058  14.427   6.560  12.490
36116DOPC   C3B 9059  14.607   6.880  12.750
36116DOPC   C4B 9060  14.777   7.360  12.910
36117DOPC   NC3 9061  19.127   7.370   5.090
36117DOPC   PO4 9062  18.967   7.020   5.070
36117DOPC   GL1 9063  19.287   6.780   5.190
36117DOPC   GL2 9064  19.417   7.010   5.220
36117DOPC   C1A 9065  19.517   6.450   5.350
36117DOPC   D2A 9066  19.947   6.200   5.420
36117DOPC   C3A 9067  20.227   6.560   5.270
36117DOPC   C4A 9068  20.627   6.830   5.190
36117DOPC   C1B 9069  19.507   7.190   5.630
36117DOPC   D2B 9070  19.707   7.530   5.970
36117DOPC   C3B 9071  20.137   7.560   6.150
36117DOPC   C4B 9072  20.567   7.490   6.360
36118DOPC   NC3 9073  14.957   6.010  11.000
36118DOPC   PO4 9074  14.697   5.720  10.990
36118DOPC   GL1 9075  14.967   5.580  11.260
36118DOPC   GL2 9076  15.147   5.600  11.140
36118DOPC   C1A 9077  14.937   5.720  11.700
36118DOPC   D2A 9078  14.887   6.000  12.050
36118DOPC   C3A 9079  14.737   6.080  12.460
36118DOPC   C4A 9080  14.847   6.400  12.830
36118DOPC   C1B 9081  15.517   5.760  11.320
36118DOPC   D2B 9082  15.817   6.140  11.320
36118DOPC   C3B 9083  16.327   6.130  11.460
36118DOPC   C4B 9084  16.697   6.160  11.180
36119DOPC   NC3 9085  15.917   5.960   9.880
36119DOPC   PO4 9086  15.877   5.930  10.240
36119DOPC   GL1 9087  16.307   5.850  10.310
36119DOPC   GL2 9088  16.247   6.010  10.590
36119DOPC   C1A 9089  16.477   5.610  10.630
36119DOPC   D2A 9090  16.747   5.590  11.030
36119DOPC   C3A 9091  17.107   5.820  11.140
36119DOPC   C4A 9092  17.227   6.040  11.560
36119DOPC   C1B 9093  16.257   5.840  11.040
36119DOPC   D2B 9094  16.037   5.650  11.460
36119DOPC   C3B 9095  16.237   5.730  11.910
36119DOPC   C4B 9096  16.597   5.910  12.170
36120DOPC   NC3 9097  15.837   5.030   9.410
36120DOPC   PO4 9098  15.767   5.140   9.780
36120DOPC   GL1 9099  16.077   5.140  10.070
36120DOPC   GL2 9100  16.077   4.880  10.080
36120DOPC   C1A 9101  16.427   5.290  10.220
36120DOPC   D2A 9102  16.867   5.210  10.470
36120DOPC   C3A 9103  17.307   5.050  10.330
36120DOPC   C4A 9104  17.757   5.050  10.170
36120DOPC   C1B 9105  16.497   4.750  10.280
36120DOPC   D2B 9106  16.787   4.750  10.670
36120DOPC   C3B 9107  17.277   4.720  10.760
36120DOPC   C4B 9108  17.617   4.910  11.040
36121DOPC   NC3 9109  17.567   5.110   7.180
36121DOPC   PO4 9110  17.557   5.220   7.560
36121DOPC   GL1 9111  17.787   5.420   7.830
36121DOPC   GL2 9112  17.977   5.560   7.750
36121DOPC   C1A 9113  17.857   5.290   8.200
36121DOPC   D2A 9114  17.947   5.150   8.670
36121DOPC   C3A 9115  18.167   5.420   8.920
36121DOPC   C4A 9116  18.347   5.670   9.370
36121DOPC   C1B 9117  18.297   5.370   7.900
36121DOPC   D2B 9118  18.767   5.130   8.030
36121DOPC   C3B 9119  18.777   4.700   8.220
36121DOPC   C4B 9120  18.477   4.320   8.260
36122DOPC   NC3 9121  18.437   7.410   5.600
36122DOPC   PO4 9122  18.527   7.190   5.890
36122DOPC   GL1 9123  18.847   7.230   6.120
36122DOPC   GL2 9124  18.947   6.940   6.150
36122DOPC   C1A 9125  19.067   7.480   6.370
36122DOPC   D2A 9126  19.087   7.670   6.850
36122DOPC   C3A 9127  19.447   7.680   7.080
36122DOPC   C4A 9128  19.897   7.780   7.120
36122DOPC   C1B 9129  19.337   7.100   6.200
36122DOPC   D2B 9130  19.817   7.220   6.410
36122DOPC   C3B 9131  20.257   7.140   6.600
36122DOPC   C4B 9132  20.567   7.060   7.020
36123DOPC   NC3 9133   8.947   2.050   9.170
36123DOPC   PO4 9134   8.667   1.900   9.440
36123DOPC   GL1 9135   8.657   1.760   9.820
36123DOPC   GL2 9136   8.377   1.760   9.780
36123DOPC   C1A 9137   8.667   1.920  10.340
36123DOPC   D2A 9138   8.507   2.290  10.610
36123DOPC   C3A 9139   8.127   2.240  10.670
36123DOPC   C4A 9140   7.737   2.090  10.640
36123DOPC   C1B 9141   7.977   1.700   9.760
36123DOPC   D2B 9142   7.547   1.490  10.000
36123DOPC   C3B 9143   7.177   1.770  10.140
36123DOPC   C4B 9144   6.837   2.060  10.110
36124DOPC   NC3 9145  20.427   0.250   4.370
36124DOPC   PO4 9146  20.197   0.350   4.610
36124DOPC   GL1 9147  20.427   0.300   4.930
36124DOPC   GL2 9148  20.587   0.580   4.830
36124DOPC   C1A 9149  20.657   0.060   5.200
36124DOPC   D2A 9150  21.020   0.090   5.560
36124DOPC   C3A 9151  21.380   7.680   5.660
36124DOPC   C4A 9152  21.770   7.510   5.900
36124DOPC   C1B 9153  20.950   0.460   5.070
36124DOPC   D2B 9154  21.350   0.380   5.340
36124DOPC   C3B 9155  21.640   0.470   5.720
36124DOPC   C4B 9156  21.810   0.550   6.160
36125DOPC   NC3 9157  22.540   2.540   3.400
36125DOPC   PO4 9158  22.730   2.900   3.290
36125DOPC   GL1 9159  23.030   2.920   3.510
36125DOPC   GL2 9160  22.990   3.210   3.660
36125DOPC   C1A 9161  23.120   2.650   3.870
36125DOPC   D2A 9162  23.080   2.310   4.240
36125DOPC   C3A 9163  23.430   2.360   4.600
36125DOPC   C4A 9164  23.750   2.210   4.960
36125DOPC   C1B 9165  22.980   3.220   4.050
36125DOPC   D2B 9166  22.960   3.240   4.500
36125DOPC   C3B 9167  22.970   3.320   4.950
36125DOPC   C4B 9168  22.680   3.320   5.380
36126DOPC   NC3 9169   6.377   0.410   6.420
36126DOPC   PO4 9170   6.187   0.350   6.050
36126DOPC   GL1 9171   5.887   0.100   6.280
36126DOPC   GL2 9172   6.037   0.090   6.550
36126DOPC   C1A 9173   5.457   0.240   6.440
36126DOPC   D2A 9174   5.327   0.030   6.900
36126DOPC   C3A 9175   5.047   7.520   7.020
36126DOPC   C4A 9176   4.627   7.310   7.240
36126DOPC   C1B 9177   5.787   0.250   6.890
36126DOPC   D2B 9178   5.347   0.450   7.150
36126DOPC   C3B 9179   4.967   0.530   7.370
36126DOPC   C4B 9180   4.527   0.600   7.680
36127DOPC   NC3 9181  24.160   5.910   2.920
36127DOPC   PO4 9182  23.930   5.680   3.190
36127DOPC   GL1 9183  24.060   5.630   3.560
36127DOPC   GL2 9184  24.310   5.660   3.510
36127DOPC   C1A 9185  23.930   5.840   3.970
36127DOPC   D2A 9186  23.810   6.180   4.310
36127DOPC   C3A 9187  24.130   6.330   4.630
36127DOPC   C4A 9188  24.320   6.650   4.990
36127DOPC   C1B 9189  24.360   6.000   3.790
36127DOPC   D2B 9190  24.360   6.110   4.250
36127DOPC   C3B 9191  24.530   6.050   4.720
36127DOPC   C4B 9192  24.460   6.220   5.170
36128DOPC   NC3 9193   7.497   6.350   7.820
36128DOPC   PO4 9194   7.847   6.330   7.980
36128DOPC   GL1 9195   7.847   6.430   8.360
36128DOPC   GL2 9196   7.837   6.160   8.520
36128DOPC   C1A 9197   7.707   6.790   8.580
36128DOPC   D2A 9198   7.437   7.080   8.910
36128DOPC   C3A 9199   6.987   7.090   8.980
36128DOPC   C4A 9200   6.537   7.270   9.120
36128DOPC   C1B 9201   7.657   6.260   8.950
36128DOPC   D2B 9202   7.597   6.280   9.440
36128DOPC   C3B 9203   7.297   6.540   9.710
36128DOPC   C4B 9204   7.077   6.820   9.990
36129DOPC   NC3 9205   8.357   5.050   7.900
36129DOPC   PO4 9206   8.377   5.080   8.310
36129DOPC   GL1 9207   8.107   5.110   8.550
36129DOPC   GL2 9208   7.777   5.140   8.400
36129DOPC   C1A 9209   7.987   5.290   8.890
36129DOPC   D2A 9210   7.717   5.300   9.330
36129DOPC   C3A 9211   7.507   5.690   9.490
36129DOPC   C4A 9212   6.987   5.570   9.580
36129DOPC   C1B 9213   7.577   5.480   8.530
36129DOPC   D2B 9214   7.457   5.960   8.560
36129DOPC   C3B 9215   7.307   6.220   8.270
36129DOPC   C4B 9216   7.387   6.690   8.260
36130DOPC   NC3 9217   7.237   2.200   6.740
36130DOPC   PO4 9218   7.147   1.900   6.510
36130DOPC   GL1 9219   6.717   2.000   6.600
36130DOPC   GL2 9220   6.787   2.160   6.750
36130DOPC   C1A 9221   6.307   2.010   6.680
36130DOPC   D2A 9222   5.897   1.730   6.730
36130DOPC   C3A 9223   5.487   1.860   6.800
36130DOPC   C4A 9224   5.057   1.820   6.530
36130DOPC   C1B 9225   6.787   2.080   7.230
36130DOPC   D2B 9226   6.537   2.310   7.600
36130DOPC   C3B 9227   6.177   2.340   7.930
36130DOPC   C4B 9228   5.717   2.460   8.080
36131DOPC   NC3 9229  11.067   3.510  10.710
36131DOPC   PO4 9230  11.397   3.440  10.870
36131DOPC   GL1 9231  11.237   3.170  11.090
36131DOPC   GL2 9232  11.457   3.160  11.300
36131DOPC   C1A 9233  10.967   3.160  11.360
36131DOPC   D2A 9234  10.607   2.970  11.660
36131DOPC   C3A 9235  10.897   3.010  12.010
36131DOPC   C4A 9236  11.307   3.110  12.340
36131DOPC   C1B 9237  11.357   2.950  11.680
36131DOPC   D2B 9238  11.237   2.580  12.030
36131DOPC   C3B 9239  10.977   2.720  12.410
36131DOPC   C4B 9240  10.517   2.960  12.440
36132DOPC   NC3 9241  15.027   5.370  10.770
36132DOPC   PO4 9242  14.827   5.170  11.040
36132DOPC   GL1 9243  15.037   5.080  11.390
36132DOPC   GL2 9244  15.107   4.810  11.380
36132DOPC   C1A 9245  15.297   5.320  11.590
36132DOPC   D2A 9246  15.637   5.560  11.840
36132DOPC   C3A 9247  15.717   5.820  12.210
36132DOPC   C4A 9248  15.997   6.120  12.480
36132DOPC   C1B 9249  15.537   4.720  11.530
36132DOPC   D2B 9250  15.657   4.510  11.890
36132DOPC   C3B 9251  15.797   4.530  12.350
36132DOPC   C4B 9252  16.037   4.230  12.670
36133DOPC   NC3 9253   8.267   1.820   8.280
36133DOPC   PO4 9254   8.157   2.120   8.540
36133DOPC   GL1 9255   7.887   2.090   8.910
36133DOPC   GL2 9256   7.657   2.120   8.730
36133DOPC   C1A 9257   7.607   2.310   9.300
36133DOPC   D2A 9258   7.407   2.050   9.670
36133DOPC   C3A 9259   7.677   1.960  10.010
36133DOPC   C4A 9260   8.177   2.070  10.120
36133DOPC   C1B 9261   7.337   1.990   9.030
36133DOPC   D2B 9262   6.977   1.900   9.310
36133DOPC   C3B 9263   6.947   2.160   9.630
36133DOPC   C4B 9264   7.027   2.640   9.880
36134DOPC   NC3 9265   1.937   0.890   3.500
36134DOPC   PO4 9266   1.797   0.550   3.350
36134DOPC   GL1 9267   1.947   0.360   3.780
36134DOPC   GL2 9268   1.847   0.100   3.600
36134DOPC   C1A 9269   1.647   0.290   4.090
36134DOPC   D2A 9270   1.487   7.850   4.320
36134DOPC   C3A 9271   1.607   7.820   4.760
36134DOPC   C4A 9272   1.697   7.770   5.240
36134DOPC   C1B 9273   1.837   7.680   3.990
36134DOPC   D2B 9274   1.917   7.390   4.330
36134DOPC   C3B 9275   1.887   7.040   4.710
36134DOPC   C4B 9276   1.887   6.760   5.130
36135DOPC   NC3 9277  22.210   3.690   3.290
36135DOPC   PO4 9278  22.020   3.560   3.640
36135DOPC   GL1 9279  22.260   3.740   3.870
36135DOPC   GL2 9280  22.520   3.580   3.760
36135DOPC   C1A 9281  22.340   4.090   4.150
36135DOPC   D2A 9282  22.450   4.450   4.450
36135DOPC   C3A 9283  22.840   4.270   4.740
36135DOPC   C4A 9284  23.230   4.200   5.070
36135DOPC   C1B 9285  22.880   3.780   3.930
36135DOPC   D2B 9286  23.240   4.120   3.940
36135DOPC   C3B 9287  23.170   4.600   4.010
36135DOPC   C4B 9288  23.030   5.030   4.220
36136DOPC   NC3 9289  16.307   6.630   8.260
36136DOPC   PO4 9290  16.687   6.760   8.310
36136DOPC   GL1 9291  17.047   6.560   8.500
36136DOPC   GL2 9292  17.107   6.360   8.310
36136DOPC   C1A 9293  17.307   6.380   8.850
36136DOPC   D2A 9294  17.767   6.450   9.040
36136DOPC   C3A 9295  17.937   6.200   9.380
36136DOPC   C4A 9296  18.167   6.250   9.780
36136DOPC   C1B 9297  17.427   6.120   8.410
36136DOPC   D2B 9298  17.877   6.070   8.550
36136DOPC   C3B 9299  18.277   6.260   8.440
36136DOPC   C4B 9300  18.687   6.290   8.680
36137DOPC   NC3 9301   6.717   6.070   7.270
36137DOPC   PO4 9302   6.747   6.330   6.950
36137DOPC   GL1 9303   6.477   6.550   7.010
36137DOPC   GL2 9304   6.307   6.400   7.270
36137DOPC   C1A 9305   6.117   6.840   6.930
36137DOPC   D2A 9306   5.907   7.110   7.210
36137DOPC   C3A 9307   5.787   7.390   7.620
36137DOPC   C4A 9308   5.537   7.520   8.080
36137DOPC   C1B 9309   5.887   6.430   7.460
36137DOPC   D2B 9310   5.447   6.440   7.650
36137DOPC   C3B 9311   5.027   6.250   7.650
36137DOPC   C4B 9312   4.657   5.900   7.680
36138DOPC   NC3 9313   1.417   0.400   2.870
36138DOPC   PO4 9314   1.077   0.230   2.870
36138DOPC   GL1 9315   1.117   0.080   3.330
36138DOPC   GL2 9316   1.327   0.210   3.310
36138DOPC   C1A 9317   0.797   0.200   3.600
36138DOPC   D2A 9318   0.527   0.340   3.960
36138DOPC   C3A 9319   0.557   0.500   4.360
36138DOPC   C4A 9320   0.777   0.940   4.540
36138DOPC   C1B 9321   1.247   0.340   3.780
36138DOPC   D2B 9322   1.027   0.300   4.270
36138DOPC   C3B 9323   1.067   7.790   4.630
36138DOPC   C4B 9324   1.017   7.410   4.960
36139DOPC   NC3 9325  13.447   1.480  11.780
36139DOPC   PO4 9326  13.097   1.550  11.990
36139DOPC   GL1 9327  12.937   1.560  12.480
36139DOPC   GL2 9328  12.677   1.470  12.250
36139DOPC   C1A 9329  12.847   1.710  12.870
36139DOPC   D2A 9330  12.827   2.050  13.250
36139DOPC   C3A 9331  13.167   2.260  13.510
36139DOPC   C4A 9332  13.547   2.520  13.440
36139DOPC   C1B 9333  12.447   1.370  12.620
36139DOPC   D2B 9334  12.267   1.300  13.090
36139DOPC   C3B 9335  11.897   1.040  13.110
36139DOPC   C4B 9336  11.427   1.170  13.120
36140DOPC   NC3 9337  17.087   0.870   9.140
36140DOPC   PO4 9338  17.097   0.480   9.200
36140DOPC   GL1 9339  17.367   0.290   9.520
36140DOPC   GL2 9340  17.237   0.550   9.660
36140DOPC   C1A 9341  17.687   0.120   9.690
36140DOPC   D2A 9342  18.007   7.610   9.910
36140DOPC   C3A 9343  18.327   7.450   9.650
36140DOPC   C4A 9344  18.617   7.230   9.300
36140DOPC   C1B 9345  17.487   0.850   9.830
36140DOPC   D2B 9346  17.797   0.970  10.140
36140DOPC   C3B 9347  17.807   0.780  10.540
36140DOPC   C4B 9348  18.187   0.520  10.680
36141DOPC   NC3 9349   8.957   7.000   8.440
36141DOPC   PO4 9350   8.617   6.870   8.370
36141DOPC   GL1 9351   8.217   6.800   8.630
36141DOPC   GL2 9352   8.167   7.040   8.510
36141DOPC   C1A 9353   7.967   6.780   9.010
36141DOPC   D2A 9354   7.587   6.800   9.330
36141DOPC   C3A 9355   7.197   6.960   9.460
36141DOPC   C4A 9356   6.837   7.220   9.560
36141DOPC   C1B 9357   7.827   7.290   8.680
36141DOPC   D2B 9358   7.367   7.540   8.820
36141DOPC   C3B 9359   7.027   7.590   9.140
36141DOPC   C4B 9360   6.647   7.720   9.420
36142DOPC   NC3 9361  24.020   4.440   3.290
36142DOPC   PO4 9362  23.860   4.520   2.910
36142DOPC   GL1 9363  23.810   4.880   3.170
36142DOPC   GL2 9364  23.600   4.750   3.320
36142DOPC   C1A 9365  24.190   4.990   3.450
36142DOPC   D2A 9366  24.660   5.150   3.630
36142DOPC   C3A 9367  24.700   5.230   4.100
36142DOPC   C4A 9368  24.920   5.260   4.560
36142DOPC   C1B 9369  23.460   4.890   3.710
36142DOPC   D2B 9370  23.570   5.030   4.140
36142DOPC   C3B 9371  23.440   4.690   4.380
36142DOPC   C4B 9372  23.580   4.490   4.850
36143DOPC   NC3 9373  21.020   5.800   4.120
36143DOPC   PO4 9374  21.180   6.130   4.040
36143DOPC   GL1 9375  21.230   6.110   4.430
36143DOPC   GL2 9376  21.240   6.390   4.420
36143DOPC   C1A 9377  21.330   6.030   4.780
36143DOPC   D2A 9378  21.250   6.180   5.270
36143DOPC   C3A 9379  21.420   6.310   5.660
36143DOPC   C4A 9380  21.330   6.530   6.080
36143DOPC   C1B 9381  21.330   6.560   4.810
36143DOPC   D2B 9382  21.610   6.590   5.210
36143DOPC   C3B 9383  21.990   6.460   5.410
36143DOPC   C4B 9384  21.880   6.340   5.920
36144DOPC   NC3 9385   2.587   4.050   3.510
36144DOPC   PO4 9386   2.227   4.020   3.690
36144DOPC   GL1 9387   2.107   3.760   4.010
36144DOPC   GL2 9388   2.097   4.010   4.110
36144DOPC   C1A 9389   2.337   3.700   4.330
36144DOPC   D2A 9390   2.617   3.320   4.500
36144DOPC   C3A 9391   2.287   3.110   4.790
36144DOPC   C4A 9392   2.077   3.010   5.240
36144DOPC   C1B 9393   2.057   4.110   4.540
36144DOPC   D2B 9394   2.147   4.340   4.930
36144DOPC   C3B 9395   2.457   4.140   5.250
36144DOPC   C4B 9396   2.787   4.110   5.680
36145DOPC   NC3 9397  16.907   1.640   9.000
36145DOPC   PO4 9398  16.877   1.610   9.390
36145DOPC   GL1 9399  17.177   1.590   9.630
36145DOPC   GL2 9400  17.087   1.810   9.810
36145DOPC   C1A 9401  17.497   1.400   9.870
36145DOPC   D2A 9402  17.927   1.470  10.070
36145DOPC   C3A 9403  17.897   1.300  10.540
36145DOPC   C4A 9404  18.017   1.110  11.030
36145DOPC   C1B 9405  17.327   2.090  10.040
36145DOPC   D2B 9406  17.267   2.540  10.230
36145DOPC   C3B 9407  16.997   3.000  10.330
36145DOPC   C4B 9408  16.737   3.420  10.200
36146DOPC   NC3 9409   6.387   5.430   6.490
36146DOPC   PO4 9410   6.577   5.740   6.700
36146DOPC   GL1 9411   6.377   6.030   7.020
36146DOPC   GL2 9412   6.247   6.190   6.850
36146DOPC   C1A 9413   6.137   5.940   7.370
36146DOPC   D2A 9414   5.727   5.930   7.700
36146DOPC   C3A 9415   5.417   6.060   7.940
36146DOPC   C4A 9416   5.157   6.490   8.040
36146DOPC   C1B 9417   5.887   6.270   6.960
36146DOPC   D2B 9418   5.437   6.460   7.080
36146DOPC   C3B 9419   5.077   6.620   7.230
36146DOPC   C4B 9420   4.657   6.640   7.470
36147DOPC   NC3 9421   4.587   0.820   4.930
36147DOPC   PO4 9422   4.577   1.200   5.030
36147DOPC   GL1 9423   4.207   1.320   5.200
36147DOPC   GL2 9424   4.047   1.060   5.120
36147DOPC   C1A 9425   4.187   1.390   5.620
36147DOPC   D2A 9426   4.147   1.450   6.110
36147DOPC   C3A 9427   3.907   1.380   6.450
36147DOPC   C4A 9428   3.537   1.200   6.780
36147DOPC   C1B 9429   3.857   0.950   5.530
36147DOPC   D2B 9430   3.667   1.140   5.950
36147DOPC   C3B 9431   3.507   0.940   6.340
36147DOPC   C4B 9432   3.057   0.870   6.270
36148DOPC   NC3 9433  18.197   5.590   6.520
36148DOPC   PO4 9434  18.577   5.670   6.420
36148DOPC   GL1 9435  18.877   6.030   6.530
36148DOPC   GL2 9436  18.947   5.800   6.720
36148DOPC   C1A 9437  19.107   6.230   6.780
36148DOPC   D2A 9438  19.307   6.250   7.250
36148DOPC   C3A 9439  19.727   6.230   7.390
36148DOPC   C4A 9440  20.117   6.440   7.560
36148DOPC   C1B 9441  19.297   5.520   6.620
36148DOPC   D2B 9442  19.717   5.280   6.370
36148DOPC   C3B 9443  20.177   5.270   6.490
36148DOPC   C4B 9444  20.597   5.180   6.510
36149DOPC   NC3 9445   8.937   2.810   8.500
36149DOPC   PO4 9446   8.517   2.950   8.640
36149DOPC   GL1 9447   8.217   2.840   8.900
36149DOPC   GL2 9448   7.987   2.990   8.740
36149DOPC   C1A 9449   8.317   2.980   9.370
36149DOPC   D2A 9450   8.257   3.190   9.800
36149DOPC   C3A 9451   8.257   3.650   9.820
36149DOPC   C4A 9452   8.357   4.100   9.730
36149DOPC   C1B 9453   7.997   3.220   9.090
36149DOPC   D2B 9454   7.837   3.070   9.550
36149DOPC   C3B 9455   7.657   3.300   9.920
36149DOPC   C4B 9456   7.187   3.430  10.000
36150DOPC   NC3 9457   3.837   4.230   4.180
36150DOPC   PO4 9458   3.517   4.140   3.930
36150DOPC   GL1 9459   3.327   3.990   4.250
36150DOPC   GL2 9460   3.137   4.040   4.280
36150DOPC   C1A 9461   3.497   3.620   4.380
36150DOPC   D2A 9462   3.587   3.210   4.680
36150DOPC   C3A 9463   3.657   3.580   4.850
36150DOPC   C4A 9464   3.607   4.060   5.020
36150DOPC   C1B 9465   2.737   3.970   4.560
36150DOPC   D2B 9466   2.367   3.860   4.850
36150DOPC   C3B 9467   1.927   3.840   4.940
36150DOPC   C4B 9468   1.567   4.170   4.990
36151DOPC   NC3 9469  13.067   5.380  11.940
36151DOPC   PO4 9470  12.697   5.530  11.800
36151DOPC   GL1 9471  12.467   5.610  12.110
36151DOPC   GL2 9472  12.727   5.600  12.360
36151DOPC   C1A 9473  12.347   5.930  12.360
36151DOPC   D2A 9474  12.287   5.990  12.800
36151DOPC   C3A 9475  12.577   5.970  13.200
36151DOPC   C4A 9476  12.627   6.210  13.590
36151DOPC   C1B 9477  12.767   5.570  12.790
36151DOPC   D2B 9478  12.657   5.370  13.300
36151DOPC   C3B 9479  12.757   5.690  13.630
36151DOPC   C4B 9480  13.077   6.000  13.770
36152DOPC   NC3 9481  17.217   7.110   8.130
36152DOPC   PO4 9482  17.367   7.450   7.960
36152DOPC   GL1 9483  17.867   7.410   7.990
36152DOPC   GL2 9484  17.757   7.380   8.240
36152DOPC   C1A 9485  18.297   7.510   8.130
36152DOPC   D2A 9486  18.467   7.590   8.540
36152DOPC   C3A 9487  18.797   7.630   8.800
36152DOPC   C4A 9488  19.097   7.470   9.160
36152DOPC   C1B 9489  17.937   7.650   8.480
36152DOPC   D2B 9490  18.157   0.060   8.850
36152DOPC   C3B 9491  18.487   0.350   8.860
36152DOPC   C4B 9492  18.767   0.700   9.110
36153DOPC   NC3 9493   2.317   4.560   3.700
36153DOPC   PO4 9494   2.737   4.520   3.690
36153DOPC   GL1 9495   2.797   4.540   4.150
36153DOPC   GL2 9496   2.567   4.710   4.140
36153DOPC   C1A 9497   3.067   4.470   4.500
36153DOPC   D2A 9498   3.497   4.260   4.560
36153DOPC   C3A 9499   3.217   3.880   4.730
36153DOPC   C4A 9500   2.857   3.750   4.960
36153DOPC   C1B 9501   2.157   4.530   4.200
36153DOPC   D2B 9502   1.767   4.510   4.620
36153DOPC   C3B 9503   1.677   4.640   5.050
36153DOPC   C4B 9504   1.677   4.570   5.520
36154DOPC   NC3 9505   0.047   3.280   2.990
36154DOPC   PO4 9506  24.820   3.170   3.130
36154DOPC   GL1 9507  24.840   3.240   3.580
36154DOPC   GL2 9508  24.820   2.880   3.540
36154DOPC   C1A 9509  24.920   3.450   3.950
36154DOPC   D2A 9510  24.870   3.460   4.440
36154DOPC   C3A 9511  24.550   3.280   4.660
36154DOPC   C4A 9512  24.290   2.870   4.860
36154DOPC   C1B 9513  24.430   2.810   3.850
36154DOPC   D2B 9514  24.030   2.820   4.150
36154DOPC   C3B 9515  23.860   2.700   4.620
36154DOPC   C4B 9516  23.950   2.580   5.130
36155DOPC   NC3 9517   9.277   0.690   9.540
36155DOPC   PO4 9518   8.967   0.920   9.610
36155DOPC   GL1 9519   8.527   0.970   9.750
36155DOPC   GL2 9520   8.627   1.280   9.800
36155DOPC   C1A 9521   8.307   0.770  10.030
36155DOPC   D2A 9522   8.357   0.520  10.490
36155DOPC   C3A 9523   8.337   0.840  10.770
36155DOPC   C4A 9524   8.377   1.270  11.060
36155DOPC   C1B 9525   8.407   1.510  10.120
36155DOPC   D2B 9526   7.957   1.690  10.330
36155DOPC   C3B 9527   7.527   1.730  10.450
36155DOPC   C4B 9528   7.077   1.530  10.590
36156DOPC   NC3 9529   1.157   3.180   3.490
36156DOPC   PO4 9530   0.837   3.400   3.320
36156DOPC   GL1 9531   0.687   3.770   3.590
36156DOPC   GL2 9532   0.947   3.580   3.820
36156DOPC   C1A 9533   0.697   4.040   3.910
36156DOPC   D2A 9534   0.617   4.450   4.170
36156DOPC   C3A 9535   0.787   4.190   4.480
36156DOPC   C4A 9536   0.667   3.860   4.850
36156DOPC   C1B 9537   0.727   3.260   3.960
36156DOPC   D2B 9538   0.697   3.130   4.520
36156DOPC   C3B 9539   0.527   3.300   4.880
36156DOPC   C4B 9540   0.317   3.340   5.300
36157DOPC   NC3 9541  15.797   0.680  10.170
36157DOPC   PO4 9542  16.127   0.810  10.300
36157DOPC   GL1 9543  16.477   0.890  10.610
36157DOPC   GL2 9544  16.467   0.640  10.680
36157DOPC   C1A 9545  16.587   1.000  11.080
36157DOPC   D2A 9546  16.597   1.280  11.500
36157DOPC   C3A 9547  16.457   1.180  11.920
36157DOPC   C4A 9548  16.307   1.080  12.400
36157DOPC   C1B 9549  16.627   0.530  11.090
36157DOPC   D2B 9550  16.877   0.380  11.520
36157DOPC   C3B 9551  16.677   0.030  11.770
36157DOPC   C4B 9552  16.367   7.780  12.120
36158DOPC   NC3 9553  16.777   1.260   9.710
36158DOPC   PO4 9554  16.867   0.880   9.590
36158DOPC   GL1 9555  16.967   0.800   9.990
36158DOPC   GL2 9556  16.957   0.460   9.930
36158DOPC   C1A 9557  17.247   0.930  10.360
36158DOPC   D2A 9558  17.487   1.160  10.750
36158DOPC   C3A 9559  17.677   1.530  11.000
36158DOPC   C4A 9560  17.797   1.850  11.280
36158DOPC   C1B 9561  17.267   0.240   9.990
36158DOPC   D2B 9562  17.567   7.810  10.270
36158DOPC   C3B 9563  17.757   7.530  10.650
36158DOPC   C4B 9564  17.727   7.200  11.010
36159DOPC   NC3 9565  13.257   6.080  11.030
36159DOPC   PO4 9566  13.307   6.180  11.430
36159DOPC   GL1 9567  13.187   6.200  11.790
36159DOPC   GL2 9568  13.397   5.960  11.910
36159DOPC   C1A 9569  13.077   6.410  12.150
36159DOPC   D2A 9570  13.137   6.690  12.560
36159DOPC   C3A 9571  13.517   6.670  12.850
36159DOPC   C4A 9572  13.897   7.030  13.020
36159DOPC   C1B 9573  13.817   5.990  12.090
36159DOPC   D2B 9574  14.157   6.070  12.480
36159DOPC   C3B 9575  14.287   6.240  12.900
36159DOPC   C4B 9576  14.437   6.650  13.130
36160DOPC   NC3 9577   8.237   2.980   8.240
36160DOPC   PO4 9578   8.117   2.660   8.390
36160DOPC   GL1 9579   7.987   2.480   8.760
36160DOPC   GL2 9580   7.677   2.610   8.720
36160DOPC   C1A 9581   8.017   2.510   9.220
36160DOPC   D2A 9582   8.027   2.270   9.640
36160DOPC   C3A 9583   7.637   2.580   9.740
36160DOPC   C4A 9584   7.447   2.890  10.120
36160DOPC   C1B 9585   7.297   2.440   8.820
36160DOPC   D2B 9586   6.877   2.270   8.970
36160DOPC   C3B 9587   6.517   2.180   9.260
36160DOPC   C4B 9588   6.337   2.140   9.720
36161DOPC   NC3 9589   1.787   5.750   3.700
36161DOPC   PO4 9590   1.727   5.370   3.810
36161DOPC   GL1 9591   1.517   5.470   4.180
36161DOPC   GL2 9592   1.647   5.270   4.310
36161DOPC   C1A 9593   1.427   5.810   4.450
36161DOPC   D2A 9594   1.367   6.180   4.830
36161DOPC   C3A 9595   1.527   6.450   5.220
36161DOPC   C4A 9596   1.777   6.540   5.570
36161DOPC   C1B 9597   1.847   5.180   4.700
36161DOPC   D2B 9598   1.967   5.500   5.010
36161DOPC   C3B 9599   2.137   5.750   5.280
36161DOPC   C4B 9600   2.107   6.180   5.570
  25.15308   7.86032  32.58056
